<event>
 7    1  0.3461631E-013  0.5930193E+02  0.7816164E-02  0.1266605E+00
        -11   -1    0    0    0    0  0.00000000000E+00  0.00000000000E+00  0.45593999997E+02  0.45594000000E+02  0.51100000000E-03 0.  1.
         11   -1    0    0    0    0 -0.00000000000E+00 -0.00000000000E+00 -0.45593999997E+02  0.45594000000E+02  0.51100000000E-03 0. -1.
    9900012    2    1    2    0    0 -0.79769157433E+01  0.22268209084E+02  0.21382639073E+02  0.59301928208E+02  0.49999971148E+02 0.  0.
         12    1    1    2    0    0  0.79769157433E+01 -0.22268209084E+02 -0.21382639073E+02  0.31886071792E+02  0.00000000000E+00 0. -1.
         11    1    3    3    0    0  0.12024171657E+02  0.52245757873E+01 -0.41614948746E+00  0.13116786072E+02  0.51100000000E-03 0. -1.
        -11    1    3    3    0    0 -0.40511796823E+01 -0.88909678046E+01  0.23248017613E+01  0.10043210085E+02  0.51100000000E-03 0.  1.
        -12    1    3    3    0    0 -0.15949907718E+02  0.25934601101E+02  0.19473986800E+02  0.36141932051E+02  0.00000000000E+00 0.  1.
</event>
<event>
 7    1  0.3461631E-013  0.5930197E+02  0.7816164E-02  0.1266605E+00
        -11   -1    0    0    0    0  0.00000000000E+00  0.00000000000E+00  0.45593999997E+02  0.45594000000E+02  0.51100000000E-03 0.  1.
         11   -1    0    0    0    0 -0.00000000000E+00 -0.00000000000E+00 -0.45593999997E+02  0.45594000000E+02  0.51100000000E-03 0. -1.
    9900012    2    1    2    0    0  0.16497633470E+02 -0.21813873007E+02  0.16392137137E+02  0.59301966606E+02  0.50000041178E+02 0.  0.
         12    1    1    2    0    0 -0.16497633470E+02  0.21813873007E+02 -0.16392137137E+02  0.31886033394E+02  0.00000000000E+00 0. -1.
         11    1    3    3    0    0  0.20525067614E+02 -0.42068471041E+01 -0.10771493381E+02  0.23558459904E+02  0.51100000000E-03 0. -1.
        -11    1    3    3    0    0 -0.18838873307E+01 -0.73533487465E+01  0.11211600648E+01  0.76731850893E+01  0.51100000000E-03 0.  1.
        -12    1    3    3    0    0 -0.21435468139E+01 -0.10253677156E+02  0.26042470453E+02  0.28070321613E+02  0.00000000000E+00 0.  1.
</event>
<event>
 7    1  0.3461631E-013  0.5930193E+02  0.7816164E-02  0.1266605E+00
        -11   -1    0    0    0    0  0.00000000000E+00  0.00000000000E+00  0.45593999997E+02  0.45594000000E+02  0.51100000000E-03 0.  1.
         11   -1    0    0    0    0 -0.00000000000E+00 -0.00000000000E+00 -0.45593999997E+02  0.45594000000E+02  0.51100000000E-03 0. -1.
    9900012    2    1    2    0    0  0.25563374338E+00  0.24428947391E+02  0.20491034861E+02  0.59301932056E+02  0.49999978166E+02 0.  0.
         12    1    1    2    0    0 -0.25563374338E+00 -0.24428947391E+02 -0.20491034861E+02  0.31886067944E+02  0.00000000000E+00 0. -1.
         11    1    3    3    0    0 -0.26861187141E+01 -0.79796701216E+01  0.73853564315E+01  0.11199725839E+02  0.51100000000E-03 0. -1.
        -11    1    3    3    0    0  0.11280245103E+02  0.44168850926E+01  0.14459587975E+02  0.18863522687E+02  0.51100000000E-03 0.  1.
        -12    1    3    3    0    0 -0.83384926451E+01  0.27991732420E+02 -0.13539095449E+01  0.29238683529E+02  0.00000000000E+00 0.  1.
</event>
<event>
 7    1  0.3461631E-013  0.5930197E+02  0.7816164E-02  0.1266605E+00
        -11   -1    0    0    0    0  0.00000000000E+00  0.00000000000E+00  0.45593999997E+02  0.45594000000E+02  0.51100000000E-03 0.  1.
         11   -1    0    0    0    0 -0.00000000000E+00 -0.00000000000E+00 -0.45593999997E+02  0.45594000000E+02  0.51100000000E-03 0. -1.
    9900012    2    1    2    0    0  0.24204101717E+02  0.20695060261E+02  0.16108807027E+01  0.59301968642E+02  0.50000044890E+02 0.  0.
         12    1    1    2    0    0 -0.24204101717E+02 -0.20695060261E+02 -0.16108807027E+01  0.31886031358E+02  0.00000000000E+00 0. -1.
         11    1    3    3    0    0  0.11393936757E+02  0.31330260685E+00 -0.10929887415E+02  0.15791845760E+02  0.51100000000E-03 0. -1.
        -11    1    3    3    0    0  0.14820943965E+02  0.10216078499E+01  0.17957537195E+02  0.23306162382E+02  0.51100000000E-03 0.  1.
        -12    1    3    3    0    0 -0.20107790046E+01  0.19360149805E+02 -0.54167690769E+01  0.20203960500E+02  0.00000000000E+00 0.  1.
</event>
<event>
 7    1  0.3461631E-013  0.5930194E+02  0.7816164E-02  0.1266605E+00
        -11   -1    0    0    0    0  0.00000000000E+00  0.00000000000E+00  0.45593999997E+02  0.45594000000E+02  0.51100000000E-03 0. -1.
         11   -1    0    0    0    0 -0.00000000000E+00 -0.00000000000E+00 -0.45593999997E+02  0.45594000000E+02  0.51100000000E-03 0.  1.
    9900012    2    1    2    0    0 -0.16311983560E+02 -0.38384673059E+01 -0.27127589427E+02  0.59301941181E+02  0.49999994808E+02 0.  0.
         12    1    1    2    0    0  0.16311983560E+02  0.38384673059E+01  0.27127589427E+02  0.31886058819E+02  0.00000000000E+00 0. -1.
         11    1    3    3    0    0 -0.16309158150E+02  0.19191098012E+02 -0.11071414927E+02  0.27511145218E+02  0.51100000000E-03 0. -1.
        -11    1    3    3    0    0  0.11481916748E+01  0.28390322960E+00 -0.64367054223E+01  0.65444726388E+01  0.51100000000E-03 0.  1.
        -12    1    3    3    0    0 -0.11510170843E+01 -0.23313468547E+02 -0.96194690777E+01  0.25246323324E+02  0.00000000000E+00 0.  1.
</event>
<event>
 7    1  0.3461631E-013  0.5930195E+02  0.7816164E-02  0.1266605E+00
        -11   -1    0    0    0    0  0.00000000000E+00  0.00000000000E+00  0.45593999997E+02  0.45594000000E+02  0.51100000000E-03 0. -1.
         11   -1    0    0    0    0 -0.00000000000E+00 -0.00000000000E+00 -0.45593999997E+02  0.45594000000E+02  0.51100000000E-03 0.  1.
    9900012    2    1    2    0    0 -0.11038987025E+02  0.29506747332E+02 -0.49206552918E+01  0.59301949427E+02  0.50000009846E+02 0.  0.
         12    1    1    2    0    0  0.11038987025E+02 -0.29506747332E+02  0.49206552918E+01  0.31886050573E+02  0.00000000000E+00 0. -1.
         11    1    3    3    0    0 -0.11820197900E+02  0.20114884692E+02  0.39358835580E+00  0.23334107582E+02  0.51100000000E-03 0. -1.
        -11    1    3    3    0    0 -0.55887506580E+01  0.20766706600E+02  0.90237580544E+00  0.21524509734E+02  0.51100000000E-03 0.  1.
         12    1    3    3    0    0  0.63699615329E+01 -0.11374843960E+02 -0.62166194530E+01  0.14443332111E+02  0.00000000000E+00 0. -1.
</event>
<event>
 7    1  0.3461631E-013  0.5930193E+02  0.7816164E-02  0.1266605E+00
        -11   -1    0    0    0    0  0.00000000000E+00  0.00000000000E+00  0.45593999997E+02  0.45594000000E+02  0.51100000000E-03 0.  1.
         11   -1    0    0    0    0 -0.00000000000E+00 -0.00000000000E+00 -0.45593999997E+02  0.45594000000E+02  0.51100000000E-03 0. -1.
    9900012    2    1    2    0    0  0.24855176103E+01  0.31526594351E+02 -0.40764575549E+01  0.59301930074E+02  0.49999974552E+02 0.  0.
         12    1    1    2    0    0 -0.24855176103E+01 -0.31526594351E+02  0.40764575549E+01  0.31886069926E+02  0.00000000000E+00 0. -1.
         11    1    3    3    0    0  0.65750954105E+01  0.18658249492E+02 -0.18454662256E+02  0.27054328914E+02  0.51100000000E-03 0. -1.
        -11    1    3    3    0    0 -0.94661910353E+01 -0.34800679970E+01  0.42936260468E+00  0.10094751036E+02  0.51100000000E-03 0.  1.
        -12    1    3    3    0    0  0.53766132350E+01  0.16348412855E+02  0.13948842096E+02  0.22152850123E+02  0.00000000000E+00 0.  1.
</event>
<event>
 7    1  0.3461631E-013  0.5930195E+02  0.7816164E-02  0.1266605E+00
        -11   -1    0    0    0    0  0.00000000000E+00  0.00000000000E+00  0.45593999997E+02  0.45594000000E+02  0.51100000000E-03 0. -1.
         11   -1    0    0    0    0 -0.00000000000E+00 -0.00000000000E+00 -0.45593999997E+02  0.45594000000E+02  0.51100000000E-03 0.  1.
    9900012    2    1    2    0    0 -0.21910874981E+02 -0.22428060446E+02 -0.57979079502E+01  0.59301951728E+02  0.50000014044E+02 0.  0.
         12    1    1    2    0    0  0.21910874981E+02  0.22428060446E+02  0.57979079502E+01  0.31886048272E+02  0.00000000000E+00 0. -1.
         11    1    3    3    0    0 -0.24219012825E+02 -0.23596535476E+02 -0.11875746348E+01  0.33834411513E+02  0.51100000000E-03 0.  1.
        -11    1    3    3    0    0 -0.97091549337E+01  0.67133635394E+01 -0.18560117630E+01  0.11949130490E+02  0.51100000000E-03 0. -1.
         12    1    3    3    0    0  0.12017292778E+02 -0.55448885088E+01 -0.27543215523E+01  0.13518409725E+02  0.00000000000E+00 0. -1.
</event>
<event>
 7    1  0.3461631E-013  0.5930194E+02  0.7816164E-02  0.1266605E+00
        -11   -1    0    0    0    0  0.00000000000E+00  0.00000000000E+00  0.45593999997E+02  0.45594000000E+02  0.51100000000E-03 0.  1.
         11   -1    0    0    0    0 -0.00000000000E+00 -0.00000000000E+00 -0.45593999997E+02  0.45594000000E+02  0.51100000000E-03 0. -1.
    9900012    2    1    2    0    0  0.60153220691E+01 -0.27905466888E+02 -0.14206393891E+02  0.59301940206E+02  0.49999993030E+02 0.  0.
         12    1    1    2    0    0 -0.60153220691E+01  0.27905466888E+02  0.14206393891E+02  0.31886059794E+02  0.00000000000E+00 0. -1.
         11    1    3    3    0    0  0.20174813701E+02 -0.25658652432E+02  0.11384342802E+01  0.32660152868E+02  0.51100000000E-03 0. -1.
        -11    1    3    3    0    0 -0.91144897738E+01 -0.93086965729E+01 -0.81375565727E+01  0.15360520270E+02  0.51100000000E-03 0.  1.
        -12    1    3    3    0    0 -0.50450018576E+01  0.70618821168E+01 -0.72072715982E+01  0.11281267068E+02  0.00000000000E+00 0.  1.
</event>
<event>
 7    1  0.3461631E-013  0.5930202E+02  0.7816164E-02  0.1266604E+00
        -11   -1    0    0    0    0  0.00000000000E+00  0.00000000000E+00  0.45593999997E+02  0.45594000000E+02  0.51100000000E-03 0. -1.
         11   -1    0    0    0    0 -0.00000000000E+00 -0.00000000000E+00 -0.45593999997E+02  0.45594000000E+02  0.51100000000E-03 0.  1.
    9900012    2    1    2    0    0  0.16636146961E+02 -0.14293371519E+02 -0.23144198117E+02  0.59302019357E+02  0.50000137383E+02 0.  0.
         12    1    1    2    0    0 -0.16636146961E+02  0.14293371519E+02  0.23144198117E+02  0.31885980643E+02  0.00000000000E+00 0. -1.
         11    1    3    3    0    0 -0.13007518544E+01 -0.19858882858E+01 -0.14095617374E+02  0.14294129462E+02  0.51100000000E-03 0. -1.
        -11    1    3    3    0    0  0.27221301067E+01 -0.11604684218E+02 -0.21995590750E+02  0.25017687760E+02  0.51100000000E-03 0.  1.
         12    1    3    3    0    0  0.15214768708E+02 -0.70279901486E+00  0.12947010007E+02  0.19990202136E+02  0.00000000000E+00 0. -1.
</event>
<event>
 7    1  0.3461631E-013  0.5930194E+02  0.7816164E-02  0.1266605E+00
        -11   -1    0    0    0    0  0.00000000000E+00  0.00000000000E+00  0.45593999997E+02  0.45594000000E+02  0.51100000000E-03 0. -1.
         11   -1    0    0    0    0 -0.00000000000E+00 -0.00000000000E+00 -0.45593999997E+02  0.45594000000E+02  0.51100000000E-03 0.  1.
    9900012    2    1    2    0    0 -0.14483950753E+02 -0.25594476870E+02  0.12323110104E+02  0.59301935359E+02  0.49999984190E+02 0.  0.
         12    1    1    2    0    0  0.14483950753E+02  0.25594476870E+02 -0.12323110104E+02  0.31886064641E+02  0.00000000000E+00 0. -1.
         11    1    3    3    0    0 -0.93624118534E+01  0.64724658687E+01  0.64733431721E+01  0.13093958233E+02  0.51100000000E-03 0. -1.
        -11    1    3    3    0    0 -0.17665688628E+02 -0.10760912756E+02 -0.46290130473E+00  0.20690289412E+02  0.51100000000E-03 0.  1.
        -12    1    3    3    0    0  0.12544149729E+02 -0.21306029982E+02  0.63126682367E+01  0.25517687714E+02  0.00000000000E+00 0.  1.
</event>
<event>
 7    1  0.3461631E-013  0.5930194E+02  0.7816164E-02  0.1266605E+00
        -11   -1    0    0    0    0  0.00000000000E+00  0.00000000000E+00  0.45593999997E+02  0.45594000000E+02  0.51100000000E-03 0. -1.
         11   -1    0    0    0    0 -0.00000000000E+00 -0.00000000000E+00 -0.45593999997E+02  0.45594000000E+02  0.51100000000E-03 0.  1.
    9900012    2    1    2    0    0 -0.48530758941E+01 -0.30612814605E+02 -0.74849423283E+01  0.59301935249E+02  0.49999983989E+02 0.  0.
         12    1    1    2    0    0  0.48530758941E+01  0.30612814605E+02  0.74849423283E+01  0.31886064751E+02  0.00000000000E+00 0. -1.
         11    1    3    3    0    0  0.15401321848E+00 -0.39327830455E+01  0.11400061209E+02  0.12060344041E+02  0.51100000000E-03 0. -1.
        -11    1    3    3    0    0 -0.13953334284E+02 -0.20481460004E+02  0.74749254035E+00  0.24794041358E+02  0.51100000000E-03 0.  1.
        -12    1    3    3    0    0  0.89462451713E+01 -0.61985715557E+01 -0.19632496078E+02  0.22447549850E+02  0.00000000000E+00 0.  1.
</event>
<event>
 7    1  0.3461631E-013  0.5930156E+02  0.7816164E-02  0.1266606E+00
        -11   -1    0    0    0    0  0.00000000000E+00  0.00000000000E+00  0.45593999997E+02  0.45594000000E+02  0.51100000000E-03 0. -1.
         11   -1    0    0    0    0 -0.00000000000E+00 -0.00000000000E+00 -0.45593999997E+02  0.45594000000E+02  0.51100000000E-03 0.  1.
    9900012    2    1    2    0    0  0.23321677624E+02 -0.21169660018E+02 -0.49688997209E+01  0.59301559043E+02  0.49999297876E+02 0.  0.
         12    1    1    2    0    0 -0.23321677624E+02  0.21169660018E+02  0.49688997209E+01  0.31886440957E+02  0.00000000000E+00 0. -1.
         11    1    3    3    0    0 -0.15085523309E+01 -0.14962715042E+02 -0.54684018847E+01  0.16001937101E+02  0.51100000000E-03 0. -1.
        -11    1    3    3    0    0 -0.37979640475E+01  0.95671398788E+01  0.23596177962E+01  0.10560421051E+02  0.51100000000E-03 0.  1.
        -12    1    3    3    0    0  0.28628194002E+02 -0.15774084855E+02 -0.18601156324E+01  0.32739200891E+02  0.00000000000E+00 0.  1.
</event>
<event>
 7    1  0.3461631E-013  0.5930192E+02  0.7816164E-02  0.1266605E+00
        -11   -1    0    0    0    0  0.00000000000E+00  0.00000000000E+00  0.45593999997E+02  0.45594000000E+02  0.51100000000E-03 0. -1.
         11   -1    0    0    0    0 -0.00000000000E+00 -0.00000000000E+00 -0.45593999997E+02  0.45594000000E+02  0.51100000000E-03 0.  1.
    9900012    2    1    2    0    0  0.55947497652E+01  0.30495891628E+02  0.74445597851E+01  0.59301919942E+02  0.49999956073E+02 0.  0.
         12    1    1    2    0    0 -0.55947497652E+01 -0.30495891628E+02 -0.74445597851E+01  0.31886080058E+02  0.00000000000E+00 0. -1.
         11    1    3    3    0    0  0.16357176100E+02  0.68750638764E+01  0.20409934815E+02  0.27044207378E+02  0.51100000000E-03 0. -1.
        -11    1    3    3    0    0  0.22970976408E+01  0.82088611451E+00  0.83558624519E+00  0.25785104651E+01  0.51100000000E-03 0.  1.
        -12    1    3    3    0    0 -0.13059523976E+02  0.22799941637E+02 -0.13800961275E+02  0.29679202099E+02  0.00000000000E+00 0.  1.
</event>
<event>
 7    1  0.3461631E-013  0.5930198E+02  0.7816164E-02  0.1266605E+00
        -11   -1    0    0    0    0  0.00000000000E+00  0.00000000000E+00  0.45593999997E+02  0.45594000000E+02  0.51100000000E-03 0.  1.
         11   -1    0    0    0    0 -0.00000000000E+00 -0.00000000000E+00 -0.45593999997E+02  0.45594000000E+02  0.51100000000E-03 0. -1.
    9900012    2    1    2    0    0  0.24142329157E+02  0.24834796243E+01 -0.20680874423E+02  0.59301979629E+02  0.50000064928E+02 0.  0.
         12    1    1    2    0    0 -0.24142329157E+02 -0.24834796243E+01  0.20680874423E+02  0.31886020371E+02  0.00000000000E+00 0. -1.
         11    1    3    3    0    0  0.63204765709E+01 -0.16007279767E+01  0.16633929636E+01  0.67288654728E+01  0.51100000000E-03 0. -1.
        -11    1    3    3    0    0 -0.30264595694E+00  0.21661113192E+02 -0.59350410810E+01  0.22461525597E+02  0.51100000000E-03 0.  1.
         12    1    3    3    0    0  0.18124498543E+02 -0.17576905591E+02 -0.16409226306E+02  0.30111588559E+02  0.00000000000E+00 0. -1.
</event>
<event>
 7    1  0.3461631E-013  0.5930194E+02  0.7816164E-02  0.1266605E+00
        -11   -1    0    0    0    0  0.00000000000E+00  0.00000000000E+00  0.45593999997E+02  0.45594000000E+02  0.51100000000E-03 0.  1.
         11   -1    0    0    0    0 -0.00000000000E+00 -0.00000000000E+00 -0.45593999997E+02  0.45594000000E+02  0.51100000000E-03 0. -1.
    9900012    2    1    2    0    0  0.75888167679E+01  0.66775603016E+00  0.30962632249E+02  0.59301942956E+02  0.49999998045E+02 0.  0.
         12    1    1    2    0    0 -0.75888167679E+01 -0.66775603016E+00 -0.30962632249E+02  0.31886057044E+02  0.00000000000E+00 0. -1.
         11    1    3    3    0    0 -0.93341488803E+01 -0.13797376506E+02  0.78643906788E+01  0.18421253345E+02  0.51100000000E-03 0. -1.
        -11    1    3    3    0    0  0.47195515207E+01 -0.37625095762E+01 -0.30396569057E+01  0.67579700527E+01  0.51100000000E-03 0.  1.
        -12    1    3    3    0    0  0.12203414128E+02  0.18227642113E+02  0.26137898476E+02  0.34122719559E+02  0.00000000000E+00 0.  1.
</event>
<event>
 7    1  0.3461631E-013  0.5930195E+02  0.7816164E-02  0.1266605E+00
        -11   -1    0    0    0    0  0.00000000000E+00  0.00000000000E+00  0.45593999997E+02  0.45594000000E+02  0.51100000000E-03 0. -1.
         11   -1    0    0    0    0 -0.00000000000E+00 -0.00000000000E+00 -0.45593999997E+02  0.45594000000E+02  0.51100000000E-03 0.  1.
    9900012    2    1    2    0    0  0.57167260369E+01  0.25490998647E+02 -0.18282452815E+02  0.59301952118E+02  0.50000014755E+02 0.  0.
         12    1    1    2    0    0 -0.57167260369E+01 -0.25490998647E+02  0.18282452815E+02  0.31886047882E+02  0.00000000000E+00 0. -1.
         11    1    3    3    0    0  0.30477306045E+01  0.13742674568E+02 -0.12243714944E+02  0.18656321234E+02  0.51100000000E-03 0. -1.
        -11    1    3    3    0    0  0.84258510231E+00  0.25104147583E+02 -0.92861621087E+01  0.26779861510E+02  0.51100000000E-03 0.  1.
         12    1    3    3    0    0  0.18264103301E+01 -0.13355823504E+02  0.32474242373E+01  0.13865769374E+02  0.00000000000E+00 0. -1.
</event>
<event>
 7    1  0.3461631E-013  0.5930195E+02  0.7816164E-02  0.1266605E+00
        -11   -1    0    0    0    0  0.00000000000E+00  0.00000000000E+00  0.45593999997E+02  0.45594000000E+02  0.51100000000E-03 0. -1.
         11   -1    0    0    0    0 -0.00000000000E+00 -0.00000000000E+00 -0.45593999997E+02  0.45594000000E+02  0.51100000000E-03 0.  1.
    9900012    2    1    2    0    0  0.20059335274E+02  0.13945746339E+02  0.20490470065E+02  0.59301950761E+02  0.50000012280E+02 0.  0.
         12    1    1    2    0    0 -0.20059335274E+02 -0.13945746339E+02 -0.20490470065E+02  0.31886049239E+02  0.00000000000E+00 0. -1.
         11    1    3    3    0    0  0.21106897063E+02  0.17193487487E+02  0.19816710595E+02  0.33672230913E+02  0.51100000000E-03 0. -1.
        -11    1    3    3    0    0  0.62146645675E+01 -0.42740287238E+01  0.10771336449E+02  0.13149565254E+02  0.51100000000E-03 0.  1.
         12    1    3    3    0    0 -0.72622263561E+01  0.10262875751E+01 -0.10097576979E+02  0.12480154593E+02  0.00000000000E+00 0. -1.
</event>
<event>
 7    1  0.3461631E-013  0.5930195E+02  0.7816164E-02  0.1266605E+00
        -11   -1    0    0    0    0  0.00000000000E+00  0.00000000000E+00  0.45593999997E+02  0.45594000000E+02  0.51100000000E-03 0.  1.
         11   -1    0    0    0    0 -0.00000000000E+00 -0.00000000000E+00 -0.45593999997E+02  0.45594000000E+02  0.51100000000E-03 0. -1.
    9900012    2    1    2    0    0 -0.23843398939E+02 -0.21103090653E+02 -0.16947881026E+01  0.59301946390E+02  0.50000004309E+02 0.  0.
         12    1    1    2    0    0  0.23843398939E+02  0.21103090653E+02  0.16947881026E+01  0.31886053610E+02  0.00000000000E+00 0. -1.
         11    1    3    3    0    0 -0.21990788956E+02 -0.61847913461E+01 -0.85678450126E+01  0.24397836201E+02  0.51100000000E-03 0. -1.
        -11    1    3    3    0    0 -0.12810962256E+02 -0.17914664980E+02  0.83784670458E+00  0.22039917482E+02  0.51100000000E-03 0.  1.
        -12    1    3    3    0    0  0.10958352272E+02  0.29963656733E+01  0.60352102054E+01  0.12864192707E+02  0.00000000000E+00 0.  1.
</event>
<event>
 7    1  0.3461631E-013  0.5930195E+02  0.7816164E-02  0.1266605E+00
        -11   -1    0    0    0    0  0.00000000000E+00  0.00000000000E+00  0.45593999997E+02  0.45594000000E+02  0.51100000000E-03 0.  1.
         11   -1    0    0    0    0 -0.00000000000E+00 -0.00000000000E+00 -0.45593999997E+02  0.45594000000E+02  0.51100000000E-03 0. -1.
    9900012    2    1    2    0    0  0.96020091306E+01  0.12833924719E+02  0.27564690771E+02  0.59301946931E+02  0.50000005295E+02 0.  0.
         12    1    1    2    0    0 -0.96020091306E+01 -0.12833924719E+02 -0.27564690771E+02  0.31886053069E+02  0.00000000000E+00 0. -1.
         11    1    3    3    0    0 -0.12049413042E+02 -0.69610473205E+01  0.10537166414E+02  0.17454982405E+02  0.51100000000E-03 0. -1.
        -11    1    3    3    0    0 -0.21948354631E+01 -0.34498179929E+01 -0.65725377058E+00  0.41413197986E+01  0.51100000000E-03 0.  1.
        -12    1    3    3    0    0  0.23846257636E+02  0.23244790032E+02  0.17684778128E+02  0.37705644727E+02  0.00000000000E+00 0.  1.
</event>
<event>
 7    1  0.3461631E-013  0.5930195E+02  0.7816164E-02  0.1266605E+00
        -11   -1    0    0    0    0  0.00000000000E+00  0.00000000000E+00  0.45593999997E+02  0.45594000000E+02  0.51100000000E-03 0.  1.
         11   -1    0    0    0    0 -0.00000000000E+00 -0.00000000000E+00 -0.45593999997E+02  0.45594000000E+02  0.51100000000E-03 0. -1.
    9900012    2    1    2    0    0 -0.55434272717E+00  0.20886807067E+02  0.24086386934E+02  0.59301952254E+02  0.50000015003E+02 0.  0.
         12    1    1    2    0    0  0.55434272717E+00 -0.20886807067E+02 -0.24086386934E+02  0.31886047746E+02  0.00000000000E+00 0. -1.
         11    1    3    3    0    0  0.44624069360E+01 -0.90647534426E+01  0.52370583474E+01  0.11380228953E+02  0.51100000000E-03 0. -1.
        -11    1    3    3    0    0  0.81745473024E+01 -0.20270626299E+01  0.81312493530E+01  0.11706810958E+02  0.51100000000E-03 0.  1.
         12    1    3    3    0    0 -0.13191296966E+02  0.31978623139E+02  0.10718079234E+02  0.36214912343E+02  0.00000000000E+00 0. -1.
</event>
<event>
 7    1  0.3461631E-013  0.5930194E+02  0.7816164E-02  0.1266605E+00
        -11   -1    0    0    0    0  0.00000000000E+00  0.00000000000E+00  0.45593999997E+02  0.45594000000E+02  0.51100000000E-03 0. -1.
         11   -1    0    0    0    0 -0.00000000000E+00 -0.00000000000E+00 -0.45593999997E+02  0.45594000000E+02  0.51100000000E-03 0.  1.
    9900012    2    1    2    0    0 -0.25795567413E+02 -0.13291976282E+02 -0.13214878582E+02  0.59301938036E+02  0.49999989073E+02 0.  0.
         12    1    1    2    0    0  0.25795567413E+02  0.13291976282E+02  0.13214878582E+02  0.31886061964E+02  0.00000000000E+00 0. -1.
         11    1    3    3    0    0  0.34393660562E+01  0.33308917653E+01  0.89386286826E+01  0.10140175630E+02  0.51100000000E-03 0. -1.
        -11    1    3    3    0    0 -0.23332260642E+02 -0.17537652888E+02 -0.32877482206E+01  0.29372996853E+02  0.51100000000E-03 0.  1.
         12    1    3    3    0    0 -0.59026728269E+01  0.91478484111E+00 -0.18865759044E+02  0.19788765553E+02  0.00000000000E+00 0. -1.
</event>
<event>
 7    1  0.3461631E-013  0.5930173E+02  0.7816164E-02  0.1266605E+00
        -11   -1    0    0    0    0  0.00000000000E+00  0.00000000000E+00  0.45593999997E+02  0.45594000000E+02  0.51100000000E-03 0. -1.
         11   -1    0    0    0    0 -0.00000000000E+00 -0.00000000000E+00 -0.45593999997E+02  0.45594000000E+02  0.51100000000E-03 0.  1.
    9900012    2    1    2    0    0 -0.15030671802E+02 -0.84783885138E+01 -0.26812869750E+02  0.59301730998E+02  0.49999611484E+02 0.  0.
         12    1    1    2    0    0  0.15030671802E+02  0.84783885138E+01  0.26812869750E+02  0.31886269002E+02  0.00000000000E+00 0. -1.
         11    1    3    3    0    0 -0.38481247467E+01 -0.60869657752E+01  0.10541069415E+02  0.12766102032E+02  0.51100000000E-03 0. -1.
        -11    1    3    3    0    0 -0.66132798326E+01  0.84720717748E+01 -0.45358325687E+01  0.11665558180E+02  0.51100000000E-03 0.  1.
        -12    1    3    3    0    0 -0.45692672230E+01 -0.10863494513E+02 -0.32818106597E+02  0.34870070786E+02  0.00000000000E+00 0.  1.
</event>
<event>
 7    1  0.3461631E-013  0.5930193E+02  0.7816164E-02  0.1266605E+00
        -11   -1    0    0    0    0  0.00000000000E+00  0.00000000000E+00  0.45593999997E+02  0.45594000000E+02  0.51100000000E-03 0.  1.
         11   -1    0    0    0    0 -0.00000000000E+00 -0.00000000000E+00 -0.45593999997E+02  0.45594000000E+02  0.51100000000E-03 0. -1.
    9900012    2    1    2    0    0  0.30342311455E+02 -0.26670864370E+01  0.94314387061E+01  0.59301933284E+02  0.49999980407E+02 0.  0.
         12    1    1    2    0    0 -0.30342311455E+02  0.26670864370E+01 -0.94314387061E+01  0.31886066716E+02  0.00000000000E+00 0. -1.
         11    1    3    3    0    0 -0.38719005946E+01 -0.12329012891E+02 -0.39006703384E+01  0.13498570385E+02  0.51100000000E-03 0. -1.
        -11    1    3    3    0    0  0.14895443866E+02 -0.77430112775E+01  0.10121993870E+02  0.19603143416E+02  0.51100000000E-03 0.  1.
        -12    1    3    3    0    0  0.19318768184E+02  0.17404937731E+02  0.32101151743E+01  0.26200219484E+02  0.00000000000E+00 0.  1.
</event>
<event>
 7    1  0.3461631E-013  0.5930196E+02  0.7816164E-02  0.1266605E+00
        -11   -1    0    0    0    0  0.00000000000E+00  0.00000000000E+00  0.45593999997E+02  0.45594000000E+02  0.51100000000E-03 0.  1.
         11   -1    0    0    0    0 -0.00000000000E+00 -0.00000000000E+00 -0.45593999997E+02  0.45594000000E+02  0.51100000000E-03 0. -1.
    9900012    2    1    2    0    0 -0.90436706514E+01 -0.18196770129E+02  0.24572525631E+02  0.59301961709E+02  0.50000032247E+02 0.  0.
         12    1    1    2    0    0  0.90436706514E+01  0.18196770129E+02 -0.24572525631E+02  0.31886038291E+02  0.00000000000E+00 0. -1.
         11    1    3    3    0    0 -0.19521489236E+01  0.19049328943E+01 -0.42019125284E+01  0.50095632453E+01  0.51100000000E-03 0. -1.
        -11    1    3    3    0    0 -0.11969157592E+02 -0.26048947017E+02  0.47390216628E+01  0.29056267839E+02  0.51100000000E-03 0.  1.
         12    1    3    3    0    0  0.48776358638E+01  0.59472439940E+01  0.24035416497E+02  0.25236130625E+02  0.00000000000E+00 0. -1.
</event>
<event>
 7    1  0.3461631E-013  0.5930195E+02  0.7816164E-02  0.1266605E+00
        -11   -1    0    0    0    0  0.00000000000E+00  0.00000000000E+00  0.45593999997E+02  0.45594000000E+02  0.51100000000E-03 0. -1.
         11   -1    0    0    0    0 -0.00000000000E+00 -0.00000000000E+00 -0.45593999997E+02  0.45594000000E+02  0.51100000000E-03 0.  1.
    9900012    2    1    2    0    0  0.94803398179E+01  0.15670172900E+02 -0.26101510882E+02  0.59301952391E+02  0.50000015253E+02 0.  0.
         12    1    1    2    0    0 -0.94803398179E+01 -0.15670172900E+02  0.26101510882E+02  0.31886047609E+02  0.00000000000E+00 0. -1.
         11    1    3    3    0    0  0.10386787947E+01  0.19188215226E+02 -0.16610761922E+02  0.25400469860E+02  0.51100000000E-03 0. -1.
        -11    1    3    3    0    0  0.20378138646E+02 -0.27388952316E+01 -0.53884619353E+01  0.21255719326E+02  0.51100000000E-03 0.  1.
         12    1    3    3    0    0 -0.11936477623E+02 -0.77914709427E+00 -0.41022870245E+01  0.12645763206E+02  0.00000000000E+00 0. -1.
</event>
<event>
 7    1  0.3461631E-013  0.5930201E+02  0.7816164E-02  0.1266605E+00
        -11   -1    0    0    0    0  0.00000000000E+00  0.00000000000E+00  0.45593999997E+02  0.45594000000E+02  0.51100000000E-03 0. -1.
         11   -1    0    0    0    0 -0.00000000000E+00 -0.00000000000E+00 -0.45593999997E+02  0.45594000000E+02  0.51100000000E-03 0.  1.
    9900012    2    1    2    0    0 -0.11038062415E+02 -0.17142838452E+02 -0.24515317404E+02  0.59302007471E+02  0.50000115706E+02 0.  0.
         12    1    1    2    0    0  0.11038062415E+02  0.17142838452E+02  0.24515317404E+02  0.31885992529E+02  0.00000000000E+00 0. -1.
         11    1    3    3    0    0 -0.80895812027E+01 -0.27911841158E+02 -0.22836873291E+02  0.36959910482E+02  0.51100000000E-03 0. -1.
        -11    1    3    3    0    0 -0.39203419337E+01 -0.50651741800E+01 -0.78465182605E+00  0.64529643653E+01  0.51100000000E-03 0.  1.
         12    1    3    3    0    0  0.97186072116E+00  0.15834176885E+02 -0.89379228745E+00  0.15889132624E+02  0.00000000000E+00 0. -1.
</event>
<event>
 7    1  0.4469939E-013  0.5930195E+02  0.7816164E-02  0.1266605E+00
        -11   -1    0    0    0    0  0.00000000000E+00  0.00000000000E+00  0.45593999997E+02  0.45594000000E+02  0.51100000000E-03 0. -1.
         11   -1    0    0    0    0 -0.00000000000E+00 -0.00000000000E+00 -0.45593999997E+02  0.45594000000E+02  0.51100000000E-03 0.  1.
    9900012    2    1    2    0    0 -0.21640180636E+02 -0.60731497968E+01 -0.22617242709E+02  0.59301949223E+02  0.50000009475E+02 0.  0.
         12    1    1    2    0    0  0.21640180636E+02  0.60731497968E+01  0.22617242709E+02  0.31886050777E+02  0.00000000000E+00 0. -1.
         11    1    3    3    0    0 -0.14341835748E+02 -0.10679199536E+02 -0.21786337685E+01  0.18013328419E+02  0.51100000000E-03 0. -1.
        -11    1    3    3    0    0 -0.95661124680E+01 -0.14086227116E+02 -0.10363539224E+02  0.19933269868E+02  0.51100000000E-03 0.  1.
         12    1    3    3    0    0  0.22677675804E+01  0.18692276855E+02 -0.10075069716E+02  0.21355350936E+02  0.00000000000E+00 0. -1.
</event>
<event>
 7    1  0.3594776E-013  0.5930194E+02  0.7816164E-02  0.1266605E+00
        -11   -1    0    0    0    0  0.00000000000E+00  0.00000000000E+00  0.45593999997E+02  0.45594000000E+02  0.51100000000E-03 0. -1.
         11   -1    0    0    0    0 -0.00000000000E+00 -0.00000000000E+00 -0.45593999997E+02  0.45594000000E+02  0.51100000000E-03 0.  1.
    9900012    2    1    2    0    0  0.24702305874E+01  0.11563216732E+02 -0.29612681064E+02  0.59301938780E+02  0.49999990429E+02 0.  0.
         12    1    1    2    0    0 -0.24702305874E+01 -0.11563216732E+02  0.29612681064E+02  0.31886061220E+02  0.00000000000E+00 0. -1.
         11    1    3    3    0    0 -0.69013944580E+01  0.13896940634E+02 -0.59076024290E+01  0.16602830216E+02  0.51100000000E-03 0. -1.
        -11    1    3    3    0    0 -0.10471007435E+02  0.79011337037E+01 -0.10081780349E+02  0.16544249931E+02  0.51100000000E-03 0.  1.
         12    1    3    3    0    0  0.19842632480E+02 -0.10234857606E+02 -0.13623298286E+02  0.26154858634E+02  0.00000000000E+00 0. -1.
</event>
<event>
 7    1  0.3461631E-013  0.5930195E+02  0.7816164E-02  0.1266605E+00
        -11   -1    0    0    0    0  0.00000000000E+00  0.00000000000E+00  0.45593999997E+02  0.45594000000E+02  0.51100000000E-03 0.  1.
         11   -1    0    0    0    0 -0.00000000000E+00 -0.00000000000E+00 -0.45593999997E+02  0.45594000000E+02  0.51100000000E-03 0. -1.
    9900012    2    1    2    0    0 -0.73057435861E+01  0.10594845121E+02  0.29173546427E+02  0.59301945938E+02  0.50000003485E+02 0.  0.
         12    1    1    2    0    0  0.73057435861E+01 -0.10594845121E+02 -0.29173546427E+02  0.31886054062E+02  0.00000000000E+00 0. -1.
         11    1    3    3    0    0  0.12169962655E+02  0.19698872945E+02  0.80836602684E+01  0.24525479607E+02  0.51100000000E-03 0. -1.
        -11    1    3    3    0    0 -0.21548252840E+01 -0.41119281443E+01  0.15074819824E+02  0.15773440274E+02  0.51100000000E-03 0.  1.
        -12    1    3    3    0    0 -0.17320880957E+02 -0.49920996800E+01  0.60150663344E+01  0.19003026058E+02  0.00000000000E+00 0.  1.
</event>
<event>
 7    1  0.3461631E-013  0.5930193E+02  0.7816164E-02  0.1266605E+00
        -11   -1    0    0    0    0  0.00000000000E+00  0.00000000000E+00  0.45593999997E+02  0.45594000000E+02  0.51100000000E-03 0.  1.
         11   -1    0    0    0    0 -0.00000000000E+00 -0.00000000000E+00 -0.45593999997E+02  0.45594000000E+02  0.51100000000E-03 0. -1.
    9900012    2    1    2    0    0  0.24321733745E+02 -0.32357102440E+01  0.20364298178E+02  0.59301934181E+02  0.49999982041E+02 0.  0.
         12    1    1    2    0    0 -0.24321733745E+02  0.32357102440E+01 -0.20364298178E+02  0.31886065819E+02  0.00000000000E+00 0. -1.
         11    1    3    3    0    0  0.11087777115E+02 -0.20876940186E+01  0.24792007117E+02  0.27238591829E+02  0.51100000000E-03 0. -1.
        -11    1    3    3    0    0  0.15852638196E+01 -0.69301495912E+01  0.10236661197E+02  0.12463116282E+02  0.51100000000E-03 0.  1.
         12    1    3    3    0    0  0.11648692811E+02  0.57821333658E+01 -0.14664370137E+02  0.19600226069E+02  0.00000000000E+00 0. -1.
</event>
<event>
 7    1  0.3461631E-013  0.5930194E+02  0.7816164E-02  0.1266605E+00
        -11   -1    0    0    0    0  0.00000000000E+00  0.00000000000E+00  0.45593999997E+02  0.45594000000E+02  0.51100000000E-03 0. -1.
         11   -1    0    0    0    0 -0.00000000000E+00 -0.00000000000E+00 -0.45593999997E+02  0.45594000000E+02  0.51100000000E-03 0.  1.
    9900012    2    1    2    0    0 -0.38821365017E+01 -0.31319320292E+02  0.45551949257E+01  0.59301943358E+02  0.49999998779E+02 0.  0.
         12    1    1    2    0    0  0.38821365017E+01  0.31319320292E+02 -0.45551949257E+01  0.31886056642E+02  0.00000000000E+00 0. -1.
         11    1    3    3    0    0 -0.92686057047E+01  0.57511592871E+01 -0.61943024261E+00  0.10925501313E+02  0.51100000000E-03 0. -1.
        -11    1    3    3    0    0  0.34692456405E+01 -0.15663046476E+02 -0.12668874011E+02  0.20441796868E+02  0.51100000000E-03 0.  1.
        -12    1    3    3    0    0  0.19172235625E+01 -0.21407433103E+02  0.17843499179E+02  0.27934645177E+02  0.00000000000E+00 0.  1.
</event>
<event>
 7    1  0.3461631E-013  0.5930195E+02  0.7816164E-02  0.1266605E+00
        -11   -1    0    0    0    0  0.00000000000E+00  0.00000000000E+00  0.45593999997E+02  0.45594000000E+02  0.51100000000E-03 0. -1.
         11   -1    0    0    0    0 -0.00000000000E+00 -0.00000000000E+00 -0.45593999997E+02  0.45594000000E+02  0.51100000000E-03 0.  1.
    9900012    2    1    2    0    0 -0.24321570706E+01 -0.30751262226E+02 -0.80724698375E+01  0.59301948414E+02  0.50000007999E+02 0.  0.
         12    1    1    2    0    0  0.24321570706E+01  0.30751262226E+02  0.80724698375E+01  0.31886051586E+02  0.00000000000E+00 0. -1.
         11    1    3    3    0    0 -0.82121850505E+01 -0.31434941909E+00  0.12972380090E+02  0.15356478904E+02  0.51100000000E-03 0. -1.
        -11    1    3    3    0    0 -0.82568421077E+01 -0.66902032796E+01 -0.86551341064E+01  0.13705677954E+02  0.51100000000E-03 0.  1.
        -12    1    3    3    0    0  0.14036870088E+02 -0.23746709527E+02 -0.12389715821E+02  0.30239791556E+02  0.00000000000E+00 0.  1.
</event>
<event>
 7    1  0.3461631E-013  0.5930194E+02  0.7816164E-02  0.1266605E+00
        -11   -1    0    0    0    0  0.00000000000E+00  0.00000000000E+00  0.45593999997E+02  0.45594000000E+02  0.51100000000E-03 0.  1.
         11   -1    0    0    0    0 -0.00000000000E+00 -0.00000000000E+00 -0.45593999997E+02  0.45594000000E+02  0.51100000000E-03 0. -1.
    9900012    2    1    2    0    0  0.12902922060E+02  0.29003988212E+02 -0.30006540038E+01  0.59301942634E+02  0.49999997458E+02 0.  0.
         12    1    1    2    0    0 -0.12902922060E+02 -0.29003988212E+02  0.30006540038E+01  0.31886057366E+02  0.00000000000E+00 0. -1.
         11    1    3    3    0    0  0.76618044711E+01  0.13022476658E+02  0.18107487072E+01  0.15217324246E+02  0.51100000000E-03 0.  1.
        -11    1    3    3    0    0 -0.17523933995E+02  0.99797688169E+01 -0.65086729411E+00  0.20176909496E+02  0.51100000000E-03 0. -1.
         12    1    3    3    0    0  0.22765051585E+02  0.60017427371E+01 -0.41605354169E+01  0.23907708893E+02  0.00000000000E+00 0. -1.
</event>
<event>
 7    1  0.3461631E-013  0.5930173E+02  0.7816164E-02  0.1266605E+00
        -11   -1    0    0    0    0  0.00000000000E+00  0.00000000000E+00  0.45593999997E+02  0.45594000000E+02  0.51100000000E-03 0. -1.
         11   -1    0    0    0    0 -0.00000000000E+00 -0.00000000000E+00 -0.45593999997E+02  0.45594000000E+02  0.51100000000E-03 0.  1.
    9900012    2    1    2    0    0 -0.24495436910E+02 -0.79722588941E+01 -0.18792301497E+02  0.59301734354E+02  0.49999617604E+02 0.  0.
         12    1    1    2    0    0  0.24495436910E+02  0.79722588941E+01  0.18792301497E+02  0.31886265646E+02  0.00000000000E+00 0. -1.
         11    1    3    3    0    0 -0.14038673126E+02  0.62564244622E+00 -0.26574363729E+01  0.14301669131E+02  0.51100000000E-03 0. -1.
        -11    1    3    3    0    0 -0.18660368714E+02 -0.20125438559E+02 -0.76063215427E+01  0.28479795740E+02  0.51100000000E-03 0.  1.
         12    1    3    3    0    0  0.82036049292E+01  0.11527537219E+02 -0.85285435812E+01  0.16520269483E+02  0.00000000000E+00 0. -1.
</event>
<event>
 7    1  0.3461631E-013  0.5930191E+02  0.7816164E-02  0.1266605E+00
        -11   -1    0    0    0    0  0.00000000000E+00  0.00000000000E+00  0.45593999997E+02  0.45594000000E+02  0.51100000000E-03 0.  1.
         11   -1    0    0    0    0 -0.00000000000E+00 -0.00000000000E+00 -0.45593999997E+02  0.45594000000E+02  0.51100000000E-03 0. -1.
    9900012    2    1    2    0    0  0.30241353573E+02 -0.64726460805E+00 -0.10087826979E+02  0.59301911018E+02  0.49999939799E+02 0.  0.
         12    1    1    2    0    0 -0.30241353573E+02  0.64726460805E+00  0.10087826979E+02  0.31886088982E+02  0.00000000000E+00 0. -1.
         11    1    3    3    0    0  0.10327583972E+02  0.52949773491E+01 -0.66878458618E+01  0.13394889263E+02  0.51100000000E-03 0. -1.
        -11    1    3    3    0    0  0.27679804550E+02 -0.32726761600E+00  0.10000195486E+02  0.29432679016E+02  0.51100000000E-03 0.  1.
         12    1    3    3    0    0 -0.77660349494E+01 -0.56149743412E+01 -0.13400176604E+02  0.16474342740E+02  0.00000000000E+00 0. -1.
</event>
<event>
 7    1  0.3461631E-013  0.5930195E+02  0.7816164E-02  0.1266605E+00
        -11   -1    0    0    0    0  0.00000000000E+00  0.00000000000E+00  0.45593999997E+02  0.45594000000E+02  0.51100000000E-03 0. -1.
         11   -1    0    0    0    0 -0.00000000000E+00 -0.00000000000E+00 -0.45593999997E+02  0.45594000000E+02  0.51100000000E-03 0.  1.
    9900012    2    1    2    0    0  0.30384720147E+02 -0.96395444507E+01 -0.75376525267E+00  0.59301949795E+02  0.50000010518E+02 0.  0.
         12    1    1    2    0    0 -0.30384720147E+02  0.96395444507E+01  0.75376525267E+00  0.31886050205E+02  0.00000000000E+00 0. -1.
         11    1    3    3    0    0  0.43040680637E+01 -0.63898198499E+01  0.17113240039E+02  0.18767466118E+02  0.51100000000E-03 0. -1.
        -11    1    3    3    0    0 -0.95194190280E+00 -0.18659294604E+01  0.47948343239E+01  0.52324298937E+01  0.51100000000E-03 0.  1.
        -12    1    3    3    0    0  0.27032593986E+02 -0.13837951403E+01 -0.22661839615E+02  0.35302053783E+02  0.00000000000E+00 0.  1.
</event>
<event>
 7    1  0.3461631E-013  0.5930191E+02  0.7816164E-02  0.1266605E+00
        -11   -1    0    0    0    0  0.00000000000E+00  0.00000000000E+00  0.45593999997E+02  0.45594000000E+02  0.51100000000E-03 0.  1.
         11   -1    0    0    0    0 -0.00000000000E+00 -0.00000000000E+00 -0.45593999997E+02  0.45594000000E+02  0.51100000000E-03 0. -1.
    9900012    2    1    2    0    0  0.60938598345E+01 -0.30437971775E+02  0.72881854149E+01  0.59301907419E+02  0.49999933234E+02 0.  0.
         12    1    1    2    0    0 -0.60938598345E+01  0.30437971775E+02 -0.72881854149E+01  0.31886092581E+02  0.00000000000E+00 0. -1.
         11    1    3    3    0    0 -0.11366798473E+01 -0.24826083121E+01  0.86906751170E+01  0.91095125752E+01  0.51100000000E-03 0. -1.
        -11    1    3    3    0    0  0.91325044541E+00  0.86494304139E+01 -0.87383365588E+01  0.12329038849E+02  0.51100000000E-03 0.  1.
        -12    1    3    3    0    0  0.63172892364E+01 -0.36604793877E+02  0.73358468567E+01  0.37863355995E+02  0.00000000000E+00 0.  1.
</event>
<event>
 7    1  0.3461631E-013  0.5930196E+02  0.7816164E-02  0.1266605E+00
        -11   -1    0    0    0    0  0.00000000000E+00  0.00000000000E+00  0.45593999997E+02  0.45594000000E+02  0.51100000000E-03 0. -1.
         11   -1    0    0    0    0 -0.00000000000E+00 -0.00000000000E+00 -0.45593999997E+02  0.45594000000E+02  0.51100000000E-03 0.  1.
    9900012    2    1    2    0    0 -0.24562677875E+02 -0.20304622625E+02 -0.10567604758E+01  0.59301959370E+02  0.50000027981E+02 0.  0.
         12    1    1    2    0    0  0.24562677875E+02  0.20304622625E+02  0.10567604758E+01  0.31886040630E+02  0.00000000000E+00 0. -1.
         11    1    3    3    0    0  0.54172979905E+00 -0.21747083828E+00 -0.12404500443E+02  0.12418228386E+02  0.51100000000E-03 0.  1.
        -11    1    3    3    0    0 -0.16111361270E+01 -0.10418444118E+02  0.17785928049E+02  0.20675564666E+02  0.51100000000E-03 0. -1.
         12    1    3    3    0    0 -0.23493271547E+02 -0.96687076686E+01 -0.64381880816E+01  0.26208166318E+02  0.00000000000E+00 0. -1.
</event>
<event>
 7    1  0.3461631E-013  0.5930192E+02  0.7816164E-02  0.1266605E+00
        -11   -1    0    0    0    0  0.00000000000E+00  0.00000000000E+00  0.45593999997E+02  0.45594000000E+02  0.51100000000E-03 0. -1.
         11   -1    0    0    0    0 -0.00000000000E+00 -0.00000000000E+00 -0.45593999997E+02  0.45594000000E+02  0.51100000000E-03 0.  1.
    9900012    2    1    2    0    0 -0.73692481373E+00  0.17728439871E+02 -0.26493043600E+02  0.59301921570E+02  0.49999959043E+02 0.  0.
         12    1    1    2    0    0  0.73692481373E+00 -0.17728439871E+02  0.26493043600E+02  0.31886078430E+02  0.00000000000E+00 0. -1.
         11    1    3    3    0    0 -0.33728865837E+01  0.15135947092E+02 -0.75554907499E+01  0.17249889826E+02  0.51100000000E-03 0. -1.
        -11    1    3    3    0    0 -0.88860152511E+01 -0.96564533864E+01 -0.21352904949E+02  0.25063018754E+02  0.51100000000E-03 0.  1.
         12    1    3    3    0    0  0.11521977021E+02  0.12248946165E+02  0.24153520986E+01  0.16989012990E+02  0.00000000000E+00 0. -1.
</event>
<event>
 7    1  0.3461631E-013  0.5930195E+02  0.7816164E-02  0.1266605E+00
        -11   -1    0    0    0    0  0.00000000000E+00  0.00000000000E+00  0.45593999997E+02  0.45594000000E+02  0.51100000000E-03 0.  1.
         11   -1    0    0    0    0 -0.00000000000E+00 -0.00000000000E+00 -0.45593999997E+02  0.45594000000E+02  0.51100000000E-03 0. -1.
    9900012    2    1    2    0    0 -0.82401950417E+01  0.98188349722E+01  0.29196059128E+02  0.59301949709E+02  0.50000010362E+02 0.  0.
         12    1    1    2    0    0  0.82401950417E+01 -0.98188349722E+01 -0.29196059128E+02  0.31886050291E+02  0.00000000000E+00 0. -1.
         11    1    3    3    0    0  0.95835449307E+01  0.19505495645E+01 -0.64578702639E+01  0.11719772423E+02  0.51100000000E-03 0. -1.
        -11    1    3    3    0    0  0.64128093658E+00  0.10022518622E+02  0.38741350205E+01  0.10764341280E+02  0.51100000000E-03 0.  1.
        -12    1    3    3    0    0 -0.18465020909E+02 -0.21542332143E+01  0.31779794371E+02  0.36817836007E+02  0.00000000000E+00 0.  1.
</event>
<event>
 7    1  0.3461631E-013  0.5930193E+02  0.7816164E-02  0.1266605E+00
        -11   -1    0    0    0    0  0.00000000000E+00  0.00000000000E+00  0.45593999997E+02  0.45594000000E+02  0.51100000000E-03 0.  1.
         11   -1    0    0    0    0 -0.00000000000E+00 -0.00000000000E+00 -0.45593999997E+02  0.45594000000E+02  0.51100000000E-03 0. -1.
    9900012    2    1    2    0    0  0.64923271242E+01 -0.11227093876E+02  0.29129426309E+02  0.59301930542E+02  0.49999975405E+02 0.  0.
         12    1    1    2    0    0 -0.64923271242E+01  0.11227093876E+02 -0.29129426309E+02  0.31886069458E+02  0.00000000000E+00 0. -1.
         11    1    3    3    0    0 -0.15398450508E+02 -0.89949400838E+01  0.67264007782E+01  0.19059530237E+02  0.51100000000E-03 0. -1.
        -11    1    3    3    0    0 -0.56543749052E+01 -0.30615537040E+00  0.53395275959E+01  0.77830740642E+01  0.51100000000E-03 0.  1.
        -12    1    3    3    0    0  0.27545152538E+02 -0.19259984221E+01  0.17063497935E+02  0.32459326241E+02  0.00000000000E+00 0.  1.
</event>
<event>
 7    1  0.3461631E-013  0.5930194E+02  0.7816164E-02  0.1266605E+00
        -11   -1    0    0    0    0  0.00000000000E+00  0.00000000000E+00  0.45593999997E+02  0.45594000000E+02  0.51100000000E-03 0.  1.
         11   -1    0    0    0    0 -0.00000000000E+00 -0.00000000000E+00 -0.45593999997E+02  0.45594000000E+02  0.51100000000E-03 0. -1.
    9900012    2    1    2    0    0  0.15352208311E+02 -0.22694012165E+02  0.16309879804E+02  0.59301942429E+02  0.49999997084E+02 0.  0.
         12    1    1    2    0    0 -0.15352208311E+02  0.22694012165E+02 -0.16309879804E+02  0.31886057571E+02  0.00000000000E+00 0. -1.
         11    1    3    3    0    0  0.64474961108E+01 -0.15329162915E+02 -0.35693130442E+01  0.17008628329E+02  0.51100000000E-03 0. -1.
        -11    1    3    3    0    0  0.13007474319E+02 -0.16273018511E+02  0.80846240605E+00  0.20848480312E+02  0.51100000000E-03 0.  1.
        -12    1    3    3    0    0 -0.41027621182E+01  0.89081692605E+01  0.19070730443E+02  0.21444833788E+02  0.00000000000E+00 0.  1.
</event>
<event>
 7    1  0.3461631E-013  0.5930192E+02  0.7816164E-02  0.1266605E+00
        -11   -1    0    0    0    0  0.00000000000E+00  0.00000000000E+00  0.45593999997E+02  0.45594000000E+02  0.51100000000E-03 0.  1.
         11   -1    0    0    0    0 -0.00000000000E+00 -0.00000000000E+00 -0.45593999997E+02  0.45594000000E+02  0.51100000000E-03 0. -1.
    9900012    2    1    2    0    0  0.94559842231E+01 -0.19433132353E+01  0.30389634001E+02  0.59301922181E+02  0.49999960158E+02 0.  0.
         12    1    1    2    0    0 -0.94559842231E+01  0.19433132353E+01 -0.30389634001E+02  0.31886077819E+02  0.00000000000E+00 0. -1.
         11    1    3    3    0    0  0.10914092248E+02  0.16988702893E+01 -0.46713275735E+01  0.11992700756E+02  0.51100000000E-03 0. -1.
        -11    1    3    3    0    0  0.81827427333E+01 -0.10414453648E+02  0.32717534611E+02  0.35296673989E+02  0.51100000000E-03 0.  1.
         12    1    3    3    0    0 -0.96408507587E+01  0.67722701230E+01  0.23434269628E+01  0.12012547436E+02  0.00000000000E+00 0. -1.
</event>
<event>
 7    1  0.3461631E-013  0.5930194E+02  0.7816164E-02  0.1266605E+00
        -11   -1    0    0    0    0  0.00000000000E+00  0.00000000000E+00  0.45593999997E+02  0.45594000000E+02  0.51100000000E-03 0. -1.
         11   -1    0    0    0    0 -0.00000000000E+00 -0.00000000000E+00 -0.45593999997E+02  0.45594000000E+02  0.51100000000E-03 0.  1.
    9900012    2    1    2    0    0 -0.10392559789E+02  0.17008446559E+02 -0.24888311602E+02  0.59301943365E+02  0.49999998792E+02 0.  0.
         12    1    1    2    0    0  0.10392559789E+02 -0.17008446559E+02  0.24888311602E+02  0.31886056635E+02  0.00000000000E+00 0. -1.
         11    1    3    3    0    0 -0.15795664271E+01  0.81738054466E+01  0.88699870501E+01  0.12164817964E+02  0.51100000000E-03 0. -1.
        -11    1    3    3    0    0 -0.72168884668E+01  0.77569496637E+01  0.24525138658E+01  0.10875135482E+02  0.51100000000E-03 0.  1.
        -12    1    3    3    0    0 -0.15961048953E+01  0.10776914486E+01 -0.36210812518E+02  0.36261989919E+02  0.00000000000E+00 0.  1.
</event>
<event>
 7    1  0.3461631E-013  0.5930198E+02  0.7816164E-02  0.1266605E+00
        -11   -1    0    0    0    0  0.00000000000E+00  0.00000000000E+00  0.45593999997E+02  0.45594000000E+02  0.51100000000E-03 0. -1.
         11   -1    0    0    0    0 -0.00000000000E+00 -0.00000000000E+00 -0.45593999997E+02  0.45594000000E+02  0.51100000000E-03 0.  1.
    9900012    2    1    2    0    0  0.17546800879E+02 -0.26219284498E+02 -0.46235318477E+01  0.59301981945E+02  0.50000069152E+02 0.  0.
         12    1    1    2    0    0 -0.17546800879E+02  0.26219284498E+02  0.46235318477E+01  0.31886018055E+02  0.00000000000E+00 0. -1.
         11    1    3    3    0    0  0.51708651090E+01 -0.25107763239E+02 -0.17210374976E+01  0.25692403374E+02  0.51100000000E-03 0. -1.
        -11    1    3    3    0    0  0.59202680382E+01 -0.46284756289E+01 -0.16511898421E+02  0.18141531083E+02  0.51100000000E-03 0.  1.
         12    1    3    3    0    0  0.64556677322E+01  0.35169543700E+01  0.13609404071E+02  0.15468047488E+02  0.00000000000E+00 0. -1.
</event>
<event>
 7    1  0.3461631E-013  0.5930191E+02  0.7816164E-02  0.1266605E+00
        -11   -1    0    0    0    0  0.00000000000E+00  0.00000000000E+00  0.45593999997E+02  0.45594000000E+02  0.51100000000E-03 0.  1.
         11   -1    0    0    0    0 -0.00000000000E+00 -0.00000000000E+00 -0.45593999997E+02  0.45594000000E+02  0.51100000000E-03 0. -1.
    9900012    2    1    2    0    0 -0.14644728876E+02 -0.40100734346E+01  0.28038796989E+02  0.59301907273E+02  0.49999932968E+02 0.  0.
         12    1    1    2    0    0  0.14644728876E+02  0.40100734346E+01 -0.28038796989E+02  0.31886092727E+02  0.00000000000E+00 0. -1.
         11    1    3    3    0    0 -0.22996353852E+02 -0.62510008279E+01  0.24021392769E+01  0.23951567280E+02  0.51100000000E-03 0. -1.
        -11    1    3    3    0    0 -0.61743258845E+01  0.65343753180E+01  0.74027203959E+01  0.11645627095E+02  0.51100000000E-03 0.  1.
        -12    1    3    3    0    0  0.14525950860E+02 -0.42934479246E+01  0.18233937317E+02  0.23704712897E+02  0.00000000000E+00 0.  1.
</event>
<event>
 7    1  0.3461631E-013  0.5930194E+02  0.7816164E-02  0.1266605E+00
        -11   -1    0    0    0    0  0.00000000000E+00  0.00000000000E+00  0.45593999997E+02  0.45594000000E+02  0.51100000000E-03 0. -1.
         11   -1    0    0    0    0 -0.00000000000E+00 -0.00000000000E+00 -0.45593999997E+02  0.45594000000E+02  0.51100000000E-03 0.  1.
    9900012    2    1    2    0    0  0.29559698948E+02 -0.67745965268E+01  0.98513744789E+01  0.59301944441E+02  0.50000000753E+02 0.  0.
         12    1    1    2    0    0 -0.29559698948E+02  0.67745965268E+01 -0.98513744789E+01  0.31886055559E+02  0.00000000000E+00 0. -1.
         11    1    3    3    0    0  0.65254435271E+01  0.84896778482E+01 -0.89924030265E+01  0.13982823593E+02  0.51100000000E-03 0. -1.
        -11    1    3    3    0    0  0.13057571651E+02  0.31983035112E+01 -0.42646067798E+01  0.14103765243E+02  0.51100000000E-03 0.  1.
         12    1    3    3    0    0  0.99766837701E+01 -0.18462577886E+02  0.23108384285E+02  0.31215355605E+02  0.00000000000E+00 0. -1.
</event>
<event>
 7    1  0.3461631E-013  0.5930196E+02  0.7816164E-02  0.1266605E+00
        -11   -1    0    0    0    0  0.00000000000E+00  0.00000000000E+00  0.45593999997E+02  0.45594000000E+02  0.51100000000E-03 0.  1.
         11   -1    0    0    0    0 -0.00000000000E+00 -0.00000000000E+00 -0.45593999997E+02  0.45594000000E+02  0.51100000000E-03 0. -1.
    9900012    2    1    2    0    0  0.23958714616E+02  0.17180604756E+02 -0.12146034609E+02  0.59301963204E+02  0.50000034973E+02 0.  0.
         12    1    1    2    0    0 -0.23958714616E+02 -0.17180604756E+02  0.12146034609E+02  0.31886036796E+02  0.00000000000E+00 0. -1.
         11    1    3    3    0    0  0.16546565037E+01  0.36907010424E+01  0.66162540711E+01  0.77546102755E+01  0.51100000000E-03 0. -1.
        -11    1    3    3    0    0  0.24480207445E+02  0.23767467328E+02 -0.53917322919E+01  0.34543361694E+02  0.51100000000E-03 0.  1.
         12    1    3    3    0    0 -0.21761493327E+01 -0.10277563614E+02 -0.13370556389E+02  0.17003991235E+02  0.00000000000E+00 0. -1.
</event>
<event>
 7    1  0.3461631E-013  0.5930194E+02  0.7816164E-02  0.1266605E+00
        -11   -1    0    0    0    0  0.00000000000E+00  0.00000000000E+00  0.45593999997E+02  0.45594000000E+02  0.51100000000E-03 0.  1.
         11   -1    0    0    0    0 -0.00000000000E+00 -0.00000000000E+00 -0.45593999997E+02  0.45594000000E+02  0.51100000000E-03 0. -1.
    9900012    2    1    2    0    0 -0.45023651943E+01  0.13406516916E+02  0.28578226144E+02  0.59301937250E+02  0.49999987639E+02 0.  0.
         12    1    1    2    0    0  0.45023651943E+01 -0.13406516916E+02 -0.28578226144E+02  0.31886062750E+02  0.00000000000E+00 0. -1.
         11    1    3    3    0    0 -0.29773937535E+01  0.33592191942E+01 -0.57013787669E+01  0.72563728724E+01  0.51100000000E-03 0. -1.
        -11    1    3    3    0    0  0.13857173804E+02 -0.71146448163E+01  0.96941925641E+01  0.18347119840E+02  0.51100000000E-03 0.  1.
        -12    1    3    3    0    0 -0.15382145245E+02  0.17161942538E+02  0.24585412346E+02  0.33698444538E+02  0.00000000000E+00 0.  1.
</event>
<event>
 7    1  0.3461631E-013  0.5930188E+02  0.7816164E-02  0.1266605E+00
        -11   -1    0    0    0    0  0.00000000000E+00  0.00000000000E+00  0.45593999997E+02  0.45594000000E+02  0.51100000000E-03 0. -1.
         11   -1    0    0    0    0 -0.00000000000E+00 -0.00000000000E+00 -0.45593999997E+02  0.45594000000E+02  0.51100000000E-03 0.  1.
    9900012    2    1    2    0    0  0.25732904355E+02 -0.17283247480E+02 -0.74720378909E+01  0.59301884522E+02  0.49999891476E+02 0.  0.
         12    1    1    2    0    0 -0.25732904355E+02  0.17283247480E+02  0.74720378909E+01  0.31886115478E+02  0.00000000000E+00 0. -1.
         11    1    3    3    0    0  0.25305022020E+02 -0.35634015458E+01  0.15882282865E+01  0.25603992645E+02  0.51100000000E-03 0. -1.
        -11    1    3    3    0    0  0.84982086249E+01 -0.10044491196E+02  0.73309118062E+01  0.15061660645E+02  0.51100000000E-03 0.  1.
        -12    1    3    3    0    0 -0.80703262893E+01 -0.36753547384E+01 -0.16391177984E+02  0.18636231233E+02  0.00000000000E+00 0.  1.
</event>
<event>
 7    1  0.3461631E-013  0.5930194E+02  0.7816164E-02  0.1266605E+00
        -11   -1    0    0    0    0  0.00000000000E+00  0.00000000000E+00  0.45593999997E+02  0.45594000000E+02  0.51100000000E-03 0.  1.
         11   -1    0    0    0    0 -0.00000000000E+00 -0.00000000000E+00 -0.45593999997E+02  0.45594000000E+02  0.51100000000E-03 0. -1.
    9900012    2    1    2    0    0  0.24963408936E+02  0.17532190379E+02 -0.92828434026E+01  0.59301942438E+02  0.49999997101E+02 0.  0.
         12    1    1    2    0    0 -0.24963408936E+02 -0.17532190379E+02  0.92828434026E+01  0.31886057562E+02  0.00000000000E+00 0. -1.
         11    1    3    3    0    0 -0.18371613161E+01 -0.24959483271E+01 -0.19430337656E+02  0.19675948299E+02  0.51100000000E-03 0. -1.
        -11    1    3    3    0    0 -0.23154084405E+01 -0.25232318962E+00 -0.84766690494E+00  0.24785727105E+01  0.51100000000E-03 0.  1.
        -12    1    3    3    0    0  0.29115978693E+02  0.20280461895E+02  0.10995161159E+02  0.37147421429E+02  0.00000000000E+00 0.  1.
</event>
<event>
 7    1  0.3461631E-013  0.5930194E+02  0.7816164E-02  0.1266605E+00
        -11   -1    0    0    0    0  0.00000000000E+00  0.00000000000E+00  0.45593999997E+02  0.45594000000E+02  0.51100000000E-03 0. -1.
         11   -1    0    0    0    0 -0.00000000000E+00 -0.00000000000E+00 -0.45593999997E+02  0.45594000000E+02  0.51100000000E-03 0.  1.
    9900012    2    1    2    0    0  0.21392678727E+02  0.10058345541E+02 -0.21398682528E+02  0.59301942983E+02  0.49999998095E+02 0.  0.
         12    1    1    2    0    0 -0.21392678727E+02 -0.10058345541E+02  0.21398682528E+02  0.31886057017E+02  0.00000000000E+00 0. -1.
         11    1    3    3    0    0  0.32958079445E+01  0.10561695834E+01 -0.32341754606E+01  0.47368486747E+01  0.51100000000E-03 0. -1.
        -11    1    3    3    0    0  0.31923323196E+02 -0.41823961740E+01 -0.13410728704E+02  0.34877480503E+02  0.51100000000E-03 0.  1.
         12    1    3    3    0    0 -0.13826452413E+02  0.13184572131E+02 -0.47537783637E+01  0.19687613805E+02  0.00000000000E+00 0. -1.
</event>
<event>
 7    1  0.3461631E-013  0.5930194E+02  0.7816164E-02  0.1266605E+00
        -11   -1    0    0    0    0  0.00000000000E+00  0.00000000000E+00  0.45593999997E+02  0.45594000000E+02  0.51100000000E-03 0.  1.
         11   -1    0    0    0    0 -0.00000000000E+00 -0.00000000000E+00 -0.45593999997E+02  0.45594000000E+02  0.51100000000E-03 0. -1.
    9900012    2    1    2    0    0 -0.25901056411E+02  0.12976778436E+02  0.13321395640E+02  0.59301935903E+02  0.49999985183E+02 0.  0.
         12    1    1    2    0    0  0.25901056411E+02 -0.12976778436E+02 -0.13321395640E+02  0.31886064097E+02  0.00000000000E+00 0. -1.
         11    1    3    3    0    0 -0.15404658264E+01  0.95312482134E+01 -0.11134482221E+02  0.14737517500E+02  0.51100000000E-03 0. -1.
        -11    1    3    3    0    0 -0.22535586599E+01 -0.10224271205E+02  0.30849014360E+01  0.10914708674E+02  0.51100000000E-03 0.  1.
        -12    1    3    3    0    0 -0.22107031925E+02  0.13669801427E+02  0.21370976424E+02  0.33649709730E+02  0.00000000000E+00 0.  1.
</event>
<event>
 7    1  0.3461631E-013  0.5930196E+02  0.7816164E-02  0.1266605E+00
        -11   -1    0    0    0    0  0.00000000000E+00  0.00000000000E+00  0.45593999997E+02  0.45594000000E+02  0.51100000000E-03 0.  1.
         11   -1    0    0    0    0 -0.00000000000E+00 -0.00000000000E+00 -0.45593999997E+02  0.45594000000E+02  0.51100000000E-03 0. -1.
    9900012    2    1    2    0    0 -0.18427244951E+02 -0.25479146796E+02  0.52885878190E+01  0.59301961691E+02  0.50000032213E+02 0.  0.
         12    1    1    2    0    0  0.18427244951E+02  0.25479146796E+02 -0.52885878190E+01  0.31886038309E+02  0.00000000000E+00 0. -1.
         11    1    3    3    0    0 -0.87777809939E+01 -0.11759262998E+02  0.49652991128E+00  0.14682515032E+02  0.51100000000E-03 0. -1.
        -11    1    3    3    0    0 -0.23263415093E+02 -0.16232665538E+02 -0.33413644900E+01  0.28563099082E+02  0.51100000000E-03 0.  1.
         12    1    3    3    0    0  0.13613951136E+02  0.25127817403E+01  0.81334223977E+01  0.16056347577E+02  0.00000000000E+00 0. -1.
</event>
<event>
 7    1  0.3461631E-013  0.5930194E+02  0.7816164E-02  0.1266605E+00
        -11   -1    0    0    0    0  0.00000000000E+00  0.00000000000E+00  0.45593999997E+02  0.45594000000E+02  0.51100000000E-03 0.  1.
         11   -1    0    0    0    0 -0.00000000000E+00 -0.00000000000E+00 -0.45593999997E+02  0.45594000000E+02  0.51100000000E-03 0. -1.
    9900012    2    1    2    0    0 -0.20375826344E+01 -0.40903764849E+01  0.31556901499E+02  0.59301937920E+02  0.49999988860E+02 0.  0.
         12    1    1    2    0    0  0.20375826344E+01  0.40903764849E+01 -0.31556901499E+02  0.31886062080E+02  0.00000000000E+00 0. -1.
         11    1    3    3    0    0  0.47597697050E+00 -0.10739632248E+02 -0.92357865512E+00  0.10789775377E+02  0.51100000000E-03 0. -1.
        -11    1    3    3    0    0 -0.13697661577E+02  0.31764168683E+01  0.81216365815E-01  0.14061370956E+02  0.51100000000E-03 0.  1.
        -12    1    3    3    0    0  0.11184101972E+02  0.34728388945E+01  0.32399263788E+02  0.34450791587E+02  0.00000000000E+00 0.  1.
</event>
<event>
 7    1  0.3461631E-013  0.5930216E+02  0.7816164E-02  0.1266604E+00
        -11   -1    0    0    0    0  0.00000000000E+00  0.00000000000E+00  0.45593999997E+02  0.45594000000E+02  0.51100000000E-03 0.  1.
         11   -1    0    0    0    0 -0.00000000000E+00 -0.00000000000E+00 -0.45593999997E+02  0.45594000000E+02  0.51100000000E-03 0. -1.
    9900012    2    1    2    0    0 -0.24723840666E+02 -0.14998387115E+02  0.13434537249E+02  0.59302161381E+02  0.50000396399E+02 0.  0.
         12    1    1    2    0    0  0.24723840666E+02  0.14998387115E+02 -0.13434537249E+02  0.31885838619E+02  0.00000000000E+00 0. -1.
         11    1    3    3    0    0 -0.28204594131E+00 -0.10155684894E+02  0.51897664478E+01  0.11408381201E+02  0.51100000000E-03 0. -1.
        -11    1    3    3    0    0 -0.16181104221E+02 -0.17486747291E+02 -0.85447596304E+01  0.25310617970E+02  0.51100000000E-03 0.  1.
        -12    1    3    3    0    0 -0.82606905038E+01  0.12644045070E+02  0.16789530431E+02  0.22583162211E+02  0.00000000000E+00 0.  1.
</event>
<event>
 7    1  0.3461631E-013  0.5930194E+02  0.7816164E-02  0.1266605E+00
        -11   -1    0    0    0    0  0.00000000000E+00  0.00000000000E+00  0.45593999997E+02  0.45594000000E+02  0.51100000000E-03 0. -1.
         11   -1    0    0    0    0 -0.00000000000E+00 -0.00000000000E+00 -0.45593999997E+02  0.45594000000E+02  0.51100000000E-03 0.  1.
    9900012    2    1    2    0    0 -0.10308580977E+02  0.30172525798E+02 -0.26902766545E+00  0.59301944574E+02  0.50000000996E+02 0.  0.
         12    1    1    2    0    0  0.10308580977E+02 -0.30172525798E+02  0.26902766545E+00  0.31886055426E+02  0.00000000000E+00 0. -1.
         11    1    3    3    0    0 -0.51905243984E+01  0.29007382114E+02  0.70020807208E+01  0.30288593486E+02  0.51100000000E-03 0. -1.
        -11    1    3    3    0    0 -0.14180241998E+02  0.83861236267E+01 -0.48789584147E+01  0.17181692818E+02  0.51100000000E-03 0.  1.
         12    1    3    3    0    0  0.90621854203E+01 -0.72209799435E+01 -0.23921499716E+01  0.11831658270E+02  0.00000000000E+00 0. -1.
</event>
<event>
 7    1  0.3461631E-013  0.5930194E+02  0.7816164E-02  0.1266605E+00
        -11   -1    0    0    0    0  0.00000000000E+00  0.00000000000E+00  0.45593999997E+02  0.45594000000E+02  0.51100000000E-03 0. -1.
         11   -1    0    0    0    0 -0.00000000000E+00 -0.00000000000E+00 -0.45593999997E+02  0.45594000000E+02  0.51100000000E-03 0.  1.
    9900012    2    1    2    0    0 -0.23036748000E+02 -0.32655645350E+01 -0.21802873650E+02  0.59301937691E+02  0.49999988444E+02 0.  0.
         12    1    1    2    0    0  0.23036748000E+02  0.32655645350E+01  0.21802873650E+02  0.31886062309E+02  0.00000000000E+00 0. -1.
         11    1    3    3    0    0 -0.99768183533E+01  0.68122250948E+01  0.51900003862E+00  0.12091843387E+02  0.51100000000E-03 0. -1.
        -11    1    3    3    0    0 -0.18309907369E+02 -0.39216055977E+01 -0.30446636931E+02  0.35743942130E+02  0.51100000000E-03 0.  1.
        -12    1    3    3    0    0  0.52499777223E+01 -0.61561840320E+01  0.81247632425E+01  0.11466152174E+02  0.00000000000E+00 0.  1.
</event>
<event>
 7    1  0.3461631E-013  0.5930194E+02  0.7816164E-02  0.1266605E+00
        -11   -1    0    0    0    0  0.00000000000E+00  0.00000000000E+00  0.45593999997E+02  0.45594000000E+02  0.51100000000E-03 0. -1.
         11   -1    0    0    0    0 -0.00000000000E+00 -0.00000000000E+00 -0.45593999997E+02  0.45594000000E+02  0.51100000000E-03 0.  1.
    9900012    2    1    2    0    0  0.13649593223E+02  0.28791128575E+02 -0.12166766960E+01  0.59301940633E+02  0.49999993808E+02 0.  0.
         12    1    1    2    0    0 -0.13649593223E+02 -0.28791128575E+02  0.12166766960E+01  0.31886059367E+02  0.00000000000E+00 0. -1.
         11    1    3    3    0    0  0.97430167106E+01  0.17431773844E+02  0.47618159516E+01  0.20529685955E+02  0.51100000000E-03 0. -1.
        -11    1    3    3    0    0  0.97304673245E+01  0.17220694187E+02  0.89494912608E+01  0.21710082836E+02  0.51100000000E-03 0.  1.
         12    1    3    3    0    0 -0.58238908119E+01 -0.58613394560E+01 -0.14927983908E+02  0.17062171842E+02  0.00000000000E+00 0. -1.
</event>
<event>
 7    1  0.3461631E-013  0.5930193E+02  0.7816164E-02  0.1266605E+00
        -11   -1    0    0    0    0  0.00000000000E+00  0.00000000000E+00  0.45593999997E+02  0.45594000000E+02  0.51100000000E-03 0.  1.
         11   -1    0    0    0    0 -0.00000000000E+00 -0.00000000000E+00 -0.45593999997E+02  0.45594000000E+02  0.51100000000E-03 0. -1.
    9900012    2    1    2    0    0  0.51138972862E+01  0.26237590911E+02  0.17382701925E+02  0.59301930182E+02  0.49999974748E+02 0.  0.
         12    1    1    2    0    0 -0.51138972862E+01 -0.26237590911E+02 -0.17382701925E+02  0.31886069818E+02  0.00000000000E+00 0. -1.
         11    1    3    3    0    0  0.14990394602E+02  0.17966246640E+02 -0.31196743490E+01  0.23605726359E+02  0.51100000000E-03 0. -1.
        -11    1    3    3    0    0  0.83595407054E+01  0.63062944931E+01  0.46663870762E+01  0.11464137109E+02  0.51100000000E-03 0.  1.
         12    1    3    3    0    0 -0.18236038021E+02  0.19650497779E+01  0.15835989198E+02  0.24232066714E+02  0.00000000000E+00 0. -1.
</event>
<event>
 7    1  0.3461631E-013  0.5930192E+02  0.7816164E-02  0.1266605E+00
        -11   -1    0    0    0    0  0.00000000000E+00  0.00000000000E+00  0.45593999997E+02  0.45594000000E+02  0.51100000000E-03 0. -1.
         11   -1    0    0    0    0 -0.00000000000E+00 -0.00000000000E+00 -0.45593999997E+02  0.45594000000E+02  0.51100000000E-03 0.  1.
    9900012    2    1    2    0    0  0.68826316129E+01 -0.27348666250E+02 -0.14879589818E+02  0.59301915939E+02  0.49999948773E+02 0.  0.
         12    1    1    2    0    0 -0.68826316129E+01  0.27348666250E+02  0.14879589818E+02  0.31886084061E+02  0.00000000000E+00 0. -1.
         11    1    3    3    0    0  0.14861233823E+01  0.80341569686E+01  0.21884541393E+01  0.84584616027E+01  0.51100000000E-03 0. -1.
        -11    1    3    3    0    0  0.25116313454E+01  0.48116940376E+01 -0.77846315626E+01  0.94900569204E+01  0.51100000000E-03 0.  1.
        -12    1    3    3    0    0  0.28848768853E+01 -0.40194517257E+02 -0.92834123947E+01  0.41353397416E+02  0.00000000000E+00 0.  1.
</event>
<event>
 7    1  0.3461631E-013  0.5930204E+02  0.7816164E-02  0.1266604E+00
        -11   -1    0    0    0    0  0.00000000000E+00  0.00000000000E+00  0.45593999997E+02  0.45594000000E+02  0.51100000000E-03 0.  1.
         11   -1    0    0    0    0 -0.00000000000E+00 -0.00000000000E+00 -0.45593999997E+02  0.45594000000E+02  0.51100000000E-03 0. -1.
    9900012    2    1    2    0    0 -0.65082047364E+01  0.27742799085E+02  0.14307164428E+02  0.59302037823E+02  0.50000171060E+02 0.  0.
         12    1    1    2    0    0  0.65082047364E+01 -0.27742799085E+02 -0.14307164428E+02  0.31885962177E+02  0.00000000000E+00 0. -1.
         11    1    3    3    0    0  0.19458288136E+01 -0.11474246391E+02  0.66071820605E+01  0.13382803706E+02  0.51100000000E-03 0. -1.
        -11    1    3    3    0    0 -0.66888422934E+01  0.12056060923E+02  0.12104494624E+02  0.18346880022E+02  0.51100000000E-03 0.  1.
        -12    1    3    3    0    0 -0.17651912566E+01  0.27160984553E+02 -0.44045122568E+01  0.27572354094E+02  0.00000000000E+00 0.  1.
</event>
<event>
 7    1  0.3461631E-013  0.5930193E+02  0.7816164E-02  0.1266605E+00
        -11   -1    0    0    0    0  0.00000000000E+00  0.00000000000E+00  0.45593999997E+02  0.45594000000E+02  0.51100000000E-03 0. -1.
         11   -1    0    0    0    0 -0.00000000000E+00 -0.00000000000E+00 -0.45593999997E+02  0.45594000000E+02  0.51100000000E-03 0.  1.
    9900012    2    1    2    0    0  0.10849147239E+02  0.18751938707E+02 -0.23396198154E+02  0.59301932680E+02  0.49999979304E+02 0.  0.
         12    1    1    2    0    0 -0.10849147239E+02 -0.18751938707E+02  0.23396198154E+02  0.31886067320E+02  0.00000000000E+00 0. -1.
         11    1    3    3    0    0 -0.27061833316E-01 -0.11108321076E+02 -0.12220891286E+02  0.16515014791E+02  0.51100000000E-03 0. -1.
        -11    1    3    3    0    0  0.88762033388E+01  0.10179293752E+01  0.43866426309E+01  0.99531803840E+01  0.51100000000E-03 0.  1.
        -12    1    3    3    0    0  0.20000057339E+01  0.28842330408E+02 -0.15561949499E+02  0.32833737504E+02  0.00000000000E+00 0.  1.
</event>
<event>
 7    1  0.3461631E-013  0.5930182E+02  0.7816164E-02  0.1266605E+00
        -11   -1    0    0    0    0  0.00000000000E+00  0.00000000000E+00  0.45593999997E+02  0.45594000000E+02  0.51100000000E-03 0.  1.
         11   -1    0    0    0    0 -0.00000000000E+00 -0.00000000000E+00 -0.45593999997E+02  0.45594000000E+02  0.51100000000E-03 0. -1.
    9900012    2    1    2    0    0  0.18964557567E+02  0.18238146128E+02  0.18012330070E+02  0.59301820353E+02  0.49999774447E+02 0.  0.
         12    1    1    2    0    0 -0.18964557567E+02 -0.18238146128E+02 -0.18012330070E+02  0.31886179647E+02  0.00000000000E+00 0. -1.
         11    1    3    3    0    0 -0.11405479502E+02  0.47645127411E+01  0.40754077969E+00  0.12367361646E+02  0.51100000000E-03 0. -1.
        -11    1    3    3    0    0  0.11414472009E+02 -0.44098168529E+01  0.16899771449E+02  0.20864777286E+02  0.51100000000E-03 0.  1.
         12    1    3    3    0    0  0.18955565060E+02  0.17883450240E+02  0.70501784135E+00  0.26069681421E+02  0.00000000000E+00 0. -1.
</event>
<event>
 7    1  0.3461631E-013  0.5930194E+02  0.7816164E-02  0.1266605E+00
        -11   -1    0    0    0    0  0.00000000000E+00  0.00000000000E+00  0.45593999997E+02  0.45594000000E+02  0.51100000000E-03 0.  1.
         11   -1    0    0    0    0 -0.00000000000E+00 -0.00000000000E+00 -0.45593999997E+02  0.45594000000E+02  0.51100000000E-03 0. -1.
    9900012    2    1    2    0    0 -0.85443758618E+00 -0.11883748846E+02  0.29576465773E+02  0.59301939129E+02  0.49999991066E+02 0.  0.
         12    1    1    2    0    0  0.85443758618E+00  0.11883748846E+02 -0.29576465773E+02  0.31886060871E+02  0.00000000000E+00 0. -1.
         11    1    3    3    0    0 -0.90779969447E+01  0.29190207619E+01 -0.75716507484E+01  0.12176231192E+02  0.51100000000E-03 0. -1.
        -11    1    3    3    0    0 -0.49442022307E+01 -0.84545721316E+00 -0.32392428093E+00  0.50264162978E+01  0.51100000000E-03 0.  1.
        -12    1    3    3    0    0  0.13167761589E+02 -0.13957312395E+02  0.37472040803E+02  0.42099291639E+02  0.00000000000E+00 0.  1.
</event>
<event>
 7    1  0.3461631E-013  0.5930193E+02  0.7816164E-02  0.1266605E+00
        -11   -1    0    0    0    0  0.00000000000E+00  0.00000000000E+00  0.45593999997E+02  0.45594000000E+02  0.51100000000E-03 0. -1.
         11   -1    0    0    0    0 -0.00000000000E+00 -0.00000000000E+00 -0.45593999997E+02  0.45594000000E+02  0.51100000000E-03 0.  1.
    9900012    2    1    2    0    0 -0.78370107595E+01 -0.22817634665E+02 -0.20848459613E+02  0.59301930039E+02  0.49999974487E+02 0.  0.
         12    1    1    2    0    0  0.78370107595E+01  0.22817634665E+02  0.20848459613E+02  0.31886069961E+02  0.00000000000E+00 0. -1.
         11    1    3    3    0    0 -0.10079630604E+02 -0.44314321298E+01 -0.13425171937E+02  0.17362942885E+02  0.51100000000E-03 0. -1.
        -11    1    3    3    0    0 -0.15955494102E+02 -0.72986947468E+01 -0.10440120332E+02  0.20416778636E+02  0.51100000000E-03 0.  1.
         12    1    3    3    0    0  0.18198113947E+02 -0.11087507789E+02  0.30168326562E+01  0.21522208517E+02  0.00000000000E+00 0. -1.
</event>
<event>
 7    1  0.3461631E-013  0.5930186E+02  0.7816164E-02  0.1266605E+00
        -11   -1    0    0    0    0  0.00000000000E+00  0.00000000000E+00  0.45593999997E+02  0.45594000000E+02  0.51100000000E-03 0.  1.
         11   -1    0    0    0    0 -0.00000000000E+00 -0.00000000000E+00 -0.45593999997E+02  0.45594000000E+02  0.51100000000E-03 0. -1.
    9900012    2    1    2    0    0  0.14926164121E+02  0.17149946301E+02  0.22356533786E+02  0.59301864511E+02  0.49999854980E+02 0.  0.
         12    1    1    2    0    0 -0.14926164121E+02 -0.17149946301E+02 -0.22356533786E+02  0.31886135489E+02  0.00000000000E+00 0. -1.
         11    1    3    3    0    0  0.14135842840E+02  0.12665393139E+01 -0.73940319910E+01  0.16003058582E+02  0.51100000000E-03 0. -1.
        -11    1    3    3    0    0  0.10173387242E+02 -0.10833554941E+01  0.17777878841E+02  0.20511568527E+02  0.51100000000E-03 0.  1.
         12    1    3    3    0    0 -0.93830659603E+01  0.16966762481E+02  0.11972686936E+02  0.22787237401E+02  0.00000000000E+00 0. -1.
</event>
<event>
 7    1  0.3461631E-013  0.5930195E+02  0.7816164E-02  0.1266605E+00
        -11   -1    0    0    0    0  0.00000000000E+00  0.00000000000E+00  0.45593999997E+02  0.45594000000E+02  0.51100000000E-03 0.  1.
         11   -1    0    0    0    0 -0.00000000000E+00 -0.00000000000E+00 -0.45593999997E+02  0.45594000000E+02  0.51100000000E-03 0. -1.
    9900012    2    1    2    0    0  0.17236188038E+02 -0.24016385520E+02  0.11951884551E+02  0.59301945119E+02  0.50000001991E+02 0.  0.
         12    1    1    2    0    0 -0.17236188038E+02  0.24016385520E+02 -0.11951884551E+02  0.31886054881E+02  0.00000000000E+00 0. -1.
         11    1    3    3    0    0  0.14527048851E+02 -0.16358804977E+01  0.10065345726E+02  0.17748871462E+02  0.51100000000E-03 0. -1.
        -11    1    3    3    0    0 -0.12505759124E+02  0.83725627960E+00 -0.40395569181E+01  0.13168638111E+02  0.51100000000E-03 0.  1.
        -12    1    3    3    0    0  0.15214898312E+02 -0.23217761302E+02  0.59260957430E+01  0.28384435546E+02  0.00000000000E+00 0.  1.
</event>
<event>
 7    1  0.3461631E-013  0.5930194E+02  0.7816164E-02  0.1266605E+00
        -11   -1    0    0    0    0  0.00000000000E+00  0.00000000000E+00  0.45593999997E+02  0.45594000000E+02  0.51100000000E-03 0. -1.
         11   -1    0    0    0    0 -0.00000000000E+00 -0.00000000000E+00 -0.45593999997E+02  0.45594000000E+02  0.51100000000E-03 0.  1.
    9900012    2    1    2    0    0  0.17844467051E+02  0.70468643750E+01 -0.25468365084E+02  0.59301938439E+02  0.49999989807E+02 0.  0.
         12    1    1    2    0    0 -0.17844467051E+02 -0.70468643750E+01  0.25468365084E+02  0.31886061561E+02  0.00000000000E+00 0. -1.
         11    1    3    3    0    0 -0.53212335731E+01  0.53879195610E+01  0.28156964170E+00  0.75778945400E+01  0.51100000000E-03 0. -1.
        -11    1    3    3    0    0  0.14772742932E+02 -0.17948464773E+02 -0.10516235790E+02  0.25514163457E+02  0.51100000000E-03 0.  1.
         12    1    3    3    0    0  0.83929576920E+01  0.19607409587E+02 -0.15233698935E+02  0.26209880442E+02  0.00000000000E+00 0. -1.
</event>
<event>
 7    1  0.3461631E-013  0.5930193E+02  0.7816164E-02  0.1266605E+00
        -11   -1    0    0    0    0  0.00000000000E+00  0.00000000000E+00  0.45593999997E+02  0.45594000000E+02  0.51100000000E-03 0. -1.
         11   -1    0    0    0    0 -0.00000000000E+00 -0.00000000000E+00 -0.45593999997E+02  0.45594000000E+02  0.51100000000E-03 0.  1.
    9900012    2    1    2    0    0 -0.13426138367E+02 -0.13714586620E+02 -0.25463113872E+02  0.59301933361E+02  0.49999980547E+02 0.  0.
         12    1    1    2    0    0  0.13426138367E+02  0.13714586620E+02  0.25463113872E+02  0.31886066639E+02  0.00000000000E+00 0. -1.
         11    1    3    3    0    0  0.45402138482E+01  0.83094556798E+00 -0.21538938435E+01  0.50934537668E+01  0.51100000000E-03 0. -1.
        -11    1    3    3    0    0 -0.14607215603E+02 -0.93298472139E+01 -0.36070733009E+02  0.40018927732E+02  0.51100000000E-03 0.  1.
         12    1    3    3    0    0 -0.33591366117E+01 -0.52156849743E+01  0.12761512980E+02  0.14189551863E+02  0.00000000000E+00 0. -1.
</event>
<event>
 7    1  0.3461631E-013  0.5930194E+02  0.7816164E-02  0.1266605E+00
        -11   -1    0    0    0    0  0.00000000000E+00  0.00000000000E+00  0.45593999997E+02  0.45594000000E+02  0.51100000000E-03 0.  1.
         11   -1    0    0    0    0 -0.00000000000E+00 -0.00000000000E+00 -0.45593999997E+02  0.45594000000E+02  0.51100000000E-03 0. -1.
    9900012    2    1    2    0    0  0.20417950586E+02 -0.11127036296E+02  0.21817819765E+02  0.59301938748E+02  0.49999990371E+02 0.  0.
         12    1    1    2    0    0 -0.20417950586E+02  0.11127036296E+02 -0.21817819765E+02  0.31886061252E+02  0.00000000000E+00 0. -1.
         11    1    3    3    0    0  0.57670222723E+01  0.15032904725E+01  0.16019914468E+02  0.17092574059E+02  0.51100000000E-03 0. -1.
        -11    1    3    3    0    0  0.47132582635E+01  0.16976485206E+01  0.19436720108E+02  0.20071943174E+02  0.51100000000E-03 0.  1.
         12    1    3    3    0    0  0.99376700500E+01 -0.14327975289E+02 -0.13638814811E+02  0.22137421515E+02  0.00000000000E+00 0. -1.
</event>
<event>
 7    1  0.3461631E-013  0.5930197E+02  0.7816164E-02  0.1266605E+00
        -11   -1    0    0    0    0  0.00000000000E+00  0.00000000000E+00  0.45593999997E+02  0.45594000000E+02  0.51100000000E-03 0.  1.
         11   -1    0    0    0    0 -0.00000000000E+00 -0.00000000000E+00 -0.45593999997E+02  0.45594000000E+02  0.51100000000E-03 0. -1.
    9900012    2    1    2    0    0 -0.11325206628E+02 -0.14133277146E+02  0.26243271553E+02  0.59301966540E+02  0.50000041056E+02 0.  0.
         12    1    1    2    0    0  0.11325206628E+02  0.14133277146E+02 -0.26243271553E+02  0.31886033460E+02  0.00000000000E+00 0. -1.
         11    1    3    3    0    0 -0.18304015218E+02 -0.14585107534E+02  0.98433790011E+01  0.25390046186E+02  0.51100000000E-03 0. -1.
        -11    1    3    3    0    0 -0.54674692702E+01  0.91767966801E+01  0.15316451713E+02  0.18673524329E+02  0.51100000000E-03 0.  1.
        -12    1    3    3    0    0  0.12446277861E+02 -0.87249662914E+01  0.10834408394E+01  0.15238396025E+02  0.00000000000E+00 0.  1.
</event>
<event>
 7    1  0.3461631E-013  0.5930191E+02  0.7816164E-02  0.1266605E+00
        -11   -1    0    0    0    0  0.00000000000E+00  0.00000000000E+00  0.45593999997E+02  0.45594000000E+02  0.51100000000E-03 0. -1.
         11   -1    0    0    0    0 -0.00000000000E+00 -0.00000000000E+00 -0.45593999997E+02  0.45594000000E+02  0.51100000000E-03 0.  1.
    9900012    2    1    2    0    0 -0.61519219259E+01  0.28053925909E+02 -0.13851129602E+02  0.59301910658E+02  0.49999939142E+02 0.  0.
         12    1    1    2    0    0  0.61519219259E+01 -0.28053925909E+02  0.13851129602E+02  0.31886089342E+02  0.00000000000E+00 0. -1.
         11    1    3    3    0    0 -0.16512922442E+02  0.62829001983E+01  0.96463080223E+01  0.20129647319E+02  0.51100000000E-03 0. -1.
        -11    1    3    3    0    0 -0.15044740728E+00  0.53553033037E+00 -0.13407025582E+02  0.13418560369E+02  0.51100000000E-03 0.  1.
        -12    1    3    3    0    0  0.10511447923E+02  0.21235495380E+02 -0.10090412042E+02  0.25753702970E+02  0.00000000000E+00 0.  1.
</event>
<event>
 7    1  0.3461631E-013  0.5930192E+02  0.7816164E-02  0.1266605E+00
        -11   -1    0    0    0    0  0.00000000000E+00  0.00000000000E+00  0.45593999997E+02  0.45594000000E+02  0.51100000000E-03 0.  1.
         11   -1    0    0    0    0 -0.00000000000E+00 -0.00000000000E+00 -0.45593999997E+02  0.45594000000E+02  0.51100000000E-03 0. -1.
    9900012    2    1    2    0    0 -0.67879657649E+00  0.12633595587E+02  0.29268643910E+02  0.59301921241E+02  0.49999958443E+02 0.  0.
         12    1    1    2    0    0  0.67879657649E+00 -0.12633595587E+02 -0.29268643910E+02  0.31886078759E+02  0.00000000000E+00 0. -1.
         11    1    3    3    0    0  0.12776526525E+02  0.14648543964E+02 -0.20886275067E+01  0.19549471487E+02  0.51100000000E-03 0. -1.
        -11    1    3    3    0    0 -0.18499405785E+01  0.13836218976E+01  0.26690725721E+02  0.26790511930E+02  0.51100000000E-03 0.  1.
        -12    1    3    3    0    0 -0.11605382523E+02 -0.33985702744E+01  0.46665456965E+01  0.12961937824E+02  0.00000000000E+00 0.  1.
</event>
<event>
 7    1  0.3461631E-013  0.5930194E+02  0.7816164E-02  0.1266605E+00
        -11   -1    0    0    0    0  0.00000000000E+00  0.00000000000E+00  0.45593999997E+02  0.45594000000E+02  0.51100000000E-03 0. -1.
         11   -1    0    0    0    0 -0.00000000000E+00 -0.00000000000E+00 -0.45593999997E+02  0.45594000000E+02  0.51100000000E-03 0.  1.
    9900012    2    1    2    0    0  0.19090505887E+02  0.25434833699E+02  0.23113527902E+01  0.59301944552E+02  0.50000000956E+02 0.  0.
         12    1    1    2    0    0 -0.19090505887E+02 -0.25434833699E+02 -0.23113527902E+01  0.31886055448E+02  0.00000000000E+00 0. -1.
         11    1    3    3    0    0  0.35344354994E+01  0.30352740956E+02  0.54994215069E+00  0.30562780542E+02  0.51100000000E-03 0. -1.
        -11    1    3    3    0    0  0.37230196669E+01  0.53771040132E+01 -0.79476200131E+01  0.10292656953E+02  0.51100000000E-03 0.  1.
        -12    1    3    3    0    0  0.11833050721E+02 -0.10295011270E+02  0.97090306527E+01  0.18446507057E+02  0.00000000000E+00 0.  1.
</event>
<event>
 7    1  0.3461631E-013  0.5930194E+02  0.7816164E-02  0.1266605E+00
        -11   -1    0    0    0    0  0.00000000000E+00  0.00000000000E+00  0.45593999997E+02  0.45594000000E+02  0.51100000000E-03 0. -1.
         11   -1    0    0    0    0 -0.00000000000E+00 -0.00000000000E+00 -0.45593999997E+02  0.45594000000E+02  0.51100000000E-03 0.  1.
    9900012    2    1    2    0    0  0.11387242180E+02  0.17455673523E+02 -0.24131943318E+02  0.59301944884E+02  0.50000001561E+02 0.  0.
         12    1    1    2    0    0 -0.11387242180E+02 -0.17455673523E+02  0.24131943318E+02  0.31886055116E+02  0.00000000000E+00 0. -1.
         11    1    3    3    0    0 -0.23753112657E+01  0.53804322171E+01  0.10273458939E+02  0.11837867768E+02  0.51100000000E-03 0.  1.
        -11    1    3    3    0    0  0.69522493111E+00  0.14333059980E+01  0.46567321518E+01  0.49216723157E+01  0.51100000000E-03 0. -1.
        -12    1    3    3    0    0  0.13067328514E+02  0.10641935307E+02 -0.39062134409E+02  0.42542404800E+02  0.00000000000E+00 0.  1.
</event>
<event>
 7    1  0.3461631E-013  0.5930194E+02  0.7816164E-02  0.1266605E+00
        -11   -1    0    0    0    0  0.00000000000E+00  0.00000000000E+00  0.45593999997E+02  0.45594000000E+02  0.51100000000E-03 0.  1.
         11   -1    0    0    0    0 -0.00000000000E+00 -0.00000000000E+00 -0.45593999997E+02  0.45594000000E+02  0.51100000000E-03 0. -1.
    9900012    2    1    2    0    0 -0.80893881528E+01 -0.85167169688E+01  0.29643681865E+02  0.59301944378E+02  0.50000000640E+02 0.  0.
         12    1    1    2    0    0  0.80893881528E+01  0.85167169688E+01 -0.29643681865E+02  0.31886055622E+02  0.00000000000E+00 0. -1.
         11    1    3    3    0    0  0.42887641439E+01 -0.10601916102E+02  0.25564784144E+02  0.28006290571E+02  0.51100000000E-03 0. -1.
        -11    1    3    3    0    0 -0.69868778273E+01  0.35930382539E+01  0.16166582937E+02  0.17974559516E+02  0.51100000000E-03 0.  1.
         12    1    3    3    0    0 -0.53912744694E+01 -0.15078391203E+01 -0.12087685217E+02  0.13321094292E+02  0.00000000000E+00 0. -1.
</event>
<event>
 7    1  0.3461631E-013  0.5930192E+02  0.7816164E-02  0.1266605E+00
        -11   -1    0    0    0    0  0.00000000000E+00  0.00000000000E+00  0.45593999997E+02  0.45594000000E+02  0.51100000000E-03 0.  1.
         11   -1    0    0    0    0 -0.00000000000E+00 -0.00000000000E+00 -0.45593999997E+02  0.45594000000E+02  0.51100000000E-03 0. -1.
    9900012    2    1    2    0    0 -0.18965240435E+01  0.82609730255E+01  0.30738922807E+02  0.59301923821E+02  0.49999963147E+02 0.  0.
         12    1    1    2    0    0  0.18965240435E+01 -0.82609730255E+01 -0.30738922807E+02  0.31886076179E+02  0.00000000000E+00 0. -1.
         11    1    3    3    0    0  0.94607967060E+01 -0.55315926736E+01  0.18389717332E+02  0.21407636386E+02  0.51100000000E-03 0. -1.
        -11    1    3    3    0    0 -0.11886385945E+02  0.10362437379E+02  0.22324643435E+02  0.27332324892E+02  0.51100000000E-03 0.  1.
         12    1    3    3    0    0  0.52906519559E+00  0.34301283201E+01 -0.99754379592E+01  0.10561962543E+02  0.00000000000E+00 0. -1.
</event>
<event>
 7    1  0.3461631E-013  0.5930193E+02  0.7816164E-02  0.1266605E+00
        -11   -1    0    0    0    0  0.00000000000E+00  0.00000000000E+00  0.45593999997E+02  0.45594000000E+02  0.51100000000E-03 0.  1.
         11   -1    0    0    0    0 -0.00000000000E+00 -0.00000000000E+00 -0.45593999997E+02  0.45594000000E+02  0.51100000000E-03 0. -1.
    9900012    2    1    2    0    0  0.27832963067E+02 -0.14162732199E+01  0.15493286273E+02  0.59301928081E+02  0.49999970917E+02 0.  0.
         12    1    1    2    0    0 -0.27832963067E+02  0.14162732199E+01 -0.15493286273E+02  0.31886071919E+02  0.00000000000E+00 0. -1.
         11    1    3    3    0    0  0.19843391063E+00 -0.12290159695E+01  0.88714485382E+01  0.89583734962E+01  0.51100000000E-03 0. -1.
        -11    1    3    3    0    0  0.13204065682E+02  0.77717188143E+01  0.22656139841E+02  0.27350459532E+02  0.51100000000E-03 0.  1.
         12    1    3    3    0    0  0.14430463473E+02 -0.79589760647E+01 -0.16034302106E+02  0.22993095052E+02  0.00000000000E+00 0. -1.
</event>
<event>
 7    1  0.3461631E-013  0.5930193E+02  0.7816164E-02  0.1266605E+00
        -11   -1    0    0    0    0  0.00000000000E+00  0.00000000000E+00  0.45593999997E+02  0.45594000000E+02  0.51100000000E-03 0.  1.
         11   -1    0    0    0    0 -0.00000000000E+00 -0.00000000000E+00 -0.45593999997E+02  0.45594000000E+02  0.51100000000E-03 0. -1.
    9900012    2    1    2    0    0  0.16658215016E+02 -0.98071654573E+01  0.25358324288E+02  0.59301933568E+02  0.49999980924E+02 0.  0.
         12    1    1    2    0    0 -0.16658215016E+02  0.98071654573E+01 -0.25358324288E+02  0.31886066432E+02  0.00000000000E+00 0. -1.
         11    1    3    3    0    0  0.11749372461E+02 -0.14847447708E+02  0.63692108133E-01  0.18934056977E+02  0.51100000000E-03 0. -1.
        -11    1    3    3    0    0  0.43058083628E+01 -0.11464390170E+02  0.29755508466E+01  0.12602623962E+02  0.51100000000E-03 0.  1.
        -12    1    3    3    0    0  0.60303419198E+00  0.16504672421E+02  0.22319081333E+02  0.27765252629E+02  0.00000000000E+00 0.  1.
</event>
<event>
 7    1  0.3461631E-013  0.5930194E+02  0.7816164E-02  0.1266605E+00
        -11   -1    0    0    0    0  0.00000000000E+00  0.00000000000E+00  0.45593999997E+02  0.45594000000E+02  0.51100000000E-03 0.  1.
         11   -1    0    0    0    0 -0.00000000000E+00 -0.00000000000E+00 -0.45593999997E+02  0.45594000000E+02  0.51100000000E-03 0. -1.
    9900012    2    1    2    0    0  0.23131805651E+02  0.21913674328E+02  0.11964517658E+01  0.59301936398E+02  0.49999986085E+02 0.  0.
         12    1    1    2    0    0 -0.23131805651E+02 -0.21913674328E+02 -0.11964517658E+01  0.31886063602E+02  0.00000000000E+00 0. -1.
         11    1    3    3    0    0  0.13016781699E+02  0.57404638407E+00  0.10008013892E+02  0.16429439351E+02  0.51100000000E-03 0. -1.
        -11    1    3    3    0    0  0.18229076437E+02  0.97756438441E+01  0.68419693042E+01  0.21787037075E+02  0.51100000000E-03 0.  1.
        -12    1    3    3    0    0 -0.81140524848E+01  0.11563984100E+02 -0.15653531431E+02  0.21085459972E+02  0.00000000000E+00 0.  1.
</event>
<event>
 7    1  0.3461631E-013  0.5930195E+02  0.7816164E-02  0.1266605E+00
        -11   -1    0    0    0    0  0.00000000000E+00  0.00000000000E+00  0.45593999997E+02  0.45594000000E+02  0.51100000000E-03 0.  1.
         11   -1    0    0    0    0 -0.00000000000E+00 -0.00000000000E+00 -0.45593999997E+02  0.45594000000E+02  0.51100000000E-03 0. -1.
    9900012    2    1    2    0    0 -0.66370440324E+01  0.30425429957E+02 -0.68529760398E+01  0.59301946275E+02  0.50000004098E+02 0.  0.
         12    1    1    2    0    0  0.66370440324E+01 -0.30425429957E+02  0.68529760398E+01  0.31886053725E+02  0.00000000000E+00 0. -1.
         11    1    3    3    0    0 -0.34762579342E+01  0.71853842116E+00 -0.32017207499E+00  0.35641516671E+01  0.51100000000E-03 0. -1.
        -11    1    3    3    0    0 -0.25500054630E+01 -0.31735651430E+01  0.15583588480E+02  0.16106591003E+02  0.51100000000E-03 0.  1.
         12    1    3    3    0    0 -0.61078063521E+00  0.32880456679E+02 -0.22116392444E+02  0.39631203605E+02  0.00000000000E+00 0. -1.
</event>
<event>
 7    1  0.3461631E-013  0.5930196E+02  0.7816164E-02  0.1266605E+00
        -11   -1    0    0    0    0  0.00000000000E+00  0.00000000000E+00  0.45593999997E+02  0.45594000000E+02  0.51100000000E-03 0. -1.
         11   -1    0    0    0    0 -0.00000000000E+00 -0.00000000000E+00 -0.45593999997E+02  0.45594000000E+02  0.51100000000E-03 0.  1.
    9900012    2    1    2    0    0 -0.26119542174E+02 -0.89383603495E+00 -0.18267189001E+02  0.59301958850E+02  0.50000027032E+02 0.  0.
         12    1    1    2    0    0  0.26119542174E+02  0.89383603495E+00  0.18267189001E+02  0.31886041150E+02  0.00000000000E+00 0. -1.
         11    1    3    3    0    0 -0.12329825820E+02 -0.11692032772E+02 -0.16781647967E+02  0.23882042288E+02  0.51100000000E-03 0. -1.
        -11    1    3    3    0    0 -0.15434263405E+02  0.50859452122E+01 -0.14074418902E+02  0.21498199768E+02  0.51100000000E-03 0.  1.
         12    1    3    3    0    0  0.16445470504E+01  0.57122515251E+01  0.12588877869E+02  0.13921716794E+02  0.00000000000E+00 0. -1.
</event>
<event>
 7    1  0.3461631E-013  0.5930195E+02  0.7816164E-02  0.1266605E+00
        -11   -1    0    0    0    0  0.00000000000E+00  0.00000000000E+00  0.45593999997E+02  0.45594000000E+02  0.51100000000E-03 0. -1.
         11   -1    0    0    0    0 -0.00000000000E+00 -0.00000000000E+00 -0.45593999997E+02  0.45594000000E+02  0.51100000000E-03 0.  1.
    9900012    2    1    2    0    0  0.28937384163E+01  0.29081437366E+02  0.12752112229E+02  0.59301951521E+02  0.50000013666E+02 0.  0.
         12    1    1    2    0    0 -0.28937384163E+01 -0.29081437366E+02 -0.12752112229E+02  0.31886048479E+02  0.00000000000E+00 0. -1.
         11    1    3    3    0    0 -0.14091158236E+02  0.90281168167E+01 -0.54200124223E-01  0.16735309128E+02  0.51100000000E-03 0. -1.
        -11    1    3    3    0    0  0.43163169343E+01  0.15655938659E+02 -0.77724486602E+01  0.18004165230E+02  0.51100000000E-03 0.  1.
         12    1    3    3    0    0  0.12668579718E+02  0.43973818901E+01  0.20578761013E+02  0.24562477164E+02  0.00000000000E+00 0. -1.
</event>
<event>
 7    1  0.3461631E-013  0.5930197E+02  0.7816164E-02  0.1266605E+00
        -11   -1    0    0    0    0  0.00000000000E+00  0.00000000000E+00  0.45593999997E+02  0.45594000000E+02  0.51100000000E-03 0.  1.
         11   -1    0    0    0    0 -0.00000000000E+00 -0.00000000000E+00 -0.45593999997E+02  0.45594000000E+02  0.51100000000E-03 0. -1.
    9900012    2    1    2    0    0 -0.19162064328E+02  0.21560303603E+02  0.13589980779E+02  0.59301968915E+02  0.50000045389E+02 0.  0.
         12    1    1    2    0    0  0.19162064328E+02 -0.21560303603E+02 -0.13589980779E+02  0.31886031085E+02  0.00000000000E+00 0. -1.
         11    1    3    3    0    0  0.26828346429E+01  0.83290078565E+01 -0.87430261105E+01  0.12369740475E+02  0.51100000000E-03 0. -1.
        -11    1    3    3    0    0 -0.40835987017E+01 -0.10712893064E+02  0.63178209607E+01  0.13090329182E+02  0.51100000000E-03 0.  1.
         12    1    3    3    0    0 -0.17761300269E+02  0.23944188811E+02  0.16015185929E+02  0.33841899258E+02  0.00000000000E+00 0. -1.
</event>
<event>
 7    1  0.3461631E-013  0.5930186E+02  0.7816164E-02  0.1266605E+00
        -11   -1    0    0    0    0  0.00000000000E+00  0.00000000000E+00  0.45593999997E+02  0.45594000000E+02  0.51100000000E-03 0.  1.
         11   -1    0    0    0    0 -0.00000000000E+00 -0.00000000000E+00 -0.45593999997E+02  0.45594000000E+02  0.51100000000E-03 0. -1.
    9900012    2    1    2    0    0  0.72918631668E+01  0.29478614245E+02  0.97244970149E+01  0.59301861814E+02  0.49999850061E+02 0.  0.
         12    1    1    2    0    0 -0.72918631668E+01 -0.29478614245E+02 -0.97244970149E+01  0.31886138186E+02  0.00000000000E+00 0. -1.
         11    1    3    3    0    0  0.11578299370E+02  0.30397798193E+02  0.70230693888E+01  0.33277720103E+02  0.51100000000E-03 0. -1.
        -11    1    3    3    0    0  0.44164330990E+01  0.86983177229E+01  0.73834083149E+01  0.12234391327E+02  0.51100000000E-03 0.  1.
         12    1    3    3    0    0 -0.87028693026E+01 -0.96175016717E+01 -0.46819806888E+01  0.13789750385E+02  0.00000000000E+00 0. -1.
</event>
<event>
 7    1  0.3461631E-013  0.5930189E+02  0.7816164E-02  0.1266605E+00
        -11   -1    0    0    0    0  0.00000000000E+00  0.00000000000E+00  0.45593999997E+02  0.45594000000E+02  0.51100000000E-03 0.  1.
         11   -1    0    0    0    0 -0.00000000000E+00 -0.00000000000E+00 -0.45593999997E+02  0.45594000000E+02  0.51100000000E-03 0. -1.
    9900012    2    1    2    0    0  0.25227814491E+02  0.58480289084E+01  0.18603271799E+02  0.59301893500E+02  0.49999907849E+02 0.  0.
         12    1    1    2    0    0 -0.25227814491E+02 -0.58480289084E+01 -0.18603271799E+02  0.31886106500E+02  0.00000000000E+00 0. -1.
         11    1    3    3    0    0  0.13390470703E+02 -0.92907934152E+01  0.13737698492E+02  0.21315438256E+02  0.51100000000E-03 0. -1.
        -11    1    3    3    0    0 -0.10350199620E+01  0.78388417095E+00  0.15778098487E+02  0.15831428642E+02  0.51100000000E-03 0.  1.
         12    1    3    3    0    0  0.12872363750E+02  0.14354938153E+02 -0.10912525180E+02  0.22155026601E+02  0.00000000000E+00 0. -1.
</event>
<event>
 7    1  0.3461631E-013  0.5930192E+02  0.7816164E-02  0.1266605E+00
        -11   -1    0    0    0    0  0.00000000000E+00  0.00000000000E+00  0.45593999997E+02  0.45594000000E+02  0.51100000000E-03 0.  1.
         11   -1    0    0    0    0 -0.00000000000E+00 -0.00000000000E+00 -0.45593999997E+02  0.45594000000E+02  0.51100000000E-03 0. -1.
    9900012    2    1    2    0    0  0.23416125068E+02  0.21642621870E+02  0.62601992444E-01  0.59301922887E+02  0.49999961445E+02 0.  0.
         12    1    1    2    0    0 -0.23416125068E+02 -0.21642621870E+02 -0.62601992444E-01  0.31886077113E+02  0.00000000000E+00 0. -1.
         11    1    3    3    0    0  0.16998302439E+01  0.83890953872E+01 -0.13329439762E+02  0.15841095571E+02  0.51100000000E-03 0. -1.
        -11    1    3    3    0    0  0.10237722851E+02 -0.32741440200E+00 -0.98406309253E+01  0.14204090489E+02  0.51100000000E-03 0.  1.
         12    1    3    3    0    0  0.11478571974E+02  0.13580940885E+02  0.23232672680E+02  0.29256736826E+02  0.00000000000E+00 0. -1.
</event>
<event>
 7    1  0.3461631E-013  0.5930192E+02  0.7816164E-02  0.1266605E+00
        -11   -1    0    0    0    0  0.00000000000E+00  0.00000000000E+00  0.45593999997E+02  0.45594000000E+02  0.51100000000E-03 0. -1.
         11   -1    0    0    0    0 -0.00000000000E+00 -0.00000000000E+00 -0.45593999997E+02  0.45594000000E+02  0.51100000000E-03 0.  1.
    9900012    2    1    2    0    0 -0.20251470451E+02 -0.11790470368E+02 -0.21623707764E+02  0.59301921778E+02  0.49999959422E+02 0.  0.
         12    1    1    2    0    0  0.20251470451E+02  0.11790470368E+02  0.21623707764E+02  0.31886078222E+02  0.00000000000E+00 0. -1.
         11    1    3    3    0    0  0.28673187972E+01 -0.24332416682E+01  0.33525845750E+01  0.50380557455E+01  0.51100000000E-03 0. -1.
        -11    1    3    3    0    0 -0.15507358187E+02 -0.67730046265E+01  0.91267874706E+01  0.19226284077E+02  0.51100000000E-03 0.  1.
        -12    1    3    3    0    0 -0.76114310614E+01 -0.25842240728E+01 -0.34103079809E+02  0.35037581956E+02  0.00000000000E+00 0.  1.
</event>
<event>
 7    1  0.3461631E-013  0.5930190E+02  0.7816164E-02  0.1266605E+00
        -11   -1    0    0    0    0  0.00000000000E+00  0.00000000000E+00  0.45593999997E+02  0.45594000000E+02  0.51100000000E-03 0.  1.
         11   -1    0    0    0    0 -0.00000000000E+00 -0.00000000000E+00 -0.45593999997E+02  0.45594000000E+02  0.51100000000E-03 0. -1.
    9900012    2    1    2    0    0 -0.12623191148E+02 -0.10446129088E+02  0.27354283362E+02  0.59301899801E+02  0.49999919341E+02 0.  0.
         12    1    1    2    0    0  0.12623191148E+02  0.10446129088E+02 -0.27354283362E+02  0.31886100199E+02  0.00000000000E+00 0. -1.
         11    1    3    3    0    0 -0.31894977991E+01 -0.17316672324E+02 -0.82246707965E+01  0.19434125824E+02  0.51100000000E-03 0. -1.
        -11    1    3    3    0    0  0.21361637821E+00  0.57536767686E+01  0.45023499133E+01  0.73090069994E+01  0.51100000000E-03 0.  1.
        -12    1    3    3    0    0 -0.96473097269E+01  0.11168664677E+01  0.31076604245E+02  0.32558766977E+02  0.00000000000E+00 0.  1.
</event>
<event>
 7    1  0.3461631E-013  0.5930194E+02  0.7816164E-02  0.1266605E+00
        -11   -1    0    0    0    0  0.00000000000E+00  0.00000000000E+00  0.45593999997E+02  0.45594000000E+02  0.51100000000E-03 0. -1.
         11   -1    0    0    0    0 -0.00000000000E+00 -0.00000000000E+00 -0.45593999997E+02  0.45594000000E+02  0.51100000000E-03 0.  1.
    9900012    2    1    2    0    0  0.15009449075E+02  0.12548662389E+02 -0.25178727489E+02  0.59301940236E+02  0.49999993085E+02 0.  0.
         12    1    1    2    0    0 -0.15009449075E+02 -0.12548662389E+02  0.25178727489E+02  0.31886059764E+02  0.00000000000E+00 0. -1.
         11    1    3    3    0    0  0.12438713841E+02  0.94197313934E+01 -0.27826084516E+01  0.15849159334E+02  0.51100000000E-03 0. -1.
        -11    1    3    3    0    0 -0.99952857886E+01  0.12813747046E+02 -0.30364846387E+00  0.16253924265E+02  0.51100000000E-03 0.  1.
         12    1    3    3    0    0  0.12566021023E+02 -0.96848160508E+01 -0.22092470574E+02  0.27198856637E+02  0.00000000000E+00 0. -1.
</event>
<event>
 7    1  0.3461631E-013  0.5930198E+02  0.7816164E-02  0.1266605E+00
        -11   -1    0    0    0    0  0.00000000000E+00  0.00000000000E+00  0.45593999997E+02  0.45594000000E+02  0.51100000000E-03 0.  1.
         11   -1    0    0    0    0 -0.00000000000E+00 -0.00000000000E+00 -0.45593999997E+02  0.45594000000E+02  0.51100000000E-03 0. -1.
    9900012    2    1    2    0    0 -0.99676510283E+01  0.77774615916E+01  0.29272431770E+02  0.59301980531E+02  0.50000066573E+02 0.  0.
         12    1    1    2    0    0  0.99676510283E+01 -0.77774615916E+01 -0.29272431770E+02  0.31886019469E+02  0.00000000000E+00 0. -1.
         11    1    3    3    0    0  0.46364467634E+01 -0.58132651890E+00 -0.73179008469E+01  0.86825256796E+01  0.51100000000E-03 0. -1.
        -11    1    3    3    0    0 -0.84959126541E-01  0.17617664943E+02  0.20766478820E+02  0.27232994307E+02  0.51100000000E-03 0.  1.
         12    1    3    3    0    0 -0.14519138665E+02 -0.92588768325E+01  0.15823853797E+02  0.23386460544E+02  0.00000000000E+00 0. -1.
</event>
<event>
 7    1  0.3461631E-013  0.5930197E+02  0.7816164E-02  0.1266605E+00
        -11   -1    0    0    0    0  0.00000000000E+00  0.00000000000E+00  0.45593999997E+02  0.45594000000E+02  0.51100000000E-03 0.  1.
         11   -1    0    0    0    0 -0.00000000000E+00 -0.00000000000E+00 -0.45593999997E+02  0.45594000000E+02  0.51100000000E-03 0. -1.
    9900012    2    1    2    0    0 -0.28365676404E+02  0.13205336663E+02 -0.61421738413E+01  0.59301971496E+02  0.50000050096E+02 0.  0.
         12    1    1    2    0    0  0.28365676404E+02 -0.13205336663E+02  0.61421738413E+01  0.31886028504E+02  0.00000000000E+00 0. -1.
         11    1    3    3    0    0  0.20783946365E+01 -0.26217609401E+01 -0.80883656919E+01  0.87530003152E+01  0.51100000000E-03 0. -1.
        -11    1    3    3    0    0 -0.13160746988E+02 -0.10527358948E+02 -0.62660957074E+01  0.17980392192E+02  0.51100000000E-03 0.  1.
        -12    1    3    3    0    0 -0.17283324053E+02  0.26354456552E+02  0.82122875580E+01  0.32568578989E+02  0.00000000000E+00 0.  1.
</event>
<event>
 7    1  0.3461631E-013  0.5930197E+02  0.7816164E-02  0.1266605E+00
        -11   -1    0    0    0    0  0.00000000000E+00  0.00000000000E+00  0.45593999997E+02  0.45594000000E+02  0.51100000000E-03 0.  1.
         11   -1    0    0    0    0 -0.00000000000E+00 -0.00000000000E+00 -0.45593999997E+02  0.45594000000E+02  0.51100000000E-03 0. -1.
    9900012    2    1    2    0    0 -0.23553092235E+02  0.12831058027E+02  0.17243388850E+02  0.59301973860E+02  0.50000054407E+02 0.  0.
         12    1    1    2    0    0  0.23553092235E+02 -0.12831058027E+02 -0.17243388850E+02  0.31886026140E+02  0.00000000000E+00 0. -1.
         11    1    3    3    0    0 -0.53404058378E+01  0.44060050839E+01  0.10203121352E+02  0.12330308224E+02  0.51100000000E-03 0. -1.
        -11    1    3    3    0    0 -0.95857640435E+01  0.22020532793E+02  0.15696317502E+02  0.28690854295E+02  0.51100000000E-03 0.  1.
         12    1    3    3    0    0 -0.86269223542E+01 -0.13595479850E+02 -0.86560500031E+01  0.18280811342E+02  0.00000000000E+00 0. -1.
</event>
<event>
 7    1  0.3461631E-013  0.5930172E+02  0.7816164E-02  0.1266606E+00
        -11   -1    0    0    0    0  0.00000000000E+00  0.00000000000E+00  0.45593999997E+02  0.45594000000E+02  0.51100000000E-03 0.  1.
         11   -1    0    0    0    0 -0.00000000000E+00 -0.00000000000E+00 -0.45593999997E+02  0.45594000000E+02  0.51100000000E-03 0. -1.
    9900012    2    1    2    0    0  0.21474936668E+02  0.21222558965E+02  0.10255010734E+02  0.59301715189E+02  0.49999582651E+02 0.  0.
         12    1    1    2    0    0 -0.21474936668E+02 -0.21222558965E+02 -0.10255010734E+02  0.31886284811E+02  0.00000000000E+00 0. -1.
         11    1    3    3    0    0  0.80124288013E+01  0.63704518392E+01 -0.21265042411E+01  0.10454840624E+02  0.51100000000E-03 0. -1.
        -11    1    3    3    0    0  0.23722765402E+01  0.25453285271E+02  0.19286173971E+02  0.32022709657E+02  0.51100000000E-03 0.  1.
        -12    1    3    3    0    0  0.11090231327E+02 -0.10601178146E+02 -0.69046589965E+01  0.16824164907E+02  0.00000000000E+00 0.  1.
</event>
<event>
 7    1  0.3461631E-013  0.5930192E+02  0.7816164E-02  0.1266605E+00
        -11   -1    0    0    0    0  0.00000000000E+00  0.00000000000E+00  0.45593999997E+02  0.45594000000E+02  0.51100000000E-03 0.  1.
         11   -1    0    0    0    0 -0.00000000000E+00 -0.00000000000E+00 -0.45593999997E+02  0.45594000000E+02  0.51100000000E-03 0. -1.
    9900012    2    1    2    0    0  0.18956505894E+02 -0.35634109293E+01  0.25390450577E+02  0.59301921632E+02  0.49999959156E+02 0.  0.
         12    1    1    2    0    0 -0.18956505894E+02  0.35634109293E+01 -0.25390450577E+02  0.31886078368E+02  0.00000000000E+00 0. -1.
         11    1    3    3    0    0  0.16941986453E+02 -0.58360258336E+01  0.19927882347E+02  0.26799451442E+02  0.51100000000E-03 0.  1.
        -11    1    3    3    0    0  0.15120707232E+02  0.77423499789E+00  0.10453138883E+02  0.18398460256E+02  0.51100000000E-03 0. -1.
        -12    1    3    3    0    0 -0.13106187792E+02  0.14983799064E+01 -0.49905706524E+01  0.14104009934E+02  0.00000000000E+00 0.  1.
</event>
<event>
 7    1  0.3461631E-013  0.5930194E+02  0.7816164E-02  0.1266605E+00
        -11   -1    0    0    0    0  0.00000000000E+00  0.00000000000E+00  0.45593999997E+02  0.45594000000E+02  0.51100000000E-03 0.  1.
         11   -1    0    0    0    0 -0.00000000000E+00 -0.00000000000E+00 -0.45593999997E+02  0.45594000000E+02  0.51100000000E-03 0. -1.
    9900012    2    1    2    0    0  0.15620657249E+02 -0.23185721408E+02  0.15334214533E+02  0.59301941205E+02  0.49999994853E+02 0.  0.
         12    1    1    2    0    0 -0.15620657249E+02  0.23185721408E+02 -0.15334214533E+02  0.31886058795E+02  0.00000000000E+00 0. -1.
         11    1    3    3    0    0  0.81237908468E+01  0.24636559070E+01  0.69231482561E+01  0.10954248499E+02  0.51100000000E-03 0. -1.
        -11    1    3    3    0    0  0.79813881018E+01 -0.25169824470E+02  0.22227173361E+02  0.34514777353E+02  0.51100000000E-03 0.  1.
         12    1    3    3    0    0 -0.48452169954E+00 -0.47955284547E+00 -0.13816107084E+02  0.13832915353E+02  0.00000000000E+00 0. -1.
</event>
<event>
 7    1  0.3461631E-013  0.5930198E+02  0.7816164E-02  0.1266605E+00
        -11   -1    0    0    0    0  0.00000000000E+00  0.00000000000E+00  0.45593999997E+02  0.45594000000E+02  0.51100000000E-03 0.  1.
         11   -1    0    0    0    0 -0.00000000000E+00 -0.00000000000E+00 -0.45593999997E+02  0.45594000000E+02  0.51100000000E-03 0. -1.
    9900012    2    1    2    0    0 -0.18165172162E+01  0.13124695819E+02  0.29002775984E+02  0.59301978142E+02  0.50000062216E+02 0.  0.
         12    1    1    2    0    0  0.18165172162E+01 -0.13124695819E+02 -0.29002775984E+02  0.31886021858E+02  0.00000000000E+00 0. -1.
         11    1    3    3    0    0 -0.45798264526E+01 -0.55489287447E+01  0.38613759185E+01  0.81655155866E+01  0.51100000000E-03 0. -1.
        -11    1    3    3    0    0  0.16505388185E+02 -0.17114955900E+01  0.91203494824E+00  0.16618930901E+02  0.51100000000E-03 0.  1.
        -12    1    3    3    0    0 -0.13742078948E+02  0.20385120154E+02  0.24229365118E+02  0.34517531654E+02  0.00000000000E+00 0.  1.
</event>
<event>
 7    1  0.3461631E-013  0.5930193E+02  0.7816164E-02  0.1266605E+00
        -11   -1    0    0    0    0  0.00000000000E+00  0.00000000000E+00  0.45593999997E+02  0.45594000000E+02  0.51100000000E-03 0.  1.
         11   -1    0    0    0    0 -0.00000000000E+00 -0.00000000000E+00 -0.45593999997E+02  0.45594000000E+02  0.51100000000E-03 0. -1.
    9900012    2    1    2    0    0 -0.17379835710E+02 -0.21168091982E+02  0.16327122762E+02  0.59301925529E+02  0.49999966264E+02 0.  0.
         12    1    1    2    0    0  0.17379835710E+02  0.21168091982E+02 -0.16327122762E+02  0.31886074471E+02  0.00000000000E+00 0. -1.
         11    1    3    3    0    0  0.38838667809E+01 -0.10413881858E+02 -0.21279277584E+01  0.11316423169E+02  0.51100000000E-03 0. -1.
        -11    1    3    3    0    0 -0.12750827447E+02 -0.24646377385E+02  0.91302122714E+01  0.29212810463E+02  0.51100000000E-03 0.  1.
        -12    1    3    3    0    0 -0.85128750445E+01  0.13892167261E+02  0.93248382486E+01  0.18772691898E+02  0.00000000000E+00 0.  1.
</event>
<event>
 7    1  0.3461631E-013  0.5930228E+02  0.7816164E-02  0.1266604E+00
        -11   -1    0    0    0    0  0.00000000000E+00  0.00000000000E+00  0.45593999997E+02  0.45594000000E+02  0.51100000000E-03 0. -1.
         11   -1    0    0    0    0 -0.00000000000E+00 -0.00000000000E+00 -0.45593999997E+02  0.45594000000E+02  0.51100000000E-03 0.  1.
    9900012    2    1    2    0    0 -0.16886862719E+02 -0.46861457779E+01 -0.26637808028E+02  0.59302283586E+02  0.50000619269E+02 0.  0.
         12    1    1    2    0    0  0.16886862719E+02  0.46861457779E+01  0.26637808028E+02  0.31885716414E+02  0.00000000000E+00 0. -1.
         11    1    3    3    0    0  0.43824618970E+01 -0.19094180283E+02 -0.12707083701E+02  0.23350881556E+02  0.51100000000E-03 0. -1.
        -11    1    3    3    0    0  0.11765572251E+01 -0.37754842302E+01 -0.18019012144E+00  0.39586660401E+01  0.51100000000E-03 0.  1.
        -12    1    3    3    0    0 -0.22445881841E+02  0.18183518736E+02 -0.13750534205E+02  0.31992735990E+02  0.00000000000E+00 0.  1.
</event>
<event>
 7    1  0.3461631E-013  0.5930193E+02  0.7816164E-02  0.1266605E+00
        -11   -1    0    0    0    0  0.00000000000E+00  0.00000000000E+00  0.45593999997E+02  0.45594000000E+02  0.51100000000E-03 0.  1.
         11   -1    0    0    0    0 -0.00000000000E+00 -0.00000000000E+00 -0.45593999997E+02  0.45594000000E+02  0.51100000000E-03 0. -1.
    9900012    2    1    2    0    0 -0.31551334822E+02 -0.41818992268E+01  0.19355221147E+01  0.59301933199E+02  0.49999980251E+02 0.  0.
         12    1    1    2    0    0  0.31551334822E+02  0.41818992268E+01 -0.19355221147E+01  0.31886066801E+02  0.00000000000E+00 0. -1.
         11    1    3    3    0    0  0.10333949652E+01  0.99325411092E+01 -0.10613703345E+02  0.14573056542E+02  0.51100000000E-03 0. -1.
        -11    1    3    3    0    0 -0.16432818515E+02 -0.37484938985E+01 -0.61418344043E+01  0.17939087517E+02  0.51100000000E-03 0.  1.
        -12    1    3    3    0    0 -0.16151911272E+02 -0.10365946437E+02  0.18691059864E+02  0.26789789139E+02  0.00000000000E+00 0.  1.
</event>
<event>
 7    1  0.3461631E-013  0.5930195E+02  0.7816164E-02  0.1266605E+00
        -11   -1    0    0    0    0  0.00000000000E+00  0.00000000000E+00  0.45593999997E+02  0.45594000000E+02  0.51100000000E-03 0.  1.
         11   -1    0    0    0    0 -0.00000000000E+00 -0.00000000000E+00 -0.45593999997E+02  0.45594000000E+02  0.51100000000E-03 0. -1.
    9900012    2    1    2    0    0 -0.20986703868E+02 -0.23711019903E+02  0.37504926813E+01  0.59301946631E+02  0.50000004749E+02 0.  0.
         12    1    1    2    0    0  0.20986703868E+02  0.23711019903E+02 -0.37504926813E+01  0.31886053369E+02  0.00000000000E+00 0. -1.
         11    1    3    3    0    0 -0.19818491816E+01 -0.14061873189E+02  0.31734091312E+01  0.14551100630E+02  0.51100000000E-03 0. -1.
        -11    1    3    3    0    0  0.17000153882E+01 -0.10690905492E+02  0.15713951540E+02  0.19081765794E+02  0.51100000000E-03 0.  1.
        -12    1    3    3    0    0 -0.20704870074E+02  0.10417587779E+01 -0.15136867990E+02  0.25669080207E+02  0.00000000000E+00 0.  1.
</event>
<event>
 7    1  0.3461631E-013  0.5930194E+02  0.7816164E-02  0.1266605E+00
        -11   -1    0    0    0    0  0.00000000000E+00  0.00000000000E+00  0.45593999997E+02  0.45594000000E+02  0.51100000000E-03 0.  1.
         11   -1    0    0    0    0 -0.00000000000E+00 -0.00000000000E+00 -0.45593999997E+02  0.45594000000E+02  0.51100000000E-03 0. -1.
    9900012    2    1    2    0    0 -0.21821639017E+02 -0.14616022118E+02  0.18080627590E+02  0.59301935238E+02  0.49999983970E+02 0.  0.
         12    1    1    2    0    0  0.21821639017E+02  0.14616022118E+02 -0.18080627590E+02  0.31886064762E+02  0.00000000000E+00 0. -1.
         11    1    3    3    0    0 -0.23247693730E+01  0.32880252188E+01  0.36324171520E+01  0.54231095419E+01  0.51100000000E-03 0.  1.
        -11    1    3    3    0    0 -0.33115321633E+02 -0.63769879699E+01  0.64902694637E+01  0.34342598917E+02  0.51100000000E-03 0. -1.
         12    1    3    3    0    0  0.13618451989E+02 -0.11527059367E+02  0.79579409743E+01  0.19536226779E+02  0.00000000000E+00 0. -1.
</event>
<event>
 7    1  0.3461631E-013  0.5930193E+02  0.7816164E-02  0.1266605E+00
        -11   -1    0    0    0    0  0.00000000000E+00  0.00000000000E+00  0.45593999997E+02  0.45594000000E+02  0.51100000000E-03 0. -1.
         11   -1    0    0    0    0 -0.00000000000E+00 -0.00000000000E+00 -0.45593999997E+02  0.45594000000E+02  0.51100000000E-03 0.  1.
    9900012    2    1    2    0    0 -0.23059800267E+02 -0.22021811447E+02  0.81763153475E-01  0.59301933247E+02  0.49999980338E+02 0.  0.
         12    1    1    2    0    0  0.23059800267E+02  0.22021811447E+02 -0.81763153475E-01  0.31886066753E+02  0.00000000000E+00 0. -1.
         11    1    3    3    0    0 -0.94620093824E+01  0.77535102664E+01  0.40962880645E+01  0.12900624759E+02  0.51100000000E-03 0. -1.
        -11    1    3    3    0    0 -0.16263267243E+02 -0.12516488449E+02  0.11076751700E+02  0.23320608333E+02  0.51100000000E-03 0.  1.
        -12    1    3    3    0    0  0.26654763590E+01 -0.17258833264E+02 -0.15091276611E+02  0.23080700155E+02  0.00000000000E+00 0.  1.
</event>
<event>
 7    1  0.3461631E-013  0.5930195E+02  0.7816164E-02  0.1266605E+00
        -11   -1    0    0    0    0  0.00000000000E+00  0.00000000000E+00  0.45593999997E+02  0.45594000000E+02  0.51100000000E-03 0. -1.
         11   -1    0    0    0    0 -0.00000000000E+00 -0.00000000000E+00 -0.45593999997E+02  0.45594000000E+02  0.51100000000E-03 0.  1.
    9900012    2    1    2    0    0  0.16337285248E+02 -0.16542016305E+02 -0.21821438214E+02  0.59301947274E+02  0.50000005921E+02 0.  0.
         12    1    1    2    0    0 -0.16337285248E+02  0.16542016305E+02  0.21821438214E+02  0.31886052726E+02  0.00000000000E+00 0. -1.
         11    1    3    3    0    0  0.17514188450E+01  0.10262006451E+02  0.17499615099E+01  0.10556448736E+02  0.51100000000E-03 0. -1.
        -11    1    3    3    0    0 -0.38450258321E+00  0.63032177161E+01 -0.29946491199E+01  0.69890141956E+01  0.51100000000E-03 0.  1.
        -12    1    3    3    0    0  0.14970368986E+02 -0.33107240472E+02 -0.20576750604E+02  0.41756484343E+02  0.00000000000E+00 0.  1.
</event>
<event>
 7    1  0.3461631E-013  0.5930194E+02  0.7816164E-02  0.1266605E+00
        -11   -1    0    0    0    0  0.00000000000E+00  0.00000000000E+00  0.45593999997E+02  0.45594000000E+02  0.51100000000E-03 0. -1.
         11   -1    0    0    0    0 -0.00000000000E+00 -0.00000000000E+00 -0.45593999997E+02  0.45594000000E+02  0.51100000000E-03 0.  1.
    9900012    2    1    2    0    0 -0.18903497595E+02  0.93699373384E+01 -0.23907800912E+02  0.59301938916E+02  0.49999990677E+02 0.  0.
         12    1    1    2    0    0  0.18903497595E+02 -0.93699373384E+01  0.23907800912E+02  0.31886061084E+02  0.00000000000E+00 0. -1.
         11    1    3    3    0    0 -0.47743984043E+01  0.81556307522E+00  0.20032194052E+01  0.52414608173E+01  0.51100000000E-03 0. -1.
        -11    1    3    3    0    0 -0.17826830493E+02 -0.99350015335E+01  0.18603439614E+01  0.20492950515E+02  0.51100000000E-03 0.  1.
         12    1    3    3    0    0  0.36977313030E+01  0.18489375797E+02 -0.27771364278E+02  0.33567527583E+02  0.00000000000E+00 0. -1.
</event>
<event>
 7    1  0.3461631E-013  0.5930196E+02  0.7816164E-02  0.1266605E+00
        -11   -1    0    0    0    0  0.00000000000E+00  0.00000000000E+00  0.45593999997E+02  0.45594000000E+02  0.51100000000E-03 0. -1.
         11   -1    0    0    0    0 -0.00000000000E+00 -0.00000000000E+00 -0.45593999997E+02  0.45594000000E+02  0.51100000000E-03 0.  1.
    9900012    2    1    2    0    0 -0.14567525320E+02  0.17117045658E+02 -0.22616668170E+02  0.59301957205E+02  0.50000024032E+02 0.  0.
         12    1    1    2    0    0  0.14567525320E+02 -0.17117045658E+02  0.22616668170E+02  0.31886042795E+02  0.00000000000E+00 0. -1.
         11    1    3    3    0    0  0.11705764445E+01  0.22829295822E+01 -0.88299729292E+01  0.91951312596E+01  0.51100000000E-03 0. -1.
        -11    1    3    3    0    0 -0.54091483000E+01 -0.60130207908E+01 -0.23531602741E+02  0.24882757729E+02  0.51100000000E-03 0.  1.
         12    1    3    3    0    0 -0.10328953465E+02  0.20847136867E+02  0.97449075000E+01  0.25224068217E+02  0.00000000000E+00 0. -1.
</event>
<event>
 7    1  0.3461631E-013  0.5930177E+02  0.7816164E-02  0.1266605E+00
        -11   -1    0    0    0    0  0.00000000000E+00  0.00000000000E+00  0.45593999997E+02  0.45594000000E+02  0.51100000000E-03 0.  1.
         11   -1    0    0    0    0 -0.00000000000E+00 -0.00000000000E+00 -0.45593999997E+02  0.45594000000E+02  0.51100000000E-03 0. -1.
    9900012    2    1    2    0    0  0.83784036512E+01  0.28294848621E+02  0.12080371375E+02  0.59301772898E+02  0.49999687900E+02 0.  0.
         12    1    1    2    0    0 -0.83784036512E+01 -0.28294848621E+02 -0.12080371375E+02  0.31886227102E+02  0.00000000000E+00 0. -1.
         11    1    3    3    0    0  0.75006185376E+01  0.10137396003E+02  0.25230201054E+01  0.12860470710E+02  0.51100000000E-03 0.  1.
        -11    1    3    3    0    0 -0.13528205734E+01  0.17810163867E+01 -0.15917952603E+02  0.16074307395E+02  0.51100000000E-03 0. -1.
         12    1    3    3    0    0  0.22306056870E+01  0.16376436231E+02  0.25475303873E+02  0.30366994794E+02  0.00000000000E+00 0. -1.
</event>
<event>
 7    1  0.3461631E-013  0.5930195E+02  0.7816164E-02  0.1266605E+00
        -11   -1    0    0    0    0  0.00000000000E+00  0.00000000000E+00  0.45593999997E+02  0.45594000000E+02  0.51100000000E-03 0. -1.
         11   -1    0    0    0    0 -0.00000000000E+00 -0.00000000000E+00 -0.45593999997E+02  0.45594000000E+02  0.51100000000E-03 0.  1.
    9900012    2    1    2    0    0  0.21500540307E+02 -0.23207680820E+02 -0.39813057258E+01  0.59301945403E+02  0.50000002507E+02 0.  0.
         12    1    1    2    0    0 -0.21500540307E+02  0.23207680820E+02  0.39813057258E+01  0.31886054597E+02  0.00000000000E+00 0. -1.
         11    1    3    3    0    0  0.42484988132E+01 -0.20452886705E+01  0.39874053545E+01  0.61751396449E+01  0.51100000000E-03 0. -1.
        -11    1    3    3    0    0  0.12136308271E+02 -0.86559328651E+01  0.18290064443E+02  0.23595372636E+02  0.51100000000E-03 0.  1.
        -12    1    3    3    0    0  0.51157332223E+01 -0.12506459284E+02 -0.26258775524E+02  0.29531433122E+02  0.00000000000E+00 0.  1.
</event>
<event>
 7    1  0.3461631E-013  0.5930194E+02  0.7816164E-02  0.1266605E+00
        -11   -1    0    0    0    0  0.00000000000E+00  0.00000000000E+00  0.45593999997E+02  0.45594000000E+02  0.51100000000E-03 0.  1.
         11   -1    0    0    0    0 -0.00000000000E+00 -0.00000000000E+00 -0.45593999997E+02  0.45594000000E+02  0.51100000000E-03 0. -1.
    9900012    2    1    2    0    0 -0.27662908065E+02 -0.60222406421E+01  0.14670281538E+02  0.59301936816E+02  0.49999986847E+02 0.  0.
         12    1    1    2    0    0  0.27662908065E+02  0.60222406421E+01 -0.14670281538E+02  0.31886063184E+02  0.00000000000E+00 0. -1.
         11    1    3    3    0    0 -0.82244744410E+00 -0.79427242498E+01 -0.11264378640E+01  0.80642514116E+01  0.51100000000E-03 0. -1.
        -11    1    3    3    0    0  0.21597886774E+00  0.96832716034E+01 -0.93724355442E+01  0.13477942874E+02  0.51100000000E-03 0.  1.
        -12    1    3    3    0    0 -0.27056439489E+02 -0.77627879956E+01  0.25169154946E+02  0.37759742531E+02  0.00000000000E+00 0.  1.
</event>
<event>
 7    1  0.3461631E-013  0.5930195E+02  0.7816164E-02  0.1266605E+00
        -11   -1    0    0    0    0  0.00000000000E+00  0.00000000000E+00  0.45593999997E+02  0.45594000000E+02  0.51100000000E-03 0.  1.
         11   -1    0    0    0    0 -0.00000000000E+00 -0.00000000000E+00 -0.45593999997E+02  0.45594000000E+02  0.51100000000E-03 0. -1.
    9900012    2    1    2    0    0  0.85546057260E+01  0.10493467657E+02  0.28869118416E+02  0.59301950688E+02  0.50000012147E+02 0.  0.
         12    1    1    2    0    0 -0.85546057260E+01 -0.10493467657E+02 -0.28869118416E+02  0.31886049312E+02  0.00000000000E+00 0. -1.
         11    1    3    3    0    0  0.10620349244E+02 -0.48759424458E+01 -0.64652324244E+01  0.13355368335E+02  0.51100000000E-03 0. -1.
        -11    1    3    3    0    0  0.49606293814E+01 -0.77959548841E+00 -0.13963279860E+01  0.52120384775E+01  0.51100000000E-03 0.  1.
        -12    1    3    3    0    0 -0.70263728995E+01  0.16149005592E+02  0.36730678826E+02  0.40734543876E+02  0.00000000000E+00 0.  1.
</event>
<event>
 7    1  0.3461631E-013  0.5930192E+02  0.7816164E-02  0.1266605E+00
        -11   -1    0    0    0    0  0.00000000000E+00  0.00000000000E+00  0.45593999997E+02  0.45594000000E+02  0.51100000000E-03 0. -1.
         11   -1    0    0    0    0 -0.00000000000E+00 -0.00000000000E+00 -0.45593999997E+02  0.45594000000E+02  0.51100000000E-03 0.  1.
    9900012    2    1    2    0    0  0.62636813184E+01  0.31109947137E+02 -0.31080254450E+01  0.59301916253E+02  0.49999949346E+02 0.  0.
         12    1    1    2    0    0 -0.62636813184E+01 -0.31109947137E+02  0.31080254450E+01  0.31886083747E+02  0.00000000000E+00 0. -1.
         11    1    3    3    0    0  0.15959601022E+01  0.82801271421E+01  0.89348459079E+01  0.12285726100E+02  0.51100000000E-03 0. -1.
        -11    1    3    3    0    0  0.16459006799E+02  0.28056165719E+02 -0.92865337690E+01  0.33827312181E+02  0.51100000000E-03 0.  1.
        -12    1    3    3    0    0 -0.11791285582E+02 -0.52263457242E+01 -0.27563375838E+01  0.13188877973E+02  0.00000000000E+00 0.  1.
</event>
<event>
 7    1  0.3461631E-013  0.5930194E+02  0.7816164E-02  0.1266605E+00
        -11   -1    0    0    0    0  0.00000000000E+00  0.00000000000E+00  0.45593999997E+02  0.45594000000E+02  0.51100000000E-03 0. -1.
         11   -1    0    0    0    0 -0.00000000000E+00 -0.00000000000E+00 -0.45593999997E+02  0.45594000000E+02  0.51100000000E-03 0.  1.
    9900012    2    1    2    0    0 -0.72573784579E+01  0.16414452454E+02  0.26355583389E+02  0.59301944000E+02  0.49999999950E+02 0.  0.
         12    1    1    2    0    0  0.72573784579E+01 -0.16414452454E+02 -0.26355583389E+02  0.31886056000E+02  0.00000000000E+00 0. -1.
         11    1    3    3    0    0  0.10361915011E+01  0.90176174290E+01 -0.36117645656E+00  0.90841381329E+01  0.51100000000E-03 0. -1.
        -11    1    3    3    0    0 -0.39391908027E+00  0.10609877868E+02 -0.87387967273E+01  0.13751045383E+02  0.51100000000E-03 0.  1.
         12    1    3    3    0    0 -0.78996508787E+01 -0.32130428433E+01  0.35455556573E+02  0.36466760484E+02  0.00000000000E+00 0. -1.
</event>
<event>
 7    1  0.3461631E-013  0.5930192E+02  0.7816164E-02  0.1266605E+00
        -11   -1    0    0    0    0  0.00000000000E+00  0.00000000000E+00  0.45593999997E+02  0.45594000000E+02  0.51100000000E-03 0.  1.
         11   -1    0    0    0    0 -0.00000000000E+00 -0.00000000000E+00 -0.45593999997E+02  0.45594000000E+02  0.51100000000E-03 0. -1.
    9900012    2    1    2    0    0 -0.25796636031E+02  0.17445259335E+02  0.68497144523E+01  0.59301920093E+02  0.49999956348E+02 0.  0.
         12    1    1    2    0    0  0.25796636031E+02 -0.17445259335E+02 -0.68497144523E+01  0.31886079907E+02  0.00000000000E+00 0. -1.
         11    1    3    3    0    0  0.76553688385E+01 -0.29623834944E+01 -0.39638597713E+01  0.91155127431E+01  0.51100000000E-03 0. -1.
        -11    1    3    3    0    0 -0.12594268298E+02 -0.14480866499E+00 -0.84218966195E+01  0.15151399487E+02  0.51100000000E-03 0.  1.
        -12    1    3    3    0    0 -0.20857736572E+02  0.20552451494E+02  0.19235470843E+02  0.35035007862E+02  0.00000000000E+00 0.  1.
</event>
<event>
 7    1  0.3461631E-013  0.5930193E+02  0.7816164E-02  0.1266605E+00
        -11   -1    0    0    0    0  0.00000000000E+00  0.00000000000E+00  0.45593999997E+02  0.45594000000E+02  0.51100000000E-03 0.  1.
         11   -1    0    0    0    0 -0.00000000000E+00 -0.00000000000E+00 -0.45593999997E+02  0.45594000000E+02  0.51100000000E-03 0. -1.
    9900012    2    1    2    0    0 -0.63948701954E+01 -0.29491056468E+02  0.10300701841E+02  0.59301933531E+02  0.49999980857E+02 0.  0.
         12    1    1    2    0    0  0.63948701954E+01  0.29491056468E+02 -0.10300701841E+02  0.31886066469E+02  0.00000000000E+00 0. -1.
         11    1    3    3    0    0  0.35207464152E+01 -0.83508439998E+01 -0.15356127784E+02  0.17830953749E+02  0.51100000000E-03 0. -1.
        -11    1    3    3    0    0 -0.52085848543E+01  0.30790937584E+00  0.17143402352E+02  0.17919832835E+02  0.51100000000E-03 0.  1.
        -12    1    3    3    0    0 -0.47070317563E+01 -0.21448121844E+02  0.85134272733E+01  0.23551146947E+02  0.00000000000E+00 0.  1.
</event>
<event>
 7    1  0.3461631E-013  0.5930197E+02  0.7816164E-02  0.1266605E+00
        -11   -1    0    0    0    0  0.00000000000E+00  0.00000000000E+00  0.45593999997E+02  0.45594000000E+02  0.51100000000E-03 0.  1.
         11   -1    0    0    0    0 -0.00000000000E+00 -0.00000000000E+00 -0.45593999997E+02  0.45594000000E+02  0.51100000000E-03 0. -1.
    9900012    2    1    2    0    0 -0.88409742653E+01 -0.25634669651E+02 -0.16775578378E+02  0.59301966317E+02  0.50000040651E+02 0.  0.
         12    1    1    2    0    0  0.88409742653E+01  0.25634669651E+02  0.16775578378E+02  0.31886033683E+02  0.00000000000E+00 0. -1.
         11    1    3    3    0    0  0.88804882860E+01  0.78850992918E+01 -0.10262469310E+02  0.15695736352E+02  0.51100000000E-03 0. -1.
        -11    1    3    3    0    0 -0.26653893738E+01 -0.55645059792E+01 -0.99093967105E+01  0.11673224522E+02  0.51100000000E-03 0.  1.
        -12    1    3    3    0    0 -0.15056073177E+02 -0.27955262964E+02  0.33962876421E+01  0.31933005443E+02  0.00000000000E+00 0.  1.
</event>
<event>
 7    1  0.3461631E-013  0.5930194E+02  0.7816164E-02  0.1266605E+00
        -11   -1    0    0    0    0  0.00000000000E+00  0.00000000000E+00  0.45593999997E+02  0.45594000000E+02  0.51100000000E-03 0.  1.
         11   -1    0    0    0    0 -0.00000000000E+00 -0.00000000000E+00 -0.45593999997E+02  0.45594000000E+02  0.51100000000E-03 0. -1.
    9900012    2    1    2    0    0 -0.33689916545E+01  0.30460233684E+02  0.88059516508E+01  0.59301941521E+02  0.49999995428E+02 0.  0.
         12    1    1    2    0    0  0.33689916545E+01 -0.30460233684E+02 -0.88059516508E+01  0.31886058479E+02  0.00000000000E+00 0. -1.
         11    1    3    3    0    0 -0.81491103933E+01  0.35837077621E+02  0.13571537561E+02  0.39177681971E+02  0.51100000000E-03 0. -1.
        -11    1    3    3    0    0 -0.51262498855E+01  0.30277331497E+01 -0.38726808175E+01  0.71023420708E+01  0.51100000000E-03 0.  1.
        -12    1    3    3    0    0  0.99063686244E+01 -0.84045770865E+01 -0.89290509250E+00  0.13021917479E+02  0.00000000000E+00 0.  1.
</event>
<event>
 7    1  0.3461631E-013  0.5930198E+02  0.7816164E-02  0.1266605E+00
        -11   -1    0    0    0    0  0.00000000000E+00  0.00000000000E+00  0.45593999997E+02  0.45594000000E+02  0.51100000000E-03 0. -1.
         11   -1    0    0    0    0 -0.00000000000E+00 -0.00000000000E+00 -0.45593999997E+02  0.45594000000E+02  0.51100000000E-03 0.  1.
    9900012    2    1    2    0    0  0.11820385387E+02 -0.25021420058E+02  0.15840624838E+02  0.59301978491E+02  0.50000062854E+02 0.  0.
         12    1    1    2    0    0 -0.11820385387E+02  0.25021420058E+02 -0.15840624838E+02  0.31886021509E+02  0.00000000000E+00 0. -1.
         11    1    3    3    0    0 -0.65647957630E+00 -0.20215464527E+02 -0.47223611434E+01  0.20770090672E+02  0.51100000000E-03 0. -1.
        -11    1    3    3    0    0  0.59941752931E+01 -0.15597991924E+02  0.30860190039E+01  0.16992674983E+02  0.51100000000E-03 0.  1.
         12    1    3    3    0    0  0.64826896701E+01  0.10792036394E+02  0.17476966977E+02  0.21539212837E+02  0.00000000000E+00 0. -1.
</event>
<event>
 7    1  0.3461631E-013  0.5930197E+02  0.7816164E-02  0.1266605E+00
        -11   -1    0    0    0    0  0.00000000000E+00  0.00000000000E+00  0.45593999997E+02  0.45594000000E+02  0.51100000000E-03 0.  1.
         11   -1    0    0    0    0 -0.00000000000E+00 -0.00000000000E+00 -0.45593999997E+02  0.45594000000E+02  0.51100000000E-03 0. -1.
    9900012    2    1    2    0    0  0.21584700391E+02 -0.21301523923E+01  0.23372684021E+02  0.59301965462E+02  0.50000039091E+02 0.  0.
         12    1    1    2    0    0 -0.21584700391E+02  0.21301523923E+01 -0.23372684021E+02  0.31886034538E+02  0.00000000000E+00 0. -1.
         11    1    3    3    0    0  0.95129786280E+01  0.30762533690E+01  0.77018402371E+01  0.12620556266E+02  0.51100000000E-03 0. -1.
        -11    1    3    3    0    0  0.21768973570E+02 -0.14899848260E+02  0.19075076782E+02  0.32553836072E+02  0.51100000000E-03 0.  1.
         12    1    3    3    0    0 -0.96972518067E+01  0.96934424986E+01 -0.34042329982E+01  0.14127573124E+02  0.00000000000E+00 0. -1.
</event>
<event>
 7    1  0.3461631E-013  0.5930194E+02  0.7816164E-02  0.1266605E+00
        -11   -1    0    0    0    0  0.00000000000E+00  0.00000000000E+00  0.45593999997E+02  0.45594000000E+02  0.51100000000E-03 0.  1.
         11   -1    0    0    0    0 -0.00000000000E+00 -0.00000000000E+00 -0.45593999997E+02  0.45594000000E+02  0.51100000000E-03 0. -1.
    9900012    2    1    2    0    0  0.28226499309E+02  0.14491088838E+02  0.31613180596E+01  0.59301939553E+02  0.49999991839E+02 0.  0.
         12    1    1    2    0    0 -0.28226499309E+02 -0.14491088838E+02 -0.31613180596E+01  0.31886060447E+02  0.00000000000E+00 0. -1.
         11    1    3    3    0    0  0.36694354159E+01  0.36780132445E+01  0.70132249224E+01  0.87279929979E+01  0.51100000000E-03 0. -1.
        -11    1    3    3    0    0  0.11941787204E+02  0.27131823190E+02 -0.30693788149E+00  0.29645173678E+02  0.51100000000E-03 0.  1.
         12    1    3    3    0    0  0.12615276689E+02 -0.16318747597E+02 -0.35449689813E+01  0.20928772877E+02  0.00000000000E+00 0. -1.
</event>
<event>
 7    1  0.3461631E-013  0.5930194E+02  0.7816164E-02  0.1266605E+00
        -11   -1    0    0    0    0  0.00000000000E+00  0.00000000000E+00  0.45593999997E+02  0.45594000000E+02  0.51100000000E-03 0. -1.
         11   -1    0    0    0    0 -0.00000000000E+00 -0.00000000000E+00 -0.45593999997E+02  0.45594000000E+02  0.51100000000E-03 0.  1.
    9900012    2    1    2    0    0 -0.25049734171E+02 -0.19284172215E+02  0.41656428978E+01  0.59301936260E+02  0.49999985834E+02 0.  0.
         12    1    1    2    0    0  0.25049734171E+02  0.19284172215E+02 -0.41656428978E+01  0.31886063740E+02  0.00000000000E+00 0. -1.
         11    1    3    3    0    0 -0.19897807189E+02 -0.38766112116E+01 -0.25292703066E+01  0.20429098217E+02  0.51100000000E-03 0. -1.
        -11    1    3    3    0    0 -0.90337474559E+01 -0.28454086425E+01  0.18768022612E+02  0.21022455053E+02  0.51100000000E-03 0.  1.
         12    1    3    3    0    0  0.38818204736E+01 -0.12562152361E+02 -0.12073109408E+02  0.17850382990E+02  0.00000000000E+00 0. -1.
</event>
<event>
 7    1  0.3461631E-013  0.5930195E+02  0.7816164E-02  0.1266605E+00
        -11   -1    0    0    0    0  0.00000000000E+00  0.00000000000E+00  0.45593999997E+02  0.45594000000E+02  0.51100000000E-03 0. -1.
         11   -1    0    0    0    0 -0.00000000000E+00 -0.00000000000E+00 -0.45593999997E+02  0.45594000000E+02  0.51100000000E-03 0.  1.
    9900012    2    1    2    0    0  0.18975990574E+02 -0.25535211073E+02 -0.21412520973E+01  0.59301950020E+02  0.50000010929E+02 0.  0.
         12    1    1    2    0    0 -0.18975990574E+02  0.25535211073E+02  0.21412520973E+01  0.31886049980E+02  0.00000000000E+00 0. -1.
         11    1    3    3    0    0  0.16553802453E+02 -0.13350740895E+02  0.69387882096E+01  0.22370012074E+02  0.51100000000E-03 0. -1.
        -11    1    3    3    0    0  0.16109845088E+02 -0.13069244155E+02 -0.49464040607E+00  0.20750347490E+02  0.51100000000E-03 0.  1.
         12    1    3    3    0    0 -0.13687656968E+02  0.88477397740E+00 -0.85853999008E+01  0.16181590457E+02  0.00000000000E+00 0. -1.
</event>
<event>
 7    1  0.3461631E-013  0.5930192E+02  0.7816164E-02  0.1266605E+00
        -11   -1    0    0    0    0  0.00000000000E+00  0.00000000000E+00  0.45593999997E+02  0.45594000000E+02  0.51100000000E-03 0.  1.
         11   -1    0    0    0    0 -0.00000000000E+00 -0.00000000000E+00 -0.45593999997E+02  0.45594000000E+02  0.51100000000E-03 0. -1.
    9900012    2    1    2    0    0  0.29385640670E+02 -0.99870351883E+01 -0.73119964306E+01  0.59301920887E+02  0.49999957796E+02 0.  0.
         12    1    1    2    0    0 -0.29385640670E+02  0.99870351883E+01  0.73119964306E+01  0.31886079113E+02  0.00000000000E+00 0. -1.
         11    1    3    3    0    0  0.14141765005E+02  0.31421233985E+01 -0.11204317673E+02  0.18313907057E+02  0.51100000000E-03 0. -1.
        -11    1    3    3    0    0  0.20690652461E+02 -0.36390465877E+01  0.14674744746E+02  0.25626039353E+02  0.51100000000E-03 0.  1.
         12    1    3    3    0    0 -0.54467767959E+01 -0.94901119992E+01 -0.10782423504E+02  0.15361974477E+02  0.00000000000E+00 0. -1.
</event>
<event>
 7    1  0.3461631E-013  0.5930193E+02  0.7816164E-02  0.1266605E+00
        -11   -1    0    0    0    0  0.00000000000E+00  0.00000000000E+00  0.45593999997E+02  0.45594000000E+02  0.51100000000E-03 0.  1.
         11   -1    0    0    0    0 -0.00000000000E+00 -0.00000000000E+00 -0.45593999997E+02  0.45594000000E+02  0.51100000000E-03 0. -1.
    9900012    2    1    2    0    0  0.17832184588E+02  0.86750174525E+01  0.24969559636E+02  0.59301927125E+02  0.49999969173E+02 0.  0.
         12    1    1    2    0    0 -0.17832184588E+02 -0.86750174525E+01 -0.24969559636E+02  0.31886072875E+02  0.00000000000E+00 0. -1.
         11    1    3    3    0    0  0.24507068298E+02  0.10742699560E+02  0.21379630760E+02  0.34250410247E+02  0.51100000000E-03 0.  1.
        -11    1    3    3    0    0  0.33724271972E+01  0.89206740143E+01  0.35090883720E+01  0.10161958056E+02  0.51100000000E-03 0. -1.
         12    1    3    3    0    0 -0.10047310907E+02 -0.10988356122E+02  0.80840503549E-01  0.14889558822E+02  0.00000000000E+00 0. -1.
</event>
<event>
 7    1  0.3461631E-013  0.5930187E+02  0.7816164E-02  0.1266605E+00
        -11   -1    0    0    0    0  0.00000000000E+00  0.00000000000E+00  0.45593999997E+02  0.45594000000E+02  0.51100000000E-03 0. -1.
         11   -1    0    0    0    0 -0.00000000000E+00 -0.00000000000E+00 -0.45593999997E+02  0.45594000000E+02  0.51100000000E-03 0.  1.
    9900012    2    1    2    0    0 -0.13942488361E+01 -0.16660981882E+02 -0.27151293797E+02  0.59301874460E+02  0.49999873125E+02 0.  0.
         12    1    1    2    0    0  0.13942488361E+01  0.16660981882E+02  0.27151293797E+02  0.31886125540E+02  0.00000000000E+00 0. -1.
         11    1    3    3    0    0  0.11804665046E+02  0.38921428765E+01 -0.12759525211E+02  0.17813039519E+02  0.51100000000E-03 0. -1.
        -11    1    3    3    0    0  0.40116017931E+01 -0.16508301670E+02 -0.16501854783E+02  0.23683922490E+02  0.51100000000E-03 0.  1.
         12    1    3    3    0    0 -0.17210515675E+02 -0.40448230886E+01  0.21100861970E+01  0.17804912451E+02  0.00000000000E+00 0. -1.
</event>
<event>
 7    1  0.3461631E-013  0.5930194E+02  0.7816164E-02  0.1266605E+00
        -11   -1    0    0    0    0  0.00000000000E+00  0.00000000000E+00  0.45593999997E+02  0.45594000000E+02  0.51100000000E-03 0.  1.
         11   -1    0    0    0    0 -0.00000000000E+00 -0.00000000000E+00 -0.45593999997E+02  0.45594000000E+02  0.51100000000E-03 0. -1.
    9900012    2    1    2    0    0 -0.31391039091E+02  0.54863560862E+01 -0.11062027479E+01  0.59301935288E+02  0.49999984060E+02 0.  0.
         12    1    1    2    0    0  0.31391039091E+02 -0.54863560862E+01  0.11062027479E+01  0.31886064712E+02  0.00000000000E+00 0. -1.
         11    1    3    3    0    0 -0.13171998020E+02  0.51833676951E+00 -0.95534361860E+00  0.13216765358E+02  0.51100000000E-03 0. -1.
        -11    1    3    3    0    0 -0.27133562608E+02  0.83056360542E+01 -0.12065616307E+02  0.30834929986E+02  0.51100000000E-03 0.  1.
         12    1    3    3    0    0  0.89145215372E+01 -0.33376167375E+01  0.11914757178E+02  0.15250239943E+02  0.00000000000E+00 0. -1.
</event>
<event>
 7    1  0.3461631E-013  0.5930194E+02  0.7816164E-02  0.1266605E+00
        -11   -1    0    0    0    0  0.00000000000E+00  0.00000000000E+00  0.45593999997E+02  0.45594000000E+02  0.51100000000E-03 0. -1.
         11   -1    0    0    0    0 -0.00000000000E+00 -0.00000000000E+00 -0.45593999997E+02  0.45594000000E+02  0.51100000000E-03 0.  1.
    9900012    2    1    2    0    0 -0.58454871446E+01  0.61767520345E+01 -0.30731068137E+02  0.59301944514E+02  0.50000000886E+02 0.  0.
         12    1    1    2    0    0  0.58454871446E+01 -0.61767520345E+01  0.30731068137E+02  0.31886055486E+02  0.00000000000E+00 0. -1.
         11    1    3    3    0    0 -0.13279416282E+01 -0.72806547606E+00 -0.38931227926E+01  0.41773093786E+01  0.51100000000E-03 0. -1.
        -11    1    3    3    0    0 -0.22434535398E+02  0.12406556795E+02 -0.25772369384E+02  0.36351699464E+02  0.51100000000E-03 0.  1.
         12    1    3    3    0    0  0.17916989882E+02 -0.55017392845E+01 -0.10655759603E+01  0.18772935671E+02  0.00000000000E+00 0. -1.
</event>
<event>
 7    1  0.3461631E-013  0.5930195E+02  0.7816164E-02  0.1266605E+00
        -11   -1    0    0    0    0  0.00000000000E+00  0.00000000000E+00  0.45593999997E+02  0.45594000000E+02  0.51100000000E-03 0.  1.
         11   -1    0    0    0    0 -0.00000000000E+00 -0.00000000000E+00 -0.45593999997E+02  0.45594000000E+02  0.51100000000E-03 0. -1.
    9900012    2    1    2    0    0 -0.17720737480E+01 -0.14606578848E+02  0.28288292316E+02  0.59301954883E+02  0.50000019798E+02 0.  0.
         12    1    1    2    0    0  0.17720737480E+01  0.14606578848E+02 -0.28288292316E+02  0.31886045117E+02  0.00000000000E+00 0. -1.
         11    1    3    3    0    0  0.55341036473E+01 -0.11796156754E+02  0.29157537682E+02  0.31936462253E+02  0.51100000000E-03 0. -1.
        -11    1    3    3    0    0 -0.84691982389E+01  0.10115706870E+01  0.11528057669E+02  0.14340387301E+02  0.51100000000E-03 0.  1.
         12    1    3    3    0    0  0.11630208436E+01 -0.38219927812E+01 -0.12397303034E+02  0.13025105329E+02  0.00000000000E+00 0. -1.
</event>
<event>
 7    1  0.3461631E-013  0.5930193E+02  0.7816164E-02  0.1266605E+00
        -11   -1    0    0    0    0  0.00000000000E+00  0.00000000000E+00  0.45593999997E+02  0.45594000000E+02  0.51100000000E-03 0.  1.
         11   -1    0    0    0    0 -0.00000000000E+00 -0.00000000000E+00 -0.45593999997E+02  0.45594000000E+02  0.51100000000E-03 0. -1.
    9900012    2    1    2    0    0  0.30676100929E+02  0.63896089339E+01  0.59051584498E+01  0.59301934598E+02  0.49999982802E+02 0.  0.
         12    1    1    2    0    0 -0.30676100929E+02 -0.63896089339E+01 -0.59051584498E+01  0.31886065402E+02  0.00000000000E+00 0. -1.
         11    1    3    3    0    0  0.20033870354E+01  0.12423470814E+02 -0.80810638468E+01  0.14955259270E+02  0.51100000000E-03 0. -1.
        -11    1    3    3    0    0  0.17545400634E+02 -0.36938605309E+01 -0.79694015107E+01  0.19621341690E+02  0.51100000000E-03 0.  1.
        -12    1    3    3    0    0  0.11127313260E+02 -0.23400013496E+01  0.21955623807E+02  0.24725333637E+02  0.00000000000E+00 0.  1.
</event>
<event>
 7    1  0.3461631E-013  0.5930195E+02  0.7816164E-02  0.1266605E+00
        -11   -1    0    0    0    0  0.00000000000E+00  0.00000000000E+00  0.45593999997E+02  0.45594000000E+02  0.51100000000E-03 0.  1.
         11   -1    0    0    0    0 -0.00000000000E+00 -0.00000000000E+00 -0.45593999997E+02  0.45594000000E+02  0.51100000000E-03 0. -1.
    9900012    2    1    2    0    0  0.22408625925E+02  0.28205748381E+01  0.22508179154E+02  0.59301948393E+02  0.50000007962E+02 0.  0.
         12    1    1    2    0    0 -0.22408625925E+02 -0.28205748381E+01 -0.22508179154E+02  0.31886051607E+02  0.00000000000E+00 0. -1.
         11    1    3    3    0    0 -0.17922709784E+01 -0.90687600080E+01  0.64281123087E+01  0.11259452538E+02  0.51100000000E-03 0. -1.
        -11    1    3    3    0    0 -0.51013668519E+01  0.16942419076E+01 -0.73912603262E+01  0.91392083285E+01  0.51100000000E-03 0.  1.
        -12    1    3    3    0    0  0.29302263755E+02  0.10195092938E+02  0.23471327172E+02  0.38903287527E+02  0.00000000000E+00 0.  1.
</event>
<event>
 7    1  0.3461631E-013  0.5930185E+02  0.7816164E-02  0.1266605E+00
        -11   -1    0    0    0    0  0.00000000000E+00  0.00000000000E+00  0.45593999997E+02  0.45594000000E+02  0.51100000000E-03 0. -1.
         11   -1    0    0    0    0 -0.00000000000E+00 -0.00000000000E+00 -0.45593999997E+02  0.45594000000E+02  0.51100000000E-03 0.  1.
    9900012    2    1    2    0    0  0.65900276938E+01  0.95143216785E+01 -0.29711544559E+02  0.59301848428E+02  0.49999825648E+02 0.  0.
         12    1    1    2    0    0 -0.65900276938E+01 -0.95143216785E+01  0.29711544559E+02  0.31886151572E+02  0.00000000000E+00 0. -1.
         11    1    3    3    0    0 -0.82791074755E+01 -0.29848755933E+01 -0.33672701657E+01  0.94229300925E+01  0.51100000000E-03 0. -1.
        -11    1    3    3    0    0 -0.11187855445E+01  0.31795915463E+01  0.92041892034E+01  0.98019683048E+01  0.51100000000E-03 0.  1.
        -12    1    3    3    0    0  0.15987920714E+02  0.93196057256E+01 -0.35548463597E+02  0.40076950030E+02  0.00000000000E+00 0.  1.
</event>
<event>
 7    1  0.3461631E-013  0.5930195E+02  0.7816164E-02  0.1266605E+00
        -11   -1    0    0    0    0  0.00000000000E+00  0.00000000000E+00  0.45593999997E+02  0.45594000000E+02  0.51100000000E-03 0. -1.
         11   -1    0    0    0    0 -0.00000000000E+00 -0.00000000000E+00 -0.45593999997E+02  0.45594000000E+02  0.51100000000E-03 0.  1.
    9900012    2    1    2    0    0  0.23142271100E+02  0.18752106440E+02 -0.11380419317E+02  0.59301950520E+02  0.50000011841E+02 0.  0.
         12    1    1    2    0    0 -0.23142271100E+02 -0.18752106440E+02  0.11380419317E+02  0.31886049480E+02  0.00000000000E+00 0. -1.
         11    1    3    3    0    0  0.72107345749E+00 -0.11953663562E+01  0.12200648340E+01  0.18540243032E+01  0.51100000000E-03 0. -1.
        -11    1    3    3    0    0 -0.98903497525E+01  0.99670097468E+01 -0.18390431307E+02  0.23138026395E+02  0.51100000000E-03 0.  1.
         12    1    3    3    0    0  0.32311547395E+02  0.99804630490E+01  0.57899471560E+01  0.34309899822E+02  0.00000000000E+00 0. -1.
</event>
<event>
 7    1  0.3461631E-013  0.5930196E+02  0.7816164E-02  0.1266605E+00
        -11   -1    0    0    0    0  0.00000000000E+00  0.00000000000E+00  0.45593999997E+02  0.45594000000E+02  0.51100000000E-03 0.  1.
         11   -1    0    0    0    0 -0.00000000000E+00 -0.00000000000E+00 -0.45593999997E+02  0.45594000000E+02  0.51100000000E-03 0. -1.
    9900012    2    1    2    0    0  0.25962880974E+02  0.13278602203E+02  0.12896794944E+02  0.59301956269E+02  0.50000022326E+02 0.  0.
         12    1    1    2    0    0 -0.25962880974E+02 -0.13278602203E+02 -0.12896794944E+02  0.31886043731E+02  0.00000000000E+00 0. -1.
         11    1    3    3    0    0  0.17828806816E+02  0.17195787576E+02  0.17650604815E+02  0.30415543945E+02  0.51100000000E-03 0. -1.
        -11    1    3    3    0    0  0.16291321781E+02 -0.52695222553E+01  0.31936974311E+01  0.17417655804E+02  0.51100000000E-03 0.  1.
        -12    1    3    3    0    0 -0.81572476225E+01  0.13523368825E+01 -0.79475073018E+01  0.11468756521E+02  0.00000000000E+00 0.  1.
</event>
<event>
 7    1  0.3461631E-013  0.5930194E+02  0.7816164E-02  0.1266605E+00
        -11   -1    0    0    0    0  0.00000000000E+00  0.00000000000E+00  0.45593999997E+02  0.45594000000E+02  0.51100000000E-03 0. -1.
         11   -1    0    0    0    0 -0.00000000000E+00 -0.00000000000E+00 -0.45593999997E+02  0.45594000000E+02  0.51100000000E-03 0.  1.
    9900012    2    1    2    0    0 -0.11438902430E+02  0.94243329787E+01 -0.28232144214E+02  0.59301944932E+02  0.50000001650E+02 0.  0.
         12    1    1    2    0    0  0.11438902430E+02 -0.94243329787E+01  0.28232144214E+02  0.31886055068E+02  0.00000000000E+00 0. -1.
         11    1    3    3    0    0 -0.47021120431E+01 -0.24818007896E+01 -0.24569804874E+02  0.25138506412E+02  0.51100000000E-03 0. -1.
        -11    1    3    3    0    0 -0.23178768648E+01  0.18073502202E+02 -0.12813804917E+02  0.22275942892E+02  0.51100000000E-03 0.  1.
         12    1    3    3    0    0 -0.44189135217E+01 -0.61673684337E+01  0.91514655772E+01  0.11887495629E+02  0.00000000000E+00 0. -1.
</event>
<event>
 7    1  0.3461631E-013  0.5930196E+02  0.7816164E-02  0.1266605E+00
        -11   -1    0    0    0    0  0.00000000000E+00  0.00000000000E+00  0.45593999997E+02  0.45594000000E+02  0.51100000000E-03 0.  1.
         11   -1    0    0    0    0 -0.00000000000E+00 -0.00000000000E+00 -0.45593999997E+02  0.45594000000E+02  0.51100000000E-03 0. -1.
    9900012    2    1    2    0    0 -0.19352895667E+01 -0.27327450642E+02 -0.16315163621E+02  0.59301961233E+02  0.50000031378E+02 0.  0.
         12    1    1    2    0    0  0.19352895667E+01  0.27327450642E+02  0.16315163621E+02  0.31886038767E+02  0.00000000000E+00 0. -1.
         11    1    3    3    0    0 -0.13876807564E+02 -0.16568395338E+02 -0.15487895224E+02  0.26588576700E+02  0.51100000000E-03 0. -1.
        -11    1    3    3    0    0 -0.27922102522E+01 -0.12443390970E+02 -0.91612845479E+01  0.15702342237E+02  0.51100000000E-03 0.  1.
        -12    1    3    3    0    0  0.14733728249E+02  0.16843356653E+01  0.83340161509E+01  0.17011042295E+02  0.00000000000E+00 0.  1.
</event>
<event>
 7    1  0.3461631E-013  0.5930197E+02  0.7816164E-02  0.1266605E+00
        -11   -1    0    0    0    0  0.00000000000E+00  0.00000000000E+00  0.45593999997E+02  0.45594000000E+02  0.51100000000E-03 0.  1.
         11   -1    0    0    0    0 -0.00000000000E+00 -0.00000000000E+00 -0.45593999997E+02  0.45594000000E+02  0.51100000000E-03 0. -1.
    9900012    2    1    2    0    0  0.56199355466E+00 -0.44259235721E+01  0.31572369944E+02  0.59301965752E+02  0.50000039619E+02 0.  0.
         12    1    1    2    0    0 -0.56199355466E+00  0.44259235721E+01 -0.31572369944E+02  0.31886034248E+02  0.00000000000E+00 0. -1.
         11    1    3    3    0    0  0.37387330838E+00  0.15069989309E+01  0.40203642462E+01  0.43097744676E+01  0.51100000000E-03 0. -1.
        -11    1    3    3    0    0 -0.28377482006E+01  0.12454922886E+02  0.33156823119E+02  0.35532419543E+02  0.51100000000E-03 0.  1.
         12    1    3    3    0    0  0.30258684469E+01 -0.18387845389E+02 -0.56048174218E+01  0.19459771741E+02  0.00000000000E+00 0. -1.
</event>
<event>
 7    1  0.3461631E-013  0.5930194E+02  0.7816164E-02  0.1266605E+00
        -11   -1    0    0    0    0  0.00000000000E+00  0.00000000000E+00  0.45593999997E+02  0.45594000000E+02  0.51100000000E-03 0.  1.
         11   -1    0    0    0    0 -0.00000000000E+00 -0.00000000000E+00 -0.45593999997E+02  0.45594000000E+02  0.51100000000E-03 0. -1.
    9900012    2    1    2    0    0  0.27257515185E+02 -0.39216550841E+01  0.16073870322E+02  0.59301940040E+02  0.49999992728E+02 0.  0.
         12    1    1    2    0    0 -0.27257515185E+02  0.39216550841E+01 -0.16073870322E+02  0.31886059960E+02  0.00000000000E+00 0. -1.
         11    1    3    3    0    0 -0.42617944487E+01  0.10080385844E+01 -0.45102341433E+01  0.62865925587E+01  0.51100000000E-03 0. -1.
        -11    1    3    3    0    0  0.98131969770E+01  0.14239405643E+02  0.16257192149E+02  0.23735117543E+02  0.51100000000E-03 0.  1.
         12    1    3    3    0    0  0.21706112656E+02 -0.19169099311E+02  0.43269123165E+01  0.29280229938E+02  0.00000000000E+00 0. -1.
</event>
<event>
 7    1  0.3461631E-013  0.5930194E+02  0.7816164E-02  0.1266605E+00
        -11   -1    0    0    0    0  0.00000000000E+00  0.00000000000E+00  0.45593999997E+02  0.45594000000E+02  0.51100000000E-03 0.  1.
         11   -1    0    0    0    0 -0.00000000000E+00 -0.00000000000E+00 -0.45593999997E+02  0.45594000000E+02  0.51100000000E-03 0. -1.
    9900012    2    1    2    0    0  0.20210973309E+02  0.22594685216E+02  0.98852174474E+01  0.59301940882E+02  0.49999994263E+02 0.  0.
         12    1    1    2    0    0 -0.20210973309E+02 -0.22594685216E+02 -0.98852174474E+01  0.31886059118E+02  0.00000000000E+00 0. -1.
         11    1    3    3    0    0  0.85897056520E+01 -0.47871214459E+01  0.10154902061E+01  0.98858887079E+01  0.51100000000E-03 0. -1.
        -11    1    3    3    0    0  0.16702491458E+02  0.32361688175E+02  0.15603811566E+02  0.39619831122E+02  0.51100000000E-03 0.  1.
         12    1    3    3    0    0 -0.50812238013E+01 -0.49798815134E+01 -0.67340843251E+01  0.97962210522E+01  0.00000000000E+00 0. -1.
</event>
<event>
 7    1  0.3461631E-013  0.5930198E+02  0.7816164E-02  0.1266605E+00
        -11   -1    0    0    0    0  0.00000000000E+00  0.00000000000E+00  0.45593999997E+02  0.45594000000E+02  0.51100000000E-03 0. -1.
         11   -1    0    0    0    0 -0.00000000000E+00 -0.00000000000E+00 -0.45593999997E+02  0.45594000000E+02  0.51100000000E-03 0.  1.
    9900012    2    1    2    0    0 -0.11362883753E+02  0.11738199107E+02 -0.27382798233E+02  0.59301982931E+02  0.50000070950E+02 0.  0.
         12    1    1    2    0    0  0.11362883753E+02 -0.11738199107E+02  0.27382798233E+02  0.31886017069E+02  0.00000000000E+00 0. -1.
         11    1    3    3    0    0  0.39730277008E+01  0.38031278058E+01  0.50256801965E+01  0.74502477756E+01  0.51100000000E-03 0. -1.
        -11    1    3    3    0    0 -0.73971514745E+01  0.22529485552E+02 -0.16846349487E+02  0.29087713222E+02  0.51100000000E-03 0.  1.
        -12    1    3    3    0    0 -0.79387599795E+01 -0.14594414251E+02 -0.15562128943E+02  0.22764021934E+02  0.00000000000E+00 0.  1.
</event>
<event>
 7    1  0.3461631E-013  0.5930192E+02  0.7816164E-02  0.1266605E+00
        -11   -1    0    0    0    0  0.00000000000E+00  0.00000000000E+00  0.45593999997E+02  0.45594000000E+02  0.51100000000E-03 0.  1.
         11   -1    0    0    0    0 -0.00000000000E+00 -0.00000000000E+00 -0.45593999997E+02  0.45594000000E+02  0.51100000000E-03 0. -1.
    9900012    2    1    2    0    0  0.24991524984E+02  0.11291232301E+02  0.16268182216E+02  0.59301921525E+02  0.49999958961E+02 0.  0.
         12    1    1    2    0    0 -0.24991524984E+02 -0.11291232301E+02 -0.16268182216E+02  0.31886078475E+02  0.00000000000E+00 0. -1.
         11    1    3    3    0    0 -0.78193206768E+01  0.71086233275E+01  0.20229389915E+01  0.10759488087E+02  0.51100000000E-03 0. -1.
        -11    1    3    3    0    0 -0.21875661448E+01  0.85961549173E+01  0.94190228585E+01  0.12938211502E+02  0.51100000000E-03 0.  1.
        -12    1    3    3    0    0  0.34998411805E+02 -0.44135459435E+01  0.48262203662E+01  0.35604221937E+02  0.00000000000E+00 0.  1.
</event>
<event>
 7    1  0.3461631E-013  0.5930193E+02  0.7816164E-02  0.1266605E+00
        -11   -1    0    0    0    0  0.00000000000E+00  0.00000000000E+00  0.45593999997E+02  0.45594000000E+02  0.51100000000E-03 0.  1.
         11   -1    0    0    0    0 -0.00000000000E+00 -0.00000000000E+00 -0.45593999997E+02  0.45594000000E+02  0.51100000000E-03 0. -1.
    9900012    2    1    2    0    0 -0.97327884015E+01  0.82636882164E+01  0.29218244617E+02  0.59301928879E+02  0.49999972373E+02 0.  0.
         12    1    1    2    0    0  0.97327884015E+01 -0.82636882164E+01 -0.29218244617E+02  0.31886071121E+02  0.00000000000E+00 0. -1.
         11    1    3    3    0    0 -0.74867522136E+01 -0.97729620153E+01 -0.12664052309E+01  0.12376026330E+02  0.51100000000E-03 0. -1.
        -11    1    3    3    0    0 -0.11127474420E+02  0.12749555946E+02  0.25160750442E+01  0.17108550426E+02  0.51100000000E-03 0.  1.
        -12    1    3    3    0    0  0.88814382319E+01  0.52870942856E+01  0.27968574804E+02  0.29817352123E+02  0.00000000000E+00 0.  1.
</event>
<event>
 7    1  0.3461631E-013  0.5930201E+02  0.7816164E-02  0.1266605E+00
        -11   -1    0    0    0    0  0.00000000000E+00  0.00000000000E+00  0.45593999997E+02  0.45594000000E+02  0.51100000000E-03 0.  1.
         11   -1    0    0    0    0 -0.00000000000E+00 -0.00000000000E+00 -0.45593999997E+02  0.45594000000E+02  0.51100000000E-03 0. -1.
    9900012    2    1    2    0    0  0.99820024770E+01 -0.11693991329E+02  0.27934330461E+02  0.59302005818E+02  0.50000112690E+02 0.  0.
         12    1    1    2    0    0 -0.99820024770E+01  0.11693991329E+02 -0.27934330461E+02  0.31885994182E+02  0.00000000000E+00 0. -1.
         11    1    3    3    0    0 -0.26287072181E+01 -0.11922353104E+02  0.43558614203E+01  0.12962489504E+02  0.51100000000E-03 0. -1.
        -11    1    3    3    0    0 -0.70070561281E+01 -0.14000635032E+02  0.90560770754E+01  0.18086711950E+02  0.51100000000E-03 0.  1.
        -12    1    3    3    0    0  0.19617765823E+02  0.14228996807E+02  0.14522391965E+02  0.28252804364E+02  0.00000000000E+00 0.  1.
</event>
<event>
 7    1  0.3724598E-013  0.5930195E+02  0.7816164E-02  0.1266605E+00
        -11   -1    0    0    0    0  0.00000000000E+00  0.00000000000E+00  0.45593999997E+02  0.45594000000E+02  0.51100000000E-03 0. -1.
         11   -1    0    0    0    0 -0.00000000000E+00 -0.00000000000E+00 -0.45593999997E+02  0.45594000000E+02  0.51100000000E-03 0.  1.
    9900012    2    1    2    0    0 -0.71571794016E+01 -0.74197010926E+00 -0.31063554429E+02  0.59301950536E+02  0.50000011870E+02 0.  0.
         12    1    1    2    0    0  0.71571794016E+01  0.74197010926E+00  0.31063554429E+02  0.31886049464E+02  0.00000000000E+00 0. -1.
         11    1    3    3    0    0  0.17752444507E+01 -0.15900824578E+02 -0.91496915554E+01  0.18431076229E+02  0.51100000000E-03 0. -1.
        -11    1    3    3    0    0 -0.14284696035E+02  0.19297174791E+01 -0.22348025315E+02  0.26593431258E+02  0.51100000000E-03 0.  1.
         12    1    3    3    0    0  0.53522721826E+01  0.13229136990E+02  0.43416244097E+00  0.14277443050E+02  0.00000000000E+00 0. -1.
</event>
<event>
 7    1  0.3461631E-013  0.5930191E+02  0.7816164E-02  0.1266605E+00
        -11   -1    0    0    0    0  0.00000000000E+00  0.00000000000E+00  0.45593999997E+02  0.45594000000E+02  0.51100000000E-03 0. -1.
         11   -1    0    0    0    0 -0.00000000000E+00 -0.00000000000E+00 -0.45593999997E+02  0.45594000000E+02  0.51100000000E-03 0.  1.
    9900012    2    1    2    0    0  0.35300853274E+01 -0.27818251428E+02 -0.15179126697E+02  0.59301913658E+02  0.49999944613E+02 0.  0.
         12    1    1    2    0    0 -0.35300853274E+01  0.27818251428E+02  0.15179126697E+02  0.31886086342E+02  0.00000000000E+00 0. -1.
         11    1    3    3    0    0  0.47543372549E+00 -0.21814954661E+01 -0.38403629219E+01  0.44422232417E+01  0.51100000000E-03 0. -1.
        -11    1    3    3    0    0 -0.51826516544E+01 -0.26625417688E+02 -0.26281109702E+02  0.37768630802E+02  0.51100000000E-03 0.  1.
         12    1    3    3    0    0  0.82373032563E+01  0.98866172604E+00  0.14942345927E+02  0.17091059615E+02  0.00000000000E+00 0. -1.
</event>
<event>
 7    1  0.3461631E-013  0.5930195E+02  0.7816164E-02  0.1266605E+00
        -11   -1    0    0    0    0  0.00000000000E+00  0.00000000000E+00  0.45593999997E+02  0.45594000000E+02  0.51100000000E-03 0.  1.
         11   -1    0    0    0    0 -0.00000000000E+00 -0.00000000000E+00 -0.45593999997E+02  0.45594000000E+02  0.51100000000E-03 0. -1.
    9900012    2    1    2    0    0 -0.26227754654E+02  0.11140482801E+02  0.14307860162E+02  0.59301947663E+02  0.50000006630E+02 0.  0.
         12    1    1    2    0    0  0.26227754654E+02 -0.11140482801E+02 -0.14307860162E+02  0.31886052337E+02  0.00000000000E+00 0. -1.
         11    1    3    3    0    0  0.10915408016E+02 -0.24282197024E+01  0.10972248274E+02  0.15666289144E+02  0.51100000000E-03 0. -1.
        -11    1    3    3    0    0 -0.21175331958E+02  0.98654559659E+01  0.10664962141E+02  0.25680017965E+02  0.51100000000E-03 0.  1.
        -12    1    3    3    0    0 -0.15967830713E+02  0.37032465380E+01 -0.73293502534E+01  0.17955640555E+02  0.00000000000E+00 0.  1.
</event>
<event>
 7    1  0.3461631E-013  0.5930187E+02  0.7816164E-02  0.1266605E+00
        -11   -1    0    0    0    0  0.00000000000E+00  0.00000000000E+00  0.45593999997E+02  0.45594000000E+02  0.51100000000E-03 0.  1.
         11   -1    0    0    0    0 -0.00000000000E+00 -0.00000000000E+00 -0.45593999997E+02  0.45594000000E+02  0.51100000000E-03 0. -1.
    9900012    2    1    2    0    0 -0.23160668032E+02 -0.14003677828E+02  0.16858398332E+02  0.59301872441E+02  0.49999869442E+02 0.  0.
         12    1    1    2    0    0  0.23160668032E+02  0.14003677828E+02 -0.16858398332E+02  0.31886127559E+02  0.00000000000E+00 0. -1.
         11    1    3    3    0    0  0.11446295940E+01 -0.20829743457E+02  0.18093511996E+02  0.27614553518E+02  0.51100000000E-03 0. -1.
        -11    1    3    3    0    0  0.12514836073E+01 -0.35044968001E+01  0.14442277620E+01  0.39916792370E+01  0.51100000000E-03 0.  1.
         12    1    3    3    0    0 -0.25556781233E+02  0.10330562429E+02 -0.26793414260E+01  0.27695639685E+02  0.00000000000E+00 0. -1.
</event>
<event>
 7    1  0.3461631E-013  0.5930193E+02  0.7816164E-02  0.1266605E+00
        -11   -1    0    0    0    0  0.00000000000E+00  0.00000000000E+00  0.45593999997E+02  0.45594000000E+02  0.51100000000E-03 0. -1.
         11   -1    0    0    0    0 -0.00000000000E+00 -0.00000000000E+00 -0.45593999997E+02  0.45594000000E+02  0.51100000000E-03 0.  1.
    9900012    2    1    2    0    0 -0.19274274804E+02 -0.10120276378E+02 -0.23298156049E+02  0.59301925634E+02  0.49999966454E+02 0.  0.
         12    1    1    2    0    0  0.19274274804E+02  0.10120276378E+02  0.23298156049E+02  0.31886074366E+02  0.00000000000E+00 0. -1.
         11    1    3    3    0    0 -0.27657927857E+01  0.32868928699E+00 -0.37767539542E+01  0.46927089269E+01  0.51100000000E-03 0. -1.
        -11    1    3    3    0    0 -0.19129719887E+01  0.12264433196E+02 -0.24209866634E+02  0.27206496029E+02  0.51100000000E-03 0.  1.
         12    1    3    3    0    0 -0.14595510030E+02 -0.22713398861E+02  0.46884645400E+01  0.27402720679E+02  0.00000000000E+00 0. -1.
</event>
<event>
 7    1  0.3461631E-013  0.5930194E+02  0.7816164E-02  0.1266605E+00
        -11   -1    0    0    0    0  0.00000000000E+00  0.00000000000E+00  0.45593999997E+02  0.45594000000E+02  0.51100000000E-03 0.  1.
         11   -1    0    0    0    0 -0.00000000000E+00 -0.00000000000E+00 -0.45593999997E+02  0.45594000000E+02  0.51100000000E-03 0. -1.
    9900012    2    1    2    0    0 -0.41582092156E+01 -0.22673941088E+02  0.22030032726E+02  0.59301942698E+02  0.49999997576E+02 0.  0.
         12    1    1    2    0    0  0.41582092156E+01  0.22673941088E+02 -0.22030032726E+02  0.31886057302E+02  0.00000000000E+00 0. -1.
         11    1    3    3    0    0 -0.13963704900E+02  0.14054751702E+00 -0.54291741221E+01  0.14982681337E+02  0.51100000000E-03 0. -1.
        -11    1    3    3    0    0 -0.42077557910E+01 -0.16435106987E+02  0.22426632190E+02  0.28120664681E+02  0.51100000000E-03 0.  1.
        -12    1    3    3    0    0  0.14013251475E+02 -0.63793816175E+01  0.50325746588E+01  0.16198596681E+02  0.00000000000E+00 0.  1.
</event>
<event>
 7    1  0.3461631E-013  0.5930195E+02  0.7816164E-02  0.1266605E+00
        -11   -1    0    0    0    0  0.00000000000E+00  0.00000000000E+00  0.45593999997E+02  0.45594000000E+02  0.51100000000E-03 0.  1.
         11   -1    0    0    0    0 -0.00000000000E+00 -0.00000000000E+00 -0.45593999997E+02  0.45594000000E+02  0.51100000000E-03 0. -1.
    9900012    2    1    2    0    0 -0.10163876995E+02  0.29850529993E+02 -0.47288141142E+01  0.59301949455E+02  0.50000009898E+02 0.  0.
         12    1    1    2    0    0  0.10163876995E+02 -0.29850529993E+02  0.47288141142E+01  0.31886050545E+02  0.00000000000E+00 0. -1.
         11    1    3    3    0    0 -0.19238120004E+01  0.31357161247E+02 -0.20586694565E+02  0.37560412770E+02  0.51100000000E-03 0.  1.
        -11    1    3    3    0    0  0.40819104855E+00  0.38903584590E+01  0.16279589495E+01  0.42369516723E+01  0.51100000000E-03 0. -1.
         12    1    3    3    0    0 -0.86482560432E+01 -0.53969897128E+01  0.14229921501E+02  0.17504585013E+02  0.00000000000E+00 0. -1.
</event>
<event>
 7    1  0.3461631E-013  0.5930199E+02  0.7816164E-02  0.1266605E+00
        -11   -1    0    0    0    0  0.00000000000E+00  0.00000000000E+00  0.45593999997E+02  0.45594000000E+02  0.51100000000E-03 0.  1.
         11   -1    0    0    0    0 -0.00000000000E+00 -0.00000000000E+00 -0.45593999997E+02  0.45594000000E+02  0.51100000000E-03 0. -1.
    9900012    2    1    2    0    0  0.90436319636E+01  0.90426633605E+01  0.29208908952E+02  0.59301993635E+02  0.50000090472E+02 0.  0.
         12    1    1    2    0    0 -0.90436319636E+01 -0.90426633605E+01 -0.29208908952E+02  0.31886006365E+02  0.00000000000E+00 0. -1.
         11    1    3    3    0    0  0.68759756313E+01  0.18324203383E+02  0.12493329167E+01  0.19611636941E+02  0.51100000000E-03 0. -1.
        -11    1    3    3    0    0  0.12465854771E+02 -0.48617045040E+00  0.58878715194E+01  0.13794960246E+02  0.51100000000E-03 0.  1.
         12    1    3    3    0    0 -0.10298198439E+02 -0.87953695722E+01  0.22071704516E+02  0.25895396449E+02  0.00000000000E+00 0. -1.
</event>
<event>
 7    1  0.3461631E-013  0.5930191E+02  0.7816164E-02  0.1266605E+00
        -11   -1    0    0    0    0  0.00000000000E+00  0.00000000000E+00  0.45593999997E+02  0.45594000000E+02  0.51100000000E-03 0.  1.
         11   -1    0    0    0    0 -0.00000000000E+00 -0.00000000000E+00 -0.45593999997E+02  0.45594000000E+02  0.51100000000E-03 0. -1.
    9900012    2    1    2    0    0 -0.16050244058E+02  0.24861916519E+02 -0.11874238095E+02  0.59301909652E+02  0.49999937308E+02 0.  0.
         12    1    1    2    0    0  0.16050244058E+02 -0.24861916519E+02  0.11874238095E+02  0.31886090348E+02  0.00000000000E+00 0. -1.
         11    1    3    3    0    0  0.17953780648E+01  0.11946821845E+02  0.61480877763E+00  0.12096607983E+02  0.51100000000E-03 0. -1.
        -11    1    3    3    0    0 -0.18636868933E+02  0.25697223773E+02 -0.13199819527E+02  0.34378996918E+02  0.51100000000E-03 0.  1.
        -12    1    3    3    0    0  0.79124681055E+00 -0.12782129099E+02  0.71077265424E+00  0.12826304752E+02  0.00000000000E+00 0.  1.
</event>
<event>
 7    1  0.3461631E-013  0.5930193E+02  0.7816164E-02  0.1266605E+00
        -11   -1    0    0    0    0  0.00000000000E+00  0.00000000000E+00  0.45593999997E+02  0.45594000000E+02  0.51100000000E-03 0. -1.
         11   -1    0    0    0    0 -0.00000000000E+00 -0.00000000000E+00 -0.45593999997E+02  0.45594000000E+02  0.51100000000E-03 0.  1.
    9900012    2    1    2    0    0  0.22262179975E+02  0.22096320080E+02 -0.57331640027E+01  0.59301934269E+02  0.49999982203E+02 0.  0.
         12    1    1    2    0    0 -0.22262179975E+02 -0.22096320080E+02  0.57331640027E+01  0.31886065731E+02  0.00000000000E+00 0. -1.
         11    1    3    3    0    0  0.42963057431E+01 -0.40483601904E+01 -0.95259740799E+01  0.11206767853E+02  0.51100000000E-03 0. -1.
        -11    1    3    3    0    0  0.21856733211E+02  0.14560516692E+02 -0.11372382412E+02  0.28619163422E+02  0.51100000000E-03 0.  1.
        -12    1    3    3    0    0 -0.38908589786E+01  0.11584163579E+02  0.15165192490E+02  0.19476002995E+02  0.00000000000E+00 0.  1.
</event>
<event>
 7    1  0.3461631E-013  0.5930193E+02  0.7816164E-02  0.1266605E+00
        -11   -1    0    0    0    0  0.00000000000E+00  0.00000000000E+00  0.45593999997E+02  0.45594000000E+02  0.51100000000E-03 0. -1.
         11   -1    0    0    0    0 -0.00000000000E+00 -0.00000000000E+00 -0.45593999997E+02  0.45594000000E+02  0.51100000000E-03 0.  1.
    9900012    2    1    2    0    0  0.88544482749E+01 -0.24756072117E+01 -0.30531812846E+02  0.59301929671E+02  0.49999973818E+02 0.  0.
         12    1    1    2    0    0 -0.88544482749E+01  0.24756072117E+01  0.30531812846E+02  0.31886070329E+02  0.00000000000E+00 0. -1.
         11    1    3    3    0    0  0.12371291707E+02 -0.32042180482E+01 -0.13999745871E+02  0.18955441343E+02  0.51100000000E-03 0. -1.
        -11    1    3    3    0    0 -0.89113859691E+01 -0.39679469381E+01 -0.26408250651E+02  0.28152319718E+02  0.51100000000E-03 0.  1.
         12    1    3    3    0    0  0.53945425369E+01  0.46965577746E+01  0.98761836755E+01  0.12194168611E+02  0.00000000000E+00 0. -1.
</event>
<event>
 7    1  0.3461631E-013  0.5930194E+02  0.7816164E-02  0.1266605E+00
        -11   -1    0    0    0    0  0.00000000000E+00  0.00000000000E+00  0.45593999997E+02  0.45594000000E+02  0.51100000000E-03 0.  1.
         11   -1    0    0    0    0 -0.00000000000E+00 -0.00000000000E+00 -0.45593999997E+02  0.45594000000E+02  0.51100000000E-03 0. -1.
    9900012    2    1    2    0    0 -0.34638991765E+01  0.30128284991E+02  0.98492828423E+01  0.59301944638E+02  0.50000001113E+02 0.  0.
         12    1    1    2    0    0  0.34638991765E+01 -0.30128284991E+02 -0.98492828423E+01  0.31886055362E+02  0.00000000000E+00 0. -1.
         11    1    3    3    0    0 -0.12193167730E+02  0.12021021412E+02  0.33088499410E+01  0.17439231154E+02  0.51100000000E-03 0. -1.
        -11    1    3    3    0    0  0.28287120158E+01  0.23031623594E+02 -0.87097496875E+01  0.24785419846E+02  0.51100000000E-03 0.  1.
        -12    1    3    3    0    0  0.59005565375E+01 -0.49243600145E+01  0.15250182589E+02  0.17077293638E+02  0.00000000000E+00 0.  1.
</event>
<event>
 7    1  0.3461631E-013  0.5930198E+02  0.7816164E-02  0.1266605E+00
        -11   -1    0    0    0    0  0.00000000000E+00  0.00000000000E+00  0.45593999997E+02  0.45594000000E+02  0.51100000000E-03 0. -1.
         11   -1    0    0    0    0 -0.00000000000E+00 -0.00000000000E+00 -0.45593999997E+02  0.45594000000E+02  0.51100000000E-03 0.  1.
    9900012    2    1    2    0    0  0.19138289885E+02  0.24960878384E+02 -0.52343563821E+01  0.59301983062E+02  0.50000071189E+02 0.  0.
         12    1    1    2    0    0 -0.19138289885E+02 -0.24960878384E+02  0.52343563821E+01  0.31886016938E+02  0.00000000000E+00 0. -1.
         11    1    3    3    0    0  0.45219047736E+00  0.60407788618E+00  0.17482622728E+02  0.17498899509E+02  0.51100000000E-03 0. -1.
        -11    1    3    3    0    0  0.14134417015E+01  0.15675593709E+02 -0.10917553392E+02  0.19155026179E+02  0.51100000000E-03 0.  1.
        -12    1    3    3    0    0  0.17272657706E+02  0.86812067889E+01 -0.11799425718E+02  0.22648057374E+02  0.00000000000E+00 0.  1.
</event>
<event>
 7    1  0.3461631E-013  0.5930194E+02  0.7816164E-02  0.1266605E+00
        -11   -1    0    0    0    0  0.00000000000E+00  0.00000000000E+00  0.45593999997E+02  0.45594000000E+02  0.51100000000E-03 0.  1.
         11   -1    0    0    0    0 -0.00000000000E+00 -0.00000000000E+00 -0.45593999997E+02  0.45594000000E+02  0.51100000000E-03 0. -1.
    9900012    2    1    2    0    0 -0.97959858020E+01 -0.27483948410E+02  0.12860487201E+02  0.59301938953E+02  0.49999990744E+02 0.  0.
         12    1    1    2    0    0  0.97959858020E+01  0.27483948410E+02 -0.12860487201E+02  0.31886061047E+02  0.00000000000E+00 0. -1.
         11    1    3    3    0    0 -0.10465692543E+02 -0.12441973108E+02  0.17546328260E+02  0.23920849711E+02  0.51100000000E-03 0. -1.
        -11    1    3    3    0    0  0.75229136184E+00 -0.10160194290E+02  0.13294684781E+02  0.16749451751E+02  0.51100000000E-03 0.  1.
         12    1    3    3    0    0 -0.82584621283E-01 -0.48817810124E+01 -0.17980525840E+02  0.18631637490E+02  0.00000000000E+00 0. -1.
</event>
<event>
 7    1  0.3461631E-013  0.5930193E+02  0.7816164E-02  0.1266605E+00
        -11   -1    0    0    0    0  0.00000000000E+00  0.00000000000E+00  0.45593999997E+02  0.45594000000E+02  0.51100000000E-03 0.  1.
         11   -1    0    0    0    0 -0.00000000000E+00 -0.00000000000E+00 -0.45593999997E+02  0.45594000000E+02  0.51100000000E-03 0. -1.
    9900012    2    1    2    0    0  0.14593896185E+02  0.26381280540E+02  0.10381115492E+02  0.59301932076E+02  0.49999978203E+02 0.  0.
         12    1    1    2    0    0 -0.14593896185E+02 -0.26381280540E+02 -0.10381115492E+02  0.31886067924E+02  0.00000000000E+00 0. -1.
         11    1    3    3    0    0  0.23900050626E+02  0.93784597850E+01 -0.55325949627E+01  0.26263616185E+02  0.51100000000E-03 0. -1.
        -11    1    3    3    0    0 -0.11580246818E+02  0.51235963083E+00  0.30094524907E+01  0.11975868791E+02  0.51100000000E-03 0.  1.
        -12    1    3    3    0    0  0.22740923767E+01  0.16490461124E+02  0.12904257964E+02  0.21062447100E+02  0.00000000000E+00 0.  1.
</event>
<event>
 7    1  0.3461631E-013  0.5930192E+02  0.7816164E-02  0.1266605E+00
        -11   -1    0    0    0    0  0.00000000000E+00  0.00000000000E+00  0.45593999997E+02  0.45594000000E+02  0.51100000000E-03 0.  1.
         11   -1    0    0    0    0 -0.00000000000E+00 -0.00000000000E+00 -0.45593999997E+02  0.45594000000E+02  0.51100000000E-03 0. -1.
    9900012    2    1    2    0    0 -0.19077063394E+02 -0.14125547358E+02  0.21289818901E+02  0.59301924281E+02  0.49999963987E+02 0.  0.
         12    1    1    2    0    0  0.19077063394E+02  0.14125547358E+02 -0.21289818901E+02  0.31886075719E+02  0.00000000000E+00 0. -1.
         11    1    3    3    0    0  0.11786688450E+01  0.99713007507E+01  0.24829256226E+01  0.10343162902E+02  0.51100000000E-03 0. -1.
        -11    1    3    3    0    0 -0.47559573497E+01  0.63299650351E+01 -0.29725662776E+01  0.84571708149E+01  0.51100000000E-03 0.  1.
        -12    1    3    3    0    0 -0.15499774890E+02 -0.30426813143E+02  0.21779459556E+02  0.40501590564E+02  0.00000000000E+00 0.  1.
</event>
<event>
 7    1  0.3461631E-013  0.5930196E+02  0.7816164E-02  0.1266605E+00
        -11   -1    0    0    0    0  0.00000000000E+00  0.00000000000E+00  0.45593999997E+02  0.45594000000E+02  0.51100000000E-03 0.  1.
         11   -1    0    0    0    0 -0.00000000000E+00 -0.00000000000E+00 -0.45593999997E+02  0.45594000000E+02  0.51100000000E-03 0. -1.
    9900012    2    1    2    0    0  0.58103516637E+01  0.70581997642E+01  0.30547362057E+02  0.59301957614E+02  0.50000024779E+02 0.  0.
         12    1    1    2    0    0 -0.58103516637E+01 -0.70581997642E+01 -0.30547362057E+02  0.31886042386E+02  0.00000000000E+00 0. -1.
         11    1    3    3    0    0  0.11890610629E+02  0.55994990323E+01 -0.49375111279E+01  0.14039943979E+02  0.51100000000E-03 0. -1.
        -11    1    3    3    0    0  0.23206388483E+01  0.12399082695E+02  0.93201970740E+01  0.15684026591E+02  0.51100000000E-03 0.  1.
        -12    1    3    3    0    0 -0.84008978133E+01 -0.10940381964E+02  0.26164676111E+02  0.29577987044E+02  0.00000000000E+00 0.  1.
</event>
<event>
 7    1  0.3461631E-013  0.5930195E+02  0.7816164E-02  0.1266605E+00
        -11   -1    0    0    0    0  0.00000000000E+00  0.00000000000E+00  0.45593999997E+02  0.45594000000E+02  0.51100000000E-03 0.  1.
         11   -1    0    0    0    0 -0.00000000000E+00 -0.00000000000E+00 -0.45593999997E+02  0.45594000000E+02  0.51100000000E-03 0. -1.
    9900012    2    1    2    0    0  0.22448880905E+02  0.18594871878E+02  0.12922792371E+02  0.59301951692E+02  0.50000013978E+02 0.  0.
         12    1    1    2    0    0 -0.22448880905E+02 -0.18594871878E+02 -0.12922792371E+02  0.31886048308E+02  0.00000000000E+00 0. -1.
         11    1    3    3    0    0  0.48767368659E+01 -0.49619541161E+01 -0.45718797581E+01  0.83250006543E+01  0.51100000000E-03 0. -1.
        -11    1    3    3    0    0 -0.36496187756E+01  0.78195342251E+01 -0.97537020332E+01  0.13023038675E+02  0.51100000000E-03 0.  1.
        -12    1    3    3    0    0  0.21221762815E+02  0.15737291769E+02  0.27248374162E+02  0.37953912363E+02  0.00000000000E+00 0.  1.
</event>
<event>
 7    1  0.3461631E-013  0.5930192E+02  0.7816164E-02  0.1266605E+00
        -11   -1    0    0    0    0  0.00000000000E+00  0.00000000000E+00  0.45593999997E+02  0.45594000000E+02  0.51100000000E-03 0. -1.
         11   -1    0    0    0    0 -0.00000000000E+00 -0.00000000000E+00 -0.45593999997E+02  0.45594000000E+02  0.51100000000E-03 0.  1.
    9900012    2    1    2    0    0 -0.17623406737E+01 -0.31835867128E+02 -0.30616513701E+00  0.59301921259E+02  0.49999958475E+02 0.  0.
         12    1    1    2    0    0  0.17623406737E+01  0.31835867128E+02  0.30616513701E+00  0.31886078741E+02  0.00000000000E+00 0. -1.
         11    1    3    3    0    0  0.73893362273E+01  0.68815298319E+01  0.54324828791E+01  0.11466019937E+02  0.51100000000E-03 0. -1.
        -11    1    3    3    0    0 -0.34224082802E+01  0.24989775653E+01 -0.45336608652E+01  0.62057915217E+01  0.51100000000E-03 0.  1.
         12    1    3    3    0    0 -0.57292686208E+01 -0.41216374525E+02 -0.12049871509E+01  0.41630109800E+02  0.00000000000E+00 0. -1.
</event>
<event>
 7    1  0.3461631E-013  0.5930195E+02  0.7816164E-02  0.1266605E+00
        -11   -1    0    0    0    0  0.00000000000E+00  0.00000000000E+00  0.45593999997E+02  0.45594000000E+02  0.51100000000E-03 0.  1.
         11   -1    0    0    0    0 -0.00000000000E+00 -0.00000000000E+00 -0.45593999997E+02  0.45594000000E+02  0.51100000000E-03 0. -1.
    9900012    2    1    2    0    0 -0.21322487295E+02  0.17026021461E+01  0.23646840220E+02  0.59301947078E+02  0.50000005564E+02 0.  0.
         12    1    1    2    0    0  0.21322487295E+02 -0.17026021461E+01 -0.23646840220E+02  0.31886052922E+02  0.00000000000E+00 0. -1.
         11    1    3    3    0    0  0.89164957502E+01  0.18623915166E+01  0.16668971888E+01  0.92601806204E+01  0.51100000000E-03 0. -1.
        -11    1    3    3    0    0 -0.24204531046E+02  0.15042758666E+02  0.15570638147E+02  0.32474431235E+02  0.51100000000E-03 0.  1.
        -12    1    3    3    0    0 -0.60344519994E+01 -0.15202548037E+02  0.64093048840E+01  0.17567335223E+02  0.00000000000E+00 0.  1.
</event>
<event>
 7    1  0.3461631E-013  0.5930193E+02  0.7816164E-02  0.1266605E+00
        -11   -1    0    0    0    0  0.00000000000E+00  0.00000000000E+00  0.45593999997E+02  0.45594000000E+02  0.51100000000E-03 0.  1.
         11   -1    0    0    0    0 -0.00000000000E+00 -0.00000000000E+00 -0.45593999997E+02  0.45594000000E+02  0.51100000000E-03 0. -1.
    9900012    2    1    2    0    0 -0.19867689877E+02  0.59643343851E+01  0.24216171680E+02  0.59301931622E+02  0.49999977376E+02 0.  0.
         12    1    1    2    0    0  0.19867689877E+02 -0.59643343851E+01 -0.24216171680E+02  0.31886068378E+02  0.00000000000E+00 0. -1.
         11    1    3    3    0    0 -0.12371518764E+02  0.10564135697E+01  0.60539052980E+01  0.13813770513E+02  0.51100000000E-03 0. -1.
        -11    1    3    3    0    0 -0.43263525918E+01  0.16560674455E+02  0.25973270034E+02  0.31106012629E+02  0.51100000000E-03 0.  1.
         12    1    3    3    0    0 -0.31698185210E+01 -0.11652753640E+02 -0.78110036518E+01  0.14382148480E+02  0.00000000000E+00 0. -1.
</event>
<event>
 7    1  0.3461631E-013  0.5930195E+02  0.7816164E-02  0.1266605E+00
        -11   -1    0    0    0    0  0.00000000000E+00  0.00000000000E+00  0.45593999997E+02  0.45594000000E+02  0.51100000000E-03 0.  1.
         11   -1    0    0    0    0 -0.00000000000E+00 -0.00000000000E+00 -0.45593999997E+02  0.45594000000E+02  0.51100000000E-03 0. -1.
    9900012    2    1    2    0    0  0.75633536893E+01 -0.25653782354E+01  0.30869635506E+02  0.59301954764E+02  0.50000019580E+02 0.  0.
         12    1    1    2    0    0 -0.75633536893E+01  0.25653782354E+01 -0.30869635506E+02  0.31886045236E+02  0.00000000000E+00 0. -1.
         11    1    3    3    0    0  0.11765760249E+01 -0.47479616950E+01  0.52522481582E+00  0.49196882796E+01  0.51100000000E-03 0. -1.
        -11    1    3    3    0    0  0.24158343213E+02  0.23421489721E+00  0.26934115828E+02  0.36181860083E+02  0.51100000000E-03 0.  1.
         12    1    3    3    0    0 -0.17771565548E+02  0.19483685625E+01  0.34102948628E+01  0.18200406401E+02  0.00000000000E+00 0. -1.
</event>
<event>
 7    1  0.3461631E-013  0.5930191E+02  0.7816164E-02  0.1266605E+00
        -11   -1    0    0    0    0  0.00000000000E+00  0.00000000000E+00  0.45593999997E+02  0.45594000000E+02  0.51100000000E-03 0. -1.
         11   -1    0    0    0    0 -0.00000000000E+00 -0.00000000000E+00 -0.45593999997E+02  0.45594000000E+02  0.51100000000E-03 0.  1.
    9900012    2    1    2    0    0 -0.18813235298E+02  0.22454132329E+02 -0.12593528883E+02  0.59301908193E+02  0.49999934646E+02 0.  0.
         12    1    1    2    0    0  0.18813235298E+02 -0.22454132329E+02  0.12593528883E+02  0.31886091807E+02  0.00000000000E+00 0. -1.
         11    1    3    3    0    0  0.10989974489E+01 -0.86067274330E+01  0.87668832952E+00  0.87207875324E+01  0.51100000000E-03 0. -1.
        -11    1    3    3    0    0  0.80601226321E+01  0.13486480681E+02 -0.47714154678E+01  0.16420022650E+02  0.51100000000E-03 0.  1.
        -12    1    3    3    0    0 -0.27972355379E+02  0.17574379081E+02 -0.86988017444E+01  0.34161098011E+02  0.00000000000E+00 0.  1.
</event>
<event>
 7    1  0.3461631E-013  0.5930195E+02  0.7816164E-02  0.1266605E+00
        -11   -1    0    0    0    0  0.00000000000E+00  0.00000000000E+00  0.45593999997E+02  0.45594000000E+02  0.51100000000E-03 0.  1.
         11   -1    0    0    0    0 -0.00000000000E+00 -0.00000000000E+00 -0.45593999997E+02  0.45594000000E+02  0.51100000000E-03 0. -1.
    9900012    2    1    2    0    0  0.84917413259E+01  0.17672404444E+01  0.30683670917E+02  0.59301945517E+02  0.50000002716E+02 0.  0.
         12    1    1    2    0    0 -0.84917413259E+01 -0.17672404444E+01 -0.30683670917E+02  0.31886054483E+02  0.00000000000E+00 0. -1.
         11    1    3    3    0    0  0.17391048597E+02  0.99094425019E+01  0.19447502417E+01  0.20110387261E+02  0.51100000000E-03 0. -1.
        -11    1    3    3    0    0 -0.52619062763E+01  0.77586230668E+01  0.15797862499E+02  0.18369985013E+02  0.51100000000E-03 0.  1.
        -12    1    3    3    0    0 -0.36374009951E+01 -0.15900825124E+02  0.12941058176E+02  0.20821573244E+02  0.00000000000E+00 0.  1.
</event>
<event>
 7    1  0.3461631E-013  0.5930192E+02  0.7816164E-02  0.1266605E+00
        -11   -1    0    0    0    0  0.00000000000E+00  0.00000000000E+00  0.45593999997E+02  0.45594000000E+02  0.51100000000E-03 0.  1.
         11   -1    0    0    0    0 -0.00000000000E+00 -0.00000000000E+00 -0.45593999997E+02  0.45594000000E+02  0.51100000000E-03 0. -1.
    9900012    2    1    2    0    0 -0.13739288700E+02  0.13724901603E+02  0.25289937756E+02  0.59301922636E+02  0.49999960986E+02 0.  0.
         12    1    1    2    0    0  0.13739288700E+02 -0.13724901603E+02 -0.25289937756E+02  0.31886077364E+02  0.00000000000E+00 0. -1.
         11    1    3    3    0    0  0.12317996712E+02  0.16773437201E+02  0.96938657105E+01  0.22957619023E+02  0.51100000000E-03 0. -1.
        -11    1    3    3    0    0  0.25354994315E+01 -0.60120441671E-01  0.51789614867E+01  0.57666293601E+01  0.51100000000E-03 0.  1.
         12    1    3    3    0    0 -0.28592784844E+02 -0.29884151572E+01  0.10417110559E+02  0.30577674252E+02  0.00000000000E+00 0. -1.
</event>
<event>
 7    1  0.3461631E-013  0.5930202E+02  0.7816164E-02  0.1266604E+00
        -11   -1    0    0    0    0  0.00000000000E+00  0.00000000000E+00  0.45593999997E+02  0.45594000000E+02  0.51100000000E-03 0.  1.
         11   -1    0    0    0    0 -0.00000000000E+00 -0.00000000000E+00 -0.45593999997E+02  0.45594000000E+02  0.51100000000E-03 0. -1.
    9900012    2    1    2    0    0 -0.18136404343E+02  0.24817182350E+02  0.84790167573E+01  0.59302024596E+02  0.50000146936E+02 0.  0.
         12    1    1    2    0    0  0.18136404343E+02 -0.24817182350E+02 -0.84790167573E+01  0.31885975404E+02  0.00000000000E+00 0. -1.
         11    1    3    3    0    0 -0.13745458283E+02 -0.57017003911E+01  0.54372633556E+01  0.15843321742E+02  0.51100000000E-03 0. -1.
        -11    1    3    3    0    0 -0.13663976353E+02  0.27253887525E+01  0.24901387938E+01  0.14153896463E+02  0.51100000000E-03 0.  1.
         12    1    3    3    0    0  0.92730302922E+01  0.27793493989E+02  0.55161460798E+00  0.29304806391E+02  0.00000000000E+00 0. -1.
</event>
<event>
 7    1  0.3461631E-013  0.5930192E+02  0.7816164E-02  0.1266605E+00
        -11   -1    0    0    0    0  0.00000000000E+00  0.00000000000E+00  0.45593999997E+02  0.45594000000E+02  0.51100000000E-03 0.  1.
         11   -1    0    0    0    0 -0.00000000000E+00 -0.00000000000E+00 -0.45593999997E+02  0.45594000000E+02  0.51100000000E-03 0. -1.
    9900012    2    1    2    0    0 -0.11690446212E+02  0.28189464541E+02  0.92417312310E+01  0.59301920907E+02  0.49999957834E+02 0.  0.
         12    1    1    2    0    0  0.11690446212E+02 -0.28189464541E+02 -0.92417312310E+01  0.31886079093E+02  0.00000000000E+00 0. -1.
         11    1    3    3    0    0 -0.14492116014E+02  0.52829711922E+01  0.85645143612E+01  0.17643188988E+02  0.51100000000E-03 0. -1.
        -11    1    3    3    0    0 -0.59867604184E+01  0.30270599630E+00  0.13102675072E+02  0.14408782930E+02  0.51100000000E-03 0.  1.
        -12    1    3    3    0    0  0.87884302197E+01  0.22603787352E+02 -0.12425458202E+02  0.27249948989E+02  0.00000000000E+00 0.  1.
</event>
<event>
 7    1  0.3461631E-013  0.5930194E+02  0.7816164E-02  0.1266605E+00
        -11   -1    0    0    0    0  0.00000000000E+00  0.00000000000E+00  0.45593999997E+02  0.45594000000E+02  0.51100000000E-03 0. -1.
         11   -1    0    0    0    0 -0.00000000000E+00 -0.00000000000E+00 -0.45593999997E+02  0.45594000000E+02  0.51100000000E-03 0.  1.
    9900012    2    1    2    0    0  0.23826844721E+02 -0.20628896384E+02 -0.48426025661E+01  0.59301941997E+02  0.49999996297E+02 0.  0.
         12    1    1    2    0    0 -0.23826844721E+02  0.20628896384E+02  0.48426025661E+01  0.31886058003E+02  0.00000000000E+00 0. -1.
         11    1    3    3    0    0 -0.13993688032E+01 -0.10868795954E+02  0.11747192518E+01  0.11021294122E+02  0.51100000000E-03 0. -1.
        -11    1    3    3    0    0  0.23389661308E+02 -0.23475316437E+02  0.13034516988E+00  0.33138855262E+02  0.51100000000E-03 0.  1.
         12    1    3    3    0    0  0.18365522154E+01  0.13715216007E+02 -0.61476669877E+01  0.15141792614E+02  0.00000000000E+00 0. -1.
</event>
<event>
 7    1  0.3461631E-013  0.5930197E+02  0.7816164E-02  0.1266605E+00
        -11   -1    0    0    0    0  0.00000000000E+00  0.00000000000E+00  0.45593999997E+02  0.45594000000E+02  0.51100000000E-03 0. -1.
         11   -1    0    0    0    0 -0.00000000000E+00 -0.00000000000E+00 -0.45593999997E+02  0.45594000000E+02  0.51100000000E-03 0.  1.
    9900012    2    1    2    0    0 -0.31441206591E+02  0.16365379439E+01 -0.50488484431E+01  0.59301974864E+02  0.50000056239E+02 0.  0.
         12    1    1    2    0    0  0.31441206591E+02 -0.16365379439E+01  0.50488484431E+01  0.31886025136E+02  0.00000000000E+00 0. -1.
         11    1    3    3    0    0 -0.82236470253E+01  0.32609774464E+00 -0.77303242569E+00  0.82663347094E+01  0.51100000000E-03 0. -1.
        -11    1    3    3    0    0 -0.27487354457E+02  0.13730840006E+02  0.93434095641E+01  0.32115260000E+02  0.51100000000E-03 0.  1.
        -12    1    3    3    0    0  0.42697948911E+01 -0.12420399807E+02 -0.13619225582E+02  0.18920380155E+02  0.00000000000E+00 0.  1.
</event>
<event>
 7    1  0.3461631E-013  0.5930194E+02  0.7816164E-02  0.1266605E+00
        -11   -1    0    0    0    0  0.00000000000E+00  0.00000000000E+00  0.45593999997E+02  0.45594000000E+02  0.51100000000E-03 0. -1.
         11   -1    0    0    0    0 -0.00000000000E+00 -0.00000000000E+00 -0.45593999997E+02  0.45594000000E+02  0.51100000000E-03 0.  1.
    9900012    2    1    2    0    0  0.12902262772E+02  0.21184602879E+02 -0.20036586172E+02  0.59301943969E+02  0.49999999892E+02 0.  0.
         12    1    1    2    0    0 -0.12902262772E+02 -0.21184602879E+02  0.20036586172E+02  0.31886056031E+02  0.00000000000E+00 0. -1.
         11    1    3    3    0    0  0.19467805936E+02  0.24622348758E+01 -0.26685733780E+02  0.33123804977E+02  0.51100000000E-03 0. -1.
        -11    1    3    3    0    0  0.84694596692E+00  0.38416557241E+01 -0.46396507750E+01  0.60829265776E+01  0.51100000000E-03 0.  1.
         12    1    3    3    0    0 -0.74124891304E+01  0.14880712280E+02  0.11288798382E+02  0.20095212414E+02  0.00000000000E+00 0. -1.
</event>
<event>
 7    1  0.3461631E-013  0.5930195E+02  0.7816164E-02  0.1266605E+00
        -11   -1    0    0    0    0  0.00000000000E+00  0.00000000000E+00  0.45593999997E+02  0.45594000000E+02  0.51100000000E-03 0. -1.
         11   -1    0    0    0    0 -0.00000000000E+00 -0.00000000000E+00 -0.45593999997E+02  0.45594000000E+02  0.51100000000E-03 0.  1.
    9900012    2    1    2    0    0  0.24786854809E+01 -0.10241814135E+02 -0.30094543159E+02  0.59301950285E+02  0.50000011411E+02 0.  0.
         12    1    1    2    0    0 -0.24786854809E+01  0.10241814135E+02  0.30094543159E+02  0.31886049715E+02  0.00000000000E+00 0. -1.
         11    1    3    3    0    0 -0.99882939539E+01 -0.10913007666E+02 -0.11390288019E+02  0.18670790391E+02  0.51100000000E-03 0.  1.
        -11    1    3    3    0    0 -0.24321059946E+01 -0.94822415600E+01  0.48852199846E+01  0.10940448763E+02  0.51100000000E-03 0. -1.
        -12    1    3    3    0    0  0.14899085429E+02  0.10153435091E+02 -0.23589475125E+02  0.29690711131E+02  0.00000000000E+00 0.  1.
</event>
<event>
 7    1  0.3461631E-013  0.5930197E+02  0.7816164E-02  0.1266605E+00
        -11   -1    0    0    0    0  0.00000000000E+00  0.00000000000E+00  0.45593999997E+02  0.45594000000E+02  0.51100000000E-03 0.  1.
         11   -1    0    0    0    0 -0.00000000000E+00 -0.00000000000E+00 -0.45593999997E+02  0.45594000000E+02  0.51100000000E-03 0. -1.
    9900012    2    1    2    0    0 -0.16844417182E+02  0.20904577958E+02 -0.17204165185E+02  0.59301967486E+02  0.50000042782E+02 0.  0.
         12    1    1    2    0    0  0.16844417182E+02 -0.20904577958E+02  0.17204165185E+02  0.31886032514E+02  0.00000000000E+00 0. -1.
         11    1    3    3    0    0  0.50054403340E+01  0.64567202109E+01 -0.18175621774E+02  0.19927290231E+02  0.51100000000E-03 0. -1.
        -11    1    3    3    0    0 -0.13991614639E+02  0.12507171752E+02 -0.13276334984E+02  0.22988164266E+02  0.51100000000E-03 0.  1.
         12    1    3    3    0    0 -0.78582428764E+01  0.19406859951E+01  0.14247791573E+02  0.16386512989E+02  0.00000000000E+00 0. -1.
</event>
<event>
 7    1  0.3461631E-013  0.5930192E+02  0.7816164E-02  0.1266605E+00
        -11   -1    0    0    0    0  0.00000000000E+00  0.00000000000E+00  0.45593999997E+02  0.45594000000E+02  0.51100000000E-03 0.  1.
         11   -1    0    0    0    0 -0.00000000000E+00 -0.00000000000E+00 -0.45593999997E+02  0.45594000000E+02  0.51100000000E-03 0. -1.
    9900012    2    1    2    0    0  0.39124140403E+01  0.24360611408E+02  0.20198407581E+02  0.59301920896E+02  0.49999957814E+02 0.  0.
         12    1    1    2    0    0 -0.39124140403E+01 -0.24360611408E+02 -0.20198407581E+02  0.31886079104E+02  0.00000000000E+00 0. -1.
         11    1    3    3    0    0 -0.11846807272E+02  0.13578906304E+01  0.11534400740E+02  0.16590151000E+02  0.51100000000E-03 0.  1.
        -11    1    3    3    0    0  0.14738873387E+01  0.41594863484E+01 -0.11067300954E+02  0.11914647340E+02  0.51100000000E-03 0. -1.
        -12    1    3    3    0    0  0.14285333974E+02  0.18843234429E+02  0.19731307794E+02  0.30797122557E+02  0.00000000000E+00 0.  1.
</event>
<event>
 7    1  0.3461631E-013  0.5930193E+02  0.7816164E-02  0.1266605E+00
        -11   -1    0    0    0    0  0.00000000000E+00  0.00000000000E+00  0.45593999997E+02  0.45594000000E+02  0.51100000000E-03 0.  1.
         11   -1    0    0    0    0 -0.00000000000E+00 -0.00000000000E+00 -0.45593999997E+02  0.45594000000E+02  0.51100000000E-03 0. -1.
    9900012    2    1    2    0    0  0.30475210511E+02 -0.92138757789E+01 -0.17571402614E+01  0.59301929303E+02  0.49999973146E+02 0.  0.
         12    1    1    2    0    0 -0.30475210511E+02  0.92138757789E+01  0.17571402614E+01  0.31886070697E+02  0.00000000000E+00 0. -1.
         11    1    3    3    0    0  0.13250862336E+02  0.15027275986E+02 -0.43288820550E+01  0.20497404624E+02  0.51100000000E-03 0. -1.
        -11    1    3    3    0    0 -0.39849275524E+01  0.58822458782E+00  0.45661402144E+01  0.60889483889E+01  0.51100000000E-03 0.  1.
        -12    1    3    3    0    0  0.21209275728E+02 -0.24829376353E+02 -0.19943984208E+01  0.32715576291E+02  0.00000000000E+00 0.  1.
</event>
<event>
 7    1  0.3461631E-013  0.5930194E+02  0.7816164E-02  0.1266605E+00
        -11   -1    0    0    0    0  0.00000000000E+00  0.00000000000E+00  0.45593999997E+02  0.45594000000E+02  0.51100000000E-03 0.  1.
         11   -1    0    0    0    0 -0.00000000000E+00 -0.00000000000E+00 -0.45593999997E+02  0.45594000000E+02  0.51100000000E-03 0. -1.
    9900012    2    1    2    0    0 -0.18856848034E+02 -0.25712441785E+02 -0.10114153962E+00  0.59301943331E+02  0.49999998729E+02 0.  0.
         12    1    1    2    0    0  0.18856848034E+02  0.25712441785E+02  0.10114153962E+00  0.31886056669E+02  0.00000000000E+00 0. -1.
         11    1    3    3    0    0 -0.63690041515E+01  0.28929911060E+01 -0.10026371816E+02  0.12225454735E+02  0.51100000000E-03 0. -1.
        -11    1    3    3    0    0  0.76544238769E+01  0.19659388198E+01  0.66345035471E+01  0.10318515296E+02  0.51100000000E-03 0.  1.
         12    1    3    3    0    0 -0.20142267759E+02 -0.30571371710E+02  0.32907267293E+01  0.36757973300E+02  0.00000000000E+00 0. -1.
</event>
<event>
 7    1  0.3461631E-013  0.5930191E+02  0.7816164E-02  0.1266605E+00
        -11   -1    0    0    0    0  0.00000000000E+00  0.00000000000E+00  0.45593999997E+02  0.45594000000E+02  0.51100000000E-03 0. -1.
         11   -1    0    0    0    0 -0.00000000000E+00 -0.00000000000E+00 -0.45593999997E+02  0.45594000000E+02  0.51100000000E-03 0.  1.
    9900012    2    1    2    0    0  0.52557007203E+01 -0.18656944417E+02 -0.25318349825E+02  0.59301908943E+02  0.49999936013E+02 0.  0.
         12    1    1    2    0    0 -0.52557007203E+01  0.18656944417E+02  0.25318349825E+02  0.31886091057E+02  0.00000000000E+00 0. -1.
         11    1    3    3    0    0  0.12425304490E+02 -0.66718571974E+01 -0.37505775940E+02  0.40069752923E+02  0.51100000000E-03 0.  1.
        -11    1    3    3    0    0 -0.30139663237E+01 -0.12184230503E+01  0.18613330357E+01  0.37460791050E+01  0.51100000000E-03 0. -1.
        -12    1    3    3    0    0 -0.41556374459E+01 -0.10766664170E+02  0.10326093080E+02  0.15486076915E+02  0.00000000000E+00 0.  1.
</event>
<event>
 7    1  0.3461631E-013  0.5930210E+02  0.7816164E-02  0.1266604E+00
        -11   -1    0    0    0    0  0.00000000000E+00  0.00000000000E+00  0.45593999997E+02  0.45594000000E+02  0.51100000000E-03 0.  1.
         11   -1    0    0    0    0 -0.00000000000E+00 -0.00000000000E+00 -0.45593999997E+02  0.45594000000E+02  0.51100000000E-03 0. -1.
    9900012    2    1    2    0    0  0.17218779018E+02 -0.25475851390E+02  0.84383270439E+01  0.59302098442E+02  0.50000281613E+02 0.  0.
         12    1    1    2    0    0 -0.17218779018E+02  0.25475851390E+02 -0.84383270439E+01  0.31885901558E+02  0.00000000000E+00 0. -1.
         11    1    3    3    0    0  0.85206630780E+01  0.24347317763E+01  0.70656792657E+01  0.11333730271E+02  0.51100000000E-03 0. -1.
        -11    1    3    3    0    0 -0.86786549434E+01  0.32283717714E+01 -0.66718378041E+01  0.11412924948E+02  0.51100000000E-03 0.  1.
        -12    1    3    3    0    0  0.17376770883E+02 -0.31138954937E+02  0.80444855823E+01  0.36555443223E+02  0.00000000000E+00 0.  1.
</event>
<event>
 7    1  0.3461631E-013  0.5930187E+02  0.7816164E-02  0.1266605E+00
        -11   -1    0    0    0    0  0.00000000000E+00  0.00000000000E+00  0.45593999997E+02  0.45594000000E+02  0.51100000000E-03 0.  1.
         11   -1    0    0    0    0 -0.00000000000E+00 -0.00000000000E+00 -0.45593999997E+02  0.45594000000E+02  0.51100000000E-03 0. -1.
    9900012    2    1    2    0    0 -0.13991451232E+02 -0.28650955262E+02 -0.29537460361E+00  0.59301871493E+02  0.49999867714E+02 0.  0.
         12    1    1    2    0    0  0.13991451232E+02  0.28650955262E+02  0.29537460361E+00  0.31886128507E+02  0.00000000000E+00 0. -1.
         11    1    3    3    0    0 -0.58447927139E+01 -0.31431111922E+01  0.89265828176E+01  0.11123157416E+02  0.51100000000E-03 0. -1.
        -11    1    3    3    0    0 -0.22048709942E+02 -0.23354752179E+02 -0.15519238198E+01  0.32155847482E+02  0.51100000000E-03 0.  1.
        -12    1    3    3    0    0  0.13902051424E+02 -0.21530918910E+01 -0.76700336014E+01  0.16022866596E+02  0.00000000000E+00 0.  1.
</event>
<event>
 7    1  0.3461631E-013  0.5930193E+02  0.7816164E-02  0.1266605E+00
        -11   -1    0    0    0    0  0.00000000000E+00  0.00000000000E+00  0.45593999997E+02  0.45594000000E+02  0.51100000000E-03 0. -1.
         11   -1    0    0    0    0 -0.00000000000E+00 -0.00000000000E+00 -0.45593999997E+02  0.45594000000E+02  0.51100000000E-03 0.  1.
    9900012    2    1    2    0    0 -0.28818089112E+00  0.67423013086E+01 -0.31163756767E+02  0.59301930769E+02  0.49999975819E+02 0.  0.
         12    1    1    2    0    0  0.28818089112E+00 -0.67423013086E+01  0.31163756767E+02  0.31886069231E+02  0.00000000000E+00 0. -1.
         11    1    3    3    0    0  0.23512716873E+01  0.21453932543E+01  0.20222934914E+01  0.37710558189E+01  0.51100000000E-03 0. -1.
        -11    1    3    3    0    0  0.81628584163E+01 -0.52234185458E+01  0.75326087281E+01  0.12274223126E+02  0.51100000000E-03 0.  1.
        -12    1    3    3    0    0 -0.10802310995E+02  0.98203266001E+01 -0.40718658987E+02  0.43256651824E+02  0.00000000000E+00 0.  1.
</event>
<event>
 7    1  0.3461631E-013  0.5930204E+02  0.7816164E-02  0.1266604E+00
        -11   -1    0    0    0    0  0.00000000000E+00  0.00000000000E+00  0.45593999997E+02  0.45594000000E+02  0.51100000000E-03 0.  1.
         11   -1    0    0    0    0 -0.00000000000E+00 -0.00000000000E+00 -0.45593999997E+02  0.45594000000E+02  0.51100000000E-03 0. -1.
    9900012    2    1    2    0    0 -0.12453532623E+02  0.10961076792E+02  0.27230108114E+02  0.59302039655E+02  0.50000174401E+02 0.  0.
         12    1    1    2    0    0  0.12453532623E+02 -0.10961076792E+02 -0.27230108114E+02  0.31885960345E+02  0.00000000000E+00 0. -1.
         11    1    3    3    0    0  0.66861036068E+01 -0.23374548071E+01  0.12906800521E+01  0.71995507967E+01  0.51100000000E-03 0. -1.
        -11    1    3    3    0    0  0.40970946153E+01 -0.10844733865E+02  0.80856334107E+01  0.14134068940E+02  0.51100000000E-03 0.  1.
         12    1    3    3    0    0 -0.23236730845E+02  0.24143265464E+02  0.17853794651E+02  0.37968419918E+02  0.00000000000E+00 0. -1.
</event>
<event>
 7    1  0.3461631E-013  0.5930194E+02  0.7816164E-02  0.1266605E+00
        -11   -1    0    0    0    0  0.00000000000E+00  0.00000000000E+00  0.45593999997E+02  0.45594000000E+02  0.51100000000E-03 0. -1.
         11   -1    0    0    0    0 -0.00000000000E+00 -0.00000000000E+00 -0.45593999997E+02  0.45594000000E+02  0.51100000000E-03 0.  1.
    9900012    2    1    2    0    0  0.12789775012E+02  0.28612947613E+02  0.58686909965E+01  0.59301942702E+02  0.49999997583E+02 0.  0.
         12    1    1    2    0    0 -0.12789775012E+02 -0.28612947613E+02 -0.58686909965E+01  0.31886057298E+02  0.00000000000E+00 0. -1.
         11    1    3    3    0    0  0.33599148152E+01 -0.44152601514E+01  0.79244118652E+01  0.96736680448E+01  0.51100000000E-03 0. -1.
        -11    1    3    3    0    0  0.88033474810E+01  0.95432276734E+01 -0.17294310779E+02  0.21625570672E+02  0.51100000000E-03 0.  1.
         12    1    3    3    0    0  0.62651271597E+00  0.23484980091E+02  0.15238589910E+02  0.28002703986E+02  0.00000000000E+00 0. -1.
</event>
<event>
 7    1  0.3461631E-013  0.5930194E+02  0.7816164E-02  0.1266605E+00
        -11   -1    0    0    0    0  0.00000000000E+00  0.00000000000E+00  0.45593999997E+02  0.45594000000E+02  0.51100000000E-03 0.  1.
         11   -1    0    0    0    0 -0.00000000000E+00 -0.00000000000E+00 -0.45593999997E+02  0.45594000000E+02  0.51100000000E-03 0. -1.
    9900012    2    1    2    0    0  0.26602821108E+02  0.81540944721E+01  0.15573102330E+02  0.59301939351E+02  0.49999991470E+02 0.  0.
         12    1    1    2    0    0 -0.26602821108E+02 -0.81540944721E+01 -0.15573102330E+02  0.31886060649E+02  0.00000000000E+00 0. -1.
         11    1    3    3    0    0 -0.94454927877E+01 -0.59576149024E+00  0.18775965865E+01  0.96487115699E+01  0.51100000000E-03 0. -1.
        -11    1    3    3    0    0  0.10902714596E+02 -0.14888752958E+01 -0.90398480170E+01  0.14240954590E+02  0.51100000000E-03 0.  1.
        -12    1    3    3    0    0  0.25145599299E+02  0.10238731258E+02  0.22735353761E+02  0.35412273191E+02  0.00000000000E+00 0.  1.
</event>
<event>
 7    1  0.3461631E-013  0.5930196E+02  0.7816164E-02  0.1266605E+00
        -11   -1    0    0    0    0  0.00000000000E+00  0.00000000000E+00  0.45593999997E+02  0.45594000000E+02  0.51100000000E-03 0.  1.
         11   -1    0    0    0    0 -0.00000000000E+00 -0.00000000000E+00 -0.45593999997E+02  0.45594000000E+02  0.51100000000E-03 0. -1.
    9900012    2    1    2    0    0  0.26384100760E+02  0.88763461629E+01  0.15550211990E+02  0.59301962506E+02  0.50000033701E+02 0.  0.
         12    1    1    2    0    0 -0.26384100760E+02 -0.88763461629E+01 -0.15550211990E+02  0.31886037494E+02  0.00000000000E+00 0. -1.
         11    1    3    3    0    0  0.45652375519E+01  0.11092155013E+02  0.15623724145E+01  0.12096210338E+02  0.51100000000E-03 0. -1.
        -11    1    3    3    0    0  0.15759365971E+02  0.17772650519E+02  0.41307804743E+01  0.24109916422E+02  0.51100000000E-03 0.  1.
         12    1    3    3    0    0  0.60594972368E+01 -0.19988459368E+02  0.98570591009E+01  0.23095835746E+02  0.00000000000E+00 0. -1.
</event>
<event>
 7    1  0.3461631E-013  0.5930195E+02  0.7816164E-02  0.1266605E+00
        -11   -1    0    0    0    0  0.00000000000E+00  0.00000000000E+00  0.45593999997E+02  0.45594000000E+02  0.51100000000E-03 0.  1.
         11   -1    0    0    0    0 -0.00000000000E+00 -0.00000000000E+00 -0.45593999997E+02  0.45594000000E+02  0.51100000000E-03 0. -1.
    9900012    2    1    2    0    0  0.10470906822E+02  0.21271279898E+01  0.30042565512E+02  0.59301948101E+02  0.50000007428E+02 0.  0.
         12    1    1    2    0    0 -0.10470906822E+02 -0.21271279898E+01 -0.30042565512E+02  0.31886051899E+02  0.00000000000E+00 0. -1.
         11    1    3    3    0    0 -0.17289549056E+02 -0.16714119586E+01  0.15795670626E+02  0.23478188501E+02  0.51100000000E-03 0. -1.
        -11    1    3    3    0    0 -0.19795622185E+01  0.21802931383E+00  0.34481227225E+01  0.39819284184E+01  0.51100000000E-03 0.  1.
        -12    1    3    3    0    0  0.29740018096E+02  0.35805106346E+01  0.10798772164E+02  0.31841831182E+02  0.00000000000E+00 0.  1.
</event>
<event>
 7    1  0.3461631E-013  0.5930197E+02  0.7816164E-02  0.1266605E+00
        -11   -1    0    0    0    0  0.00000000000E+00  0.00000000000E+00  0.45593999997E+02  0.45594000000E+02  0.51100000000E-03 0. -1.
         11   -1    0    0    0    0 -0.00000000000E+00 -0.00000000000E+00 -0.45593999997E+02  0.45594000000E+02  0.51100000000E-03 0.  1.
    9900012    2    1    2    0    0  0.24274832572E+02  0.56121573993E+01 -0.19898614681E+02  0.59301973699E+02  0.50000054112E+02 0.  0.
         12    1    1    2    0    0 -0.24274832572E+02 -0.56121573993E+01  0.19898614681E+02  0.31886026301E+02  0.00000000000E+00 0. -1.
         11    1    3    3    0    0  0.16200706935E+02 -0.17756346159E+02 -0.11239895963E+02  0.26534618814E+02  0.51100000000E-03 0.  1.
        -11    1    3    3    0    0 -0.40956629250E+01 -0.11222228059E+01 -0.14209512264E+01  0.44780510795E+01  0.51100000000E-03 0. -1.
        -12    1    3    3    0    0  0.12169788562E+02  0.24490726364E+02 -0.72377674916E+01  0.28289303805E+02  0.00000000000E+00 0.  1.
</event>
<event>
 7    1  0.3461631E-013  0.5930194E+02  0.7816164E-02  0.1266605E+00
        -11   -1    0    0    0    0  0.00000000000E+00  0.00000000000E+00  0.45593999997E+02  0.45594000000E+02  0.51100000000E-03 0.  1.
         11   -1    0    0    0    0 -0.00000000000E+00 -0.00000000000E+00 -0.45593999997E+02  0.45594000000E+02  0.51100000000E-03 0. -1.
    9900012    2    1    2    0    0  0.97587175675E+01  0.79076604300E+01  0.29307968302E+02  0.59301942420E+02  0.49999997068E+02 0.  0.
         12    1    1    2    0    0 -0.97587175675E+01 -0.79076604300E+01 -0.29307968302E+02  0.31886057580E+02  0.00000000000E+00 0. -1.
         11    1    3    3    0    0 -0.62590255899E+01  0.15700508868E+02  0.82882366716E+00  0.16922420896E+02  0.51100000000E-03 0. -1.
        -11    1    3    3    0    0  0.86248143419E+01 -0.11238796284E+02  0.15607683907E+01  0.14252507238E+02  0.51100000000E-03 0.  1.
        -12    1    3    3    0    0  0.73929288155E+01  0.34459478456E+01  0.26918376244E+02  0.28127014286E+02  0.00000000000E+00 0.  1.
</event>
<event>
 7    1  0.3461631E-013  0.5930194E+02  0.7816164E-02  0.1266605E+00
        -11   -1    0    0    0    0  0.00000000000E+00  0.00000000000E+00  0.45593999997E+02  0.45594000000E+02  0.51100000000E-03 0. -1.
         11   -1    0    0    0    0 -0.00000000000E+00 -0.00000000000E+00 -0.45593999997E+02  0.45594000000E+02  0.51100000000E-03 0.  1.
    9900012    2    1    2    0    0 -0.25393128907E+02  0.54417567578E+01 -0.18501265645E+02  0.59301944384E+02  0.50000000649E+02 0.  0.
         12    1    1    2    0    0  0.25393128907E+02 -0.54417567578E+01  0.18501265645E+02  0.31886055616E+02  0.00000000000E+00 0. -1.
         11    1    3    3    0    0  0.19697770301E+01  0.71988311974E+01 -0.20302312084E+02  0.21630697362E+02  0.51100000000E-03 0. -1.
        -11    1    3    3    0    0 -0.15314614946E+02 -0.86900835478E+01 -0.92710586645E+01  0.19899937488E+02  0.51100000000E-03 0.  1.
         12    1    3    3    0    0 -0.12048290991E+02  0.69330091082E+01  0.11072105103E+02  0.17771309533E+02  0.00000000000E+00 0. -1.
</event>
<event>
 7    1  0.3461631E-013  0.5930199E+02  0.7816164E-02  0.1266605E+00
        -11   -1    0    0    0    0  0.00000000000E+00  0.00000000000E+00  0.45593999997E+02  0.45594000000E+02  0.51100000000E-03 0.  1.
         11   -1    0    0    0    0 -0.00000000000E+00 -0.00000000000E+00 -0.45593999997E+02  0.45594000000E+02  0.51100000000E-03 0. -1.
    9900012    2    1    2    0    0 -0.21525070183E+02 -0.70869518189E+01  0.22431315932E+02  0.59301992615E+02  0.50000088612E+02 0.  0.
         12    1    1    2    0    0  0.21525070183E+02  0.70869518189E+01 -0.22431315932E+02  0.31886007385E+02  0.00000000000E+00 0. -1.
         11    1    3    3    0    0 -0.34650531935E+01  0.64565318522E+01  0.18485501605E+02  0.19884847675E+02  0.51100000000E-03 0. -1.
        -11    1    3    3    0    0 -0.87517770200E+01 -0.22975253355E+02  0.74874796458E+01  0.25700549010E+02  0.51100000000E-03 0.  1.
         12    1    3    3    0    0 -0.93082399697E+01  0.94317696835E+01 -0.35416653184E+01  0.13716595931E+02  0.00000000000E+00 0. -1.
</event>
<event>
 7    1  0.3461631E-013  0.5930193E+02  0.7816164E-02  0.1266605E+00
        -11   -1    0    0    0    0  0.00000000000E+00  0.00000000000E+00  0.45593999997E+02  0.45594000000E+02  0.51100000000E-03 0. -1.
         11   -1    0    0    0    0 -0.00000000000E+00 -0.00000000000E+00 -0.45593999997E+02  0.45594000000E+02  0.51100000000E-03 0.  1.
    9900012    2    1    2    0    0 -0.34129571650E+01  0.29316983277E+02 -0.12065972179E+02  0.59301929849E+02  0.49999974141E+02 0.  0.
         12    1    1    2    0    0  0.34129571650E+01 -0.29316983277E+02  0.12065972179E+02  0.31886070151E+02  0.00000000000E+00 0. -1.
         11    1    3    3    0    0  0.10604789794E+02  0.18394267435E+02  0.82873193003E+00  0.21248469072E+02  0.51100000000E-03 0. -1.
        -11    1    3    3    0    0  0.91854571192E+01  0.53598236637E+01  0.58036555490E+00  0.10650688083E+02  0.51100000000E-03 0.  1.
         12    1    3    3    0    0 -0.23203204078E+02  0.55628921783E+01 -0.13475069663E+02  0.27402772694E+02  0.00000000000E+00 0. -1.
</event>
<event>
 7    1  0.3461631E-013  0.5930195E+02  0.7816164E-02  0.1266605E+00
        -11   -1    0    0    0    0  0.00000000000E+00  0.00000000000E+00  0.45593999997E+02  0.45594000000E+02  0.51100000000E-03 0.  1.
         11   -1    0    0    0    0 -0.00000000000E+00 -0.00000000000E+00 -0.45593999997E+02  0.45594000000E+02  0.51100000000E-03 0. -1.
    9900012    2    1    2    0    0  0.53801333649E+01 -0.97560615384E+01  0.29876309660E+02  0.59301945828E+02  0.50000003284E+02 0.  0.
         12    1    1    2    0    0 -0.53801333649E+01  0.97560615384E+01 -0.29876309660E+02  0.31886054172E+02  0.00000000000E+00 0. -1.
         11    1    3    3    0    0 -0.39455793284E+01 -0.34570830588E+01 -0.75927760568E+00  0.53005209419E+01  0.51100000000E-03 0. -1.
        -11    1    3    3    0    0 -0.16508280483E+02 -0.69469785693E+01  0.17384095664E+02  0.24959780008E+02  0.51100000000E-03 0.  1.
         12    1    3    3    0    0  0.25833993176E+02  0.64800008974E+00  0.13251491601E+02  0.29041644878E+02  0.00000000000E+00 0. -1.
</event>
<event>
 7    1  0.3461631E-013  0.5930195E+02  0.7816164E-02  0.1266605E+00
        -11   -1    0    0    0    0  0.00000000000E+00  0.00000000000E+00  0.45593999997E+02  0.45594000000E+02  0.51100000000E-03 0.  1.
         11   -1    0    0    0    0 -0.00000000000E+00 -0.00000000000E+00 -0.45593999997E+02  0.45594000000E+02  0.51100000000E-03 0. -1.
    9900012    2    1    2    0    0  0.48445671627E+01  0.22296341238E+01  0.31436910727E+02  0.59301945754E+02  0.50000003148E+02 0.  0.
         12    1    1    2    0    0 -0.48445671627E+01 -0.22296341238E+01 -0.31436910727E+02  0.31886054246E+02  0.00000000000E+00 0. -1.
         11    1    3    3    0    0  0.11008587756E+02  0.11112151445E+02  0.54667730930E+01  0.16569686854E+02  0.51100000000E-03 0. -1.
        -11    1    3    3    0    0  0.49651744088E+01  0.10454736698E+02  0.77809826416E+01  0.13946259981E+02  0.51100000000E-03 0.  1.
        -12    1    3    3    0    0 -0.11129195003E+02 -0.19337254019E+02  0.18189154992E+02  0.28785998919E+02  0.00000000000E+00 0.  1.
</event>
<event>
 7    1  0.3461631E-013  0.5930194E+02  0.7816164E-02  0.1266605E+00
        -11   -1    0    0    0    0  0.00000000000E+00  0.00000000000E+00  0.45593999997E+02  0.45594000000E+02  0.51100000000E-03 0.  1.
         11   -1    0    0    0    0 -0.00000000000E+00 -0.00000000000E+00 -0.45593999997E+02  0.45594000000E+02  0.51100000000E-03 0. -1.
    9900012    2    1    2    0    0 -0.12787604440E+02 -0.53902754134E+01  0.28707889877E+02  0.59301939761E+02  0.49999992219E+02 0.  0.
         12    1    1    2    0    0  0.12787604440E+02  0.53902754134E+01 -0.28707889877E+02  0.31886060239E+02  0.00000000000E+00 0. -1.
         11    1    3    3    0    0 -0.38778469640E+01 -0.11729600496E+02  0.13397414859E+01  0.12426428787E+02  0.51100000000E-03 0.  1.
        -11    1    3    3    0    0 -0.10491868726E+02  0.20888603407E+02  0.17944140682E+02  0.29468716408E+02  0.51100000000E-03 0. -1.
         12    1    3    3    0    0  0.15821112502E+01 -0.14549278324E+02  0.94240077090E+01  0.17406794566E+02  0.00000000000E+00 0. -1.
</event>
<event>
 7    1  0.3461631E-013  0.5930196E+02  0.7816164E-02  0.1266605E+00
        -11   -1    0    0    0    0  0.00000000000E+00  0.00000000000E+00  0.45593999997E+02  0.45594000000E+02  0.51100000000E-03 0.  1.
         11   -1    0    0    0    0 -0.00000000000E+00 -0.00000000000E+00 -0.45593999997E+02  0.45594000000E+02  0.51100000000E-03 0. -1.
    9900012    2    1    2    0    0 -0.29826493682E+02  0.11273845106E+02 -0.12622209905E-01  0.59301961235E+02  0.50000031381E+02 0.  0.
         12    1    1    2    0    0  0.29826493682E+02 -0.11273845106E+02  0.12622209905E-01  0.31886038765E+02  0.00000000000E+00 0. -1.
         11    1    3    3    0    0 -0.18087686195E+02  0.73389528872E+01 -0.11402570613E+02  0.22606265464E+02  0.51100000000E-03 0. -1.
        -11    1    3    3    0    0 -0.17085653174E+02 -0.99758065118E+01  0.45661392740E+01  0.20304824256E+02  0.51100000000E-03 0.  1.
        -12    1    3    3    0    0  0.53468456876E+01  0.13910698730E+02  0.68238091289E+01  0.16390871514E+02  0.00000000000E+00 0.  1.
</event>
<event>
 7    1  0.3461631E-013  0.5930200E+02  0.7816164E-02  0.1266605E+00
        -11   -1    0    0    0    0  0.00000000000E+00  0.00000000000E+00  0.45593999997E+02  0.45594000000E+02  0.51100000000E-03 0.  1.
         11   -1    0    0    0    0 -0.00000000000E+00 -0.00000000000E+00 -0.45593999997E+02  0.45594000000E+02  0.51100000000E-03 0. -1.
    9900012    2    1    2    0    0 -0.13016750843E+02  0.16461310441E+02  0.24006378626E+02  0.59302003721E+02  0.50000108867E+02 0.  0.
         12    1    1    2    0    0  0.13016750843E+02 -0.16461310441E+02 -0.24006378626E+02  0.31885996279E+02  0.00000000000E+00 0. -1.
         11    1    3    3    0    0  0.51731604418E+00 -0.11932962379E+02  0.20944935444E+01  0.12126421999E+02  0.51100000000E-03 0. -1.
        -11    1    3    3    0    0 -0.43228148279E+01 -0.52715447728E+01  0.26849154205E+01  0.73269832403E+01  0.51100000000E-03 0.  1.
        -12    1    3    3    0    0 -0.92112520597E+01  0.33665817592E+02  0.19226969661E+02  0.39848598482E+02  0.00000000000E+00 0.  1.
</event>
<event>
 7    1  0.3461631E-013  0.5930195E+02  0.7816164E-02  0.1266605E+00
        -11   -1    0    0    0    0  0.00000000000E+00  0.00000000000E+00  0.45593999997E+02  0.45594000000E+02  0.51100000000E-03 0. -1.
         11   -1    0    0    0    0 -0.00000000000E+00 -0.00000000000E+00 -0.45593999997E+02  0.45594000000E+02  0.51100000000E-03 0.  1.
    9900012    2    1    2    0    0  0.85924054277E+01  0.56201661369E+01 -0.30187817112E+02  0.59301952888E+02  0.50000016158E+02 0.  0.
         12    1    1    2    0    0 -0.85924054277E+01 -0.56201661369E+01  0.30187817112E+02  0.31886047112E+02  0.00000000000E+00 0. -1.
         11    1    3    3    0    0  0.47571828832E+00  0.34531929645E+01 -0.99298602745E+01  0.10523923929E+02  0.51100000000E-03 0. -1.
        -11    1    3    3    0    0 -0.13047481773E+02 -0.12702226182E+02 -0.56151507747E+01  0.19055530669E+02  0.51100000000E-03 0.  1.
         12    1    3    3    0    0  0.21164168912E+02  0.14869199354E+02 -0.14642806063E+02  0.29722498290E+02  0.00000000000E+00 0. -1.
</event>
<event>
 7    1  0.3461631E-013  0.5930194E+02  0.7816164E-02  0.1266605E+00
        -11   -1    0    0    0    0  0.00000000000E+00  0.00000000000E+00  0.45593999997E+02  0.45594000000E+02  0.51100000000E-03 0. -1.
         11   -1    0    0    0    0 -0.00000000000E+00 -0.00000000000E+00 -0.45593999997E+02  0.45594000000E+02  0.51100000000E-03 0.  1.
    9900012    2    1    2    0    0  0.26440845704E+02 -0.16598750625E+02 -0.64872181618E+01  0.59301939670E+02  0.49999992053E+02 0.  0.
         12    1    1    2    0    0 -0.26440845704E+02  0.16598750625E+02  0.64872181618E+01  0.31886060330E+02  0.00000000000E+00 0. -1.
         11    1    3    3    0    0 -0.50533303412E+00 -0.50189188727E+01 -0.25121333922E+01  0.56352216076E+01  0.51100000000E-03 0. -1.
        -11    1    3    3    0    0  0.34961190733E+01 -0.42164807714E+01 -0.22329099835E+02  0.22991090848E+02  0.51100000000E-03 0.  1.
         12    1    3    3    0    0  0.23450059665E+02 -0.73633509811E+01  0.18354015066E+02  0.30675627214E+02  0.00000000000E+00 0. -1.
</event>
<event>
 7    1  0.3461631E-013  0.5930200E+02  0.7816164E-02  0.1266605E+00
        -11   -1    0    0    0    0  0.00000000000E+00  0.00000000000E+00  0.45593999997E+02  0.45594000000E+02  0.51100000000E-03 0. -1.
         11   -1    0    0    0    0 -0.00000000000E+00 -0.00000000000E+00 -0.45593999997E+02  0.45594000000E+02  0.51100000000E-03 0.  1.
    9900012    2    1    2    0    0  0.71829742183E+01  0.28780047006E+02 -0.11697475928E+02  0.59301997313E+02  0.50000097179E+02 0.  0.
         12    1    1    2    0    0 -0.71829742183E+01 -0.28780047006E+02  0.11697475928E+02  0.31886002687E+02  0.00000000000E+00 0. -1.
         11    1    3    3    0    0  0.14478312703E+01  0.39762124221E+02 -0.38518428529E+01  0.39974484757E+02  0.51100000000E-03 0.  1.
        -11    1    3    3    0    0 -0.22845009946E+01 -0.67361449348E+01  0.31992670370E+00  0.71201788414E+01  0.51100000000E-03 0. -1.
        -12    1    3    3    0    0  0.80196439426E+01 -0.42459322805E+01 -0.81655597789E+01  0.12207333714E+02  0.00000000000E+00 0.  1.
</event>
<event>
 7    1  0.3461631E-013  0.5930192E+02  0.7816164E-02  0.1266605E+00
        -11   -1    0    0    0    0  0.00000000000E+00  0.00000000000E+00  0.45593999997E+02  0.45594000000E+02  0.51100000000E-03 0.  1.
         11   -1    0    0    0    0 -0.00000000000E+00 -0.00000000000E+00 -0.45593999997E+02  0.45594000000E+02  0.51100000000E-03 0. -1.
    9900012    2    1    2    0    0 -0.96369271469E+01 -0.29105430458E+02  0.87593133700E+01  0.59301921256E+02  0.49999958470E+02 0.  0.
         12    1    1    2    0    0  0.96369271469E+01  0.29105430458E+02 -0.87593133700E+01  0.31886078744E+02  0.00000000000E+00 0. -1.
         11    1    3    3    0    0 -0.16694195284E+02 -0.30659565695E+02 -0.57273541478E+01  0.35376654881E+02  0.51100000000E-03 0. -1.
        -11    1    3    3    0    0 -0.43583128883E+01 -0.40007320644E+01  0.23620175640E+01  0.63702335528E+01  0.51100000000E-03 0.  1.
        -12    1    3    3    0    0  0.11415581025E+02  0.55548673018E+01  0.12124649954E+02  0.17555032822E+02  0.00000000000E+00 0.  1.
</event>
<event>
 7    1  0.3461631E-013  0.5930195E+02  0.7816164E-02  0.1266605E+00
        -11   -1    0    0    0    0  0.00000000000E+00  0.00000000000E+00  0.45593999997E+02  0.45594000000E+02  0.51100000000E-03 0. -1.
         11   -1    0    0    0    0 -0.00000000000E+00 -0.00000000000E+00 -0.45593999997E+02  0.45594000000E+02  0.51100000000E-03 0.  1.
    9900012    2    1    2    0    0 -0.31171449826E+02  0.60009678516E+01  0.30082185943E+01  0.59301948527E+02  0.50000008206E+02 0.  0.
         12    1    1    2    0    0  0.31171449826E+02 -0.60009678516E+01 -0.30082185943E+01  0.31886051473E+02  0.00000000000E+00 0. -1.
         11    1    3    3    0    0 -0.21273691412E+02  0.19030954136E+02  0.75236449212E+01  0.29518678744E+02  0.51100000000E-03 0. -1.
        -11    1    3    3    0    0  0.10408592989E+01  0.57038939656E+01 -0.56022954182E+01  0.80624753435E+01  0.51100000000E-03 0.  1.
        -12    1    3    3    0    0 -0.10938617713E+02 -0.18733880250E+02  0.10868690913E+01  0.21720794440E+02  0.00000000000E+00 0.  1.
</event>
<event>
 7    1  0.3461631E-013  0.5930191E+02  0.7816164E-02  0.1266605E+00
        -11   -1    0    0    0    0  0.00000000000E+00  0.00000000000E+00  0.45593999997E+02  0.45594000000E+02  0.51100000000E-03 0.  1.
         11   -1    0    0    0    0 -0.00000000000E+00 -0.00000000000E+00 -0.45593999997E+02  0.45594000000E+02  0.51100000000E-03 0. -1.
    9900012    2    1    2    0    0 -0.29769020393E+02  0.17005254863E+01  0.11297636413E+02  0.59301906627E+02  0.49999931790E+02 0.  0.
         12    1    1    2    0    0  0.29769020393E+02 -0.17005254863E+01 -0.11297636413E+02  0.31886093373E+02  0.00000000000E+00 0. -1.
         11    1    3    3    0    0  0.85590896110E+01  0.67417180100E+00 -0.20017676180E+01  0.88158718482E+01  0.51100000000E-03 0. -1.
        -11    1    3    3    0    0 -0.13203701204E-01 -0.74367157143E+01  0.79475016605E+01  0.10884286741E+02  0.51100000000E-03 0.  1.
         12    1    3    3    0    0 -0.38314906303E+02  0.84630693996E+01  0.53519023701E+01  0.39601748038E+02  0.00000000000E+00 0. -1.
</event>
<event>
 7    1  0.3461631E-013  0.5930195E+02  0.7816164E-02  0.1266605E+00
        -11   -1    0    0    0    0  0.00000000000E+00  0.00000000000E+00  0.45593999997E+02  0.45594000000E+02  0.51100000000E-03 0. -1.
         11   -1    0    0    0    0 -0.00000000000E+00 -0.00000000000E+00 -0.45593999997E+02  0.45594000000E+02  0.51100000000E-03 0.  1.
    9900012    2    1    2    0    0  0.12962571696E+02  0.23911290930E+00 -0.29131341193E+02  0.59301945373E+02  0.50000002453E+02 0.  0.
         12    1    1    2    0    0 -0.12962571696E+02 -0.23911290930E+00  0.29131341193E+02  0.31886054627E+02  0.00000000000E+00 0. -1.
         11    1    3    3    0    0 -0.97709598975E+00  0.10647256581E+02 -0.62386864823E+01  0.12379014442E+02  0.51100000000E-03 0. -1.
        -11    1    3    3    0    0 -0.90636514159E+01 -0.14504081001E+02 -0.61370691941E+01  0.18170904249E+02  0.51100000000E-03 0.  1.
         12    1    3    3    0    0  0.23003319102E+02  0.40959373297E+01 -0.16755585517E+02  0.28752026682E+02  0.00000000000E+00 0. -1.
</event>
<event>
 7    1  0.3461631E-013  0.5930200E+02  0.7816164E-02  0.1266605E+00
        -11   -1    0    0    0    0  0.00000000000E+00  0.00000000000E+00  0.45593999997E+02  0.45594000000E+02  0.51100000000E-03 0.  1.
         11   -1    0    0    0    0 -0.00000000000E+00 -0.00000000000E+00 -0.45593999997E+02  0.45594000000E+02  0.51100000000E-03 0. -1.
    9900012    2    1    2    0    0 -0.46945512850E+01 -0.30745825798E+02  0.70265492380E+01  0.59301999781E+02  0.50000101681E+02 0.  0.
         12    1    1    2    0    0  0.46945512850E+01  0.30745825798E+02 -0.70265492380E+01  0.31886000219E+02  0.00000000000E+00 0. -1.
         11    1    3    3    0    0  0.61255456038E+01 -0.17435385502E+02 -0.78146035604E+01  0.20064471227E+02  0.51100000000E-03 0. -1.
        -11    1    3    3    0    0  0.73926305993E+01 -0.14639829995E+02  0.12008910132E+01  0.16444383508E+02  0.51100000000E-03 0.  1.
        -12    1    3    3    0    0 -0.18212727488E+02  0.13293896993E+01  0.13640261785E+02  0.22793145046E+02  0.00000000000E+00 0.  1.
</event>
<event>
 7    1  0.3461631E-013  0.5930199E+02  0.7816164E-02  0.1266605E+00
        -11   -1    0    0    0    0  0.00000000000E+00  0.00000000000E+00  0.45593999997E+02  0.45594000000E+02  0.51100000000E-03 0. -1.
         11   -1    0    0    0    0 -0.00000000000E+00 -0.00000000000E+00 -0.45593999997E+02  0.45594000000E+02  0.51100000000E-03 0.  1.
    9900012    2    1    2    0    0 -0.31271709933E+02 -0.49919763181E+01  0.37253083271E+01  0.59301990657E+02  0.50000085040E+02 0.  0.
         12    1    1    2    0    0  0.31271709933E+02  0.49919763181E+01 -0.37253083271E+01  0.31886009343E+02  0.00000000000E+00 0. -1.
         11    1    3    3    0    0 -0.32766288398E+02 -0.19152819939E+02 -0.87873866734E+01  0.38957391234E+02  0.51100000000E-03 0.  1.
        -11    1    3    3    0    0  0.14735378526E+01 -0.28343325356E+00  0.18979023872E+01  0.24194383532E+01  0.51100000000E-03 0. -1.
        -12    1    3    3    0    0  0.21040611802E-01  0.14444276875E+02  0.10614792613E+02  0.17925161069E+02  0.00000000000E+00 0.  1.
</event>
<event>
 7    1  0.3461631E-013  0.5930194E+02  0.7816164E-02  0.1266605E+00
        -11   -1    0    0    0    0  0.00000000000E+00  0.00000000000E+00  0.45593999997E+02  0.45594000000E+02  0.51100000000E-03 0. -1.
         11   -1    0    0    0    0 -0.00000000000E+00 -0.00000000000E+00 -0.45593999997E+02  0.45594000000E+02  0.51100000000E-03 0.  1.
    9900012    2    1    2    0    0  0.23665317025E+02  0.19252013005E+02 -0.92754182631E+01  0.59301943195E+02  0.49999998481E+02 0.  0.
         12    1    1    2    0    0 -0.23665317025E+02 -0.19252013005E+02  0.92754182631E+01  0.31886056805E+02  0.00000000000E+00 0. -1.
         11    1    3    3    0    0  0.35168730237E+01  0.58476160887E+01 -0.35301781151E+01  0.76827838426E+01  0.51100000000E-03 0. -1.
        -11    1    3    3    0    0  0.37866114194E+01  0.96101890226E+01 -0.24412588404E+02  0.26507897539E+02  0.51100000000E-03 0.  1.
         12    1    3    3    0    0  0.16361832582E+02  0.37942078933E+01  0.18667348256E+02  0.25111261814E+02  0.00000000000E+00 0. -1.
</event>
<event>
 7    1  0.3461631E-013  0.5930203E+02  0.7816164E-02  0.1266604E+00
        -11   -1    0    0    0    0  0.00000000000E+00  0.00000000000E+00  0.45593999997E+02  0.45594000000E+02  0.51100000000E-03 0. -1.
         11   -1    0    0    0    0 -0.00000000000E+00 -0.00000000000E+00 -0.45593999997E+02  0.45594000000E+02  0.51100000000E-03 0.  1.
    9900012    2    1    2    0    0  0.16372873397E+01  0.23380826220E+02 -0.21618768974E+02  0.59302032608E+02  0.50000161548E+02 0.  0.
         12    1    1    2    0    0 -0.16372873397E+01 -0.23380826220E+02  0.21618768974E+02  0.31885967392E+02  0.00000000000E+00 0. -1.
         11    1    3    3    0    0  0.80696089666E+00 -0.73840884880E+01  0.44102131682E+01  0.86386300498E+01  0.51100000000E-03 0. -1.
        -11    1    3    3    0    0  0.79588441133E+01  0.99991389640E+01  0.40658895121E+01  0.13411093819E+02  0.51100000000E-03 0.  1.
        -12    1    3    3    0    0 -0.71285176703E+01  0.20765775744E+02 -0.30094871655E+02  0.37252308739E+02  0.00000000000E+00 0.  1.
</event>
<event>
 7    1  0.3461631E-013  0.5930191E+02  0.7816164E-02  0.1266605E+00
        -11   -1    0    0    0    0  0.00000000000E+00  0.00000000000E+00  0.45593999997E+02  0.45594000000E+02  0.51100000000E-03 0. -1.
         11   -1    0    0    0    0 -0.00000000000E+00 -0.00000000000E+00 -0.45593999997E+02  0.45594000000E+02  0.51100000000E-03 0.  1.
    9900012    2    1    2    0    0 -0.30125794341E+02  0.20415203199E+01  0.10246523360E+02  0.59301913209E+02  0.49999943794E+02 0.  0.
         12    1    1    2    0    0  0.30125794341E+02 -0.20415203199E+01 -0.10246523360E+02  0.31886086791E+02  0.00000000000E+00 0. -1.
         11    1    3    3    0    0 -0.31478162626E+01 -0.37742088761E+01  0.79937190784E+01  0.93836530641E+01  0.51100000000E-03 0. -1.
        -11    1    3    3    0    0 -0.27518796534E+02 -0.10907165992E+02  0.10312740587E+02  0.31346499826E+02  0.51100000000E-03 0.  1.
        -12    1    3    3    0    0  0.54081845610E+00  0.16722895188E+02 -0.80599363058E+01  0.18571760319E+02  0.00000000000E+00 0.  1.
</event>
<event>
 7    1  0.3461631E-013  0.5930195E+02  0.7816164E-02  0.1266605E+00
        -11   -1    0    0    0    0  0.00000000000E+00  0.00000000000E+00  0.45593999997E+02  0.45594000000E+02  0.51100000000E-03 0.  1.
         11   -1    0    0    0    0 -0.00000000000E+00 -0.00000000000E+00 -0.45593999997E+02  0.45594000000E+02  0.51100000000E-03 0. -1.
    9900012    2    1    2    0    0  0.44371563118E+01 -0.31426186512E+02 -0.30702331745E+01  0.59301954673E+02  0.50000019415E+02 0.  0.
         12    1    1    2    0    0 -0.44371563118E+01  0.31426186512E+02  0.30702331745E+01  0.31886045327E+02  0.00000000000E+00 0. -1.
         11    1    3    3    0    0 -0.14492464230E+02 -0.17331636957E+02 -0.12104372334E+02  0.25630704027E+02  0.51100000000E-03 0.  1.
        -11    1    3    3    0    0 -0.46287129884E+01 -0.34359313194E+01 -0.11543609120E+01  0.58790439135E+01  0.51100000000E-03 0. -1.
        -12    1    3    3    0    0  0.23558333530E+02 -0.10658618236E+02  0.10188500071E+02  0.27792206733E+02  0.00000000000E+00 0.  1.
</event>
<event>
 7    1  0.3461631E-013  0.5930198E+02  0.7816164E-02  0.1266605E+00
        -11   -1    0    0    0    0  0.00000000000E+00  0.00000000000E+00  0.45593999997E+02  0.45594000000E+02  0.51100000000E-03 0.  1.
         11   -1    0    0    0    0 -0.00000000000E+00 -0.00000000000E+00 -0.45593999997E+02  0.45594000000E+02  0.51100000000E-03 0. -1.
    9900012    2    1    2    0    0  0.30429717193E+02 -0.90962210998E+01 -0.28301309005E+01  0.59301975355E+02  0.50000057133E+02 0.  0.
         12    1    1    2    0    0 -0.30429717193E+02  0.90962210998E+01  0.28301309005E+01  0.31886024645E+02  0.00000000000E+00 0. -1.
         11    1    3    3    0    0 -0.15869033355E+01 -0.23769573890E+01 -0.30769944465E+01  0.41995337492E+01  0.51100000000E-03 0. -1.
        -11    1    3    3    0    0  0.64464520695E+01  0.17459638018E+02  0.57575908718E+01  0.19481928983E+02  0.51100000000E-03 0.  1.
         12    1    3    3    0    0  0.25570168459E+02 -0.24178901728E+02 -0.55107273258E+01  0.35620512623E+02  0.00000000000E+00 0. -1.
</event>
<event>
 7    1  0.3461631E-013  0.5930191E+02  0.7816164E-02  0.1266605E+00
        -11   -1    0    0    0    0  0.00000000000E+00  0.00000000000E+00  0.45593999997E+02  0.45594000000E+02  0.51100000000E-03 0. -1.
         11   -1    0    0    0    0 -0.00000000000E+00 -0.00000000000E+00 -0.45593999997E+02  0.45594000000E+02  0.51100000000E-03 0.  1.
    9900012    2    1    2    0    0 -0.97503869149E+01  0.84990899035E+01 -0.29144779243E+02  0.59301910065E+02  0.49999938061E+02 0.  0.
         12    1    1    2    0    0  0.97503869149E+01 -0.84990899035E+01  0.29144779243E+02  0.31886089935E+02  0.00000000000E+00 0. -1.
         11    1    3    3    0    0 -0.12560050218E+02  0.16951452161E+02 -0.94913817689E+01  0.23134236966E+02  0.51100000000E-03 0. -1.
        -11    1    3    3    0    0 -0.68270174806E+01 -0.24553476191E+01  0.51455982336E+01  0.88946096628E+01  0.51100000000E-03 0.  1.
        -12    1    3    3    0    0  0.96366807837E+01 -0.59970146382E+01 -0.24798995708E+02  0.27273063437E+02  0.00000000000E+00 0.  1.
</event>
<event>
 7    1  0.3461631E-013  0.5930194E+02  0.7816164E-02  0.1266605E+00
        -11   -1    0    0    0    0  0.00000000000E+00  0.00000000000E+00  0.45593999997E+02  0.45594000000E+02  0.51100000000E-03 0.  1.
         11   -1    0    0    0    0 -0.00000000000E+00 -0.00000000000E+00 -0.45593999997E+02  0.45594000000E+02  0.51100000000E-03 0. -1.
    9900012    2    1    2    0    0  0.96447926737E+01 -0.28695352609E+02  0.10013780563E+02  0.59301935830E+02  0.49999985050E+02 0.  0.
         12    1    1    2    0    0 -0.96447926737E+01  0.28695352609E+02 -0.10013780563E+02  0.31886064170E+02  0.00000000000E+00 0. -1.
         11    1    3    3    0    0  0.56207549053E+00 -0.29188246531E+01 -0.31895441981E+01  0.43598920474E+01  0.51100000000E-03 0. -1.
        -11    1    3    3    0    0  0.71702271605E+01 -0.34594019846E+02 -0.39611753792E+01  0.35550657902E+02  0.51100000000E-03 0.  1.
        -12    1    3    3    0    0  0.19124900227E+01  0.88174918898E+01  0.17164500140E+02  0.19391385881E+02  0.00000000000E+00 0.  1.
</event>
<event>
 7    1  0.3461631E-013  0.5930191E+02  0.7816164E-02  0.1266605E+00
        -11   -1    0    0    0    0  0.00000000000E+00  0.00000000000E+00  0.45593999997E+02  0.45594000000E+02  0.51100000000E-03 0. -1.
         11   -1    0    0    0    0 -0.00000000000E+00 -0.00000000000E+00 -0.45593999997E+02  0.45594000000E+02  0.51100000000E-03 0.  1.
    9900012    2    1    2    0    0  0.46227674997E+01 -0.28781073194E+02 -0.12922948948E+02  0.59301909568E+02  0.49999937154E+02 0.  0.
         12    1    1    2    0    0 -0.46227674997E+01  0.28781073194E+02  0.12922948948E+02  0.31886090432E+02  0.00000000000E+00 0. -1.
         11    1    3    3    0    0 -0.94840341039E+01 -0.18515912044E+02 -0.49398874446E+01  0.21381964127E+02  0.51100000000E-03 0. -1.
        -11    1    3    3    0    0  0.21848681547E+00 -0.53024323603E+01 -0.18861336668E+02  0.19593711915E+02  0.51100000000E-03 0.  1.
         12    1    3    3    0    0  0.13888314788E+02 -0.49627287896E+01  0.10878275165E+02  0.18326233526E+02  0.00000000000E+00 0. -1.
</event>
<event>
 7    1  0.3461631E-013  0.5930192E+02  0.7816164E-02  0.1266605E+00
        -11   -1    0    0    0    0  0.00000000000E+00  0.00000000000E+00  0.45593999997E+02  0.45594000000E+02  0.51100000000E-03 0.  1.
         11   -1    0    0    0    0 -0.00000000000E+00 -0.00000000000E+00 -0.45593999997E+02  0.45594000000E+02  0.51100000000E-03 0. -1.
    9900012    2    1    2    0    0  0.17226728135E+02  0.25736782434E+02  0.75881505053E+01  0.59301919018E+02  0.49999954388E+02 0.  0.
         12    1    1    2    0    0 -0.17226728135E+02 -0.25736782434E+02 -0.75881505053E+01  0.31886080982E+02  0.00000000000E+00 0. -1.
         11    1    3    3    0    0  0.88074600632E+01 -0.38850485951E+01 -0.25100333270E+01  0.99481266033E+01  0.51100000000E-03 0. -1.
        -11    1    3    3    0    0  0.14772069602E+02 -0.22779594927E+01  0.75030829285E+01  0.16724215781E+02  0.51100000000E-03 0.  1.
         12    1    3    3    0    0 -0.63528015305E+01  0.31899790522E+02  0.25951009038E+01  0.32629576634E+02  0.00000000000E+00 0. -1.
</event>
<event>
 7    1  0.3461631E-013  0.5930194E+02  0.7816164E-02  0.1266605E+00
        -11   -1    0    0    0    0  0.00000000000E+00  0.00000000000E+00  0.45593999997E+02  0.45594000000E+02  0.51100000000E-03 0.  1.
         11   -1    0    0    0    0 -0.00000000000E+00 -0.00000000000E+00 -0.45593999997E+02  0.45594000000E+02  0.51100000000E-03 0. -1.
    9900012    2    1    2    0    0  0.88666227823E+00 -0.68125485654E+01  0.31137174588E+02  0.59301943028E+02  0.49999998176E+02 0.  0.
         12    1    1    2    0    0 -0.88666227823E+00  0.68125485654E+01 -0.31137174588E+02  0.31886056972E+02  0.00000000000E+00 0. -1.
         11    1    3    3    0    0  0.67166261433E+01  0.70986634180E+00 -0.43479233548E+01  0.80325223145E+01  0.51100000000E-03 0. -1.
        -11    1    3    3    0    0  0.61029166016E+01 -0.43943894119E+01 -0.49441309736E+01  0.90000378163E+01  0.51100000000E-03 0.  1.
        -12    1    3    3    0    0 -0.11932880467E+02 -0.31280254953E+01  0.40429228916E+02  0.42269382897E+02  0.00000000000E+00 0.  1.
</event>
<event>
 7    1  0.3461631E-013  0.5930193E+02  0.7816164E-02  0.1266605E+00
        -11   -1    0    0    0    0  0.00000000000E+00  0.00000000000E+00  0.45593999997E+02  0.45594000000E+02  0.51100000000E-03 0.  1.
         11   -1    0    0    0    0 -0.00000000000E+00 -0.00000000000E+00 -0.45593999997E+02  0.45594000000E+02  0.51100000000E-03 0. -1.
    9900012    2    1    2    0    0 -0.29602342206E+02 -0.90232571839E+00  0.11815619014E+02  0.59301926105E+02  0.49999967312E+02 0.  0.
         12    1    1    2    0    0  0.29602342206E+02  0.90232571839E+00 -0.11815619014E+02  0.31886073895E+02  0.00000000000E+00 0. -1.
         11    1    3    3    0    0  0.42665077579E+01 -0.26907401885E+01 -0.73790537281E+00  0.50978108841E+01  0.51100000000E-03 0. -1.
        -11    1    3    3    0    0 -0.77180188886E+01 -0.86729579767E+01  0.21683201835E+02  0.24595716248E+02  0.51100000000E-03 0.  1.
         12    1    3    3    0    0 -0.26150831075E+02  0.10461372447E+02 -0.91296774491E+01  0.29608398973E+02  0.00000000000E+00 0. -1.
</event>
<event>
 7    1  0.3461631E-013  0.5930193E+02  0.7816164E-02  0.1266605E+00
        -11   -1    0    0    0    0  0.00000000000E+00  0.00000000000E+00  0.45593999997E+02  0.45594000000E+02  0.51100000000E-03 0.  1.
         11   -1    0    0    0    0 -0.00000000000E+00 -0.00000000000E+00 -0.45593999997E+02  0.45594000000E+02  0.51100000000E-03 0. -1.
    9900012    2    1    2    0    0  0.24657753035E+01 -0.23790450187E+01  0.31701448923E+02  0.59301925189E+02  0.49999965643E+02 0.  0.
         12    1    1    2    0    0 -0.24657753035E+01  0.23790450187E+01 -0.31701448923E+02  0.31886074811E+02  0.00000000000E+00 0. -1.
         11    1    3    3    0    0  0.17846161434E+02 -0.16304410206E+02  0.61803351260E+01  0.24950266785E+02  0.51100000000E-03 0. -1.
        -11    1    3    3    0    0  0.13657371873E+01  0.41820770670E+00  0.21934995359E+01  0.26175515709E+01  0.51100000000E-03 0.  1.
        -12    1    3    3    0    0 -0.16746123318E+02  0.13507157481E+02  0.23327614261E+02  0.31734106833E+02  0.00000000000E+00 0.  1.
</event>
<event>
 7    1  0.3461631E-013  0.5930196E+02  0.7816164E-02  0.1266605E+00
        -11   -1    0    0    0    0  0.00000000000E+00  0.00000000000E+00  0.45593999997E+02  0.45594000000E+02  0.51100000000E-03 0.  1.
         11   -1    0    0    0    0 -0.00000000000E+00 -0.00000000000E+00 -0.45593999997E+02  0.45594000000E+02  0.51100000000E-03 0. -1.
    9900012    2    1    2    0    0 -0.27093100139E+02  0.70225234567E+01  0.15276383794E+02  0.59301955832E+02  0.50000021529E+02 0.  0.
         12    1    1    2    0    0  0.27093100139E+02 -0.70225234567E+01 -0.15276383794E+02  0.31886044168E+02  0.00000000000E+00 0. -1.
         11    1    3    3    0    0  0.15529005059E+01  0.96698428806E-01  0.54255522097E+01  0.56442419871E+01  0.51100000000E-03 0. -1.
        -11    1    3    3    0    0 -0.40138515526E+02  0.70304659802E+01  0.45552730824E+01  0.41003394904E+02  0.51100000000E-03 0.  1.
         12    1    3    3    0    0  0.11492514881E+02 -0.10464095227E+00  0.52955585016E+01  0.12654318941E+02  0.00000000000E+00 0. -1.
</event>
<event>
 7    1  0.3461631E-013  0.5930195E+02  0.7816164E-02  0.1266605E+00
        -11   -1    0    0    0    0  0.00000000000E+00  0.00000000000E+00  0.45593999997E+02  0.45594000000E+02  0.51100000000E-03 0. -1.
         11   -1    0    0    0    0 -0.00000000000E+00 -0.00000000000E+00 -0.45593999997E+02  0.45594000000E+02  0.51100000000E-03 0.  1.
    9900012    2    1    2    0    0  0.27523489792E+02  0.16087288507E+02 -0.61377102017E+00  0.59301952005E+02  0.50000014549E+02 0.  0.
         12    1    1    2    0    0 -0.27523489792E+02 -0.16087288507E+02  0.61377102017E+00  0.31886047995E+02  0.00000000000E+00 0. -1.
         11    1    3    3    0    0  0.13159672184E+02  0.48829856532E+01 -0.14176144763E+02  0.19949526347E+02  0.51100000000E-03 0. -1.
        -11    1    3    3    0    0  0.52654132024E+01  0.10093559242E+02 -0.93134090340E+01  0.14708640401E+02  0.51100000000E-03 0.  1.
         12    1    3    3    0    0  0.90984044065E+01  0.11107436116E+01  0.22875782777E+02  0.24643785257E+02  0.00000000000E+00 0. -1.
</event>
<event>
 7    1  0.3461631E-013  0.5930197E+02  0.7816164E-02  0.1266605E+00
        -11   -1    0    0    0    0  0.00000000000E+00  0.00000000000E+00  0.45593999997E+02  0.45594000000E+02  0.51100000000E-03 0. -1.
         11   -1    0    0    0    0 -0.00000000000E+00 -0.00000000000E+00 -0.45593999997E+02  0.45594000000E+02  0.51100000000E-03 0.  1.
    9900012    2    1    2    0    0 -0.21798855726E+02 -0.13231693725E+02 -0.19142916265E+02  0.59301967432E+02  0.50000042683E+02 0.  0.
         12    1    1    2    0    0  0.21798855726E+02  0.13231693725E+02  0.19142916265E+02  0.31886032568E+02  0.00000000000E+00 0. -1.
         11    1    3    3    0    0 -0.64421829091E+01 -0.11153659726E+02  0.13392386599E+00  0.12881140547E+02  0.51100000000E-03 0. -1.
        -11    1    3    3    0    0 -0.26876647529E+01  0.63403163741E+00  0.12133283099E+02  0.12443556443E+02  0.51100000000E-03 0.  1.
        -12    1    3    3    0    0 -0.12669008064E+02 -0.27120656361E+01 -0.31410123230E+02  0.33977270442E+02  0.00000000000E+00 0.  1.
</event>
<event>
 7    1  0.3461631E-013  0.5930195E+02  0.7816164E-02  0.1266605E+00
        -11   -1    0    0    0    0  0.00000000000E+00  0.00000000000E+00  0.45593999997E+02  0.45594000000E+02  0.51100000000E-03 0. -1.
         11   -1    0    0    0    0 -0.00000000000E+00 -0.00000000000E+00 -0.45593999997E+02  0.45594000000E+02  0.51100000000E-03 0.  1.
    9900012    2    1    2    0    0  0.21082563917E+02 -0.12915185574E+02 -0.20135638668E+02  0.59301945614E+02  0.50000002893E+02 0.  0.
         12    1    1    2    0    0 -0.21082563917E+02  0.12915185574E+02  0.20135638668E+02  0.31886054386E+02  0.00000000000E+00 0. -1.
         11    1    3    3    0    0  0.51353721906E+01 -0.96259354038E+00 -0.34069750769E+01  0.62374765167E+01  0.51100000000E-03 0. -1.
        -11    1    3    3    0    0  0.32238688366E+02 -0.10509474891E+02 -0.12800213864E+02  0.36244000403E+02  0.51100000000E-03 0.  1.
         12    1    3    3    0    0 -0.16291496639E+02 -0.14431171435E+01 -0.39284497270E+01  0.16820468694E+02  0.00000000000E+00 0. -1.
</event>
<event>
 7    1  0.3461631E-013  0.5930194E+02  0.7816164E-02  0.1266605E+00
        -11   -1    0    0    0    0  0.00000000000E+00  0.00000000000E+00  0.45593999997E+02  0.45594000000E+02  0.51100000000E-03 0.  1.
         11   -1    0    0    0    0 -0.00000000000E+00 -0.00000000000E+00 -0.45593999997E+02  0.45594000000E+02  0.51100000000E-03 0. -1.
    9900012    2    1    2    0    0 -0.23315841163E+02 -0.12462827198E+02  0.17826109344E+02  0.59301942149E+02  0.49999996574E+02 0.  0.
         12    1    1    2    0    0  0.23315841163E+02  0.12462827198E+02 -0.17826109344E+02  0.31886057851E+02  0.00000000000E+00 0. -1.
         11    1    3    3    0    0 -0.20703310365E+02 -0.24034959827E+02  0.12236852281E+02  0.34000689817E+02  0.51100000000E-03 0. -1.
        -11    1    3    3    0    0 -0.91437654348E+01  0.51531134162E+00  0.80882920145E+01  0.12218611217E+02  0.51100000000E-03 0.  1.
         12    1    3    3    0    0  0.65312346372E+01  0.11056821287E+02 -0.24990349521E+01  0.13082641116E+02  0.00000000000E+00 0. -1.
</event>
<event>
 7    1  0.3461631E-013  0.5930196E+02  0.7816164E-02  0.1266605E+00
        -11   -1    0    0    0    0  0.00000000000E+00  0.00000000000E+00  0.45593999997E+02  0.45594000000E+02  0.51100000000E-03 0. -1.
         11   -1    0    0    0    0 -0.00000000000E+00 -0.00000000000E+00 -0.45593999997E+02  0.45594000000E+02  0.51100000000E-03 0.  1.
    9900012    2    1    2    0    0 -0.28979218552E+02  0.63849487047E+01 -0.11668632149E+02  0.59301958319E+02  0.50000026064E+02 0.  0.
         12    1    1    2    0    0  0.28979218552E+02 -0.63849487047E+01  0.11668632149E+02  0.31886041681E+02  0.00000000000E+00 0. -1.
         11    1    3    3    0    0  0.99574963221E+01 -0.28543636605E+01 -0.11652134261E+02  0.15590745909E+02  0.51100000000E-03 0. -1.
        -11    1    3    3    0    0 -0.28457512707E+01 -0.40564045480E+01  0.16232167225E+01  0.52141682885E+01  0.51100000000E-03 0.  1.
        -12    1    3    3    0    0 -0.36090963603E+02  0.13295716913E+02 -0.16397146103E+01  0.38497044121E+02  0.00000000000E+00 0.  1.
</event>
<event>
 7    1  0.3461631E-013  0.5930197E+02  0.7816164E-02  0.1266605E+00
        -11   -1    0    0    0    0  0.00000000000E+00  0.00000000000E+00  0.45593999997E+02  0.45594000000E+02  0.51100000000E-03 0.  1.
         11   -1    0    0    0    0 -0.00000000000E+00 -0.00000000000E+00 -0.45593999997E+02  0.45594000000E+02  0.51100000000E-03 0. -1.
    9900012    2    1    2    0    0 -0.26604231092E+02  0.11484498568E+02  0.13305650615E+02  0.59301966104E+02  0.50000040261E+02 0.  0.
         12    1    1    2    0    0  0.26604231092E+02 -0.11484498568E+02 -0.13305650615E+02  0.31886033896E+02  0.00000000000E+00 0. -1.
         11    1    3    3    0    0 -0.84597684069E+01  0.66643402415E+01 -0.53693217527E+00  0.10782829349E+02  0.51100000000E-03 0. -1.
        -11    1    3    3    0    0  0.68570596458E+01  0.13657505106E+02  0.15734262932E+02  0.21934305163E+02  0.51100000000E-03 0.  1.
        -12    1    3    3    0    0 -0.25001522331E+02 -0.88373467800E+01 -0.18916801419E+01  0.26584831591E+02  0.00000000000E+00 0.  1.
</event>
<event>
 7    1  0.3461631E-013  0.5930187E+02  0.7816164E-02  0.1266605E+00
        -11   -1    0    0    0    0  0.00000000000E+00  0.00000000000E+00  0.45593999997E+02  0.45594000000E+02  0.51100000000E-03 0.  1.
         11   -1    0    0    0    0 -0.00000000000E+00 -0.00000000000E+00 -0.45593999997E+02  0.45594000000E+02  0.51100000000E-03 0. -1.
    9900012    2    1    2    0    0  0.62101699886E+01 -0.13851822365E+02  0.28040791944E+02  0.59301871246E+02  0.49999867263E+02 0.  0.
         12    1    1    2    0    0 -0.62101699886E+01  0.13851822365E+02 -0.28040791944E+02  0.31886128754E+02  0.00000000000E+00 0. -1.
         11    1    3    3    0    0  0.19863461440E+01 -0.39015644766E+01 -0.74572435134E+01  0.86474422489E+01  0.51100000000E-03 0. -1.
        -11    1    3    3    0    0  0.15731399143E+02 -0.11812749196E+02  0.88570982658E+01  0.21574664597E+02  0.51100000000E-03 0.  1.
        -12    1    3    3    0    0 -0.11507575298E+02  0.18624913072E+01  0.26640937191E+02  0.29079764399E+02  0.00000000000E+00 0.  1.
</event>
<event>
 7    1  0.3461631E-013  0.5930193E+02  0.7816164E-02  0.1266605E+00
        -11   -1    0    0    0    0  0.00000000000E+00  0.00000000000E+00  0.45593999997E+02  0.45594000000E+02  0.51100000000E-03 0.  1.
         11   -1    0    0    0    0 -0.00000000000E+00 -0.00000000000E+00 -0.45593999997E+02  0.45594000000E+02  0.51100000000E-03 0. -1.
    9900012    2    1    2    0    0  0.19887079835E+02 -0.19492861540E+02  0.15532348534E+02  0.59301930215E+02  0.49999974809E+02 0.  0.
         12    1    1    2    0    0 -0.19887079835E+02  0.19492861540E+02 -0.15532348534E+02  0.31886069785E+02  0.00000000000E+00 0. -1.
         11    1    3    3    0    0 -0.11678560573E+02 -0.64187952489E+01 -0.47454532758E+01  0.14145990123E+02  0.51100000000E-03 0. -1.
        -11    1    3    3    0    0  0.20130644334E+02  0.29133498686E+01  0.13278731548E+02  0.24291051039E+02  0.51100000000E-03 0.  1.
        -12    1    3    3    0    0  0.11434996074E+02 -0.15987416159E+02  0.69990702613E+01  0.20864889053E+02  0.00000000000E+00 0.  1.
</event>
<event>
 7    1  0.3461631E-013  0.5930194E+02  0.7816164E-02  0.1266605E+00
        -11   -1    0    0    0    0  0.00000000000E+00  0.00000000000E+00  0.45593999997E+02  0.45594000000E+02  0.51100000000E-03 0. -1.
         11   -1    0    0    0    0 -0.00000000000E+00 -0.00000000000E+00 -0.45593999997E+02  0.45594000000E+02  0.51100000000E-03 0.  1.
    9900012    2    1    2    0    0 -0.25651842393E+02 -0.91789024681E+01 -0.16566580268E+02  0.59301939558E+02  0.49999991849E+02 0.  0.
         12    1    1    2    0    0  0.25651842393E+02  0.91789024681E+01  0.16566580268E+02  0.31886060442E+02  0.00000000000E+00 0. -1.
         11    1    3    3    0    0  0.85467987005E+00 -0.57551592325E+00 -0.67158199055E+01  0.67944045745E+01  0.51100000000E-03 0. -1.
        -11    1    3    3    0    0 -0.36969353570E+02 -0.14017506660E+02 -0.97689847999E+01  0.40726608755E+02  0.51100000000E-03 0.  1.
         12    1    3    3    0    0  0.10462831307E+02  0.54141201148E+01 -0.81775563157E-01  0.11780926229E+02  0.00000000000E+00 0. -1.
</event>
<event>
 7    1  0.3461631E-013  0.5930232E+02  0.7816164E-02  0.1266603E+00
        -11   -1    0    0    0    0  0.00000000000E+00  0.00000000000E+00  0.45593999997E+02  0.45594000000E+02  0.51100000000E-03 0. -1.
         11   -1    0    0    0    0 -0.00000000000E+00 -0.00000000000E+00 -0.45593999997E+02  0.45594000000E+02  0.51100000000E-03 0.  1.
    9900012    2    1    2    0    0 -0.30938025994E+01  0.28397650636E+02 -0.14166796972E+02  0.59302324335E+02  0.50000693585E+02 0.  0.
         12    1    1    2    0    0  0.30938025994E+01 -0.28397650636E+02  0.14166796972E+02  0.31885675665E+02  0.00000000000E+00 0. -1.
         11    1    3    3    0    0  0.70513111520E+01  0.80427036568E+01  0.13446396019E+02  0.17181723931E+02  0.51100000000E-03 0. -1.
        -11    1    3    3    0    0 -0.21354124725E+01  0.64526204921E+00  0.36662777641E+01  0.42916130353E+01  0.51100000000E-03 0.  1.
        -12    1    3    3    0    0 -0.80097012789E+01  0.19709684930E+02 -0.31279470756E+02  0.37828987369E+02  0.00000000000E+00 0.  1.
</event>
<event>
 7    1  0.3461631E-013  0.5930192E+02  0.7816164E-02  0.1266605E+00
        -11   -1    0    0    0    0  0.00000000000E+00  0.00000000000E+00  0.45593999997E+02  0.45594000000E+02  0.51100000000E-03 0. -1.
         11   -1    0    0    0    0 -0.00000000000E+00 -0.00000000000E+00 -0.45593999997E+02  0.45594000000E+02  0.51100000000E-03 0.  1.
    9900012    2    1    2    0    0  0.30001204311E+02 -0.10459217836E+02  0.26933851288E+01  0.59301924335E+02  0.49999964085E+02 0.  0.
         12    1    1    2    0    0 -0.30001204311E+02  0.10459217836E+02 -0.26933851288E+01  0.31886075665E+02  0.00000000000E+00 0. -1.
         11    1    3    3    0    0  0.15815266943E+02 -0.15161916258E+02 -0.52534001064E+00  0.21915345206E+02  0.51100000000E-03 0.  1.
        -11    1    3    3    0    0  0.79469797665E+01 -0.13537718867E+02 -0.49348511162E+01  0.16455305385E+02  0.51100000000E-03 0. -1.
         12    1    3    3    0    0  0.62389576013E+01  0.18240417288E+02  0.81535762557E+01  0.20931273744E+02  0.00000000000E+00 0. -1.
</event>
<event>
 7    1  0.3461631E-013  0.5930197E+02  0.7816164E-02  0.1266605E+00
        -11   -1    0    0    0    0  0.00000000000E+00  0.00000000000E+00  0.45593999997E+02  0.45594000000E+02  0.51100000000E-03 0. -1.
         11   -1    0    0    0    0 -0.00000000000E+00 -0.00000000000E+00 -0.45593999997E+02  0.45594000000E+02  0.51100000000E-03 0.  1.
    9900012    2    1    2    0    0 -0.88462111025E+01 -0.29508363066E+02 -0.82292222742E+01  0.59301967933E+02  0.50000043598E+02 0.  0.
         12    1    1    2    0    0  0.88462111025E+01  0.29508363066E+02  0.82292222742E+01  0.31886032067E+02  0.00000000000E+00 0. -1.
         11    1    3    3    0    0 -0.20577164208E+00 -0.19120256632E+02  0.59049369294E+01  0.20012367078E+02  0.51100000000E-03 0. -1.
        -11    1    3    3    0    0  0.13704612742E+01 -0.22874120428E+01  0.10854811980E+02  0.11177538250E+02  0.51100000000E-03 0.  1.
        -12    1    3    3    0    0 -0.10010900735E+02 -0.81006943910E+01 -0.24988971183E+02  0.28112062605E+02  0.00000000000E+00 0.  1.
</event>
<event>
 7    1  0.3461631E-013  0.5930194E+02  0.7816164E-02  0.1266605E+00
        -11   -1    0    0    0    0  0.00000000000E+00  0.00000000000E+00  0.45593999997E+02  0.45594000000E+02  0.51100000000E-03 0.  1.
         11   -1    0    0    0    0 -0.00000000000E+00 -0.00000000000E+00 -0.45593999997E+02  0.45594000000E+02  0.51100000000E-03 0. -1.
    9900012    2    1    2    0    0 -0.33969972802E+01  0.31696760082E+02 -0.70473175112E+00  0.59301939769E+02  0.49999992232E+02 0.  0.
         12    1    1    2    0    0  0.33969972802E+01 -0.31696760082E+02  0.70473175112E+00  0.31886060231E+02  0.00000000000E+00 0. -1.
         11    1    3    3    0    0 -0.15272491053E+02  0.14614511338E+02  0.75433836321E+01  0.22444054034E+02  0.51100000000E-03 0. -1.
        -11    1    3    3    0    0  0.10568942104E+02  0.21467306627E+01  0.89697547307E+01  0.14027383574E+02  0.51100000000E-03 0.  1.
         12    1    3    3    0    0  0.13065516681E+01  0.14935518082E+02 -0.17217870114E+02  0.22830502160E+02  0.00000000000E+00 0. -1.
</event>
<event>
 7    1  0.3461631E-013  0.5930193E+02  0.7816164E-02  0.1266605E+00
        -11   -1    0    0    0    0  0.00000000000E+00  0.00000000000E+00  0.45593999997E+02  0.45594000000E+02  0.51100000000E-03 0.  1.
         11   -1    0    0    0    0 -0.00000000000E+00 -0.00000000000E+00 -0.45593999997E+02  0.45594000000E+02  0.51100000000E-03 0. -1.
    9900012    2    1    2    0    0 -0.78233606541E+01  0.77194671556E+01  0.29932023797E+02  0.59301934177E+02  0.49999982035E+02 0.  0.
         12    1    1    2    0    0  0.78233606541E+01 -0.77194671556E+01 -0.29932023797E+02  0.31886065823E+02  0.00000000000E+00 0. -1.
         11    1    3    3    0    0  0.72825545984E+01  0.17305581889E+02 -0.19701724476E+01  0.18878568423E+02  0.51100000000E-03 0. -1.
        -11    1    3    3    0    0  0.37610714014E+01 -0.15842167788E+01  0.76607051846E+01  0.86799657301E+01  0.51100000000E-03 0.  1.
        -12    1    3    3    0    0 -0.18866986654E+02 -0.80018979543E+01  0.24241491060E+02  0.31743400024E+02  0.00000000000E+00 0.  1.
</event>
<event>
 7    1  0.3461631E-013  0.5930197E+02  0.7816164E-02  0.1266605E+00
        -11   -1    0    0    0    0  0.00000000000E+00  0.00000000000E+00  0.45593999997E+02  0.45594000000E+02  0.51100000000E-03 0. -1.
         11   -1    0    0    0    0 -0.00000000000E+00 -0.00000000000E+00 -0.45593999997E+02  0.45594000000E+02  0.51100000000E-03 0.  1.
    9900012    2    1    2    0    0  0.28272961261E+02  0.14463184976E+02  0.28591153186E+01  0.59301974871E+02  0.50000056251E+02 0.  0.
         12    1    1    2    0    0 -0.28272961261E+02 -0.14463184976E+02 -0.28591153186E+01  0.31886025129E+02  0.00000000000E+00 0. -1.
         11    1    3    3    0    0 -0.32495745776E+01  0.22548442100E+00 -0.81235987603E+01  0.87523388439E+01  0.51100000000E-03 0. -1.
        -11    1    3    3    0    0  0.38011030942E+01  0.13861761422E+02 -0.84685110922E+01  0.16682700466E+02  0.51100000000E-03 0.  1.
         12    1    3    3    0    0  0.27721432744E+02  0.37593913290E+00  0.19451225171E+02  0.33866935561E+02  0.00000000000E+00 0. -1.
</event>
<event>
 7    1  0.3611936E-013  0.5930194E+02  0.7816164E-02  0.1266605E+00
        -11   -1    0    0    0    0  0.00000000000E+00  0.00000000000E+00  0.45593999997E+02  0.45594000000E+02  0.51100000000E-03 0. -1.
         11   -1    0    0    0    0 -0.00000000000E+00 -0.00000000000E+00 -0.45593999997E+02  0.45594000000E+02  0.51100000000E-03 0.  1.
    9900012    2    1    2    0    0 -0.14713931253E+02 -0.17178492526E+02 -0.22474888306E+02  0.59301937484E+02  0.49999988067E+02 0.  0.
         12    1    1    2    0    0  0.14713931253E+02  0.17178492526E+02  0.22474888306E+02  0.31886062516E+02  0.00000000000E+00 0. -1.
         11    1    3    3    0    0 -0.31473219714E+01  0.12595660618E+02 -0.69018299096E+01  0.14703453960E+02  0.51100000000E-03 0. -1.
        -11    1    3    3    0    0 -0.79758545816E+01 -0.48009303711E+01 -0.16942153283E+02  0.19331315187E+02  0.51100000000E-03 0.  1.
         12    1    3    3    0    0 -0.35907546995E+01 -0.24973222773E+02  0.13690948859E+01  0.25267168337E+02  0.00000000000E+00 0. -1.
</event>
<event>
 7    1  0.3461631E-013  0.5930194E+02  0.7816164E-02  0.1266605E+00
        -11   -1    0    0    0    0  0.00000000000E+00  0.00000000000E+00  0.45593999997E+02  0.45594000000E+02  0.51100000000E-03 0. -1.
         11   -1    0    0    0    0 -0.00000000000E+00 -0.00000000000E+00 -0.45593999997E+02  0.45594000000E+02  0.51100000000E-03 0.  1.
    9900012    2    1    2    0    0  0.25931102535E+02  0.42220125843E+01 -0.18068573394E+02  0.59301940139E+02  0.49999992909E+02 0.  0.
         12    1    1    2    0    0 -0.25931102535E+02 -0.42220125843E+01  0.18068573394E+02  0.31886059861E+02  0.00000000000E+00 0. -1.
         11    1    3    3    0    0 -0.56020493362E+01 -0.79234735139E+01  0.16476997327E+01  0.98427284815E+01  0.51100000000E-03 0. -1.
        -11    1    3    3    0    0 -0.22015114534E+00  0.12034819691E+02 -0.11528484729E+02  0.16667072686E+02  0.51100000000E-03 0.  1.
         12    1    3    3    0    0  0.31753303016E+02  0.11066640751E+00 -0.81877883980E+01  0.32792138972E+02  0.00000000000E+00 0. -1.
</event>
<event>
 7    1  0.3461631E-013  0.5930192E+02  0.7816164E-02  0.1266605E+00
        -11   -1    0    0    0    0  0.00000000000E+00  0.00000000000E+00  0.45593999997E+02  0.45594000000E+02  0.51100000000E-03 0.  1.
         11   -1    0    0    0    0 -0.00000000000E+00 -0.00000000000E+00 -0.45593999997E+02  0.45594000000E+02  0.51100000000E-03 0. -1.
    9900012    2    1    2    0    0 -0.27716309103E+02 -0.10212212575E+02 -0.12009962322E+02  0.59301917284E+02  0.49999951226E+02 0.  0.
         12    1    1    2    0    0  0.27716309103E+02  0.10212212575E+02  0.12009962322E+02  0.31886082716E+02  0.00000000000E+00 0. -1.
         11    1    3    3    0    0  0.78758954683E+01  0.18700704929E+01 -0.33599708386E+01  0.87644907082E+01  0.51100000000E-03 0. -1.
        -11    1    3    3    0    0  0.56678712345E+01  0.14340005634E+01 -0.35037088768E+01  0.68159444027E+01  0.51100000000E-03 0.  1.
        -12    1    3    3    0    0 -0.41260075806E+02 -0.13516283632E+02 -0.51462826069E+01  0.43721482173E+02  0.00000000000E+00 0.  1.
</event>
<event>
 7    1  0.3461631E-013  0.5930195E+02  0.7816164E-02  0.1266605E+00
        -11   -1    0    0    0    0  0.00000000000E+00  0.00000000000E+00  0.45593999997E+02  0.45594000000E+02  0.51100000000E-03 0.  1.
         11   -1    0    0    0    0 -0.00000000000E+00 -0.00000000000E+00 -0.45593999997E+02  0.45594000000E+02  0.51100000000E-03 0. -1.
    9900012    2    1    2    0    0  0.39357002270E+01  0.48089913713E+01  0.31274655024E+02  0.59301950054E+02  0.50000010990E+02 0.  0.
         12    1    1    2    0    0 -0.39357002270E+01 -0.48089913713E+01 -0.31274655024E+02  0.31886049946E+02  0.00000000000E+00 0. -1.
         11    1    3    3    0    0 -0.42900862204E+01  0.86571748860E+01 -0.80374001860E+01  0.12567868506E+02  0.51100000000E-03 0. -1.
        -11    1    3    3    0    0 -0.47950356825E+01 -0.72627498835E+01  0.53850754731E+01  0.10234204472E+02  0.51100000000E-03 0.  1.
        -12    1    3    3    0    0  0.13020822130E+02  0.34145663689E+01  0.33926979737E+02  0.36499877075E+02  0.00000000000E+00 0.  1.
</event>
<event>
 7    1  0.3461631E-013  0.5930190E+02  0.7816164E-02  0.1266605E+00
        -11   -1    0    0    0    0  0.00000000000E+00  0.00000000000E+00  0.45593999997E+02  0.45594000000E+02  0.51100000000E-03 0. -1.
         11   -1    0    0    0    0 -0.00000000000E+00 -0.00000000000E+00 -0.45593999997E+02  0.45594000000E+02  0.51100000000E-03 0.  1.
    9900012    2    1    2    0    0 -0.31698348114E+02  0.24302350977E+01  0.24559952122E+01  0.59301902272E+02  0.49999923848E+02 0.  0.
         12    1    1    2    0    0  0.31698348114E+02 -0.24302350977E+01 -0.24559952122E+01  0.31886097728E+02  0.00000000000E+00 0. -1.
         11    1    3    3    0    0  0.51141645857E+01  0.47017735196E+00 -0.11321207840E+02  0.12431632772E+02  0.51100000000E-03 0. -1.
        -11    1    3    3    0    0 -0.14759633272E+00 -0.13891248637E+01 -0.52458244849E+01  0.54286395489E+01  0.51100000000E-03 0.  1.
         12    1    3    3    0    0 -0.36664916367E+02  0.33491826095E+01  0.19023027537E+02  0.41441629952E+02  0.00000000000E+00 0. -1.
</event>
<event>
 7    1  0.3461631E-013  0.5930195E+02  0.7816164E-02  0.1266605E+00
        -11   -1    0    0    0    0  0.00000000000E+00  0.00000000000E+00  0.45593999997E+02  0.45594000000E+02  0.51100000000E-03 0. -1.
         11   -1    0    0    0    0 -0.00000000000E+00 -0.00000000000E+00 -0.45593999997E+02  0.45594000000E+02  0.51100000000E-03 0.  1.
    9900012    2    1    2    0    0 -0.31472240494E+01  0.27579674369E+02 -0.15690027959E+02  0.59301946075E+02  0.50000003734E+02 0.  0.
         12    1    1    2    0    0  0.31472240494E+01 -0.27579674369E+02  0.15690027959E+02  0.31886053925E+02  0.00000000000E+00 0. -1.
         11    1    3    3    0    0  0.15704916792E+02  0.17547775051E+02 -0.31220105496E+01  0.23755331419E+02  0.51100000000E-03 0. -1.
        -11    1    3    3    0    0 -0.40719906283E+01 -0.26378752840E+01  0.66232535089E+01  0.82101754546E+01  0.51100000000E-03 0.  1.
        -12    1    3    3    0    0 -0.14780150213E+02  0.12669774602E+02 -0.19191270918E+02  0.27336439202E+02  0.00000000000E+00 0.  1.
</event>
<event>
 7    1  0.3461631E-013  0.5930196E+02  0.7816164E-02  0.1266605E+00
        -11   -1    0    0    0    0  0.00000000000E+00  0.00000000000E+00  0.45593999997E+02  0.45594000000E+02  0.51100000000E-03 0. -1.
         11   -1    0    0    0    0 -0.00000000000E+00 -0.00000000000E+00 -0.45593999997E+02  0.45594000000E+02  0.51100000000E-03 0.  1.
    9900012    2    1    2    0    0 -0.28292444967E+02  0.42741531946E+01  0.14070847858E+02  0.59301959368E+02  0.50000027977E+02 0.  0.
         12    1    1    2    0    0  0.28292444967E+02 -0.42741531946E+01 -0.14070847858E+02  0.31886040632E+02  0.00000000000E+00 0. -1.
         11    1    3    3    0    0 -0.10677456290E+02 -0.32229804160E+01  0.31187582580E+00  0.11157640538E+02  0.51100000000E-03 0. -1.
        -11    1    3    3    0    0 -0.28098698830E+02  0.58129956530E+01  0.20768529610E+02  0.35421174696E+02  0.51100000000E-03 0.  1.
        -12    1    3    3    0    0  0.10483710153E+02  0.16841379575E+01 -0.70095575776E+01  0.12723144134E+02  0.00000000000E+00 0.  1.
</event>
<event>
 7    1  0.3461631E-013  0.5930192E+02  0.7816164E-02  0.1266605E+00
        -11   -1    0    0    0    0  0.00000000000E+00  0.00000000000E+00  0.45593999997E+02  0.45594000000E+02  0.51100000000E-03 0.  1.
         11   -1    0    0    0    0 -0.00000000000E+00 -0.00000000000E+00 -0.45593999997E+02  0.45594000000E+02  0.51100000000E-03 0. -1.
    9900012    2    1    2    0    0 -0.18058741029E+02  0.25903111591E+02  0.44308771995E+01  0.59301921684E+02  0.49999959250E+02 0.  0.
         12    1    1    2    0    0  0.18058741029E+02 -0.25903111591E+02 -0.44308771995E+01  0.31886078316E+02  0.00000000000E+00 0. -1.
         11    1    3    3    0    0 -0.72400586253E+01 -0.34298533543E+01  0.31563639684E+00  0.80176037271E+01  0.51100000000E-03 0. -1.
        -11    1    3    3    0    0  0.60126991130E+01 -0.80459274213E+01 -0.33418593099E+00  0.10049934288E+02  0.51100000000E-03 0.  1.
        -12    1    3    3    0    0 -0.16831381517E+02  0.37378892366E+02  0.44494267336E+01  0.41234383669E+02  0.00000000000E+00 0.  1.
</event>
<event>
 7    1  0.3461631E-013  0.5930195E+02  0.7816164E-02  0.1266605E+00
        -11   -1    0    0    0    0  0.00000000000E+00  0.00000000000E+00  0.45593999997E+02  0.45594000000E+02  0.51100000000E-03 0.  1.
         11   -1    0    0    0    0 -0.00000000000E+00 -0.00000000000E+00 -0.45593999997E+02  0.45594000000E+02  0.51100000000E-03 0. -1.
    9900012    2    1    2    0    0  0.16035666898E+02 -0.20433345144E+02  0.18494752813E+02  0.59301951511E+02  0.50000013647E+02 0.  0.
         12    1    1    2    0    0 -0.16035666898E+02  0.20433345144E+02 -0.18494752813E+02  0.31886048489E+02  0.00000000000E+00 0. -1.
         11    1    3    3    0    0  0.80757005264E+01  0.80759379987E+01  0.28826893526E+01  0.11779117612E+02  0.51100000000E-03 0.  1.
        -11    1    3    3    0    0  0.13128166590E+02 -0.25594469176E+02  0.23852820553E+02  0.37368203851E+02  0.51100000000E-03 0. -1.
         12    1    3    3    0    0 -0.51682002187E+01 -0.29148139664E+01 -0.82407570925E+01  0.10154630048E+02  0.00000000000E+00 0. -1.
</event>
<event>
 7    1  0.3461631E-013  0.5930194E+02  0.7816164E-02  0.1266605E+00
        -11   -1    0    0    0    0  0.00000000000E+00  0.00000000000E+00  0.45593999997E+02  0.45594000000E+02  0.51100000000E-03 0.  1.
         11   -1    0    0    0    0 -0.00000000000E+00 -0.00000000000E+00 -0.45593999997E+02  0.45594000000E+02  0.51100000000E-03 0. -1.
    9900012    2    1    2    0    0 -0.38782421444E+01 -0.93309287548E+01  0.30242581576E+02  0.59301941386E+02  0.49999995182E+02 0.  0.
         12    1    1    2    0    0  0.38782421444E+01  0.93309287548E+01 -0.30242581576E+02  0.31886058614E+02  0.00000000000E+00 0. -1.
         11    1    3    3    0    0 -0.12411070575E+02  0.91997021265E+01  0.40497449904E+01  0.15970899373E+02  0.51100000000E-03 0. -1.
        -11    1    3    3    0    0 -0.20642856211E+01 -0.49933846277E+01  0.25562964404E+02  0.26127769031E+02  0.51100000000E-03 0.  1.
         12    1    3    3    0    0  0.10597114051E+02 -0.13537246254E+02  0.62987218152E+00  0.17203272982E+02  0.00000000000E+00 0. -1.
</event>
<event>
 7    1  0.3461631E-013  0.5930195E+02  0.7816164E-02  0.1266605E+00
        -11   -1    0    0    0    0  0.00000000000E+00  0.00000000000E+00  0.45593999997E+02  0.45594000000E+02  0.51100000000E-03 0. -1.
         11   -1    0    0    0    0 -0.00000000000E+00 -0.00000000000E+00 -0.45593999997E+02  0.45594000000E+02  0.51100000000E-03 0.  1.
    9900012    2    1    2    0    0  0.23246121887E+02 -0.21274811976E+02  0.48703611509E+01  0.59301949365E+02  0.50000009734E+02 0.  0.
         12    1    1    2    0    0 -0.23246121887E+02  0.21274811976E+02 -0.48703611509E+01  0.31886050635E+02  0.00000000000E+00 0. -1.
         11    1    3    3    0    0  0.22320645257E+02 -0.13678715829E+02  0.16153663921E+02  0.30761328478E+02  0.51100000000E-03 0. -1.
        -11    1    3    3    0    0  0.67781714775E+01 -0.15178394271E+02 -0.67067276108E+01  0.17925051095E+02  0.51100000000E-03 0.  1.
        -12    1    3    3    0    0 -0.58526948478E+01  0.75822981243E+01 -0.45765751591E+01  0.10615569792E+02  0.00000000000E+00 0.  1.
</event>
<event>
 7    1  0.3461631E-013  0.5930205E+02  0.7816164E-02  0.1266604E+00
        -11   -1    0    0    0    0  0.00000000000E+00  0.00000000000E+00  0.45593999997E+02  0.45594000000E+02  0.51100000000E-03 0.  1.
         11   -1    0    0    0    0 -0.00000000000E+00 -0.00000000000E+00 -0.45593999997E+02  0.45594000000E+02  0.51100000000E-03 0. -1.
    9900012    2    1    2    0    0  0.19257128335E+01 -0.22109733597E+02  0.22894659175E+02  0.59302045281E+02  0.50000184660E+02 0.  0.
         12    1    1    2    0    0 -0.19257128335E+01  0.22109733597E+02 -0.22894659175E+02  0.31885954719E+02  0.00000000000E+00 0. -1.
         11    1    3    3    0    0  0.24384623825E+01  0.35936696915E+01 -0.37139170450E+00  0.43587260412E+01  0.51100000000E-03 0. -1.
        -11    1    3    3    0    0 -0.13982337984E+02  0.32720303497E+01 -0.16079761320E+01  0.14449828567E+02  0.51100000000E-03 0.  1.
        -12    1    3    3    0    0  0.13469588435E+02 -0.28975433638E+02  0.24874027012E+02  0.40493490673E+02  0.00000000000E+00 0.  1.
</event>
<event>
 7    1  0.3461631E-013  0.5930195E+02  0.7816164E-02  0.1266605E+00
        -11   -1    0    0    0    0  0.00000000000E+00  0.00000000000E+00  0.45593999997E+02  0.45594000000E+02  0.51100000000E-03 0.  1.
         11   -1    0    0    0    0 -0.00000000000E+00 -0.00000000000E+00 -0.45593999997E+02  0.45594000000E+02  0.51100000000E-03 0. -1.
    9900012    2    1    2    0    0  0.25271497547E+02 -0.86149228400E+00 -0.19424963667E+02  0.59301953354E+02  0.50000017010E+02 0.  0.
         12    1    1    2    0    0 -0.25271497547E+02  0.86149228400E+00  0.19424963667E+02  0.31886046646E+02  0.00000000000E+00 0. -1.
         11    1    3    3    0    0 -0.21708749540E+01  0.82678059342E+01 -0.15460528845E+02  0.17666274804E+02  0.51100000000E-03 0.  1.
        -11    1    3    3    0    0 -0.11206778882E+00 -0.81086418094E+01 -0.10530697450E+02  0.13291283619E+02  0.51100000000E-03 0. -1.
        -12    1    3    3    0    0  0.27554440289E+02 -0.10206564088E+01  0.65662626274E+01  0.28344394932E+02  0.00000000000E+00 0.  1.
</event>
<event>
 7    1  0.3461631E-013  0.5930195E+02  0.7816164E-02  0.1266605E+00
        -11   -1    0    0    0    0  0.00000000000E+00  0.00000000000E+00  0.45593999997E+02  0.45594000000E+02  0.51100000000E-03 0.  1.
         11   -1    0    0    0    0 -0.00000000000E+00 -0.00000000000E+00 -0.45593999997E+02  0.45594000000E+02  0.51100000000E-03 0. -1.
    9900012    2    1    2    0    0  0.16223725700E+01 -0.33508803916E+01  0.31667962656E+02  0.59301947392E+02  0.50000006136E+02 0.  0.
         12    1    1    2    0    0 -0.16223725700E+01  0.33508803916E+01 -0.31667962656E+02  0.31886052608E+02  0.00000000000E+00 0. -1.
         11    1    3    3    0    0  0.87937065517E+01  0.92455678237E+01  0.89298484099E+01  0.15574080781E+02  0.51100000000E-03 0.  1.
        -11    1    3    3    0    0  0.56132233551E+01  0.98621422328E+01  0.51075370685E+01  0.12444157706E+02  0.51100000000E-03 0. -1.
         12    1    3    3    0    0 -0.12784557337E+02 -0.22458590448E+02  0.17630577177E+02  0.31283708904E+02  0.00000000000E+00 0. -1.
</event>
<event>
 7    1  0.3461631E-013  0.5930196E+02  0.7816164E-02  0.1266605E+00
        -11   -1    0    0    0    0  0.00000000000E+00  0.00000000000E+00  0.45593999997E+02  0.45594000000E+02  0.51100000000E-03 0. -1.
         11   -1    0    0    0    0 -0.00000000000E+00 -0.00000000000E+00 -0.45593999997E+02  0.45594000000E+02  0.51100000000E-03 0.  1.
    9900012    2    1    2    0    0 -0.16136673488E+02 -0.21103864125E+02  0.17633890245E+02  0.59301962343E+02  0.50000033403E+02 0.  0.
         12    1    1    2    0    0  0.16136673488E+02  0.21103864125E+02 -0.17633890245E+02  0.31886037657E+02  0.00000000000E+00 0. -1.
         11    1    3    3    0    0 -0.12541858660E+02  0.30854040983E+01  0.87415754184E+01  0.15595931462E+02  0.51100000000E-03 0. -1.
        -11    1    3    3    0    0 -0.10041792726E+02 -0.26860998124E+01 -0.99561533297E+01  0.14393669537E+02  0.51100000000E-03 0.  1.
         12    1    3    3    0    0  0.64469778983E+01 -0.21503168411E+02  0.18848468156E+02  0.29312361345E+02  0.00000000000E+00 0. -1.
</event>
<event>
 7    1  0.3461631E-013  0.5930195E+02  0.7816164E-02  0.1266605E+00
        -11   -1    0    0    0    0  0.00000000000E+00  0.00000000000E+00  0.45593999997E+02  0.45594000000E+02  0.51100000000E-03 0.  1.
         11   -1    0    0    0    0 -0.00000000000E+00 -0.00000000000E+00 -0.45593999997E+02  0.45594000000E+02  0.51100000000E-03 0. -1.
    9900012    2    1    2    0    0 -0.46997166076E+01 -0.10935093891E+02  0.29581356221E+02  0.59301948967E+02  0.50000009008E+02 0.  0.
         12    1    1    2    0    0  0.46997166076E+01  0.10935093891E+02 -0.29581356221E+02  0.31886051033E+02  0.00000000000E+00 0. -1.
         11    1    3    3    0    0 -0.93508060396E+01 -0.96243138087E+01 -0.59861863369E+01  0.14693516155E+02  0.51100000000E-03 0. -1.
        -11    1    3    3    0    0 -0.15498381518E+01  0.73572056421E+01  0.42116357449E-01  0.75187929354E+01  0.51100000000E-03 0.  1.
        -12    1    3    3    0    0  0.62009275838E+01 -0.86679857247E+01  0.35525426201E+02  0.37089639876E+02  0.00000000000E+00 0.  1.
</event>
<event>
 7    1  0.3461631E-013  0.5930193E+02  0.7816164E-02  0.1266605E+00
        -11   -1    0    0    0    0  0.00000000000E+00  0.00000000000E+00  0.45593999997E+02  0.45594000000E+02  0.51100000000E-03 0. -1.
         11   -1    0    0    0    0 -0.00000000000E+00 -0.00000000000E+00 -0.45593999997E+02  0.45594000000E+02  0.51100000000E-03 0.  1.
    9900012    2    1    2    0    0  0.16721172669E+02 -0.11448590165E+01 -0.27125872079E+02  0.59301933236E+02  0.49999980319E+02 0.  0.
         12    1    1    2    0    0 -0.16721172669E+02  0.11448590165E+01  0.27125872079E+02  0.31886066764E+02  0.00000000000E+00 0. -1.
         11    1    3    3    0    0  0.10138179586E+02 -0.33835736351E+01 -0.26521599308E+02  0.28594168741E+02  0.51100000000E-03 0. -1.
        -11    1    3    3    0    0  0.81311637873E+01 -0.93602339446E+01 -0.98169443450E+01  0.15814619836E+02  0.51100000000E-03 0.  1.
         12    1    3    3    0    0 -0.15481707047E+01  0.11598948563E+02  0.92126715740E+01  0.14893144659E+02  0.00000000000E+00 0. -1.
</event>
<event>
 7    1  0.3461631E-013  0.5930192E+02  0.7816164E-02  0.1266605E+00
        -11   -1    0    0    0    0  0.00000000000E+00  0.00000000000E+00  0.45593999997E+02  0.45594000000E+02  0.51100000000E-03 0. -1.
         11   -1    0    0    0    0 -0.00000000000E+00 -0.00000000000E+00 -0.45593999997E+02  0.45594000000E+02  0.51100000000E-03 0.  1.
    9900012    2    1    2    0    0  0.25254822864E+02 -0.55002543461E+01 -0.18672526807E+02  0.59301919445E+02  0.49999955167E+02 0.  0.
         12    1    1    2    0    0 -0.25254822864E+02  0.55002543461E+01  0.18672526807E+02  0.31886080555E+02  0.00000000000E+00 0. -1.
         11    1    3    3    0    0  0.16432597183E+02 -0.11877523818E+01  0.49396267491E+01  0.17200026703E+02  0.51100000000E-03 0. -1.
        -11    1    3    3    0    0 -0.86916562310E+01 -0.69206840655E+00 -0.22560561539E+02  0.24186830796E+02  0.51100000000E-03 0.  1.
         12    1    3    3    0    0  0.17513881912E+02 -0.36204335578E+01 -0.10515920175E+01  0.17915061946E+02  0.00000000000E+00 0. -1.
</event>
<event>
 7    1  0.3461631E-013  0.5930192E+02  0.7816164E-02  0.1266605E+00
        -11   -1    0    0    0    0  0.00000000000E+00  0.00000000000E+00  0.45593999997E+02  0.45594000000E+02  0.51100000000E-03 0.  1.
         11   -1    0    0    0    0 -0.00000000000E+00 -0.00000000000E+00 -0.45593999997E+02  0.45594000000E+02  0.51100000000E-03 0. -1.
    9900012    2    1    2    0    0 -0.15023883502E+02 -0.18741757423E+02  0.20970258834E+02  0.59301916792E+02  0.49999950329E+02 0.  0.
         12    1    1    2    0    0  0.15023883502E+02  0.18741757423E+02 -0.20970258834E+02  0.31886083208E+02  0.00000000000E+00 0. -1.
         11    1    3    3    0    0  0.61535763917E+01  0.34060751286E+01  0.53091968262E+01  0.88122313514E+01  0.51100000000E-03 0. -1.
        -11    1    3    3    0    0  0.61239403128E+01 -0.18883568719E+02  0.10693590980E+02  0.22548718385E+02  0.51100000000E-03 0.  1.
         12    1    3    3    0    0 -0.27301400206E+02 -0.32642638326E+01  0.49674710281E+01  0.27940967056E+02  0.00000000000E+00 0. -1.
</event>
<event>
 7    1  0.3461631E-013  0.5930194E+02  0.7816164E-02  0.1266605E+00
        -11   -1    0    0    0    0  0.00000000000E+00  0.00000000000E+00  0.45593999997E+02  0.45594000000E+02  0.51100000000E-03 0.  1.
         11   -1    0    0    0    0 -0.00000000000E+00 -0.00000000000E+00 -0.45593999997E+02  0.45594000000E+02  0.51100000000E-03 0. -1.
    9900012    2    1    2    0    0  0.98234281541E+01  0.45474779033E+01  0.29992357827E+02  0.59301939974E+02  0.49999992607E+02 0.  0.
         12    1    1    2    0    0 -0.98234281541E+01 -0.45474779033E+01 -0.29992357827E+02  0.31886060026E+02  0.00000000000E+00 0. -1.
         11    1    3    3    0    0  0.16560969584E+02 -0.36929831174E+01  0.15129040800E+02  0.22733053329E+02  0.51100000000E-03 0. -1.
        -11    1    3    3    0    0  0.68625358598E+01 -0.71451714363E+01  0.12422953478E+02  0.15889545200E+02  0.51100000000E-03 0.  1.
        -12    1    3    3    0    0 -0.13600077290E+02  0.15385632457E+02  0.24403635490E+01  0.20679341446E+02  0.00000000000E+00 0.  1.
</event>
<event>
 7    1  0.3461631E-013  0.5930182E+02  0.7816164E-02  0.1266605E+00
        -11   -1    0    0    0    0  0.00000000000E+00  0.00000000000E+00  0.45593999997E+02  0.45594000000E+02  0.51100000000E-03 0. -1.
         11   -1    0    0    0    0 -0.00000000000E+00 -0.00000000000E+00 -0.45593999997E+02  0.45594000000E+02  0.51100000000E-03 0.  1.
    9900012    2    1    2    0    0  0.68392536426E+01 -0.36751704914E+01 -0.30926463051E+02  0.59301821405E+02  0.49999776366E+02 0.  0.
         12    1    1    2    0    0 -0.68392536426E+01  0.36751704914E+01  0.30926463051E+02  0.31886178595E+02  0.00000000000E+00 0. -1.
         11    1    3    3    0    0  0.11496412457E+02  0.44452882565E+01 -0.26657417345E+02  0.29369133232E+02  0.51100000000E-03 0. -1.
        -11    1    3    3    0    0  0.27892997040E+01 -0.59668605634E+00 -0.14757630786E+02  0.15030764910E+02  0.51100000000E-03 0.  1.
         12    1    3    3    0    0 -0.74464585179E+01 -0.75237726915E+01  0.10488585080E+02  0.14901923264E+02  0.00000000000E+00 0. -1.
</event>
<event>
 7    1  0.3461631E-013  0.5930198E+02  0.7816164E-02  0.1266605E+00
        -11   -1    0    0    0    0  0.00000000000E+00  0.00000000000E+00  0.45593999997E+02  0.45594000000E+02  0.51100000000E-03 0.  1.
         11   -1    0    0    0    0 -0.00000000000E+00 -0.00000000000E+00 -0.45593999997E+02  0.45594000000E+02  0.51100000000E-03 0. -1.
    9900012    2    1    2    0    0  0.15603754399E+02 -0.16733861850E+02  0.22208538710E+02  0.59301976802E+02  0.50000059772E+02 0.  0.
         12    1    1    2    0    0 -0.15603754399E+02  0.16733861850E+02 -0.22208538710E+02  0.31886023198E+02  0.00000000000E+00 0. -1.
         11    1    3    3    0    0 -0.13741185703E+02 -0.53886357539E+01  0.75695274126E+01  0.16587806525E+02  0.51100000000E-03 0. -1.
        -11    1    3    3    0    0  0.40982364362E+00  0.27210052262E+01 -0.45031013911E+01  0.52772859748E+01  0.51100000000E-03 0.  1.
        -12    1    3    3    0    0  0.28935116458E+02 -0.14066231323E+02  0.19142112689E+02  0.37436884302E+02  0.00000000000E+00 0.  1.
</event>
<event>
 7    1  0.3461631E-013  0.5930195E+02  0.7816164E-02  0.1266605E+00
        -11   -1    0    0    0    0  0.00000000000E+00  0.00000000000E+00  0.45593999997E+02  0.45594000000E+02  0.51100000000E-03 0.  1.
         11   -1    0    0    0    0 -0.00000000000E+00 -0.00000000000E+00 -0.45593999997E+02  0.45594000000E+02  0.51100000000E-03 0. -1.
    9900012    2    1    2    0    0 -0.20003568465E+02 -0.61273084618E+01  0.24063117581E+02  0.59301948378E+02  0.50000007934E+02 0.  0.
         12    1    1    2    0    0  0.20003568465E+02  0.61273084618E+01 -0.24063117581E+02  0.31886051622E+02  0.00000000000E+00 0. -1.
         11    1    3    3    0    0  0.38378030179E+01 -0.16051494355E+02  0.14441410355E+02  0.21930196906E+02  0.51100000000E-03 0. -1.
        -11    1    3    3    0    0  0.38862435070E+01 -0.34010384747E+01  0.27477702778E+01  0.58498028225E+01  0.51100000000E-03 0.  1.
         12    1    3    3    0    0 -0.27727614990E+02  0.13325224368E+02  0.68739369477E+01  0.31521948649E+02  0.00000000000E+00 0. -1.
</event>
<event>
 7    1  0.3461631E-013  0.5930196E+02  0.7816164E-02  0.1266605E+00
        -11   -1    0    0    0    0  0.00000000000E+00  0.00000000000E+00  0.45593999997E+02  0.45594000000E+02  0.51100000000E-03 0. -1.
         11   -1    0    0    0    0 -0.00000000000E+00 -0.00000000000E+00 -0.45593999997E+02  0.45594000000E+02  0.51100000000E-03 0.  1.
    9900012    2    1    2    0    0  0.93410416127E+01  0.30484960471E+02  0.36309802083E+00  0.59301957388E+02  0.50000024365E+02 0.  0.
         12    1    1    2    0    0 -0.93410416127E+01 -0.30484960471E+02 -0.36309802083E+00  0.31886042612E+02  0.00000000000E+00 0. -1.
         11    1    3    3    0    0  0.12587519701E+02  0.11865674026E+02 -0.68694030162E+01  0.18612591716E+02  0.51100000000E-03 0. -1.
        -11    1    3    3    0    0  0.73970351031E+00  0.25180268434E+02  0.15363803648E+02  0.29506601677E+02  0.51100000000E-03 0.  1.
         12    1    3    3    0    0 -0.39861815988E+01 -0.65609819899E+01 -0.81313026113E+01  0.11182763995E+02  0.00000000000E+00 0. -1.
</event>
<event>
 7    1  0.3461631E-013  0.5930194E+02  0.7816164E-02  0.1266605E+00
        -11   -1    0    0    0    0  0.00000000000E+00  0.00000000000E+00  0.45593999997E+02  0.45594000000E+02  0.51100000000E-03 0.  1.
         11   -1    0    0    0    0 -0.00000000000E+00 -0.00000000000E+00 -0.45593999997E+02  0.45594000000E+02  0.51100000000E-03 0. -1.
    9900012    2    1    2    0    0  0.17713175804E+02  0.10322063075E+02  0.24421701910E+02  0.59301935531E+02  0.49999984503E+02 0.  0.
         12    1    1    2    0    0 -0.17713175804E+02 -0.10322063075E+02 -0.24421701910E+02  0.31886064469E+02  0.00000000000E+00 0. -1.
         11    1    3    3    0    0 -0.54643849716E+01  0.98228246476E+01  0.24236785419E+02  0.26716458502E+02  0.51100000000E-03 0. -1.
        -11    1    3    3    0    0  0.24922498525E+01 -0.88535548741E+01 -0.29712298712E+01  0.96656583038E+01  0.51100000000E-03 0.  1.
         12    1    3    3    0    0  0.20685310923E+02  0.93527933015E+01  0.31561463614E+01  0.22919818725E+02  0.00000000000E+00 0. -1.
</event>
<event>
 7    1  0.3461631E-013  0.5930187E+02  0.7816164E-02  0.1266605E+00
        -11   -1    0    0    0    0  0.00000000000E+00  0.00000000000E+00  0.45593999997E+02  0.45594000000E+02  0.51100000000E-03 0. -1.
         11   -1    0    0    0    0 -0.00000000000E+00 -0.00000000000E+00 -0.45593999997E+02  0.45594000000E+02  0.51100000000E-03 0.  1.
    9900012    2    1    2    0    0  0.14812138886E+02 -0.26845365229E+02 -0.87551209345E+01  0.59301870802E+02  0.49999866454E+02 0.  0.
         12    1    1    2    0    0 -0.14812138886E+02  0.26845365229E+02  0.87551209345E+01  0.31886129198E+02  0.00000000000E+00 0. -1.
         11    1    3    3    0    0 -0.13266929927E+02 -0.49399299974E+01  0.80272993330E+01  0.16274270273E+02  0.51100000000E-03 0. -1.
        -11    1    3    3    0    0  0.38465754094E+01 -0.81550799357E+01  0.22406046588E+01  0.92909515463E+01  0.51100000000E-03 0.  1.
        -12    1    3    3    0    0  0.24232493403E+02 -0.13750355295E+02 -0.19023024926E+02  0.33736648983E+02  0.00000000000E+00 0.  1.
</event>
<event>
 7    1  0.3461631E-013  0.5930195E+02  0.7816164E-02  0.1266605E+00
        -11   -1    0    0    0    0  0.00000000000E+00  0.00000000000E+00  0.45593999997E+02  0.45594000000E+02  0.51100000000E-03 0.  1.
         11   -1    0    0    0    0 -0.00000000000E+00 -0.00000000000E+00 -0.45593999997E+02  0.45594000000E+02  0.51100000000E-03 0. -1.
    9900012    2    1    2    0    0  0.30383602287E+02  0.92510463000E+01 -0.28240069155E+01  0.59301950376E+02  0.50000011577E+02 0.  0.
         12    1    1    2    0    0 -0.30383602287E+02 -0.92510463000E+01  0.28240069155E+01  0.31886049624E+02  0.00000000000E+00 0. -1.
         11    1    3    3    0    0  0.21127091102E+02  0.94197615539E+01  0.66759739432E+01  0.24076015337E+02  0.51100000000E-03 0. -1.
        -11    1    3    3    0    0  0.15987247257E+02  0.92859242090E+00  0.69205539944E+01  0.17445584730E+02  0.51100000000E-03 0.  1.
         12    1    3    3    0    0 -0.67307360719E+01 -0.10973076749E+01 -0.16420534853E+02  0.17780350308E+02  0.00000000000E+00 0. -1.
</event>
<event>
 7    1  0.3461631E-013  0.5930192E+02  0.7816164E-02  0.1266605E+00
        -11   -1    0    0    0    0  0.00000000000E+00  0.00000000000E+00  0.45593999997E+02  0.45594000000E+02  0.51100000000E-03 0.  1.
         11   -1    0    0    0    0 -0.00000000000E+00 -0.00000000000E+00 -0.45593999997E+02  0.45594000000E+02  0.51100000000E-03 0. -1.
    9900012    2    1    2    0    0  0.22906628299E+01  0.30750684609E+02  0.81160537516E+01  0.59301920457E+02  0.49999957013E+02 0.  0.
         12    1    1    2    0    0 -0.22906628299E+01 -0.30750684609E+02 -0.81160537516E+01  0.31886079543E+02  0.00000000000E+00 0. -1.
         11    1    3    3    0    0 -0.16774402713E+02  0.11540928047E+02 -0.10550240749E+02  0.22932099483E+02  0.51100000000E-03 0. -1.
        -11    1    3    3    0    0  0.68217908577E+01 -0.91646052066E+00  0.10697094995E+01  0.69657023384E+01  0.51100000000E-03 0.  1.
        -12    1    3    3    0    0  0.12243274685E+02  0.20126217082E+02  0.17596585001E+02  0.29404118636E+02  0.00000000000E+00 0.  1.
</event>
<event>
 7    1  0.3461631E-013  0.5930198E+02  0.7816164E-02  0.1266605E+00
        -11   -1    0    0    0    0  0.00000000000E+00  0.00000000000E+00  0.45593999997E+02  0.45594000000E+02  0.51100000000E-03 0.  1.
         11   -1    0    0    0    0 -0.00000000000E+00 -0.00000000000E+00 -0.45593999997E+02  0.45594000000E+02  0.51100000000E-03 0. -1.
    9900012    2    1    2    0    0 -0.79569446732E+01  0.15100760770E+02  0.26932733065E+02  0.59301983399E+02  0.50000071803E+02 0.  0.
         12    1    1    2    0    0  0.79569446732E+01 -0.15100760770E+02 -0.26932733065E+02  0.31886016601E+02  0.00000000000E+00 0. -1.
         11    1    3    3    0    0 -0.61415463653E+01 -0.24514062732E+01 -0.10984844508E+02  0.12821653310E+02  0.51100000000E-03 0. -1.
        -11    1    3    3    0    0 -0.16727181800E+01  0.13941370799E+02  0.76349794006E+01  0.15982888243E+02  0.51100000000E-03 0.  1.
        -12    1    3    3    0    0 -0.14268012798E+00  0.36107962438E+01  0.30282598172E+02  0.30497441846E+02  0.00000000000E+00 0.  1.
</event>
<event>
 7    1  0.3461631E-013  0.5930192E+02  0.7816164E-02  0.1266605E+00
        -11   -1    0    0    0    0  0.00000000000E+00  0.00000000000E+00  0.45593999997E+02  0.45594000000E+02  0.51100000000E-03 0.  1.
         11   -1    0    0    0    0 -0.00000000000E+00 -0.00000000000E+00 -0.45593999997E+02  0.45594000000E+02  0.51100000000E-03 0. -1.
    9900012    2    1    2    0    0  0.18095481873E+02 -0.19705638910E+02  0.17348292474E+02  0.59301922774E+02  0.49999961239E+02 0.  0.
         12    1    1    2    0    0 -0.18095481873E+02  0.19705638910E+02 -0.17348292474E+02  0.31886077226E+02  0.00000000000E+00 0. -1.
         11    1    3    3    0    0  0.58210989124E+01  0.11485433545E+02  0.64757357806E+00  0.12892623009E+02  0.51100000000E-03 0. -1.
        -11    1    3    3    0    0  0.10742142907E+02 -0.16174620187E+02 -0.49297358331E+01  0.20032829757E+02  0.51100000000E-03 0.  1.
        -12    1    3    3    0    0  0.15322400541E+01 -0.15016452268E+02  0.21630454729E+02  0.26376470008E+02  0.00000000000E+00 0.  1.
</event>
<event>
 7    1  0.3461631E-013  0.5930194E+02  0.7816164E-02  0.1266605E+00
        -11   -1    0    0    0    0  0.00000000000E+00  0.00000000000E+00  0.45593999997E+02  0.45594000000E+02  0.51100000000E-03 0.  1.
         11   -1    0    0    0    0 -0.00000000000E+00 -0.00000000000E+00 -0.45593999997E+02  0.45594000000E+02  0.51100000000E-03 0. -1.
    9900012    2    1    2    0    0  0.11076020928E+02 -0.18149418581E+02  0.23762178485E+02  0.59301940965E+02  0.49999994414E+02 0.  0.
         12    1    1    2    0    0 -0.11076020928E+02  0.18149418581E+02 -0.23762178485E+02  0.31886059035E+02  0.00000000000E+00 0. -1.
         11    1    3    3    0    0  0.19163458441E+02 -0.27137310036E+00 -0.15466887772E+01  0.19227689128E+02  0.51100000000E-03 0. -1.
        -11    1    3    3    0    0 -0.40919568705E+01  0.35443495993E+01  0.15039103700E+02  0.15983778198E+02  0.51100000000E-03 0.  1.
        -12    1    3    3    0    0 -0.39954806422E+01 -0.21422395080E+02  0.10269763562E+02  0.24090473639E+02  0.00000000000E+00 0.  1.
</event>
<event>
 7    1  0.3461631E-013  0.5930195E+02  0.7816164E-02  0.1266605E+00
        -11   -1    0    0    0    0  0.00000000000E+00  0.00000000000E+00  0.45593999997E+02  0.45594000000E+02  0.51100000000E-03 0. -1.
         11   -1    0    0    0    0 -0.00000000000E+00 -0.00000000000E+00 -0.45593999997E+02  0.45594000000E+02  0.51100000000E-03 0.  1.
    9900012    2    1    2    0    0 -0.18698049093E+02  0.54028315695E+01 -0.25256930550E+02  0.59301950234E+02  0.50000011319E+02 0.  0.
         12    1    1    2    0    0  0.18698049093E+02 -0.54028315695E+01  0.25256930550E+02  0.31886049766E+02  0.00000000000E+00 0. -1.
         11    1    3    3    0    0  0.30318968153E+01 -0.93848097917E+01 -0.79980544423E+00  0.98947835820E+01  0.51100000000E-03 0. -1.
        -11    1    3    3    0    0 -0.13580651574E+02  0.44218411470E+01  0.65501525355E+01  0.15712774255E+02  0.51100000000E-03 0.  1.
        -12    1    3    3    0    0 -0.81492943349E+01  0.10365800214E+02 -0.31007277642E+02  0.33694392397E+02  0.00000000000E+00 0.  1.
</event>
<event>
 7    1  0.3461631E-013  0.5930196E+02  0.7816164E-02  0.1266605E+00
        -11   -1    0    0    0    0  0.00000000000E+00  0.00000000000E+00  0.45593999997E+02  0.45594000000E+02  0.51100000000E-03 0. -1.
         11   -1    0    0    0    0 -0.00000000000E+00 -0.00000000000E+00 -0.45593999997E+02  0.45594000000E+02  0.51100000000E-03 0.  1.
    9900012    2    1    2    0    0 -0.26159243612E+02 -0.70342280206E+01 -0.16820610612E+02  0.59301963376E+02  0.50000035287E+02 0.  0.
         12    1    1    2    0    0  0.26159243612E+02  0.70342280206E+01  0.16820610612E+02  0.31886036624E+02  0.00000000000E+00 0. -1.
         11    1    3    3    0    0 -0.79362973821E+00 -0.52236744269E+01  0.61476291721E+00  0.53192627670E+01  0.51100000000E-03 0. -1.
        -11    1    3    3    0    0 -0.13707430064E+02 -0.22681816646E+02 -0.13541123455E+02  0.29761056264E+02  0.51100000000E-03 0.  1.
         12    1    3    3    0    0 -0.11658183810E+02  0.20871263052E+02 -0.38942500750E+01  0.24221644345E+02  0.00000000000E+00 0. -1.
</event>
<event>
 7    1  0.3461631E-013  0.5930196E+02  0.7816164E-02  0.1266605E+00
        -11   -1    0    0    0    0  0.00000000000E+00  0.00000000000E+00  0.45593999997E+02  0.45594000000E+02  0.51100000000E-03 0.  1.
         11   -1    0    0    0    0 -0.00000000000E+00 -0.00000000000E+00 -0.45593999997E+02  0.45594000000E+02  0.51100000000E-03 0. -1.
    9900012    2    1    2    0    0 -0.31506075916E+02  0.37231265236E+00  0.48936616382E+01  0.59301962922E+02  0.50000034459E+02 0.  0.
         12    1    1    2    0    0  0.31506075916E+02 -0.37231265236E+00 -0.48936616382E+01  0.31886037078E+02  0.00000000000E+00 0. -1.
         11    1    3    3    0    0 -0.17633987669E+02  0.44211295045E+01 -0.49774007387E+01  0.18848830881E+02  0.51100000000E-03 0. -1.
        -11    1    3    3    0    0 -0.24224030063E+02  0.53992558948E+01  0.35231638037E+01  0.25067275084E+02  0.51100000000E-03 0.  1.
        -12    1    3    3    0    0  0.10351941816E+02 -0.94480727469E+01  0.63478985732E+01  0.15385856957E+02  0.00000000000E+00 0.  1.
</event>
<event>
 7    1  0.3461631E-013  0.5930193E+02  0.7816164E-02  0.1266605E+00
        -11   -1    0    0    0    0  0.00000000000E+00  0.00000000000E+00  0.45593999997E+02  0.45594000000E+02  0.51100000000E-03 0.  1.
         11   -1    0    0    0    0 -0.00000000000E+00 -0.00000000000E+00 -0.45593999997E+02  0.45594000000E+02  0.51100000000E-03 0. -1.
    9900012    2    1    2    0    0 -0.21077325812E+02 -0.96990022273E+01  0.21872285678E+02  0.59301934260E+02  0.49999982186E+02 0.  0.
         12    1    1    2    0    0  0.21077325812E+02  0.96990022273E+01 -0.21872285678E+02  0.31886065740E+02  0.00000000000E+00 0. -1.
         11    1    3    3    0    0 -0.19819626175E+02 -0.94870295382E+00 -0.21176997409E+01  0.19955006176E+02  0.51100000000E-03 0. -1.
        -11    1    3    3    0    0 -0.15254633713E+02 -0.76388758701E+01  0.14607535757E+02  0.22459661071E+02  0.51100000000E-03 0.  1.
         12    1    3    3    0    0  0.13996934076E+02 -0.11114234033E+01  0.93824496620E+01  0.16887267013E+02  0.00000000000E+00 0. -1.
</event>
<event>
 7    1  0.3461631E-013  0.5930188E+02  0.7816164E-02  0.1266605E+00
        -11   -1    0    0    0    0  0.00000000000E+00  0.00000000000E+00  0.45593999997E+02  0.45594000000E+02  0.51100000000E-03 0. -1.
         11   -1    0    0    0    0 -0.00000000000E+00 -0.00000000000E+00 -0.45593999997E+02  0.45594000000E+02  0.51100000000E-03 0.  1.
    9900012    2    1    2    0    0 -0.29101365688E+02 -0.81170002042E+01 -0.10195576742E+02  0.59301875082E+02  0.49999874259E+02 0.  0.
         12    1    1    2    0    0  0.29101365688E+02  0.81170002042E+01  0.10195576742E+02  0.31886124918E+02  0.00000000000E+00 0. -1.
         11    1    3    3    0    0  0.42264895010E+01  0.69076821771E+00 -0.45821354423E+01  0.62718689165E+01  0.51100000000E-03 0. -1.
        -11    1    3    3    0    0  0.30479380206E+01 -0.88953964477E+01 -0.12868275426E+02  0.15937707389E+02  0.51100000000E-03 0.  1.
        -12    1    3    3    0    0 -0.36375793209E+02  0.87628025814E-01  0.72548341257E+01  0.37092298776E+02  0.00000000000E+00 0.  1.
</event>
<event>
 7    1  0.3461631E-013  0.5930195E+02  0.7816164E-02  0.1266605E+00
        -11   -1    0    0    0    0  0.00000000000E+00  0.00000000000E+00  0.45593999997E+02  0.45594000000E+02  0.51100000000E-03 0. -1.
         11   -1    0    0    0    0 -0.00000000000E+00 -0.00000000000E+00 -0.45593999997E+02  0.45594000000E+02  0.51100000000E-03 0.  1.
    9900012    2    1    2    0    0  0.27500865987E+02 -0.15574137063E+02 -0.42271646564E+01  0.59301948248E+02  0.50000007697E+02 0.  0.
         12    1    1    2    0    0 -0.27500865987E+02  0.15574137063E+02  0.42271646564E+01  0.31886051752E+02  0.00000000000E+00 0. -1.
         11    1    3    3    0    0  0.19132260726E+01 -0.56867075937E+01 -0.42661319949E+00  0.60150707680E+01  0.51100000000E-03 0. -1.
        -11    1    3    3    0    0  0.27425966781E+02 -0.24001105362E+02 -0.99553162061E+01  0.37780220136E+02  0.51100000000E-03 0.  1.
         12    1    3    3    0    0 -0.18383268661E+01  0.14113675893E+02  0.61547647492E+01  0.15506657345E+02  0.00000000000E+00 0. -1.
</event>
<event>
 7    1  0.3461631E-013  0.5930191E+02  0.7816164E-02  0.1266605E+00
        -11   -1    0    0    0    0  0.00000000000E+00  0.00000000000E+00  0.45593999997E+02  0.45594000000E+02  0.51100000000E-03 0. -1.
         11   -1    0    0    0    0 -0.00000000000E+00 -0.00000000000E+00 -0.45593999997E+02  0.45594000000E+02  0.51100000000E-03 0.  1.
    9900012    2    1    2    0    0 -0.10997029367E+02  0.20026667372E+02 -0.22242317825E+02  0.59301909567E+02  0.49999937151E+02 0.  0.
         12    1    1    2    0    0  0.10997029367E+02 -0.20026667372E+02  0.22242317825E+02  0.31886090433E+02  0.00000000000E+00 0. -1.
         11    1    3    3    0    0 -0.17073754532E+02  0.21252352016E+02 -0.20287696636E+01  0.27336632321E+02  0.51100000000E-03 0.  1.
        -11    1    3    3    0    0  0.43195796887E+00 -0.47730718774E+00  0.55463300688E+01  0.55835640349E+01  0.51100000000E-03 0. -1.
        -12    1    3    3    0    0  0.56447671960E+01 -0.74837745688E+00 -0.25759878230E+02  0.26381713211E+02  0.00000000000E+00 0.  1.
</event>
<event>
 7    1  0.3461631E-013  0.5930194E+02  0.7816164E-02  0.1266605E+00
        -11   -1    0    0    0    0  0.00000000000E+00  0.00000000000E+00  0.45593999997E+02  0.45594000000E+02  0.51100000000E-03 0. -1.
         11   -1    0    0    0    0 -0.00000000000E+00 -0.00000000000E+00 -0.45593999997E+02  0.45594000000E+02  0.51100000000E-03 0.  1.
    9900012    2    1    2    0    0  0.49978009365E+01 -0.31472466350E+02  0.11074762178E+01  0.59301942609E+02  0.49999997413E+02 0.  0.
         12    1    1    2    0    0 -0.49978009365E+01  0.31472466350E+02 -0.11074762178E+01  0.31886057391E+02  0.00000000000E+00 0. -1.
         11    1    3    3    0    0  0.86035989735E+01 -0.20728734366E+02 -0.39064671616E+01  0.22780755687E+02  0.51100000000E-03 0. -1.
        -11    1    3    3    0    0  0.14071995563E+02 -0.66298038814E+01 -0.42747822136E+01  0.16132238588E+02  0.51100000000E-03 0.  1.
        -12    1    3    3    0    0 -0.17677793600E+02 -0.41139281025E+01  0.92887255930E+01  0.20388948334E+02  0.00000000000E+00 0.  1.
</event>
<event>
 7    1  0.3461631E-013  0.5930194E+02  0.7816164E-02  0.1266605E+00
        -11   -1    0    0    0    0  0.00000000000E+00  0.00000000000E+00  0.45593999997E+02  0.45594000000E+02  0.51100000000E-03 0.  1.
         11   -1    0    0    0    0 -0.00000000000E+00 -0.00000000000E+00 -0.45593999997E+02  0.45594000000E+02  0.51100000000E-03 0. -1.
    9900012    2    1    2    0    0 -0.28046852816E+02 -0.73468143424E+01 -0.13270991308E+02  0.59301939658E+02  0.49999992030E+02 0.  0.
         12    1    1    2    0    0  0.28046852816E+02  0.73468143424E+01  0.13270991308E+02  0.31886060342E+02  0.00000000000E+00 0. -1.
         11    1    3    3    0    0 -0.21492870408E+02 -0.18244919871E+02 -0.26487999682E+02  0.38683778343E+02  0.51100000000E-03 0. -1.
        -11    1    3    3    0    0  0.15128028258E+01  0.61249400472E+00  0.48028612559E+01  0.50725928084E+01  0.51100000000E-03 0.  1.
        -12    1    3    3    0    0 -0.80667852337E+01  0.10285611524E+02  0.84141471188E+01  0.15545568506E+02  0.00000000000E+00 0.  1.
</event>
<event>
 7    1  0.3461631E-013  0.5930183E+02  0.7816164E-02  0.1266605E+00
        -11   -1    0    0    0    0  0.00000000000E+00  0.00000000000E+00  0.45593999997E+02  0.45594000000E+02  0.51100000000E-03 0.  1.
         11   -1    0    0    0    0 -0.00000000000E+00 -0.00000000000E+00 -0.45593999997E+02  0.45594000000E+02  0.51100000000E-03 0. -1.
    9900012    2    1    2    0    0 -0.14454186661E+01 -0.27807962802E+02  0.15535623838E+02  0.59301833119E+02  0.49999797729E+02 0.  0.
         12    1    1    2    0    0  0.14454186661E+01  0.27807962802E+02 -0.15535623838E+02  0.31886166881E+02  0.00000000000E+00 0. -1.
         11    1    3    3    0    0 -0.73958950063E+01  0.79305267521E+01  0.11423597681E+01  0.10904013188E+02  0.51100000000E-03 0. -1.
        -11    1    3    3    0    0  0.97261788530E+01 -0.32973426491E+01 -0.38739073538E+01  0.10976255376E+02  0.51100000000E-03 0.  1.
        -12    1    3    3    0    0 -0.37757025127E+01 -0.32441146905E+02  0.18267171423E+02  0.37421564555E+02  0.00000000000E+00 0.  1.
</event>
<event>
 7    1  0.4377067E-013  0.5930195E+02  0.7816164E-02  0.1266605E+00
        -11   -1    0    0    0    0  0.00000000000E+00  0.00000000000E+00  0.45593999997E+02  0.45594000000E+02  0.51100000000E-03 0. -1.
         11   -1    0    0    0    0 -0.00000000000E+00 -0.00000000000E+00 -0.45593999997E+02  0.45594000000E+02  0.51100000000E-03 0.  1.
    9900012    2    1    2    0    0  0.12895117422E+02 -0.15165652405E+02 -0.24908620646E+02  0.59301945859E+02  0.50000003340E+02 0.  0.
         12    1    1    2    0    0 -0.12895117422E+02  0.15165652405E+02  0.24908620646E+02  0.31886054141E+02  0.00000000000E+00 0. -1.
         11    1    3    3    0    0 -0.46747499515E+01 -0.14131016082E+02 -0.27464774818E+01  0.15135456433E+02  0.51100000000E-03 0. -1.
        -11    1    3    3    0    0  0.11318771785E+01 -0.12670909484E+02 -0.20278959681E+02  0.23938865869E+02  0.51100000000E-03 0.  1.
         12    1    3    3    0    0  0.16437990195E+02  0.11636273161E+02 -0.18831834826E+01  0.20227623557E+02  0.00000000000E+00 0. -1.
</event>
<event>
 7    1  0.3946610E-013  0.5930195E+02  0.7816164E-02  0.1266605E+00
        -11   -1    0    0    0    0  0.00000000000E+00  0.00000000000E+00  0.45593999997E+02  0.45594000000E+02  0.51100000000E-03 0. -1.
         11   -1    0    0    0    0 -0.00000000000E+00 -0.00000000000E+00 -0.45593999997E+02  0.45594000000E+02  0.51100000000E-03 0.  1.
    9900012    2    1    2    0    0 -0.47750993539E+01 -0.56502442643E+01 -0.31016018746E+02  0.59301948928E+02  0.50000008937E+02 0.  0.
         12    1    1    2    0    0  0.47750993539E+01  0.56502442643E+01  0.31016018746E+02  0.31886051072E+02  0.00000000000E+00 0. -1.
         11    1    3    3    0    0 -0.10173419762E+01  0.52295724780E+01  0.21128802220E+01  0.57312892174E+01  0.51100000000E-03 0. -1.
        -11    1    3    3    0    0 -0.22177399562E+02 -0.71207349550E+01 -0.17854897969E+02  0.29348582578E+02  0.51100000000E-03 0.  1.
         12    1    3    3    0    0  0.18419642184E+02 -0.37590817874E+01 -0.15274001000E+02  0.24222077132E+02  0.00000000000E+00 0. -1.
</event>
<event>
 7    1  0.3461631E-013  0.5930189E+02  0.7816164E-02  0.1266605E+00
        -11   -1    0    0    0    0  0.00000000000E+00  0.00000000000E+00  0.45593999997E+02  0.45594000000E+02  0.51100000000E-03 0. -1.
         11   -1    0    0    0    0 -0.00000000000E+00 -0.00000000000E+00 -0.45593999997E+02  0.45594000000E+02  0.51100000000E-03 0.  1.
    9900012    2    1    2    0    0 -0.12428872215E+02 -0.19319797299E+02 -0.22113177593E+02  0.59301889302E+02  0.49999900193E+02 0.  0.
         12    1    1    2    0    0  0.12428872215E+02  0.19319797299E+02  0.22113177593E+02  0.31886110698E+02  0.00000000000E+00 0. -1.
         11    1    3    3    0    0 -0.13830228362E+01  0.92443160759E+01  0.34775899949E+01  0.99731521752E+01  0.51100000000E-03 0.  1.
        -11    1    3    3    0    0 -0.20881775481E+02 -0.17099697874E+02 -0.14973033979E+02  0.30864866133E+02  0.51100000000E-03 0. -1.
         12    1    3    3    0    0  0.98359261027E+01 -0.11464415501E+02 -0.10617733609E+02  0.18463870993E+02  0.00000000000E+00 0. -1.
</event>
<event>
 7    1  0.3461631E-013  0.5930189E+02  0.7816164E-02  0.1266605E+00
        -11   -1    0    0    0    0  0.00000000000E+00  0.00000000000E+00  0.45593999997E+02  0.45594000000E+02  0.51100000000E-03 0.  1.
         11   -1    0    0    0    0 -0.00000000000E+00 -0.00000000000E+00 -0.45593999997E+02  0.45594000000E+02  0.51100000000E-03 0. -1.
    9900012    2    1    2    0    0  0.17401211741E+02  0.22558794903E+02  0.14318615999E+02  0.59301887636E+02  0.49999897156E+02 0.  0.
         12    1    1    2    0    0 -0.17401211741E+02 -0.22558794903E+02 -0.14318615999E+02  0.31886112364E+02  0.00000000000E+00 0. -1.
         11    1    3    3    0    0 -0.35848538980E+00  0.12670655958E+02  0.72047650120E+01  0.14580215133E+02  0.51100000000E-03 0. -1.
        -11    1    3    3    0    0  0.18210561229E+02 -0.15217371468E+01 -0.12419978932E+02  0.22095160130E+02  0.51100000000E-03 0.  1.
         12    1    3    3    0    0 -0.45086409858E+00  0.11409876092E+02  0.19533829920E+02  0.22626512374E+02  0.00000000000E+00 0. -1.
</event>
<event>
 7    1  0.3461631E-013  0.5930194E+02  0.7816164E-02  0.1266605E+00
        -11   -1    0    0    0    0  0.00000000000E+00  0.00000000000E+00  0.45593999997E+02  0.45594000000E+02  0.51100000000E-03 0. -1.
         11   -1    0    0    0    0 -0.00000000000E+00 -0.00000000000E+00 -0.45593999997E+02  0.45594000000E+02  0.51100000000E-03 0.  1.
    9900012    2    1    2    0    0 -0.13483212084E+02 -0.24211180584E+02  0.15771578882E+02  0.59301937625E+02  0.49999988322E+02 0.  0.
         12    1    1    2    0    0  0.13483212084E+02  0.24211180584E+02 -0.15771578882E+02  0.31886062375E+02  0.00000000000E+00 0. -1.
         11    1    3    3    0    0  0.40426183176E+01 -0.12053073410E+02  0.12326750785E+02  0.17707854942E+02  0.51100000000E-03 0. -1.
        -11    1    3    3    0    0  0.76854690738E+01 -0.11699803246E+02 -0.52073965716E+01  0.14935488281E+02  0.51100000000E-03 0.  1.
        -12    1    3    3    0    0 -0.25211299475E+02 -0.45830392811E+00  0.86522246690E+01  0.26658594401E+02  0.00000000000E+00 0.  1.
</event>
<event>
 7    1  0.3461631E-013  0.5930194E+02  0.7816164E-02  0.1266605E+00
        -11   -1    0    0    0    0  0.00000000000E+00  0.00000000000E+00  0.45593999997E+02  0.45594000000E+02  0.51100000000E-03 0.  1.
         11   -1    0    0    0    0 -0.00000000000E+00 -0.00000000000E+00 -0.45593999997E+02  0.45594000000E+02  0.51100000000E-03 0. -1.
    9900012    2    1    2    0    0 -0.27002613020E+02  0.16367926405E+02  0.44351974931E+01  0.59301935622E+02  0.49999984671E+02 0.  0.
         12    1    1    2    0    0  0.27002613020E+02 -0.16367926405E+02 -0.44351974931E+01  0.31886064378E+02  0.00000000000E+00 0. -1.
         11    1    3    3    0    0 -0.25446962081E+02  0.22850889488E+02  0.35656919709E+01  0.34386409947E+02  0.51100000000E-03 0.  1.
        -11    1    3    3    0    0  0.30402417093E+01  0.71951969380E+01  0.57319960965E+01  0.96886380952E+01  0.51100000000E-03 0. -1.
         12    1    3    3    0    0 -0.45958926485E+01 -0.13678160021E+02 -0.48624905744E+01  0.15226887581E+02  0.00000000000E+00 0. -1.
</event>
<event>
 7    1  0.3461631E-013  0.5930195E+02  0.7816164E-02  0.1266605E+00
        -11   -1    0    0    0    0  0.00000000000E+00  0.00000000000E+00  0.45593999997E+02  0.45594000000E+02  0.51100000000E-03 0. -1.
         11   -1    0    0    0    0 -0.00000000000E+00 -0.00000000000E+00 -0.45593999997E+02  0.45594000000E+02  0.51100000000E-03 0.  1.
    9900012    2    1    2    0    0  0.39757399645E+01  0.29320223336E+02  0.11884359015E+02  0.59301952990E+02  0.50000016346E+02 0.  0.
         12    1    1    2    0    0 -0.39757399645E+01 -0.29320223336E+02 -0.11884359015E+02  0.31886047010E+02  0.00000000000E+00 0. -1.
         11    1    3    3    0    0 -0.86977369872E+01  0.95307035735E+01  0.22727366373E+02  0.26134615394E+02  0.51100000000E-03 0. -1.
        -11    1    3    3    0    0 -0.27582902063E+01 -0.24612774428E+01 -0.35471676728E+01  0.51233241428E+01  0.51100000000E-03 0.  1.
        -12    1    3    3    0    0  0.15431767158E+02  0.22250797205E+02 -0.72958396851E+01  0.28044013453E+02  0.00000000000E+00 0.  1.
</event>
<event>
 7    1  0.3461631E-013  0.5930194E+02  0.7816164E-02  0.1266605E+00
        -11   -1    0    0    0    0  0.00000000000E+00  0.00000000000E+00  0.45593999997E+02  0.45594000000E+02  0.51100000000E-03 0. -1.
         11   -1    0    0    0    0 -0.00000000000E+00 -0.00000000000E+00 -0.45593999997E+02  0.45594000000E+02  0.51100000000E-03 0.  1.
    9900012    2    1    2    0    0  0.27584348442E+02 -0.76076300326E+01  0.14069427660E+02  0.59301935515E+02  0.49999984475E+02 0.  0.
         12    1    1    2    0    0 -0.27584348442E+02  0.76076300326E+01 -0.14069427660E+02  0.31886064485E+02  0.00000000000E+00 0. -1.
         11    1    3    3    0    0  0.91758756157E+01 -0.12391216467E+01 -0.27031043776E+01  0.96456668669E+01  0.51100000000E-03 0. -1.
        -11    1    3    3    0    0  0.22420708340E+02  0.18982963892E+01 -0.74877072197E+01  0.23714077071E+02  0.51100000000E-03 0.  1.
         12    1    3    3    0    0 -0.40122355143E+01 -0.82668047751E+01  0.24260239257E+02  0.25942191577E+02  0.00000000000E+00 0. -1.
</event>
<event>
 7    1  0.3461631E-013  0.5930195E+02  0.7816164E-02  0.1266605E+00
        -11   -1    0    0    0    0  0.00000000000E+00  0.00000000000E+00  0.45593999997E+02  0.45594000000E+02  0.51100000000E-03 0.  1.
         11   -1    0    0    0    0 -0.00000000000E+00 -0.00000000000E+00 -0.45593999997E+02  0.45594000000E+02  0.51100000000E-03 0. -1.
    9900012    2    1    2    0    0  0.30845617802E+02  0.72458537186E+01  0.35729420846E+01  0.59301945857E+02  0.50000003336E+02 0.  0.
         12    1    1    2    0    0 -0.30845617802E+02 -0.72458537186E+01 -0.35729420846E+01  0.31886054143E+02  0.00000000000E+00 0. -1.
         11    1    3    3    0    0 -0.43495714855E+01 -0.31639427933E+01 -0.40703834158E+01  0.67451706813E+01  0.51100000000E-03 0. -1.
        -11    1    3    3    0    0 -0.78620578377E+01  0.21976321134E+01  0.13301717772E+01  0.82710880522E+01  0.51100000000E-03 0.  1.
        -12    1    3    3    0    0  0.43057247125E+02  0.82121643985E+01  0.63131537232E+01  0.44285687124E+02  0.00000000000E+00 0.  1.
</event>
<event>
 7    1  0.3461631E-013  0.5930196E+02  0.7816164E-02  0.1266605E+00
        -11   -1    0    0    0    0  0.00000000000E+00  0.00000000000E+00  0.45593999997E+02  0.45594000000E+02  0.51100000000E-03 0.  1.
         11   -1    0    0    0    0 -0.00000000000E+00 -0.00000000000E+00 -0.45593999997E+02  0.45594000000E+02  0.51100000000E-03 0. -1.
    9900012    2    1    2    0    0 -0.11433307981E+01 -0.29367699048E+02  0.12367313370E+02  0.59301962418E+02  0.50000033539E+02 0.  0.
         12    1    1    2    0    0  0.11433307981E+01  0.29367699048E+02 -0.12367313370E+02  0.31886037582E+02  0.00000000000E+00 0. -1.
         11    1    3    3    0    0 -0.11603081324E+02 -0.10122326686E+01  0.69097871567E+01  0.13542572503E+02  0.51100000000E-03 0. -1.
        -11    1    3    3    0    0  0.12727276698E+01 -0.33046433181E+02  0.99104412689E+01  0.34523954410E+02  0.51100000000E-03 0.  1.
         12    1    3    3    0    0  0.91870228565E+01  0.46909668010E+01 -0.44529150557E+01  0.11235435505E+02  0.00000000000E+00 0. -1.
</event>
<event>
 7    1  0.3461631E-013  0.5930193E+02  0.7816164E-02  0.1266605E+00
        -11   -1    0    0    0    0  0.00000000000E+00  0.00000000000E+00  0.45593999997E+02  0.45594000000E+02  0.51100000000E-03 0.  1.
         11   -1    0    0    0    0 -0.00000000000E+00 -0.00000000000E+00 -0.45593999997E+02  0.45594000000E+02  0.51100000000E-03 0. -1.
    9900012    2    1    2    0    0 -0.30835167194E+02  0.79646569088E+01  0.15741325656E+01  0.59301934252E+02  0.49999982172E+02 0.  0.
         12    1    1    2    0    0  0.30835167194E+02 -0.79646569088E+01 -0.15741325656E+01  0.31886065748E+02  0.00000000000E+00 0. -1.
         11    1    3    3    0    0 -0.22146913900E+02 -0.10719755950E+02  0.11886248297E+02  0.27325480083E+02  0.51100000000E-03 0. -1.
        -11    1    3    3    0    0 -0.57010678105E+01 -0.55995431961E+00  0.46817798815E+01  0.73982961647E+01  0.51100000000E-03 0.  1.
         12    1    3    3    0    0 -0.29871854831E+01  0.19244367179E+02 -0.14993895613E+02  0.24578158004E+02  0.00000000000E+00 0. -1.
</event>
<event>
 7    1  0.3461631E-013  0.5930194E+02  0.7816164E-02  0.1266605E+00
        -11   -1    0    0    0    0  0.00000000000E+00  0.00000000000E+00  0.45593999997E+02  0.45594000000E+02  0.51100000000E-03 0.  1.
         11   -1    0    0    0    0 -0.00000000000E+00 -0.00000000000E+00 -0.45593999997E+02  0.45594000000E+02  0.51100000000E-03 0. -1.
    9900012    2    1    2    0    0 -0.12314157743E+02 -0.15975951623E+02  0.24695163967E+02  0.59301942944E+02  0.49999998024E+02 0.  0.
         12    1    1    2    0    0  0.12314157743E+02  0.15975951623E+02 -0.24695163967E+02  0.31886057056E+02  0.00000000000E+00 0. -1.
         11    1    3    3    0    0 -0.89248423607E+01 -0.29293977585E+01 -0.65620324132E+01  0.11458379119E+02  0.51100000000E-03 0. -1.
        -11    1    3    3    0    0 -0.17355603746E+02 -0.13799927284E+02  0.17796765364E+02  0.28432021246E+02  0.51100000000E-03 0.  1.
         12    1    3    3    0    0  0.13966288364E+02  0.75337341905E+00  0.13460431016E+02  0.19411542579E+02  0.00000000000E+00 0. -1.
</event>
<event>
 7    1  0.3461631E-013  0.5930196E+02  0.7816164E-02  0.1266605E+00
        -11   -1    0    0    0    0  0.00000000000E+00  0.00000000000E+00  0.45593999997E+02  0.45594000000E+02  0.51100000000E-03 0. -1.
         11   -1    0    0    0    0 -0.00000000000E+00 -0.00000000000E+00 -0.45593999997E+02  0.45594000000E+02  0.51100000000E-03 0.  1.
    9900012    2    1    2    0    0  0.68613734796E+00 -0.22959551092E+02 -0.22115784085E+02  0.59301957967E+02  0.50000025423E+02 0.  0.
         12    1    1    2    0    0 -0.68613734796E+00  0.22959551092E+02  0.22115784085E+02  0.31886042033E+02  0.00000000000E+00 0. -1.
         11    1    3    3    0    0  0.11200807059E+02  0.61674551763E+01 -0.60940462394E+01  0.14164497236E+02  0.51100000000E-03 0. -1.
        -11    1    3    3    0    0 -0.89184836724E+01  0.20039239596E+01 -0.97051144621E+01  0.13332078204E+02  0.51100000000E-03 0.  1.
         12    1    3    3    0    0 -0.15961860390E+01 -0.31130930228E+02 -0.63166233837E+01  0.31805382527E+02  0.00000000000E+00 0. -1.
</event>
<event>
 7    1  0.3461631E-013  0.5930195E+02  0.7816164E-02  0.1266605E+00
        -11   -1    0    0    0    0  0.00000000000E+00  0.00000000000E+00  0.45593999997E+02  0.45594000000E+02  0.51100000000E-03 0.  1.
         11   -1    0    0    0    0 -0.00000000000E+00 -0.00000000000E+00 -0.45593999997E+02  0.45594000000E+02  0.51100000000E-03 0. -1.
    9900012    2    1    2    0    0 -0.14093420810E+02 -0.34546661068E+01  0.28392976274E+02  0.59301947724E+02  0.50000006742E+02 0.  0.
         12    1    1    2    0    0  0.14093420810E+02  0.34546661068E+01 -0.28392976274E+02  0.31886052276E+02  0.00000000000E+00 0. -1.
         11    1    3    3    0    0  0.55184056256E+01 -0.12514000242E+02 -0.97254799779E-01  0.13677077958E+02  0.51100000000E-03 0. -1.
        -11    1    3    3    0    0  0.31566925284E+01 -0.26007511145E+01  0.17171851962E+02  0.17652226889E+02  0.51100000000E-03 0.  1.
         12    1    3    3    0    0 -0.22768518963E+02  0.11660085250E+02  0.11318379112E+02  0.27972642877E+02  0.00000000000E+00 0. -1.
</event>
<event>
 7    1  0.3461631E-013  0.5930204E+02  0.7816164E-02  0.1266604E+00
        -11   -1    0    0    0    0  0.00000000000E+00  0.00000000000E+00  0.45593999997E+02  0.45594000000E+02  0.51100000000E-03 0. -1.
         11   -1    0    0    0    0 -0.00000000000E+00 -0.00000000000E+00 -0.45593999997E+02  0.45594000000E+02  0.51100000000E-03 0.  1.
    9900012    2    1    2    0    0 -0.71554745128E+01 -0.25816894696E+02 -0.17291656650E+02  0.59302042950E+02  0.50000180411E+02 0.  0.
         12    1    1    2    0    0  0.71554745128E+01  0.25816894696E+02  0.17291656650E+02  0.31885957050E+02  0.00000000000E+00 0. -1.
         11    1    3    3    0    0 -0.64422090113E+01 -0.85838815473E+01 -0.25357210873E+00  0.10735426328E+02  0.51100000000E-03 0.  1.
        -11    1    3    3    0    0  0.12566841067E+02  0.10683079230E+01  0.79167989735E+01  0.14891020196E+02  0.51100000000E-03 0. -1.
         12    1    3    3    0    0 -0.13280106569E+02 -0.18301321072E+02 -0.24954883515E+02  0.33675596427E+02  0.00000000000E+00 0. -1.
</event>
<event>
 7    1  0.3461631E-013  0.5930195E+02  0.7816164E-02  0.1266605E+00
        -11   -1    0    0    0    0  0.00000000000E+00  0.00000000000E+00  0.45593999997E+02  0.45594000000E+02  0.51100000000E-03 0. -1.
         11   -1    0    0    0    0 -0.00000000000E+00 -0.00000000000E+00 -0.45593999997E+02  0.45594000000E+02  0.51100000000E-03 0.  1.
    9900012    2    1    2    0    0  0.97009437345E+01 -0.19156136769E+02 -0.23572317690E+02  0.59301952165E+02  0.50000014840E+02 0.  0.
         12    1    1    2    0    0 -0.97009437345E+01  0.19156136769E+02  0.23572317690E+02  0.31886047835E+02  0.00000000000E+00 0. -1.
         11    1    3    3    0    0  0.12497481637E+02 -0.44663646372E+01 -0.37225360329E+01  0.13783785225E+02  0.51100000000E-03 0. -1.
        -11    1    3    3    0    0 -0.27375507540E+01 -0.73842439971E+01  0.11160255004E+02  0.13659155741E+02  0.51100000000E-03 0.  1.
        -12    1    3    3    0    0 -0.58987148564E-01 -0.73055281344E+01 -0.31010036662E+02  0.31859011199E+02  0.00000000000E+00 0.  1.
</event>
<event>
 7    1  0.4535589E-013  0.5930194E+02  0.7816164E-02  0.1266605E+00
        -11   -1    0    0    0    0  0.00000000000E+00  0.00000000000E+00  0.45593999997E+02  0.45594000000E+02  0.51100000000E-03 0. -1.
         11   -1    0    0    0    0 -0.00000000000E+00 -0.00000000000E+00 -0.45593999997E+02  0.45594000000E+02  0.51100000000E-03 0.  1.
    9900012    2    1    2    0    0 -0.49837707636E+01 -0.44726947771E+01 -0.31174960362E+02  0.59301935283E+02  0.49999984052E+02 0.  0.
         12    1    1    2    0    0  0.49837707636E+01  0.44726947771E+01  0.31174960362E+02  0.31886064717E+02  0.00000000000E+00 0. -1.
         11    1    3    3    0    0 -0.80661583202E+01 -0.59014915883E+01  0.17945150836E+01  0.10154348707E+02  0.51100000000E-03 0. -1.
        -11    1    3    3    0    0 -0.66695232100E+01 -0.92179495268E+01 -0.32790736081E+02  0.34708579722E+02  0.51100000000E-03 0.  1.
         12    1    3    3    0    0  0.97519107665E+01  0.10646746338E+02 -0.17873936461E+00  0.14439006855E+02  0.00000000000E+00 0. -1.
</event>
<event>
 7    1  0.3461631E-013  0.5930195E+02  0.7816164E-02  0.1266605E+00
        -11   -1    0    0    0    0  0.00000000000E+00  0.00000000000E+00  0.45593999997E+02  0.45594000000E+02  0.51100000000E-03 0. -1.
         11   -1    0    0    0    0 -0.00000000000E+00 -0.00000000000E+00 -0.45593999997E+02  0.45594000000E+02  0.51100000000E-03 0.  1.
    9900012    2    1    2    0    0 -0.20137646859E+02 -0.13639720296E+02  0.20619246550E+02  0.59301951028E+02  0.50000012767E+02 0.  0.
         12    1    1    2    0    0  0.20137646859E+02  0.13639720296E+02 -0.20619246550E+02  0.31886048972E+02  0.00000000000E+00 0. -1.
         11    1    3    3    0    0 -0.51461693375E+01 -0.95002002283E+01  0.76795437658E+01  0.13255649963E+02  0.51100000000E-03 0. -1.
        -11    1    3    3    0    0 -0.81317661854E+01 -0.10789936687E+02 -0.12787126596E+02  0.18602660075E+02  0.51100000000E-03 0.  1.
         12    1    3    3    0    0 -0.68597113358E+01  0.66504166192E+01  0.25726829381E+02  0.27443640990E+02  0.00000000000E+00 0. -1.
</event>
<event>
 7    1  0.3494610E-013  0.5930199E+02  0.7816164E-02  0.1266605E+00
        -11   -1    0    0    0    0  0.00000000000E+00  0.00000000000E+00  0.45593999997E+02  0.45594000000E+02  0.51100000000E-03 0.  1.
         11   -1    0    0    0    0 -0.00000000000E+00 -0.00000000000E+00 -0.45593999997E+02  0.45594000000E+02  0.51100000000E-03 0. -1.
    9900012    2    1    2    0    0  0.22029946500E+01  0.27634171696E+02 -0.15754902654E+02  0.59301990711E+02  0.50000085138E+02 0.  0.
         12    1    1    2    0    0 -0.22029946500E+01 -0.27634171696E+02  0.15754902654E+02  0.31886009289E+02  0.00000000000E+00 0. -1.
         11    1    3    3    0    0  0.38850269701E+01 -0.14291156571E+01 -0.14863368843E+02  0.15429048569E+02  0.51100000000E-03 0. -1.
        -11    1    3    3    0    0 -0.90815352492E+00  0.25459771090E+02 -0.14814620187E+02  0.29470284328E+02  0.51100000000E-03 0.  1.
         12    1    3    3    0    0 -0.77387879519E+00  0.36035162628E+01  0.13923086376E+02  0.14402657814E+02  0.00000000000E+00 0. -1.
</event>
<event>
 7    1  0.3461631E-013  0.5930193E+02  0.7816164E-02  0.1266605E+00
        -11   -1    0    0    0    0  0.00000000000E+00  0.00000000000E+00  0.45593999997E+02  0.45594000000E+02  0.51100000000E-03 0.  1.
         11   -1    0    0    0    0 -0.00000000000E+00 -0.00000000000E+00 -0.45593999997E+02  0.45594000000E+02  0.51100000000E-03 0. -1.
    9900012    2    1    2    0    0 -0.12238031611E+02 -0.63671668393E+01  0.28747367367E+02  0.59301931540E+02  0.49999977226E+02 0.  0.
         12    1    1    2    0    0  0.12238031611E+02  0.63671668393E+01 -0.28747367367E+02  0.31886068460E+02  0.00000000000E+00 0. -1.
         11    1    3    3    0    0 -0.10551597445E+02 -0.15726156042E+02 -0.66417483929E+00  0.18949652265E+02  0.51100000000E-03 0. -1.
        -11    1    3    3    0    0 -0.15427569926E+00 -0.90216814333E+01  0.11757391503E+02  0.14820620503E+02  0.51100000000E-03 0.  1.
         12    1    3    3    0    0 -0.15321584659E+01  0.18380670636E+02  0.17654150703E+02  0.25531658772E+02  0.00000000000E+00 0. -1.
</event>
<event>
 7    1  0.3461631E-013  0.5930193E+02  0.7816164E-02  0.1266605E+00
        -11   -1    0    0    0    0  0.00000000000E+00  0.00000000000E+00  0.45593999997E+02  0.45594000000E+02  0.51100000000E-03 0. -1.
         11   -1    0    0    0    0 -0.00000000000E+00 -0.00000000000E+00 -0.45593999997E+02  0.45594000000E+02  0.51100000000E-03 0.  1.
    9900012    2    1    2    0    0  0.25767590704E+02 -0.52883294626E+00 -0.18774260941E+02  0.59301932998E+02  0.49999979885E+02 0.  0.
         12    1    1    2    0    0 -0.25767590704E+02  0.52883294626E+00  0.18774260941E+02  0.31886067002E+02  0.00000000000E+00 0. -1.
         11    1    3    3    0    0  0.12773344680E+02 -0.33789720995E+01  0.91123918530E+01  0.16050279508E+02  0.51100000000E-03 0. -1.
        -11    1    3    3    0    0  0.14041248690E+02  0.13393928563E+02 -0.85559163249E+01  0.21207491402E+02  0.51100000000E-03 0.  1.
        -12    1    3    3    0    0 -0.10470026663E+01 -0.10543789410E+02 -0.19330736469E+02  0.22044162088E+02  0.00000000000E+00 0.  1.
</event>
<event>
 7    1  0.3461631E-013  0.5930186E+02  0.7816164E-02  0.1266605E+00
        -11   -1    0    0    0    0  0.00000000000E+00  0.00000000000E+00  0.45593999997E+02  0.45594000000E+02  0.51100000000E-03 0. -1.
         11   -1    0    0    0    0 -0.00000000000E+00 -0.00000000000E+00 -0.45593999997E+02  0.45594000000E+02  0.51100000000E-03 0.  1.
    9900012    2    1    2    0    0  0.25871515805E+02  0.43510230217E+01  0.18123442976E+02  0.59301860116E+02  0.49999846966E+02 0.  0.
         12    1    1    2    0    0 -0.25871515805E+02 -0.43510230217E+01 -0.18123442976E+02  0.31886139884E+02  0.00000000000E+00 0. -1.
         11    1    3    3    0    0  0.51394940848E+01  0.12534291349E+00  0.12309083770E+02  0.13339552234E+02  0.51100000000E-03 0. -1.
        -11    1    3    3    0    0  0.23287455798E+02  0.55760721892E+01  0.20176167654E+02  0.31312552117E+02  0.51100000000E-03 0.  1.
        -12    1    3    3    0    0 -0.25554340778E+01 -0.13503920810E+01 -0.14361808448E+02  0.14649755765E+02  0.00000000000E+00 0.  1.
</event>
<event>
 7    1  0.3461631E-013  0.5930194E+02  0.7816164E-02  0.1266605E+00
        -11   -1    0    0    0    0  0.00000000000E+00  0.00000000000E+00  0.45593999997E+02  0.45594000000E+02  0.51100000000E-03 0.  1.
         11   -1    0    0    0    0 -0.00000000000E+00 -0.00000000000E+00 -0.45593999997E+02  0.45594000000E+02  0.51100000000E-03 0. -1.
    9900012    2    1    2    0    0 -0.13087207885E+02  0.23280048393E+02  0.17420818806E+02  0.59301943623E+02  0.49999999262E+02 0.  0.
         12    1    1    2    0    0  0.13087207885E+02 -0.23280048393E+02 -0.17420818806E+02  0.31886056377E+02  0.00000000000E+00 0. -1.
         11    1    3    3    0    0  0.36500035573E+00 -0.11887510134E+02 -0.15271847037E+01  0.11990763771E+02  0.51100000000E-03 0. -1.
        -11    1    3    3    0    0  0.50783686469E+01  0.87901617748E+01  0.48693018364E+00  0.10163359356E+02  0.51100000000E-03 0.  1.
        -12    1    3    3    0    0 -0.18530576887E+02  0.26377396752E+02  0.18461073327E+02  0.37147820495E+02  0.00000000000E+00 0.  1.
</event>
<event>
 7    1  0.3461631E-013  0.5930193E+02  0.7816164E-02  0.1266605E+00
        -11   -1    0    0    0    0  0.00000000000E+00  0.00000000000E+00  0.45593999997E+02  0.45594000000E+02  0.51100000000E-03 0. -1.
         11   -1    0    0    0    0 -0.00000000000E+00 -0.00000000000E+00 -0.45593999997E+02  0.45594000000E+02  0.51100000000E-03 0.  1.
    9900012    2    1    2    0    0  0.85175126870E+01  0.79148952326E+01 -0.29690540276E+02  0.59301925127E+02  0.49999965530E+02 0.  0.
         12    1    1    2    0    0 -0.85175126870E+01 -0.79148952326E+01  0.29690540276E+02  0.31886074873E+02  0.00000000000E+00 0. -1.
         11    1    3    3    0    0  0.91997728640E+00 -0.32353773496E+01  0.65639411815E+01  0.73755914269E+01  0.51100000000E-03 0. -1.
        -11    1    3    3    0    0 -0.21435998240E+01 -0.90317282918E+01  0.26089738378E-01  0.92826621762E+01  0.51100000000E-03 0.  1.
         12    1    3    3    0    0  0.97411352245E+01  0.20182000874E+02 -0.36280571196E+02  0.42643671524E+02  0.00000000000E+00 0. -1.
</event>
<event>
 7    1  0.3461631E-013  0.5930194E+02  0.7816164E-02  0.1266605E+00
        -11   -1    0    0    0    0  0.00000000000E+00  0.00000000000E+00  0.45593999997E+02  0.45594000000E+02  0.51100000000E-03 0. -1.
         11   -1    0    0    0    0 -0.00000000000E+00 -0.00000000000E+00 -0.45593999997E+02  0.45594000000E+02  0.51100000000E-03 0.  1.
    9900012    2    1    2    0    0  0.24166962370E+02  0.20792914496E+02 -0.57730674170E+00  0.59301942757E+02  0.49999997682E+02 0.  0.
         12    1    1    2    0    0 -0.24166962370E+02 -0.20792914496E+02  0.57730674170E+00  0.31886057243E+02  0.00000000000E+00 0. -1.
         11    1    3    3    0    0 -0.52351563652E+01  0.15989707494E+02 -0.56400241462E+01  0.17745069190E+02  0.51100000000E-03 0. -1.
        -11    1    3    3    0    0 -0.12952019432E+01 -0.24275196355E+01  0.93344059444E+01  0.97314713301E+01  0.51100000000E-03 0.  1.
        -12    1    3    3    0    0  0.30697320679E+02  0.72307266375E+01 -0.42716885399E+01  0.31825402237E+02  0.00000000000E+00 0.  1.
</event>
<event>
 7    1  0.3461631E-013  0.5930196E+02  0.7816164E-02  0.1266605E+00
        -11   -1    0    0    0    0  0.00000000000E+00  0.00000000000E+00  0.45593999997E+02  0.45594000000E+02  0.51100000000E-03 0.  1.
         11   -1    0    0    0    0 -0.00000000000E+00 -0.00000000000E+00 -0.45593999997E+02  0.45594000000E+02  0.51100000000E-03 0. -1.
    9900012    2    1    2    0    0 -0.43526640934E+01  0.29571094548E+02  0.11105148188E+02  0.59301958638E+02  0.50000026646E+02 0.  0.
         12    1    1    2    0    0  0.43526640934E+01 -0.29571094548E+02 -0.11105148188E+02  0.31886041362E+02  0.00000000000E+00 0. -1.
         11    1    3    3    0    0 -0.31434102946E+00  0.20421190288E+02  0.17633802134E+01  0.20499593486E+02  0.51100000000E-03 0. -1.
        -11    1    3    3    0    0  0.27908925942E+01  0.19690412978E+02 -0.42074992276E+01  0.20327432074E+02  0.51100000000E-03 0.  1.
        -12    1    3    3    0    0 -0.68292156581E+01 -0.10540508718E+02  0.13549267202E+02  0.18474933078E+02  0.00000000000E+00 0.  1.
</event>
<event>
 7    1  0.3461631E-013  0.5930195E+02  0.7816164E-02  0.1266605E+00
        -11   -1    0    0    0    0  0.00000000000E+00  0.00000000000E+00  0.45593999997E+02  0.45594000000E+02  0.51100000000E-03 0. -1.
         11   -1    0    0    0    0 -0.00000000000E+00 -0.00000000000E+00 -0.45593999997E+02  0.45594000000E+02  0.51100000000E-03 0.  1.
    9900012    2    1    2    0    0 -0.29590268953E+02  0.59042606282E+01 -0.10309031280E+02  0.59301946054E+02  0.50000003696E+02 0.  0.
         12    1    1    2    0    0  0.29590268953E+02 -0.59042606282E+01  0.10309031280E+02  0.31886053946E+02  0.00000000000E+00 0. -1.
         11    1    3    3    0    0  0.38699428166E-01  0.16020664251E+02 -0.11178029717E+01  0.16059659537E+02  0.51100000000E-03 0. -1.
        -11    1    3    3    0    0 -0.20412111436E+02  0.67802775259E+01  0.86568747580E+00  0.21526167138E+02  0.51100000000E-03 0.  1.
         12    1    3    3    0    0 -0.92168569455E+01 -0.16896681149E+02 -0.10056915784E+02  0.21716119379E+02  0.00000000000E+00 0. -1.
</event>
<event>
 7    1  0.3461631E-013  0.5930194E+02  0.7816164E-02  0.1266605E+00
        -11   -1    0    0    0    0  0.00000000000E+00  0.00000000000E+00  0.45593999997E+02  0.45594000000E+02  0.51100000000E-03 0.  1.
         11   -1    0    0    0    0 -0.00000000000E+00 -0.00000000000E+00 -0.45593999997E+02  0.45594000000E+02  0.51100000000E-03 0. -1.
    9900012    2    1    2    0    0  0.16300828579E+02 -0.74350788168E+01  0.26376571640E+02  0.59301938142E+02  0.49999989265E+02 0.  0.
         12    1    1    2    0    0 -0.16300828579E+02  0.74350788168E+01 -0.26376571640E+02  0.31886061858E+02  0.00000000000E+00 0. -1.
         11    1    3    3    0    0 -0.11497765298E+02 -0.58655814126E+01 -0.66473271115E+01  0.14518629761E+02  0.51100000000E-03 0. -1.
        -11    1    3    3    0    0  0.93543384345E+01 -0.57700665868E+01  0.15470309286E+02  0.18977033109E+02  0.51100000000E-03 0.  1.
        -12    1    3    3    0    0  0.18444255442E+02  0.42005691826E+01  0.17553589466E+02  0.25806275271E+02  0.00000000000E+00 0.  1.
</event>
<event>
 7    1  0.3461631E-013  0.5930194E+02  0.7816164E-02  0.1266605E+00
        -11   -1    0    0    0    0  0.00000000000E+00  0.00000000000E+00  0.45593999997E+02  0.45594000000E+02  0.51100000000E-03 0. -1.
         11   -1    0    0    0    0 -0.00000000000E+00 -0.00000000000E+00 -0.45593999997E+02  0.45594000000E+02  0.51100000000E-03 0.  1.
    9900012    2    1    2    0    0 -0.23913352870E+02 -0.19520596093E+02 -0.79886571338E+01  0.59301940976E+02  0.49999994434E+02 0.  0.
         12    1    1    2    0    0  0.23913352870E+02  0.19520596093E+02  0.79886571338E+01  0.31886059024E+02  0.00000000000E+00 0. -1.
         11    1    3    3    0    0 -0.92306834466E+01 -0.14075625040E+02 -0.56631037515E+01  0.17759489900E+02  0.51100000000E-03 0. -1.
        -11    1    3    3    0    0 -0.12387990544E+01 -0.18103588404E+02 -0.10916212220E+02  0.21176360067E+02  0.51100000000E-03 0.  1.
         12    1    3    3    0    0 -0.13443870369E+02  0.12658617350E+02  0.85906588374E+01  0.20366091009E+02  0.00000000000E+00 0. -1.
</event>
<event>
 7    1  0.3461631E-013  0.5930197E+02  0.7816164E-02  0.1266605E+00
        -11   -1    0    0    0    0  0.00000000000E+00  0.00000000000E+00  0.45593999997E+02  0.45594000000E+02  0.51100000000E-03 0.  1.
         11   -1    0    0    0    0 -0.00000000000E+00 -0.00000000000E+00 -0.45593999997E+02  0.45594000000E+02  0.51100000000E-03 0. -1.
    9900012    2    1    2    0    0  0.24264685315E+02 -0.98676030711E+01  0.18181704660E+02  0.59301969703E+02  0.50000046825E+02 0.  0.
         12    1    1    2    0    0 -0.24264685315E+02  0.98676030711E+01 -0.18181704660E+02  0.31886030297E+02  0.00000000000E+00 0. -1.
         11    1    3    3    0    0  0.77500797599E+01 -0.71321910838E+01 -0.10189400403E+02  0.14654547648E+02  0.51100000000E-03 0. -1.
        -11    1    3    3    0    0  0.53217103508E+01 -0.87735692194E+01 -0.30871315614E+01  0.10715712736E+02  0.51100000000E-03 0.  1.
        -12    1    3    3    0    0  0.11192895204E+02  0.60381572321E+01  0.31458236624E+02  0.33931709318E+02  0.00000000000E+00 0.  1.
</event>
<event>
 7    1  0.3461631E-013  0.5930196E+02  0.7816164E-02  0.1266605E+00
        -11   -1    0    0    0    0  0.00000000000E+00  0.00000000000E+00  0.45593999997E+02  0.45594000000E+02  0.51100000000E-03 0. -1.
         11   -1    0    0    0    0 -0.00000000000E+00 -0.00000000000E+00 -0.45593999997E+02  0.45594000000E+02  0.51100000000E-03 0.  1.
    9900012    2    1    2    0    0  0.28185578443E+02 -0.77455761547E+01 -0.12739659351E+02  0.59301957559E+02  0.50000024678E+02 0.  0.
         12    1    1    2    0    0 -0.28185578443E+02  0.77455761547E+01  0.12739659351E+02  0.31886042441E+02  0.00000000000E+00 0. -1.
         11    1    3    3    0    0  0.37688600445E-01 -0.74070286750E+01 -0.19360334442E+01  0.76559597688E+01  0.51100000000E-03 0. -1.
        -11    1    3    3    0    0  0.15944569660E+02 -0.20620138987E+02 -0.10134808074E+02  0.27966654581E+02  0.51100000000E-03 0.  1.
         12    1    3    3    0    0  0.12203320183E+02  0.20281591507E+02 -0.66881783351E+00  0.23679343210E+02  0.00000000000E+00 0. -1.
</event>
<event>
 7    1  0.3461631E-013  0.5930195E+02  0.7816164E-02  0.1266605E+00
        -11   -1    0    0    0    0  0.00000000000E+00  0.00000000000E+00  0.45593999997E+02  0.45594000000E+02  0.51100000000E-03 0.  1.
         11   -1    0    0    0    0 -0.00000000000E+00 -0.00000000000E+00 -0.45593999997E+02  0.45594000000E+02  0.51100000000E-03 0. -1.
    9900012    2    1    2    0    0  0.18951550986E+00 -0.31874538192E+02 -0.83537141233E+00  0.59301953734E+02  0.50000017701E+02 0.  0.
         12    1    1    2    0    0 -0.18951550986E+00  0.31874538192E+02  0.83537141233E+00  0.31886046266E+02  0.00000000000E+00 0. -1.
         11    1    3    3    0    0 -0.17052722434E+01  0.69586931013E+01  0.70052554928E+00  0.71987567960E+01  0.51100000000E-03 0. -1.
        -11    1    3    3    0    0  0.42056806174E+01 -0.36253246417E+01  0.12850911323E+02  0.13999166058E+02  0.51100000000E-03 0.  1.
        -12    1    3    3    0    0 -0.23108928642E+01 -0.35207906652E+02 -0.14386808285E+02  0.38104030880E+02  0.00000000000E+00 0.  1.
</event>
<event>
 7    1  0.3461631E-013  0.5930198E+02  0.7816164E-02  0.1266605E+00
        -11   -1    0    0    0    0  0.00000000000E+00  0.00000000000E+00  0.45593999997E+02  0.45594000000E+02  0.51100000000E-03 0.  1.
         11   -1    0    0    0    0 -0.00000000000E+00 -0.00000000000E+00 -0.45593999997E+02  0.45594000000E+02  0.51100000000E-03 0. -1.
    9900012    2    1    2    0    0  0.41165374633E+01  0.15118550666E+02  0.27770516718E+02  0.59301983414E+02  0.50000071831E+02 0.  0.
         12    1    1    2    0    0 -0.41165374633E+01 -0.15118550666E+02 -0.27770516718E+02  0.31886016586E+02  0.00000000000E+00 0. -1.
         11    1    3    3    0    0  0.86410691175E+00  0.90957507384E+01 -0.86666652304E+01  0.12593269978E+02  0.51100000000E-03 0. -1.
        -11    1    3    3    0    0 -0.99931857939E+01  0.11165666162E+02  0.19765759736E+02  0.24803651371E+02  0.51100000000E-03 0.  1.
        -12    1    3    3    0    0  0.13245616345E+02 -0.51428662344E+01  0.16671422213E+02  0.21905062065E+02  0.00000000000E+00 0.  1.
</event>
<event>
 7    1  0.3461631E-013  0.5930187E+02  0.7816164E-02  0.1266605E+00
        -11   -1    0    0    0    0  0.00000000000E+00  0.00000000000E+00  0.45593999997E+02  0.45594000000E+02  0.51100000000E-03 0.  1.
         11   -1    0    0    0    0 -0.00000000000E+00 -0.00000000000E+00 -0.45593999997E+02  0.45594000000E+02  0.51100000000E-03 0. -1.
    9900012    2    1    2    0    0 -0.15373649651E+02 -0.17256830909E+02  0.21967655854E+02  0.59301871036E+02  0.49999866880E+02 0.  0.
         12    1    1    2    0    0  0.15373649651E+02  0.17256830909E+02 -0.21967655854E+02  0.31886128964E+02  0.00000000000E+00 0. -1.
         11    1    3    3    0    0 -0.80262852866E+01  0.14299145860E+01 -0.88817011130E+00  0.82008998063E+01  0.51100000000E-03 0. -1.
        -11    1    3    3    0    0 -0.11919605329E+02  0.10635267143E+02  0.91885422114E+01  0.18428651786E+02  0.51100000000E-03 0.  1.
         12    1    3    3    0    0  0.45722409649E+01 -0.29322012639E+02  0.13667283754E+02  0.32672319444E+02  0.00000000000E+00 0. -1.
</event>
<event>
 7    1  0.3461631E-013  0.5930195E+02  0.7816164E-02  0.1266605E+00
        -11   -1    0    0    0    0  0.00000000000E+00  0.00000000000E+00  0.45593999997E+02  0.45594000000E+02  0.51100000000E-03 0.  1.
         11   -1    0    0    0    0 -0.00000000000E+00 -0.00000000000E+00 -0.45593999997E+02  0.45594000000E+02  0.51100000000E-03 0. -1.
    9900012    2    1    2    0    0  0.24383184052E+01  0.20584254622E+02  0.24229384147E+02  0.59301953034E+02  0.50000016425E+02 0.  0.
         12    1    1    2    0    0 -0.24383184052E+01 -0.20584254622E+02 -0.24229384147E+02  0.31886046966E+02  0.00000000000E+00 0. -1.
         11    1    3    3    0    0  0.88571840455E+01 -0.70231958004E+01 -0.23839546650E+01  0.11552412240E+02  0.51100000000E-03 0. -1.
        -11    1    3    3    0    0 -0.40595141921E+00 -0.51574908066E+01  0.10022960255E+00  0.51744134169E+01  0.51100000000E-03 0.  1.
        -12    1    3    3    0    0 -0.60129142211E+01  0.32764941229E+02  0.26513109209E+02  0.42575127376E+02  0.00000000000E+00 0.  1.
</event>
<event>
 7    1  0.3461631E-013  0.5930193E+02  0.7816164E-02  0.1266605E+00
        -11   -1    0    0    0    0  0.00000000000E+00  0.00000000000E+00  0.45593999997E+02  0.45594000000E+02  0.51100000000E-03 0.  1.
         11   -1    0    0    0    0 -0.00000000000E+00 -0.00000000000E+00 -0.45593999997E+02  0.45594000000E+02  0.51100000000E-03 0. -1.
    9900012    2    1    2    0    0 -0.17228803556E+00  0.24473759186E+02  0.20438367212E+02  0.59301930531E+02  0.49999975386E+02 0.  0.
         12    1    1    2    0    0  0.17228803556E+00 -0.24473759186E+02 -0.20438367212E+02  0.31886069469E+02  0.00000000000E+00 0. -1.
         11    1    3    3    0    0  0.11154385451E+02  0.60845118842E+01 -0.69825067119E+01  0.14498172295E+02  0.51100000000E-03 0. -1.
        -11    1    3    3    0    0 -0.43804794424E+01 -0.31874698931E+01 -0.35109097033E+01  0.64556217106E+01  0.51100000000E-03 0.  1.
        -12    1    3    3    0    0 -0.69461940443E+01  0.21576717195E+02  0.30931783627E+02  0.38348136526E+02  0.00000000000E+00 0.  1.
</event>
<event>
 7    1  0.3461631E-013  0.5930185E+02  0.7816164E-02  0.1266605E+00
        -11   -1    0    0    0    0  0.00000000000E+00  0.00000000000E+00  0.45593999997E+02  0.45594000000E+02  0.51100000000E-03 0.  1.
         11   -1    0    0    0    0 -0.00000000000E+00 -0.00000000000E+00 -0.45593999997E+02  0.45594000000E+02  0.51100000000E-03 0. -1.
    9900012    2    1    2    0    0  0.17600285304E+02 -0.21310237709E+02  0.15900644734E+02  0.59301846626E+02  0.49999822363E+02 0.  0.
         12    1    1    2    0    0 -0.17600285304E+02  0.21310237709E+02 -0.15900644734E+02  0.31886153374E+02  0.00000000000E+00 0. -1.
         11    1    3    3    0    0 -0.68921428293E+01 -0.49946382755E+01 -0.61097299071E+01  0.10477444540E+02  0.51100000000E-03 0. -1.
        -11    1    3    3    0    0  0.10640923606E+02 -0.40556098432E+01 -0.77564348241E+01  0.13778225859E+02  0.51100000000E-03 0.  1.
         12    1    3    3    0    0  0.13851504528E+02 -0.12259989590E+02  0.29766809465E+02  0.35046176228E+02  0.00000000000E+00 0. -1.
</event>
<event>
 7    1  0.3461631E-013  0.5930223E+02  0.7816164E-02  0.1266604E+00
        -11   -1    0    0    0    0  0.00000000000E+00  0.00000000000E+00  0.45593999997E+02  0.45594000000E+02  0.51100000000E-03 0.  1.
         11   -1    0    0    0    0 -0.00000000000E+00 -0.00000000000E+00 -0.45593999997E+02  0.45594000000E+02  0.51100000000E-03 0. -1.
    9900012    2    1    2    0    0 -0.20267939090E+02 -0.17421913736E+02  0.17389353457E+02  0.59302234417E+02  0.50000529597E+02 0.  0.
         12    1    1    2    0    0  0.20267939090E+02  0.17421913736E+02 -0.17389353457E+02  0.31885765583E+02  0.00000000000E+00 0. -1.
         11    1    3    3    0    0 -0.10522114538E+02 -0.11441301341E+02  0.21351412314E+01  0.15690031838E+02  0.51100000000E-03 0. -1.
        -11    1    3    3    0    0 -0.95572693353E+01 -0.18082945186E+02 -0.40278010409E+01  0.20846042435E+02  0.51100000000E-03 0.  1.
         12    1    3    3    0    0 -0.18855521617E+00  0.12102332791E+02  0.19282013267E+02  0.22766160143E+02  0.00000000000E+00 0. -1.
</event>
<event>
 7    1  0.3461631E-013  0.5930193E+02  0.7816164E-02  0.1266605E+00
        -11   -1    0    0    0    0  0.00000000000E+00  0.00000000000E+00  0.45593999997E+02  0.45594000000E+02  0.51100000000E-03 0. -1.
         11   -1    0    0    0    0 -0.00000000000E+00 -0.00000000000E+00 -0.45593999997E+02  0.45594000000E+02  0.51100000000E-03 0.  1.
    9900012    2    1    2    0    0  0.15184581270E+02  0.11585694776E+02  0.25532751794E+02  0.59301933357E+02  0.49999980539E+02 0.  0.
         12    1    1    2    0    0 -0.15184581270E+02 -0.11585694776E+02 -0.25532751794E+02  0.31886066643E+02  0.00000000000E+00 0. -1.
         11    1    3    3    0    0  0.20520603837E+01 -0.44524238573E+01 -0.41222417798E+01  0.64053030822E+01  0.51100000000E-03 0. -1.
        -11    1    3    3    0    0  0.13882184664E+02  0.13230312607E+02 -0.36024919876E+01  0.19512410704E+02  0.51100000000E-03 0.  1.
         12    1    3    3    0    0 -0.74966377801E+00  0.28078060267E+01  0.33257485561E+02  0.33384219571E+02  0.00000000000E+00 0. -1.
</event>
<event>
 7    1  0.3461631E-013  0.5930198E+02  0.7816164E-02  0.1266605E+00
        -11   -1    0    0    0    0  0.00000000000E+00  0.00000000000E+00  0.45593999997E+02  0.45594000000E+02  0.51100000000E-03 0.  1.
         11   -1    0    0    0    0 -0.00000000000E+00 -0.00000000000E+00 -0.45593999997E+02  0.45594000000E+02  0.51100000000E-03 0. -1.
    9900012    2    1    2    0    0 -0.13970200995E+02 -0.28093660452E+02  0.56831400550E+01  0.59301978700E+02  0.50000063234E+02 0.  0.
         12    1    1    2    0    0  0.13970200995E+02  0.28093660452E+02 -0.56831400550E+01  0.31886021300E+02  0.00000000000E+00 0. -1.
         11    1    3    3    0    0  0.64366593778E+01 -0.25421880932E+02  0.91177979591E+01  0.27763948818E+02  0.51100000000E-03 0. -1.
        -11    1    3    3    0    0 -0.10718026839E+02  0.51057959550E+01  0.82701136918E+01  0.14468587781E+02  0.51100000000E-03 0.  1.
        -12    1    3    3    0    0 -0.96888335342E+01 -0.77775754748E+01 -0.11704771596E+02  0.17069442101E+02  0.00000000000E+00 0.  1.
</event>
<event>
 7    1  0.3461631E-013  0.5930180E+02  0.7816164E-02  0.1266605E+00
        -11   -1    0    0    0    0  0.00000000000E+00  0.00000000000E+00  0.45593999997E+02  0.45594000000E+02  0.51100000000E-03 0. -1.
         11   -1    0    0    0    0 -0.00000000000E+00 -0.00000000000E+00 -0.45593999997E+02  0.45594000000E+02  0.51100000000E-03 0.  1.
    9900012    2    1    2    0    0 -0.14301739066E+02 -0.61842327424E+00 -0.28492238747E+02  0.59301798337E+02  0.49999734295E+02 0.  0.
         12    1    1    2    0    0  0.14301739066E+02  0.61842327424E+00  0.28492238747E+02  0.31886201663E+02  0.00000000000E+00 0. -1.
         11    1    3    3    0    0  0.51522889791E+01 -0.81112297080E+01 -0.14098468961E+01  0.97121469116E+01  0.51100000000E-03 0. -1.
        -11    1    3    3    0    0 -0.19918389895E+01  0.12599363275E+01  0.88484524303E+01  0.91569630764E+01  0.51100000000E-03 0.  1.
        -12    1    3    3    0    0 -0.17462189055E+02  0.62328701062E+01 -0.35930844281E+02  0.40432688349E+02  0.00000000000E+00 0.  1.
</event>
<event>
 7    1  0.3461631E-013  0.5930194E+02  0.7816164E-02  0.1266605E+00
        -11   -1    0    0    0    0  0.00000000000E+00  0.00000000000E+00  0.45593999997E+02  0.45594000000E+02  0.51100000000E-03 0.  1.
         11   -1    0    0    0    0 -0.00000000000E+00 -0.00000000000E+00 -0.45593999997E+02  0.45594000000E+02  0.51100000000E-03 0. -1.
    9900012    2    1    2    0    0  0.10098218617E+02 -0.20305314120E+02  0.22415191133E+02  0.59301943576E+02  0.49999999176E+02 0.  0.
         12    1    1    2    0    0 -0.10098218617E+02  0.20305314120E+02 -0.22415191133E+02  0.31886056424E+02  0.00000000000E+00 0. -1.
         11    1    3    3    0    0  0.76681122730E+00 -0.12696112715E+02  0.10220142068E+02  0.16316573835E+02  0.51100000000E-03 0. -1.
        -11    1    3    3    0    0 -0.86865787289E+01 -0.16872147842E+02  0.12499293060E+02  0.22723519756E+02  0.51100000000E-03 0.  1.
         12    1    3    3    0    0  0.18017986118E+02  0.92629464367E+01 -0.30424399638E+00  0.20261849986E+02  0.00000000000E+00 0. -1.
</event>
<event>
 7    1  0.3461631E-013  0.5930190E+02  0.7816164E-02  0.1266605E+00
        -11   -1    0    0    0    0  0.00000000000E+00  0.00000000000E+00  0.45593999997E+02  0.45594000000E+02  0.51100000000E-03 0. -1.
         11   -1    0    0    0    0 -0.00000000000E+00 -0.00000000000E+00 -0.45593999997E+02  0.45594000000E+02  0.51100000000E-03 0.  1.
    9900012    2    1    2    0    0  0.13418166020E+02  0.28857736993E+02 -0.19766067806E+01  0.59301903688E+02  0.49999926430E+02 0.  0.
         12    1    1    2    0    0 -0.13418166020E+02 -0.28857736993E+02  0.19766067806E+01  0.31886096312E+02  0.00000000000E+00 0. -1.
         11    1    3    3    0    0 -0.57072843414E+01  0.55500906549E+01  0.90747081702E+01  0.12071740946E+02  0.51100000000E-03 0. -1.
        -11    1    3    3    0    0  0.15266892594E+01  0.31930691068E+01 -0.19015567938E+02  0.19342137800E+02  0.51100000000E-03 0.  1.
         12    1    3    3    0    0  0.17598761102E+02  0.20114577231E+02  0.79642529874E+01  0.27888024942E+02  0.00000000000E+00 0. -1.
</event>
<event>
 7    1  0.3461631E-013  0.5930196E+02  0.7816164E-02  0.1266605E+00
        -11   -1    0    0    0    0  0.00000000000E+00  0.00000000000E+00  0.45593999997E+02  0.45594000000E+02  0.51100000000E-03 0. -1.
         11   -1    0    0    0    0 -0.00000000000E+00 -0.00000000000E+00 -0.45593999997E+02  0.45594000000E+02  0.51100000000E-03 0.  1.
    9900012    2    1    2    0    0 -0.55808707376E+01  0.13478285597E+02 -0.28353297419E+02  0.59301956417E+02  0.50000022595E+02 0.  0.
         12    1    1    2    0    0  0.55808707376E+01 -0.13478285597E+02  0.28353297419E+02  0.31886043583E+02  0.00000000000E+00 0. -1.
         11    1    3    3    0    0  0.10448709333E+02  0.66508470176E+01  0.46115223172E+01  0.13216483311E+02  0.51100000000E-03 0. -1.
        -11    1    3    3    0    0  0.33938354869E+01 -0.12304541969E+01  0.28190097592E+01  0.45802787171E+01  0.51100000000E-03 0.  1.
        -12    1    3    3    0    0 -0.19423415557E+02  0.80578927759E+01 -0.35783829496E+02  0.41505194389E+02  0.00000000000E+00 0.  1.
</event>
<event>
 7    1  0.3461631E-013  0.5930202E+02  0.7816164E-02  0.1266604E+00
        -11   -1    0    0    0    0  0.00000000000E+00  0.00000000000E+00  0.45593999997E+02  0.45594000000E+02  0.51100000000E-03 0. -1.
         11   -1    0    0    0    0 -0.00000000000E+00 -0.00000000000E+00 -0.45593999997E+02  0.45594000000E+02  0.51100000000E-03 0.  1.
    9900012    2    1    2    0    0 -0.17790405179E+02  0.24836455037E+02 -0.91305910900E+01  0.59302020183E+02  0.50000138888E+02 0.  0.
         12    1    1    2    0    0  0.17790405179E+02 -0.24836455037E+02  0.91305910900E+01  0.31885979817E+02  0.00000000000E+00 0. -1.
         11    1    3    3    0    0  0.78707753257E+01  0.15782884224E+01 -0.77870485207E+01  0.11183837602E+02  0.51100000000E-03 0. -1.
        -11    1    3    3    0    0 -0.46371039332E+00 -0.52340153085E+00 -0.11882394646E+02  0.11902952545E+02  0.51100000000E-03 0.  1.
        -12    1    3    3    0    0 -0.25197470112E+02  0.23781568146E+02  0.10538852077E+02  0.36215230037E+02  0.00000000000E+00 0.  1.
</event>
<event>
 7    1  0.3461631E-013  0.5930194E+02  0.7816164E-02  0.1266605E+00
        -11   -1    0    0    0    0  0.00000000000E+00  0.00000000000E+00  0.45593999997E+02  0.45594000000E+02  0.51100000000E-03 0. -1.
         11   -1    0    0    0    0 -0.00000000000E+00 -0.00000000000E+00 -0.45593999997E+02  0.45594000000E+02  0.51100000000E-03 0.  1.
    9900012    2    1    2    0    0 -0.16739516892E+02 -0.22814095530E+02 -0.14697832170E+02  0.59301942684E+02  0.49999997550E+02 0.  0.
         12    1    1    2    0    0  0.16739516892E+02  0.22814095530E+02  0.14697832170E+02  0.31886057316E+02  0.00000000000E+00 0. -1.
         11    1    3    3    0    0 -0.26669463590E+02 -0.44637158325E+01 -0.12475853793E+02  0.29779724232E+02  0.51100000000E-03 0. -1.
        -11    1    3    3    0    0 -0.18971821764E+01 -0.10921048677E+02 -0.87336695943E+01  0.14111895311E+02  0.51100000000E-03 0.  1.
        -12    1    3    3    0    0  0.11827128874E+02 -0.74293310203E+01  0.65116912173E+01  0.15410323142E+02  0.00000000000E+00 0.  1.
</event>
<event>
 7    1  0.3461631E-013  0.5930193E+02  0.7816164E-02  0.1266605E+00
        -11   -1    0    0    0    0  0.00000000000E+00  0.00000000000E+00  0.45593999997E+02  0.45594000000E+02  0.51100000000E-03 0.  1.
         11   -1    0    0    0    0 -0.00000000000E+00 -0.00000000000E+00 -0.45593999997E+02  0.45594000000E+02  0.51100000000E-03 0. -1.
    9900012    2    1    2    0    0 -0.98892561501E+01  0.94385416580E+01  0.28806907529E+02  0.59301931299E+02  0.49999976785E+02 0.  0.
         12    1    1    2    0    0  0.98892561501E+01 -0.94385416580E+01 -0.28806907529E+02  0.31886068701E+02  0.00000000000E+00 0. -1.
         11    1    3    3    0    0  0.10980393979E+02 -0.91111385881E+01  0.12755977575E+02  0.19138883522E+02  0.51100000000E-03 0. -1.
        -11    1    3    3    0    0 -0.31972059525E+01 -0.33391714507E+01  0.10521429756E+02  0.11492287686E+02  0.51100000000E-03 0.  1.
         12    1    3    3    0    0 -0.17672444177E+02  0.21888851697E+02  0.55295001985E+01  0.28670760092E+02  0.00000000000E+00 0. -1.
</event>
<event>
 7    1  0.3461631E-013  0.5930194E+02  0.7816164E-02  0.1266605E+00
        -11   -1    0    0    0    0  0.00000000000E+00  0.00000000000E+00  0.45593999997E+02  0.45594000000E+02  0.51100000000E-03 0.  1.
         11   -1    0    0    0    0 -0.00000000000E+00 -0.00000000000E+00 -0.45593999997E+02  0.45594000000E+02  0.51100000000E-03 0. -1.
    9900012    2    1    2    0    0 -0.82436649182E+00  0.43458868251E+01  0.31577754489E+02  0.59301938923E+02  0.49999990690E+02 0.  0.
         12    1    1    2    0    0  0.82436649182E+00 -0.43458868251E+01 -0.31577754489E+02  0.31886061077E+02  0.00000000000E+00 0. -1.
         11    1    3    3    0    0 -0.20037019053E+01 -0.55985653054E+01  0.17953406580E+01  0.62114413097E+01  0.51100000000E-03 0. -1.
        -11    1    3    3    0    0 -0.17814916342E+02  0.25452251569E+01  0.27099016078E+02  0.32530079742E+02  0.51100000000E-03 0.  1.
         12    1    3    3    0    0  0.18994251755E+02  0.73992269736E+01  0.26833977538E+01  0.20560417872E+02  0.00000000000E+00 0. -1.
</event>
<event>
 7    1  0.3461631E-013  0.5930195E+02  0.7816164E-02  0.1266605E+00
        -11   -1    0    0    0    0  0.00000000000E+00  0.00000000000E+00  0.45593999997E+02  0.45594000000E+02  0.51100000000E-03 0.  1.
         11   -1    0    0    0    0 -0.00000000000E+00 -0.00000000000E+00 -0.45593999997E+02  0.45594000000E+02  0.51100000000E-03 0. -1.
    9900012    2    1    2    0    0  0.21392096938E+02  0.45028894256E-02  0.23645265944E+02  0.59301946101E+02  0.50000003781E+02 0.  0.
         12    1    1    2    0    0 -0.21392096938E+02 -0.45028894256E-02 -0.23645265944E+02  0.31886053899E+02  0.00000000000E+00 0. -1.
         11    1    3    3    0    0 -0.99131255221E+01 -0.96059682839E+01  0.17914066546E+02  0.22615447481E+02  0.51100000000E-03 0. -1.
        -11    1    3    3    0    0  0.31063756987E+01  0.47980318274E+01 -0.34089976743E+01  0.66552193655E+01  0.51100000000E-03 0.  1.
        -12    1    3    3    0    0  0.28198846762E+02  0.48124393459E+01  0.91401970723E+01  0.30031279255E+02  0.00000000000E+00 0.  1.
</event>
<event>
 7    1  0.3461631E-013  0.5930196E+02  0.7816164E-02  0.1266605E+00
        -11   -1    0    0    0    0  0.00000000000E+00  0.00000000000E+00  0.45593999997E+02  0.45594000000E+02  0.51100000000E-03 0.  1.
         11   -1    0    0    0    0 -0.00000000000E+00 -0.00000000000E+00 -0.45593999997E+02  0.45594000000E+02  0.51100000000E-03 0. -1.
    9900012    2    1    2    0    0 -0.25857991911E+02 -0.72486671158E+01  0.17191293805E+02  0.59301960683E+02  0.50000030376E+02 0.  0.
         12    1    1    2    0    0  0.25857991911E+02  0.72486671158E+01 -0.17191293805E+02  0.31886039317E+02  0.00000000000E+00 0. -1.
         11    1    3    3    0    0 -0.11179827704E+02 -0.17452951107E+02  0.54472928151E+01  0.21430516772E+02  0.51100000000E-03 0. -1.
        -11    1    3    3    0    0 -0.11455330204E+01 -0.10441584398E+02 -0.69866923671E-01  0.10504466302E+02  0.51100000000E-03 0.  1.
        -12    1    3    3    0    0 -0.13532631186E+02  0.20645868389E+02  0.11813867913E+02  0.27366977609E+02  0.00000000000E+00 0.  1.
</event>
<event>
 7    1  0.3461631E-013  0.5930193E+02  0.7816164E-02  0.1266605E+00
        -11   -1    0    0    0    0  0.00000000000E+00  0.00000000000E+00  0.45593999997E+02  0.45594000000E+02  0.51100000000E-03 0.  1.
         11   -1    0    0    0    0 -0.00000000000E+00 -0.00000000000E+00 -0.45593999997E+02  0.45594000000E+02  0.51100000000E-03 0. -1.
    9900012    2    1    2    0    0  0.45834149394E+01  0.97124261635E+01  0.30023036581E+02  0.59301927177E+02  0.49999969269E+02 0.  0.
         12    1    1    2    0    0 -0.45834149394E+01 -0.97124261635E+01 -0.30023036581E+02  0.31886072823E+02  0.00000000000E+00 0. -1.
         11    1    3    3    0    0  0.76100248847E+01 -0.61282656505E+01  0.12978760296E+02  0.16245502076E+02  0.51100000000E-03 0. -1.
        -11    1    3    3    0    0  0.50282564577E+01  0.13387737184E+02  0.26673313184E+02  0.30265169855E+02  0.51100000000E-03 0.  1.
         12    1    3    3    0    0 -0.80548664030E+01  0.24529546304E+01 -0.96290368982E+01  0.12791255246E+02  0.00000000000E+00 0. -1.
</event>
<event>
 7    1  0.3461631E-013  0.5930194E+02  0.7816164E-02  0.1266605E+00
        -11   -1    0    0    0    0  0.00000000000E+00  0.00000000000E+00  0.45593999997E+02  0.45594000000E+02  0.51100000000E-03 0.  1.
         11   -1    0    0    0    0 -0.00000000000E+00 -0.00000000000E+00 -0.45593999997E+02  0.45594000000E+02  0.51100000000E-03 0. -1.
    9900012    2    1    2    0    0  0.20966818037E+02 -0.16988162258E+02  0.16985753855E+02  0.59301938005E+02  0.49999989016E+02 0.  0.
         12    1    1    2    0    0 -0.20966818037E+02  0.16988162258E+02 -0.16985753855E+02  0.31886061995E+02  0.00000000000E+00 0. -1.
         11    1    3    3    0    0  0.27283707214E+02 -0.13120083951E+02  0.91376019986E+01  0.31623299208E+02  0.51100000000E-03 0.  1.
        -11    1    3    3    0    0  0.33882332357E+01  0.41845139233E+01 -0.65890900893E+01  0.85091944213E+01  0.51100000000E-03 0. -1.
         12    1    3    3    0    0 -0.97051224127E+01 -0.80525922303E+01  0.14437241946E+02  0.19169444376E+02  0.00000000000E+00 0. -1.
</event>
<event>
 7    1  0.3461631E-013  0.5930192E+02  0.7816164E-02  0.1266605E+00
        -11   -1    0    0    0    0  0.00000000000E+00  0.00000000000E+00  0.45593999997E+02  0.45594000000E+02  0.51100000000E-03 0. -1.
         11   -1    0    0    0    0 -0.00000000000E+00 -0.00000000000E+00 -0.45593999997E+02  0.45594000000E+02  0.51100000000E-03 0.  1.
    9900012    2    1    2    0    0 -0.19284812500E+02  0.17932911297E+02 -0.17978559718E+02  0.59301922939E+02  0.49999961540E+02 0.  0.
         12    1    1    2    0    0  0.19284812500E+02 -0.17932911297E+02  0.17978559718E+02  0.31886077061E+02  0.00000000000E+00 0. -1.
         11    1    3    3    0    0 -0.11151865841E+02 -0.12427892240E+02 -0.95418315373E+01  0.19231826919E+02  0.51100000000E-03 0. -1.
        -11    1    3    3    0    0 -0.11237602663E+02  0.30465938921E+01 -0.33257611420E+01  0.12108927920E+02  0.51100000000E-03 0.  1.
        -12    1    3    3    0    0  0.31046560035E+01  0.27314209646E+02 -0.51109670387E+01  0.27961168100E+02  0.00000000000E+00 0.  1.
</event>
<event>
 7    1  0.3461631E-013  0.5930196E+02  0.7816164E-02  0.1266605E+00
        -11   -1    0    0    0    0  0.00000000000E+00  0.00000000000E+00  0.45593999997E+02  0.45594000000E+02  0.51100000000E-03 0. -1.
         11   -1    0    0    0    0 -0.00000000000E+00 -0.00000000000E+00 -0.45593999997E+02  0.45594000000E+02  0.51100000000E-03 0.  1.
    9900012    2    1    2    0    0 -0.21079467076E+02  0.45890468527E+01 -0.23480121805E+02  0.59301962253E+02  0.50000033239E+02 0.  0.
         12    1    1    2    0    0  0.21079467076E+02 -0.45890468527E+01  0.23480121805E+02  0.31886037747E+02  0.00000000000E+00 0. -1.
         11    1    3    3    0    0 -0.36317420759E+01  0.45470058499E+01 -0.25382868018E+02  0.26041405526E+02  0.51100000000E-03 0. -1.
        -11    1    3    3    0    0 -0.12812986542E+02 -0.23914187950E+01 -0.12424338912E+02  0.18007101534E+02  0.51100000000E-03 0.  1.
        -12    1    3    3    0    0 -0.46347384576E+01  0.24334597978E+01  0.14327085125E+02  0.15253455193E+02  0.00000000000E+00 0.  1.
</event>
<event>
 7    1  0.3461631E-013  0.5930210E+02  0.7816164E-02  0.1266604E+00
        -11   -1    0    0    0    0  0.00000000000E+00  0.00000000000E+00  0.45593999997E+02  0.45594000000E+02  0.51100000000E-03 0.  1.
         11   -1    0    0    0    0 -0.00000000000E+00 -0.00000000000E+00 -0.45593999997E+02  0.45594000000E+02  0.51100000000E-03 0. -1.
    9900012    2    1    2    0    0 -0.12491142969E+02  0.77826017073E+01  0.28286270692E+02  0.59302099485E+02  0.50000283515E+02 0.  0.
         12    1    1    2    0    0  0.12491142969E+02 -0.77826017073E+01 -0.28286270692E+02  0.31885900515E+02  0.00000000000E+00 0. -1.
         11    1    3    3    0    0 -0.73973149587E+01  0.93399009058E+01  0.75539593439E+01  0.14107314399E+02  0.51100000000E-03 0.  1.
        -11    1    3    3    0    0  0.31499944161E+00 -0.42837339889E+01 -0.11563701747E+02  0.12335671846E+02  0.51100000000E-03 0. -1.
         12    1    3    3    0    0 -0.54088274521E+01  0.27264347904E+01  0.32296013095E+02  0.32859113240E+02  0.00000000000E+00 0. -1.
</event>
<event>
 7    1  0.3461631E-013  0.5930176E+02  0.7816164E-02  0.1266605E+00
        -11   -1    0    0    0    0  0.00000000000E+00  0.00000000000E+00  0.45593999997E+02  0.45594000000E+02  0.51100000000E-03 0.  1.
         11   -1    0    0    0    0 -0.00000000000E+00 -0.00000000000E+00 -0.45593999997E+02  0.45594000000E+02  0.51100000000E-03 0. -1.
    9900012    2    1    2    0    0  0.98509095711E+01 -0.26429565209E+02 -0.14871794525E+02  0.59301755177E+02  0.49999655581E+02 0.  0.
         12    1    1    2    0    0 -0.98509095711E+01  0.26429565209E+02  0.14871794525E+02  0.31886244823E+02  0.00000000000E+00 0. -1.
         11    1    3    3    0    0 -0.98525537653E+00 -0.78083111548E+01 -0.13959281702E+02  0.16025042813E+02  0.51100000000E-03 0. -1.
        -11    1    3    3    0    0  0.15322620975E+02  0.60109388135E+01 -0.63739678993E+01  0.17650540105E+02  0.51100000000E-03 0.  1.
        -12    1    3    3    0    0 -0.44864560269E+01 -0.24632192867E+02  0.54614550763E+01  0.25626172260E+02  0.00000000000E+00 0.  1.
</event>
<event>
 7    1  0.3461631E-013  0.5930196E+02  0.7816164E-02  0.1266605E+00
        -11   -1    0    0    0    0  0.00000000000E+00  0.00000000000E+00  0.45593999997E+02  0.45594000000E+02  0.51100000000E-03 0. -1.
         11   -1    0    0    0    0 -0.00000000000E+00 -0.00000000000E+00 -0.45593999997E+02  0.45594000000E+02  0.51100000000E-03 0.  1.
    9900012    2    1    2    0    0  0.26200415820E+01  0.13940998465E+02 -0.28557017597E+02  0.59301963712E+02  0.50000035900E+02 0.  0.
         12    1    1    2    0    0 -0.26200415820E+01 -0.13940998465E+02  0.28557017597E+02  0.31886036288E+02  0.00000000000E+00 0. -1.
         11    1    3    3    0    0 -0.11594634177E+01  0.35160072151E+01 -0.81781364700E+01  0.89771141542E+01  0.51100000000E-03 0. -1.
        -11    1    3    3    0    0 -0.12055272052E+02 -0.17811175760E+01 -0.26705517601E+02  0.29354499394E+02  0.51100000000E-03 0.  1.
         12    1    3    3    0    0  0.15834777051E+02  0.12206108826E+02  0.63266364738E+01  0.20970350165E+02  0.00000000000E+00 0. -1.
</event>
<event>
 7    1  0.3461631E-013  0.5930207E+02  0.7816164E-02  0.1266604E+00
        -11   -1    0    0    0    0  0.00000000000E+00  0.00000000000E+00  0.45593999997E+02  0.45594000000E+02  0.51100000000E-03 0.  1.
         11   -1    0    0    0    0 -0.00000000000E+00 -0.00000000000E+00 -0.45593999997E+02  0.45594000000E+02  0.51100000000E-03 0. -1.
    9900012    2    1    2    0    0  0.48606423703E+01  0.23194955909E+02  0.21332621270E+02  0.59302069652E+02  0.50000229108E+02 0.  0.
         12    1    1    2    0    0 -0.48606423703E+01 -0.23194955909E+02 -0.21332621270E+02  0.31885930348E+02  0.00000000000E+00 0. -1.
         11    1    3    3    0    0 -0.49447195413E+01  0.19415642940E+02  0.72256788215E+01  0.21298541659E+02  0.51100000000E-03 0. -1.
        -11    1    3    3    0    0 -0.61553149466E+01  0.13588183227E+02  0.63905426042E+00  0.14931008543E+02  0.51100000000E-03 0.  1.
         12    1    3    3    0    0  0.15960676858E+02 -0.98088702581E+01  0.13467888188E+02  0.23072519450E+02  0.00000000000E+00 0. -1.
</event>
<event>
 7    1  0.3461631E-013  0.5930187E+02  0.7816164E-02  0.1266605E+00
        -11   -1    0    0    0    0  0.00000000000E+00  0.00000000000E+00  0.45593999997E+02  0.45594000000E+02  0.51100000000E-03 0.  1.
         11   -1    0    0    0    0 -0.00000000000E+00 -0.00000000000E+00 -0.45593999997E+02  0.45594000000E+02  0.51100000000E-03 0. -1.
    9900012    2    1    2    0    0 -0.12733422717E+02 -0.28668097283E+02  0.57206027818E+01  0.59301872106E+02  0.49999868832E+02 0.  0.
         12    1    1    2    0    0  0.12733422717E+02  0.28668097283E+02 -0.57206027818E+01  0.31886127894E+02  0.00000000000E+00 0. -1.
         11    1    3    3    0    0 -0.19138766142E+01 -0.81855438142E+01  0.25468417156E+02  0.26819886724E+02  0.51100000000E-03 0. -1.
        -11    1    3    3    0    0  0.64335252102E+00 -0.71408689787E+01 -0.18870423779E+01  0.74139626000E+01  0.51100000000E-03 0.  1.
        -12    1    3    3    0    0 -0.11462898624E+02 -0.13341684490E+02 -0.17860771996E+02  0.25068022782E+02  0.00000000000E+00 0.  1.
</event>
<event>
 7    1  0.3461631E-013  0.5930196E+02  0.7816164E-02  0.1266605E+00
        -11   -1    0    0    0    0  0.00000000000E+00  0.00000000000E+00  0.45593999997E+02  0.45594000000E+02  0.51100000000E-03 0. -1.
         11   -1    0    0    0    0 -0.00000000000E+00 -0.00000000000E+00 -0.45593999997E+02  0.45594000000E+02  0.51100000000E-03 0.  1.
    9900012    2    1    2    0    0  0.30608243463E+02  0.30497115447E+01  0.83996684619E+01  0.59301956993E+02  0.50000023645E+02 0.  0.
         12    1    1    2    0    0 -0.30608243463E+02 -0.30497115447E+01 -0.83996684619E+01  0.31886043007E+02  0.00000000000E+00 0. -1.
         11    1    3    3    0    0  0.35815586698E+01  0.83227504304E+00  0.12153982785E+02  0.12698013311E+02  0.51100000000E-03 0. -1.
        -11    1    3    3    0    0  0.21216848417E+02 -0.80468871689E+01  0.12971751338E+02  0.26137585636E+02  0.51100000000E-03 0.  1.
         12    1    3    3    0    0  0.58098363760E+01  0.10264323671E+02 -0.16726065661E+02  0.20466358045E+02  0.00000000000E+00 0. -1.
</event>
<event>
 7    1  0.3461631E-013  0.5930190E+02  0.7816164E-02  0.1266605E+00
        -11   -1    0    0    0    0  0.00000000000E+00  0.00000000000E+00  0.45593999997E+02  0.45594000000E+02  0.51100000000E-03 0. -1.
         11   -1    0    0    0    0 -0.00000000000E+00 -0.00000000000E+00 -0.45593999997E+02  0.45594000000E+02  0.51100000000E-03 0.  1.
    9900012    2    1    2    0    0  0.78667975463E+01 -0.91424851773E+01  0.29516979046E+02  0.59301896587E+02  0.49999913480E+02 0.  0.
         12    1    1    2    0    0 -0.78667975463E+01  0.91424851773E+01 -0.29516979046E+02  0.31886103413E+02  0.00000000000E+00 0. -1.
         11    1    3    3    0    0  0.27738981973E+01  0.69001128427E+01 -0.21768988647E+01  0.77488681354E+01  0.51100000000E-03 0. -1.
        -11    1    3    3    0    0  0.32554776254E+01 -0.21950595645E+01 -0.83043156614E+01  0.91857541839E+01  0.51100000000E-03 0.  1.
         12    1    3    3    0    0  0.18374217235E+01 -0.13847538455E+02  0.39998193572E+02  0.42367274268E+02  0.00000000000E+00 0. -1.
</event>
<event>
 7    1  0.3461631E-013  0.5930207E+02  0.7816164E-02  0.1266604E+00
        -11   -1    0    0    0    0  0.00000000000E+00  0.00000000000E+00  0.45593999997E+02  0.45594000000E+02  0.51100000000E-03 0. -1.
         11   -1    0    0    0    0 -0.00000000000E+00 -0.00000000000E+00 -0.45593999997E+02  0.45594000000E+02  0.51100000000E-03 0.  1.
    9900012    2    1    2    0    0 -0.12814858291E+01 -0.30613932352E+02 -0.88236787082E+01  0.59302072603E+02  0.50000234490E+02 0.  0.
         12    1    1    2    0    0  0.12814858291E+01  0.30613932352E+02  0.88236787082E+01  0.31885927397E+02  0.00000000000E+00 0. -1.
         11    1    3    3    0    0  0.11883688583E+02 -0.19062734799E+01 -0.20887867146E+02  0.24107238064E+02  0.51100000000E-03 0. -1.
        -11    1    3    3    0    0 -0.23367910257E+01 -0.15626190003E+02  0.81057667173E+01  0.17757867570E+02  0.51100000000E-03 0.  1.
        -12    1    3    3    0    0 -0.10828383386E+02 -0.13081468870E+02  0.39584217203E+01  0.17436966969E+02  0.00000000000E+00 0.  1.
</event>
<event>
 7    1  0.3461631E-013  0.5930193E+02  0.7816164E-02  0.1266605E+00
        -11   -1    0    0    0    0  0.00000000000E+00  0.00000000000E+00  0.45593999997E+02  0.45594000000E+02  0.51100000000E-03 0.  1.
         11   -1    0    0    0    0 -0.00000000000E+00 -0.00000000000E+00 -0.45593999997E+02  0.45594000000E+02  0.51100000000E-03 0. -1.
    9900012    2    1    2    0    0  0.15868445463E+02  0.45358106445E+01  0.27282601298E+02  0.59301929794E+02  0.49999974041E+02 0.  0.
         12    1    1    2    0    0 -0.15868445463E+02 -0.45358106445E+01 -0.27282601298E+02  0.31886070206E+02  0.00000000000E+00 0. -1.
         11    1    3    3    0    0  0.20710112947E+01 -0.35298119054E+01 -0.47963959421E+01  0.63050832004E+01  0.51100000000E-03 0. -1.
        -11    1    3    3    0    0  0.42347565360E+01 -0.48130764858E+01 -0.77506744261E+01  0.10058420477E+02  0.51100000000E-03 0.  1.
        -12    1    3    3    0    0  0.95626776319E+01  0.12878699036E+02  0.39829671666E+02  0.42938426116E+02  0.00000000000E+00 0.  1.
</event>
<event>
 7    1  0.3461631E-013  0.5930192E+02  0.7816164E-02  0.1266605E+00
        -11   -1    0    0    0    0  0.00000000000E+00  0.00000000000E+00  0.45593999997E+02  0.45594000000E+02  0.51100000000E-03 0.  1.
         11   -1    0    0    0    0 -0.00000000000E+00 -0.00000000000E+00 -0.45593999997E+02  0.45594000000E+02  0.51100000000E-03 0. -1.
    9900012    2    1    2    0    0 -0.21703073581E+02 -0.11273553512E+02  0.20459848097E+02  0.59301924735E+02  0.49999964814E+02 0.  0.
         12    1    1    2    0    0  0.21703073581E+02  0.11273553512E+02 -0.20459848097E+02  0.31886075265E+02  0.00000000000E+00 0. -1.
         11    1    3    3    0    0 -0.17775902313E+02 -0.58498753989E+01  0.59403889888E+01  0.19633949344E+02  0.51100000000E-03 0. -1.
        -11    1    3    3    0    0 -0.48961896636E+01 -0.73783705701E+01 -0.10962846440E+02  0.14092445772E+02  0.51100000000E-03 0.  1.
        -12    1    3    3    0    0  0.96901839551E+00  0.19546924569E+01  0.25482305548E+02  0.25575529619E+02  0.00000000000E+00 0.  1.
</event>
<event>
 7    1  0.3461631E-013  0.5930193E+02  0.7816164E-02  0.1266605E+00
        -11   -1    0    0    0    0  0.00000000000E+00  0.00000000000E+00  0.45593999997E+02  0.45594000000E+02  0.51100000000E-03 0. -1.
         11   -1    0    0    0    0 -0.00000000000E+00 -0.00000000000E+00 -0.45593999997E+02  0.45594000000E+02  0.51100000000E-03 0.  1.
    9900012    2    1    2    0    0  0.14986030563E+02  0.27610018200E+02 -0.54614310621E+01  0.59301930216E+02  0.49999974810E+02 0.  0.
         12    1    1    2    0    0 -0.14986030563E+02 -0.27610018200E+02  0.54614310621E+01  0.31886069784E+02  0.00000000000E+00 0. -1.
         11    1    3    3    0    0  0.11780381567E+00  0.91746170249E+01  0.73088875769E+01  0.11730614356E+02  0.51100000000E-03 0. -1.
        -11    1    3    3    0    0  0.41479436086E+01  0.28583449080E+02 -0.15156411812E+02  0.32618029014E+02  0.51100000000E-03 0.  1.
         12    1    3    3    0    0  0.10720283139E+02 -0.10148047905E+02  0.23860931729E+01  0.14953286846E+02  0.00000000000E+00 0. -1.
</event>
<event>
 7    1  0.3461631E-013  0.5930201E+02  0.7816164E-02  0.1266605E+00
        -11   -1    0    0    0    0  0.00000000000E+00  0.00000000000E+00  0.45593999997E+02  0.45594000000E+02  0.51100000000E-03 0.  1.
         11   -1    0    0    0    0 -0.00000000000E+00 -0.00000000000E+00 -0.45593999997E+02  0.45594000000E+02  0.51100000000E-03 0. -1.
    9900012    2    1    2    0    0 -0.23984931004E+01 -0.31559909755E+02  0.38646796632E+01  0.59302009004E+02  0.50000118502E+02 0.  0.
         12    1    1    2    0    0  0.23984931004E+01  0.31559909755E+02 -0.38646796632E+01  0.31885990996E+02  0.00000000000E+00 0. -1.
         11    1    3    3    0    0  0.29706693041E+01 -0.18847646611E+02  0.59470148153E+01  0.19985635951E+02  0.51100000000E-03 0. -1.
        -11    1    3    3    0    0  0.11619735477E+02 -0.16224391704E+02  0.50084208752E+01  0.20575067889E+02  0.51100000000E-03 0.  1.
         12    1    3    3    0    0 -0.16988897881E+02  0.35121285597E+01 -0.70907560273E+01  0.18741305165E+02  0.00000000000E+00 0. -1.
</event>
<event>
 7    1  0.3461631E-013  0.5930193E+02  0.7816164E-02  0.1266605E+00
        -11   -1    0    0    0    0  0.00000000000E+00  0.00000000000E+00  0.45593999997E+02  0.45594000000E+02  0.51100000000E-03 0. -1.
         11   -1    0    0    0    0 -0.00000000000E+00 -0.00000000000E+00 -0.45593999997E+02  0.45594000000E+02  0.51100000000E-03 0.  1.
    9900012    2    1    2    0    0  0.15946448153E+02 -0.25513084330E+02 -0.10560066935E+02  0.59301926325E+02  0.49999967714E+02 0.  0.
         12    1    1    2    0    0 -0.15946448153E+02  0.25513084330E+02  0.10560066935E+02  0.31886073675E+02  0.00000000000E+00 0. -1.
         11    1    3    3    0    0  0.56004125962E+01  0.69088978352E+01  0.93486595075E+01  0.12903291262E+02  0.51100000000E-03 0. -1.
        -11    1    3    3    0    0  0.46246169809E+01 -0.17318029020E+01 -0.13707329060E+02  0.14569732109E+02  0.51100000000E-03 0.  1.
        -12    1    3    3    0    0  0.57214185759E+01 -0.30690179264E+02 -0.62013973825E+01  0.31828902954E+02  0.00000000000E+00 0.  1.
</event>
<event>
 7    1  0.3461631E-013  0.5930197E+02  0.7816164E-02  0.1266605E+00
        -11   -1    0    0    0    0  0.00000000000E+00  0.00000000000E+00  0.45593999997E+02  0.45594000000E+02  0.51100000000E-03 0.  1.
         11   -1    0    0    0    0 -0.00000000000E+00 -0.00000000000E+00 -0.45593999997E+02  0.45594000000E+02  0.51100000000E-03 0. -1.
    9900012    2    1    2    0    0 -0.76868021452E+01 -0.23335380664E+01  0.30857520990E+02  0.59301969692E+02  0.50000046806E+02 0.  0.
         12    1    1    2    0    0  0.76868021452E+01  0.23335380664E+01 -0.30857520990E+02  0.31886030308E+02  0.00000000000E+00 0. -1.
         11    1    3    3    0    0 -0.46019962280E+01  0.91079218555E+01  0.94786624284E+01  0.13927585990E+02  0.51100000000E-03 0. -1.
        -11    1    3    3    0    0 -0.15699855450E+02 -0.11673437774E+02  0.25464463824E+02  0.32112202178E+02  0.51100000000E-03 0.  1.
         12    1    3    3    0    0  0.12615049533E+02  0.23197785236E+00 -0.40856052623E+01  0.13262181525E+02  0.00000000000E+00 0. -1.
</event>
<event>
 7    1  0.3922399E-013  0.5930194E+02  0.7816164E-02  0.1266605E+00
        -11   -1    0    0    0    0  0.00000000000E+00  0.00000000000E+00  0.45593999997E+02  0.45594000000E+02  0.51100000000E-03 0. -1.
         11   -1    0    0    0    0 -0.00000000000E+00 -0.00000000000E+00 -0.45593999997E+02  0.45594000000E+02  0.51100000000E-03 0.  1.
    9900012    2    1    2    0    0 -0.44442653884E+01 -0.25504126741E+02  0.18614752554E+02  0.59301937397E+02  0.49999987908E+02 0.  0.
         12    1    1    2    0    0  0.44442653884E+01  0.25504126741E+02 -0.18614752554E+02  0.31886062603E+02  0.00000000000E+00 0. -1.
         11    1    3    3    0    0  0.28421669846E+01  0.54359540376E+00 -0.69259463701E+01  0.75061403207E+01  0.51100000000E-03 0. -1.
        -11    1    3    3    0    0  0.77382703128E+01 -0.28769102595E+02  0.16892208119E+02  0.34247463949E+02  0.51100000000E-03 0.  1.
         12    1    3    3    0    0 -0.15024702686E+02  0.27213804500E+01  0.86484908046E+01  0.17548333127E+02  0.00000000000E+00 0. -1.
</event>
<event>
 7    1  0.3461631E-013  0.5930195E+02  0.7816164E-02  0.1266605E+00
        -11   -1    0    0    0    0  0.00000000000E+00  0.00000000000E+00  0.45593999997E+02  0.45594000000E+02  0.51100000000E-03 0.  1.
         11   -1    0    0    0    0 -0.00000000000E+00 -0.00000000000E+00 -0.45593999997E+02  0.45594000000E+02  0.51100000000E-03 0. -1.
    9900012    2    1    2    0    0  0.28216084267E+02 -0.10323126330E+02  0.10677352514E+02  0.59301949675E+02  0.50000010300E+02 0.  0.
         12    1    1    2    0    0 -0.28216084267E+02  0.10323126330E+02 -0.10677352514E+02  0.31886050325E+02  0.00000000000E+00 0. -1.
         11    1    3    3    0    0  0.17378001014E+02  0.48760761075E+01 -0.69277673100E+01  0.19333002809E+02  0.51100000000E-03 0. -1.
        -11    1    3    3    0    0  0.20677363561E+02 -0.93748894418E+01  0.17278326454E+02  0.28530378216E+02  0.51100000000E-03 0.  1.
        -12    1    3    3    0    0 -0.98392803078E+01 -0.58243129960E+01  0.32679337024E+00  0.11438568650E+02  0.00000000000E+00 0.  1.
</event>
<event>
 7    1  0.3461631E-013  0.5930195E+02  0.7816164E-02  0.1266605E+00
        -11   -1    0    0    0    0  0.00000000000E+00  0.00000000000E+00  0.45593999997E+02  0.45594000000E+02  0.51100000000E-03 0.  1.
         11   -1    0    0    0    0 -0.00000000000E+00 -0.00000000000E+00 -0.45593999997E+02  0.45594000000E+02  0.51100000000E-03 0. -1.
    9900012    2    1    2    0    0  0.21072938315E+02  0.93166274411E+01  0.22042052466E+02  0.59301947359E+02  0.50000006076E+02 0.  0.
         12    1    1    2    0    0 -0.21072938315E+02 -0.93166274411E+01 -0.22042052466E+02  0.31886052641E+02  0.00000000000E+00 0. -1.
         11    1    3    3    0    0  0.62168161118E+01  0.50238232308E+01  0.14225522295E+01  0.81185748460E+01  0.51100000000E-03 0. -1.
        -11    1    3    3    0    0  0.69369105579E+01  0.18560451694E+02  0.27146218077E+02  0.33608455057E+02  0.51100000000E-03 0.  1.
         12    1    3    3    0    0  0.79192116450E+01 -0.14267647484E+02 -0.65267178407E+01  0.17574917456E+02  0.00000000000E+00 0. -1.
</event>
<event>
 7    1  0.3461631E-013  0.5930201E+02  0.7816164E-02  0.1266605E+00
        -11   -1    0    0    0    0  0.00000000000E+00  0.00000000000E+00  0.45593999997E+02  0.45594000000E+02  0.51100000000E-03 0. -1.
         11   -1    0    0    0    0 -0.00000000000E+00 -0.00000000000E+00 -0.45593999997E+02  0.45594000000E+02  0.51100000000E-03 0.  1.
    9900012    2    1    2    0    0 -0.21258057670E+02  0.19861466553E+02 -0.13051195092E+02  0.59302006792E+02  0.50000114466E+02 0.  0.
         12    1    1    2    0    0  0.21258057670E+02 -0.19861466553E+02  0.13051195092E+02  0.31885993208E+02  0.00000000000E+00 0. -1.
         11    1    3    3    0    0  0.28665080367E+01  0.39704869048E+01 -0.15205946482E+02  0.15975056909E+02  0.51100000000E-03 0. -1.
        -11    1    3    3    0    0  0.39273413690E+01  0.22545865285E+01  0.10161549579E+02  0.11124938685E+02  0.51100000000E-03 0.  1.
         12    1    3    3    0    0 -0.28051907076E+02  0.13636393120E+02 -0.80067981890E+01  0.32202011197E+02  0.00000000000E+00 0. -1.
</event>
<event>
 7    1  0.3461631E-013  0.5930195E+02  0.7816164E-02  0.1266605E+00
        -11   -1    0    0    0    0  0.00000000000E+00  0.00000000000E+00  0.45593999997E+02  0.45594000000E+02  0.51100000000E-03 0.  1.
         11   -1    0    0    0    0 -0.00000000000E+00 -0.00000000000E+00 -0.45593999997E+02  0.45594000000E+02  0.51100000000E-03 0. -1.
    9900012    2    1    2    0    0 -0.19035809330E+02  0.19263325839E+02  0.16830995875E+02  0.59301950050E+02  0.50000010984E+02 0.  0.
         12    1    1    2    0    0  0.19035809330E+02 -0.19263325839E+02 -0.16830995875E+02  0.31886049950E+02  0.00000000000E+00 0. -1.
         11    1    3    3    0    0 -0.34160793970E+01  0.22890933378E+01  0.15076671463E+01  0.43797953423E+01  0.51100000000E-03 0. -1.
        -11    1    3    3    0    0 -0.29363591003E+02  0.67835550785E+01  0.21182919111E+02  0.36836845120E+02  0.51100000000E-03 0.  1.
         12    1    3    3    0    0  0.13743861070E+02  0.10190677423E+02 -0.58595903818E+01  0.18085309588E+02  0.00000000000E+00 0. -1.
</event>
<event>
 7    1  0.3461631E-013  0.5930194E+02  0.7816164E-02  0.1266605E+00
        -11   -1    0    0    0    0  0.00000000000E+00  0.00000000000E+00  0.45593999997E+02  0.45594000000E+02  0.51100000000E-03 0.  1.
         11   -1    0    0    0    0 -0.00000000000E+00 -0.00000000000E+00 -0.45593999997E+02  0.45594000000E+02  0.51100000000E-03 0. -1.
    9900012    2    1    2    0    0  0.98949507039E+01  0.78361934025E+01  0.29281474467E+02  0.59301941551E+02  0.49999995482E+02 0.  0.
         12    1    1    2    0    0 -0.98949507039E+01 -0.78361934025E+01 -0.29281474467E+02  0.31886058449E+02  0.00000000000E+00 0. -1.
         11    1    3    3    0    0  0.21701602874E+02  0.15930805405E+02  0.25456875748E+02  0.37051351544E+02  0.51100000000E-03 0. -1.
        -11    1    3    3    0    0 -0.12881033952E+01 -0.51705944849E+01  0.87726753064E+01  0.10264214046E+02  0.51100000000E-03 0.  1.
        -12    1    3    3    0    0 -0.10518548775E+02 -0.29240175179E+01 -0.49480765870E+01  0.11986375961E+02  0.00000000000E+00 0.  1.
</event>
<event>
 7    1  0.3461631E-013  0.5930191E+02  0.7816164E-02  0.1266605E+00
        -11   -1    0    0    0    0  0.00000000000E+00  0.00000000000E+00  0.45593999997E+02  0.45594000000E+02  0.51100000000E-03 0. -1.
         11   -1    0    0    0    0 -0.00000000000E+00 -0.00000000000E+00 -0.45593999997E+02  0.45594000000E+02  0.51100000000E-03 0.  1.
    9900012    2    1    2    0    0  0.22302936123E+02  0.25670973414E+01 -0.22643146520E+02  0.59301905338E+02  0.49999929439E+02 0.  0.
         12    1    1    2    0    0 -0.22302936123E+02 -0.25670973414E+01  0.22643146520E+02  0.31886094662E+02  0.00000000000E+00 0. -1.
         11    1    3    3    0    0  0.20890364048E+02  0.18335609128E+02 -0.57933109065E+01  0.28393033013E+02  0.51100000000E-03 0. -1.
        -11    1    3    3    0    0  0.10289824804E+02 -0.60336127149E+01 -0.42049397877E+01  0.12647786200E+02  0.51100000000E-03 0.  1.
         12    1    3    3    0    0 -0.88772527293E+01 -0.97348990721E+01 -0.12644895826E+02  0.18261086124E+02  0.00000000000E+00 0. -1.
</event>
<event>
 7    1  0.3461631E-013  0.5930194E+02  0.7816164E-02  0.1266605E+00
        -11   -1    0    0    0    0  0.00000000000E+00  0.00000000000E+00  0.45593999997E+02  0.45594000000E+02  0.51100000000E-03 0.  1.
         11   -1    0    0    0    0 -0.00000000000E+00 -0.00000000000E+00 -0.45593999997E+02  0.45594000000E+02  0.51100000000E-03 0. -1.
    9900012    2    1    2    0    0  0.19216209415E+02  0.17529344538E+02  0.18443981801E+02  0.59301935820E+02  0.49999985031E+02 0.  0.
         12    1    1    2    0    0 -0.19216209415E+02 -0.17529344538E+02 -0.18443981801E+02  0.31886064180E+02  0.00000000000E+00 0. -1.
         11    1    3    3    0    0  0.53543273524E+01  0.10220185053E+02 -0.18660165219E+01  0.11687729542E+02  0.51100000000E-03 0. -1.
        -11    1    3    3    0    0  0.96515824566E+00  0.21158636312E+02  0.19882647282E+01  0.21273754203E+02  0.51100000000E-03 0.  1.
         12    1    3    3    0    0  0.12896723817E+02 -0.13849476827E+02  0.18321733595E+02  0.26340452075E+02  0.00000000000E+00 0. -1.
</event>
<event>
 7    1  0.3461631E-013  0.5930191E+02  0.7816164E-02  0.1266605E+00
        -11   -1    0    0    0    0  0.00000000000E+00  0.00000000000E+00  0.45593999997E+02  0.45594000000E+02  0.51100000000E-03 0.  1.
         11   -1    0    0    0    0 -0.00000000000E+00 -0.00000000000E+00 -0.45593999997E+02  0.45594000000E+02  0.51100000000E-03 0. -1.
    9900012    2    1    2    0    0  0.10541595733E+02  0.34987427526E+00  0.30091109042E+02  0.59301913755E+02  0.49999944790E+02 0.  0.
         12    1    1    2    0    0 -0.10541595733E+02 -0.34987427526E+00 -0.30091109042E+02  0.31886086245E+02  0.00000000000E+00 0. -1.
         11    1    3    3    0    0  0.12644018622E+02 -0.11850413696E+02  0.24043002610E+01  0.17495261407E+02  0.51100000000E-03 0. -1.
        -11    1    3    3    0    0 -0.92919588058E+01 -0.46319984759E+01  0.25132606370E+01  0.10682339988E+02  0.51100000000E-03 0.  1.
        -12    1    3    3    0    0  0.71895359164E+01  0.16832286447E+02  0.25173548144E+02  0.31124312360E+02  0.00000000000E+00 0.  1.
</event>
<event>
 7    1  0.3461631E-013  0.5930199E+02  0.7816164E-02  0.1266605E+00
        -11   -1    0    0    0    0  0.00000000000E+00  0.00000000000E+00  0.45593999997E+02  0.45594000000E+02  0.51100000000E-03 0.  1.
         11   -1    0    0    0    0 -0.00000000000E+00 -0.00000000000E+00 -0.45593999997E+02  0.45594000000E+02  0.51100000000E-03 0. -1.
    9900012    2    1    2    0    0  0.67773225071E+01 -0.28580337414E+02  0.12407655735E+02  0.59301988836E+02  0.50000081720E+02 0.  0.
         12    1    1    2    0    0 -0.67773225071E+01  0.28580337414E+02 -0.12407655735E+02  0.31886011164E+02  0.00000000000E+00 0. -1.
         11    1    3    3    0    0  0.72439534939E+01 -0.93314777344E+01 -0.42039376025E+01  0.12538916642E+02  0.51100000000E-03 0. -1.
        -11    1    3    3    0    0 -0.73000452795E+01 -0.69149008452E+01 -0.11522682048E+02  0.15293093756E+02  0.51100000000E-03 0.  1.
        -12    1    3    3    0    0  0.68334142926E+01 -0.12333958835E+02  0.28134275386E+02  0.31469978439E+02  0.00000000000E+00 0.  1.
</event>
<event>
 7    1  0.3461631E-013  0.5930207E+02  0.7816164E-02  0.1266604E+00
        -11   -1    0    0    0    0  0.00000000000E+00  0.00000000000E+00  0.45593999997E+02  0.45594000000E+02  0.51100000000E-03 0.  1.
         11   -1    0    0    0    0 -0.00000000000E+00 -0.00000000000E+00 -0.45593999997E+02  0.45594000000E+02  0.51100000000E-03 0. -1.
    9900012    2    1    2    0    0 -0.40511145031E+01  0.72236951114E+01  0.30791545868E+02  0.59302068985E+02  0.50000227891E+02 0.  0.
         12    1    1    2    0    0  0.40511145031E+01 -0.72236951114E+01 -0.30791545868E+02  0.31885931015E+02  0.00000000000E+00 0. -1.
         11    1    3    3    0    0  0.63890646838E+01  0.14454792188E+02  0.80519181588E+01  0.17736813441E+02  0.51100000000E-03 0.  1.
        -11    1    3    3    0    0  0.10472779254E+02  0.22421326945E+01  0.25906401432E+01  0.11018969142E+02  0.51100000000E-03 0. -1.
        -12    1    3    3    0    0 -0.20912958441E+02 -0.94732297710E+01  0.20148987566E+02  0.30546286403E+02  0.00000000000E+00 0.  1.
</event>
<event>
 7    1  0.3461631E-013  0.5930199E+02  0.7816164E-02  0.1266605E+00
        -11   -1    0    0    0    0  0.00000000000E+00  0.00000000000E+00  0.45593999997E+02  0.45594000000E+02  0.51100000000E-03 0.  1.
         11   -1    0    0    0    0 -0.00000000000E+00 -0.00000000000E+00 -0.45593999997E+02  0.45594000000E+02  0.51100000000E-03 0. -1.
    9900012    2    1    2    0    0 -0.34155894394E+01  0.31616157205E+02  0.23388016947E+01  0.59301989886E+02  0.50000083634E+02 0.  0.
         12    1    1    2    0    0  0.34155894394E+01 -0.31616157205E+02 -0.23388016947E+01  0.31886010114E+02  0.00000000000E+00 0. -1.
         11    1    3    3    0    0 -0.10325479552E+02  0.18636943067E+02  0.18870355667E+02  0.28461227980E+02  0.51100000000E-03 0.  1.
        -11    1    3    3    0    0  0.28403098868E+01  0.18374668635E+02 -0.87949468032E+01  0.20568103880E+02  0.51100000000E-03 0. -1.
        -12    1    3    3    0    0  0.40695802259E+01 -0.53954544962E+01 -0.77366071691E+01  0.10272658026E+02  0.00000000000E+00 0.  1.
</event>
<event>
 7    1  0.3461631E-013  0.5930196E+02  0.7816164E-02  0.1266605E+00
        -11   -1    0    0    0    0  0.00000000000E+00  0.00000000000E+00  0.45593999997E+02  0.45594000000E+02  0.51100000000E-03 0. -1.
         11   -1    0    0    0    0 -0.00000000000E+00 -0.00000000000E+00 -0.45593999997E+02  0.45594000000E+02  0.51100000000E-03 0.  1.
    9900012    2    1    2    0    0 -0.40636803604E+01  0.25844233077E+02 -0.18228593193E+02  0.59301960873E+02  0.50000030721E+02 0.  0.
         12    1    1    2    0    0  0.40636803604E+01 -0.25844233077E+02  0.18228593193E+02  0.31886039127E+02  0.00000000000E+00 0. -1.
         11    1    3    3    0    0 -0.16017563320E+01  0.23207244981E+02 -0.22247003165E+02  0.32188056683E+02  0.51100000000E-03 0.  1.
        -11    1    3    3    0    0 -0.14400000046E+02 -0.67040395543E+00  0.17717486962E+01  0.14524067492E+02  0.51100000000E-03 0. -1.
         12    1    3    3    0    0  0.11938076018E+02  0.33073920518E+01  0.22466612753E+01  0.12589836698E+02  0.00000000000E+00 0. -1.
</event>
<event>
 7    1  0.3461631E-013  0.5930197E+02  0.7816164E-02  0.1266605E+00
        -11   -1    0    0    0    0  0.00000000000E+00  0.00000000000E+00  0.45593999997E+02  0.45594000000E+02  0.51100000000E-03 0. -1.
         11   -1    0    0    0    0 -0.00000000000E+00 -0.00000000000E+00 -0.45593999997E+02  0.45594000000E+02  0.51100000000E-03 0.  1.
    9900012    2    1    2    0    0 -0.13517169120E+02 -0.24784838119E+02 -0.14822849882E+02  0.59301969513E+02  0.50000046480E+02 0.  0.
         12    1    1    2    0    0  0.13517169120E+02  0.24784838119E+02  0.14822849882E+02  0.31886030487E+02  0.00000000000E+00 0. -1.
         11    1    3    3    0    0 -0.14388223597E+02  0.45071844847E+01  0.64297570106E+01  0.16391383887E+02  0.51100000000E-03 0. -1.
        -11    1    3    3    0    0  0.61895444158E+01 -0.28935001985E+01  0.22236298597E+01  0.71852163146E+01  0.51100000000E-03 0.  1.
        -12    1    3    3    0    0 -0.53184899380E+01 -0.26398522405E+02 -0.23476236752E+02  0.35725369311E+02  0.00000000000E+00 0.  1.
</event>
<event>
 7    1  0.3461631E-013  0.5930193E+02  0.7816164E-02  0.1266605E+00
        -11   -1    0    0    0    0  0.00000000000E+00  0.00000000000E+00  0.45593999997E+02  0.45594000000E+02  0.51100000000E-03 0.  1.
         11   -1    0    0    0    0 -0.00000000000E+00 -0.00000000000E+00 -0.45593999997E+02  0.45594000000E+02  0.51100000000E-03 0. -1.
    9900012    2    1    2    0    0  0.56195787402E+01  0.19179511080E+02  0.24845280013E+02  0.59301933303E+02  0.49999980440E+02 0.  0.
         12    1    1    2    0    0 -0.56195787402E+01 -0.19179511080E+02 -0.24845280013E+02  0.31886066697E+02  0.00000000000E+00 0. -1.
         11    1    3    3    0    0 -0.38728265997E+01  0.10729227610E+02  0.96526751123E+01  0.14942866126E+02  0.51100000000E-03 0. -1.
        -11    1    3    3    0    0 -0.81569919307E+01  0.66857134245E+01  0.22752268748E+02  0.25077898931E+02  0.51100000000E-03 0.  1.
         12    1    3    3    0    0  0.17649397271E+02  0.17645700457E+01 -0.75596638467E+01  0.19281168246E+02  0.00000000000E+00 0. -1.
</event>
<event>
 7    1  0.3461631E-013  0.5930195E+02  0.7816164E-02  0.1266605E+00
        -11   -1    0    0    0    0  0.00000000000E+00  0.00000000000E+00  0.45593999997E+02  0.45594000000E+02  0.51100000000E-03 0.  1.
         11   -1    0    0    0    0 -0.00000000000E+00 -0.00000000000E+00 -0.45593999997E+02  0.45594000000E+02  0.51100000000E-03 0. -1.
    9900012    2    1    2    0    0 -0.10613972606E+02 -0.23054055061E+02  0.19302191117E+02  0.59301945820E+02  0.50000003269E+02 0.  0.
         12    1    1    2    0    0  0.10613972606E+02  0.23054055061E+02 -0.19302191117E+02  0.31886054180E+02  0.00000000000E+00 0. -1.
         11    1    3    3    0    0  0.16491372865E+02 -0.76657744309E+01 -0.25461913878E+01  0.18363348481E+02  0.51100000000E-03 0. -1.
        -11    1    3    3    0    0 -0.34819281786E+00 -0.31601410610E+01  0.76259849208E+01  0.82621653359E+01  0.51100000000E-03 0.  1.
         12    1    3    3    0    0 -0.26757152653E+02 -0.12228139569E+02  0.14222397584E+02  0.32676432003E+02  0.00000000000E+00 0. -1.
</event>
<event>
 7    1  0.3461631E-013  0.5930194E+02  0.7816164E-02  0.1266605E+00
        -11   -1    0    0    0    0  0.00000000000E+00  0.00000000000E+00  0.45593999997E+02  0.45594000000E+02  0.51100000000E-03 0. -1.
         11   -1    0    0    0    0 -0.00000000000E+00 -0.00000000000E+00 -0.45593999997E+02  0.45594000000E+02  0.51100000000E-03 0.  1.
    9900012    2    1    2    0    0 -0.18963660835E+02 -0.25492271854E+02 -0.26915334818E+01  0.59301941777E+02  0.49999995895E+02 0.  0.
         12    1    1    2    0    0  0.18963660835E+02  0.25492271854E+02  0.26915334818E+01  0.31886058223E+02  0.00000000000E+00 0. -1.
         11    1    3    3    0    0 -0.10664695195E+02  0.60191810965E+01 -0.11972338401E+02  0.17126095636E+02  0.51100000000E-03 0. -1.
        -11    1    3    3    0    0 -0.56029942785E+01 -0.23837196513E+01 -0.65264749553E+01  0.89258355275E+01  0.51100000000E-03 0.  1.
        -12    1    3    3    0    0 -0.26959713613E+01 -0.29127733299E+02  0.15807279875E+02  0.33250010613E+02  0.00000000000E+00 0.  1.
</event>
<event>
 7    1  0.3461631E-013  0.5930156E+02  0.7816164E-02  0.1266606E+00
        -11   -1    0    0    0    0  0.00000000000E+00  0.00000000000E+00  0.45593999997E+02  0.45594000000E+02  0.51100000000E-03 0. -1.
         11   -1    0    0    0    0 -0.00000000000E+00 -0.00000000000E+00 -0.45593999997E+02  0.45594000000E+02  0.51100000000E-03 0.  1.
    9900012    2    1    2    0    0  0.25609626914E+02  0.75512137447E+01 -0.17431897138E+02  0.59301563110E+02  0.49999305293E+02 0.  0.
         12    1    1    2    0    0 -0.25609626914E+02 -0.75512137447E+01  0.17431897138E+02  0.31886436890E+02  0.00000000000E+00 0. -1.
         11    1    3    3    0    0 -0.10553639192E+02  0.39406837543E+01  0.82597123434E+00  0.11295597256E+02  0.51100000000E-03 0. -1.
        -11    1    3    3    0    0  0.63490769915E+01  0.67762819789E+00  0.65222468344E+01  0.91274127029E+01  0.51100000000E-03 0.  1.
        -12    1    3    3    0    0  0.29814189114E+02  0.29329017925E+01 -0.24780115207E+02  0.38878553151E+02  0.00000000000E+00 0.  1.
</event>
<event>
 7    1  0.3461631E-013  0.5930188E+02  0.7816164E-02  0.1266605E+00
        -11   -1    0    0    0    0  0.00000000000E+00  0.00000000000E+00  0.45593999997E+02  0.45594000000E+02  0.51100000000E-03 0.  1.
         11   -1    0    0    0    0 -0.00000000000E+00 -0.00000000000E+00 -0.45593999997E+02  0.45594000000E+02  0.51100000000E-03 0. -1.
    9900012    2    1    2    0    0  0.22823940175E+02  0.18218370526E+01  0.22191737905E+02  0.59301881287E+02  0.49999885575E+02 0.  0.
         12    1    1    2    0    0 -0.22823940175E+02 -0.18218370526E+01 -0.22191737905E+02  0.31886118713E+02  0.00000000000E+00 0. -1.
         11    1    3    3    0    0 -0.53104820261E-01  0.17367155866E+02  0.20308598673E+02  0.26721903063E+02  0.51100000000E-03 0. -1.
        -11    1    3    3    0    0  0.69868808411E+01 -0.18160590877E+01  0.79331279500E+01  0.10726094062E+02  0.51100000000E-03 0.  1.
         12    1    3    3    0    0  0.15890164154E+02 -0.13729259725E+02 -0.60499887183E+01  0.21853884161E+02  0.00000000000E+00 0. -1.
</event>
<event>
 7    1  0.3461631E-013  0.5930197E+02  0.7816164E-02  0.1266605E+00
        -11   -1    0    0    0    0  0.00000000000E+00  0.00000000000E+00  0.45593999997E+02  0.45594000000E+02  0.51100000000E-03 0.  1.
         11   -1    0    0    0    0 -0.00000000000E+00 -0.00000000000E+00 -0.45593999997E+02  0.45594000000E+02  0.51100000000E-03 0. -1.
    9900012    2    1    2    0    0 -0.19381907589E+02 -0.20737950033E+02  0.14525769006E+02  0.59301970480E+02  0.50000048242E+02 0.  0.
         12    1    1    2    0    0  0.19381907589E+02  0.20737950033E+02 -0.14525769006E+02  0.31886029520E+02  0.00000000000E+00 0. -1.
         11    1    3    3    0    0  0.37166454431E+00 -0.89765570398E+01 -0.29408447052E+01  0.94533210388E+01  0.51100000000E-03 0. -1.
        -11    1    3    3    0    0 -0.26018831882E+02 -0.14809210959E+02 -0.11610526991E+01  0.29960647279E+02  0.51100000000E-03 0.  1.
         12    1    3    3    0    0  0.62652597491E+01  0.30478179666E+01  0.18627666411E+02  0.19888002162E+02  0.00000000000E+00 0. -1.
</event>
<event>
 7    1  0.3461631E-013  0.5930194E+02  0.7816164E-02  0.1266605E+00
        -11   -1    0    0    0    0  0.00000000000E+00  0.00000000000E+00  0.45593999997E+02  0.45594000000E+02  0.51100000000E-03 0. -1.
         11   -1    0    0    0    0 -0.00000000000E+00 -0.00000000000E+00 -0.45593999997E+02  0.45594000000E+02  0.51100000000E-03 0.  1.
    9900012    2    1    2    0    0  0.26020136308E+02  0.18418909505E+02  0.64576048294E+00  0.59301941488E+02  0.49999995368E+02 0.  0.
         12    1    1    2    0    0 -0.26020136308E+02 -0.18418909505E+02 -0.64576048294E+00  0.31886058512E+02  0.00000000000E+00 0. -1.
         11    1    3    3    0    0 -0.38055667113E+01 -0.18250277435E+01  0.48053371594E+01  0.63956492817E+01  0.51100000000E-03 0. -1.
        -11    1    3    3    0    0 -0.63066670847E+01  0.82369764528E+01  0.78197219429E+01  0.12991146305E+02  0.51100000000E-03 0.  1.
        -12    1    3    3    0    0  0.36132370104E+02  0.12006960795E+02 -0.11979298619E+02  0.39915145901E+02  0.00000000000E+00 0.  1.
</event>
<event>
 7    1  0.3461631E-013  0.5930193E+02  0.7816164E-02  0.1266605E+00
        -11   -1    0    0    0    0  0.00000000000E+00  0.00000000000E+00  0.45593999997E+02  0.45594000000E+02  0.51100000000E-03 0.  1.
         11   -1    0    0    0    0 -0.00000000000E+00 -0.00000000000E+00 -0.45593999997E+02  0.45594000000E+02  0.51100000000E-03 0. -1.
    9900012    2    1    2    0    0  0.16534339583E+02 -0.27233609829E+02  0.12913656130E+01  0.59301929140E+02  0.49999972848E+02 0.  0.
         12    1    1    2    0    0 -0.16534339583E+02  0.27233609829E+02 -0.12913656130E+01  0.31886070860E+02  0.00000000000E+00 0. -1.
         11    1    3    3    0    0  0.88826917924E+01 -0.24882470952E+02  0.71132573317E+01  0.27361250050E+02  0.51100000000E-03 0. -1.
        -11    1    3    3    0    0 -0.10226544045E+02 -0.74870172665E+01 -0.93801195055E+00  0.12708953432E+02  0.51100000000E-03 0.  1.
         12    1    3    3    0    0  0.17878191836E+02  0.51358783900E+01 -0.48838797681E+01  0.19231725657E+02  0.00000000000E+00 0. -1.
</event>
<event>
 7    1  0.3461631E-013  0.5930194E+02  0.7816164E-02  0.1266605E+00
        -11   -1    0    0    0    0  0.00000000000E+00  0.00000000000E+00  0.45593999997E+02  0.45594000000E+02  0.51100000000E-03 0.  1.
         11   -1    0    0    0    0 -0.00000000000E+00 -0.00000000000E+00 -0.45593999997E+02  0.45594000000E+02  0.51100000000E-03 0. -1.
    9900012    2    1    2    0    0 -0.28800568884E+02 -0.25326633771E+01  0.13447440254E+02  0.59301940331E+02  0.49999993259E+02 0.  0.
         12    1    1    2    0    0  0.28800568884E+02  0.25326633771E+01 -0.13447440254E+02  0.31886059669E+02  0.00000000000E+00 0. -1.
         11    1    3    3    0    0 -0.85378905534E+01  0.14881103822E+01  0.10167637622E+02  0.13360048753E+02  0.51100000000E-03 0. -1.
        -11    1    3    3    0    0 -0.20726365354E+02 -0.62457616038E+01  0.19757698111E+02  0.29307991976E+02  0.51100000000E-03 0.  1.
         12    1    3    3    0    0  0.46368702317E+00  0.22249878445E+01 -0.16477895479E+02  0.16633899602E+02  0.00000000000E+00 0. -1.
</event>
<event>
 7    1  0.3461631E-013  0.5930199E+02  0.7816164E-02  0.1266605E+00
        -11   -1    0    0    0    0  0.00000000000E+00  0.00000000000E+00  0.45593999997E+02  0.45594000000E+02  0.51100000000E-03 0.  1.
         11   -1    0    0    0    0 -0.00000000000E+00 -0.00000000000E+00 -0.45593999997E+02  0.45594000000E+02  0.51100000000E-03 0. -1.
    9900012    2    1    2    0    0  0.16443389903E+02 -0.21195433667E+02  0.17236191322E+02  0.59301987846E+02  0.50000079914E+02 0.  0.
         12    1    1    2    0    0 -0.16443389903E+02  0.21195433667E+02 -0.17236191322E+02  0.31886012154E+02  0.00000000000E+00 0. -1.
         11    1    3    3    0    0 -0.82171479411E+01 -0.97679232201E+00  0.14598784333E+02  0.16780945974E+02  0.51100000000E-03 0.  1.
        -11    1    3    3    0    0  0.10275419919E+02  0.55978416725E+01 -0.37450612321E+01  0.12285990794E+02  0.51100000000E-03 0. -1.
        -12    1    3    3    0    0  0.14385117925E+02 -0.25816483017E+02  0.63824682212E+01  0.30235051078E+02  0.00000000000E+00 0.  1.
</event>
<event>
 7    1  0.3461631E-013  0.5930194E+02  0.7816164E-02  0.1266605E+00
        -11   -1    0    0    0    0  0.00000000000E+00  0.00000000000E+00  0.45593999997E+02  0.45594000000E+02  0.51100000000E-03 0.  1.
         11   -1    0    0    0    0 -0.00000000000E+00 -0.00000000000E+00 -0.45593999997E+02  0.45594000000E+02  0.51100000000E-03 0. -1.
    9900012    2    1    2    0    0  0.23040908430E+02 -0.22730385676E+01  0.21924197454E+02  0.59301943492E+02  0.49999999023E+02 0.  0.
         12    1    1    2    0    0 -0.23040908430E+02  0.22730385676E+01 -0.21924197454E+02  0.31886056508E+02  0.00000000000E+00 0. -1.
         11    1    3    3    0    0  0.36615557752E+01 -0.35155762243E+01  0.46292544585E+01  0.68699537107E+01  0.51100000000E-03 0. -1.
        -11    1    3    3    0    0 -0.54720464948E+01 -0.13482884587E+01  0.25513841002E+02  0.26128858711E+02  0.51100000000E-03 0.  1.
         12    1    3    3    0    0  0.24851399150E+02  0.25908261154E+01 -0.82188980061E+01  0.26303131070E+02  0.00000000000E+00 0. -1.
</event>
<event>
 7    1  0.3461631E-013  0.5930196E+02  0.7816164E-02  0.1266605E+00
        -11   -1    0    0    0    0  0.00000000000E+00  0.00000000000E+00  0.45593999997E+02  0.45594000000E+02  0.51100000000E-03 0.  1.
         11   -1    0    0    0    0 -0.00000000000E+00 -0.00000000000E+00 -0.45593999997E+02  0.45594000000E+02  0.51100000000E-03 0. -1.
    9900012    2    1    2    0    0 -0.24374543158E+02 -0.16919186018E+02  0.11676571428E+02  0.59301960265E+02  0.50000029613E+02 0.  0.
         12    1    1    2    0    0  0.24374543158E+02  0.16919186018E+02 -0.11676571428E+02  0.31886039735E+02  0.00000000000E+00 0. -1.
         11    1    3    3    0    0 -0.52876862727E+01 -0.43716942786E+01  0.13844848501E+01  0.69991524876E+01  0.51100000000E-03 0. -1.
        -11    1    3    3    0    0 -0.18837996676E+02 -0.28562523348E+02  0.20175634319E+01  0.34274749032E+02  0.51100000000E-03 0.  1.
         12    1    3    3    0    0 -0.24886020910E+00  0.16015031608E+02  0.82745231459E+01  0.18028058745E+02  0.00000000000E+00 0. -1.
</event>
<event>
 7    1  0.3461631E-013  0.5930189E+02  0.7816164E-02  0.1266605E+00
        -11   -1    0    0    0    0  0.00000000000E+00  0.00000000000E+00  0.45593999997E+02  0.45594000000E+02  0.51100000000E-03 0.  1.
         11   -1    0    0    0    0 -0.00000000000E+00 -0.00000000000E+00 -0.45593999997E+02  0.45594000000E+02  0.51100000000E-03 0. -1.
    9900012    2    1    2    0    0  0.17691855301E+01  0.28405691518E+02  0.14377428993E+02  0.59301893425E+02  0.49999907713E+02 0.  0.
         12    1    1    2    0    0 -0.17691855301E+01 -0.28405691518E+02 -0.14377428993E+02  0.31886106575E+02  0.00000000000E+00 0. -1.
         11    1    3    3    0    0  0.40767490851E+01  0.58484659473E+01 -0.59919641680E+01  0.93127907681E+01  0.51100000000E-03 0. -1.
        -11    1    3    3    0    0 -0.35598247617E+01  0.61508822176E+01 -0.11846414032E+02  0.13814602060E+02  0.51100000000E-03 0.  1.
        -12    1    3    3    0    0  0.12522612067E+01  0.16406343353E+02  0.32215807193E+02  0.36174500597E+02  0.00000000000E+00 0.  1.
</event>
<event>
 7    1  0.3461631E-013  0.5930204E+02  0.7816164E-02  0.1266604E+00
        -11   -1    0    0    0    0  0.00000000000E+00  0.00000000000E+00  0.45593999997E+02  0.45594000000E+02  0.51100000000E-03 0. -1.
         11   -1    0    0    0    0 -0.00000000000E+00 -0.00000000000E+00 -0.45593999997E+02  0.45594000000E+02  0.51100000000E-03 0.  1.
    9900012    2    1    2    0    0  0.10383736823E+02 -0.30072769120E+01 -0.29997481541E+02  0.59302037514E+02  0.50000170497E+02 0.  0.
         12    1    1    2    0    0 -0.10383736823E+02  0.30072769120E+01  0.29997481541E+02  0.31885962486E+02  0.00000000000E+00 0. -1.
         11    1    3    3    0    0  0.11541797260E+02 -0.15030664943E+02 -0.70176970125E+01  0.20208464668E+02  0.51100000000E-03 0. -1.
        -11    1    3    3    0    0  0.13791178674E+02  0.65982676786E+01 -0.80394997338E+01  0.17273311836E+02  0.51100000000E-03 0.  1.
        -12    1    3    3    0    0 -0.14949239110E+02  0.54251203527E+01 -0.14940284794E+02  0.21820261010E+02  0.00000000000E+00 0.  1.
</event>
<event>
 7    1  0.3461631E-013  0.5930197E+02  0.7816164E-02  0.1266605E+00
        -11   -1    0    0    0    0  0.00000000000E+00  0.00000000000E+00  0.45593999997E+02  0.45594000000E+02  0.51100000000E-03 0.  1.
         11   -1    0    0    0    0 -0.00000000000E+00 -0.00000000000E+00 -0.45593999997E+02  0.45594000000E+02  0.51100000000E-03 0. -1.
    9900012    2    1    2    0    0 -0.94823039880E+01  0.30105765394E+02 -0.45219453535E+01  0.59301965617E+02  0.50000039374E+02 0.  0.
         12    1    1    2    0    0  0.94823039880E+01 -0.30105765394E+02  0.45219453535E+01  0.31886034383E+02  0.00000000000E+00 0. -1.
         11    1    3    3    0    0 -0.12833726790E+02  0.43463023016E+01  0.36913712921E+01  0.14043543331E+02  0.51100000000E-03 0. -1.
        -11    1    3    3    0    0 -0.10965530159E+02  0.21118942549E+02 -0.15639895343E+02  0.28475584500E+02  0.51100000000E-03 0.  1.
         12    1    3    3    0    0  0.14316952961E+02  0.46405205437E+01  0.74265786974E+01  0.16782837786E+02  0.00000000000E+00 0. -1.
</event>
<event>
 7    1  0.3461631E-013  0.5930195E+02  0.7816164E-02  0.1266605E+00
        -11   -1    0    0    0    0  0.00000000000E+00  0.00000000000E+00  0.45593999997E+02  0.45594000000E+02  0.51100000000E-03 0.  1.
         11   -1    0    0    0    0 -0.00000000000E+00 -0.00000000000E+00 -0.45593999997E+02  0.45594000000E+02  0.51100000000E-03 0. -1.
    9900012    2    1    2    0    0 -0.16975757056E+02  0.12649219327E+02  0.23844101144E+02  0.59301949185E+02  0.50000009406E+02 0.  0.
         12    1    1    2    0    0  0.16975757056E+02 -0.12649219327E+02 -0.23844101144E+02  0.31886050815E+02  0.00000000000E+00 0. -1.
         11    1    3    3    0    0 -0.64940773122E+01  0.11109231010E+02  0.18705385708E+02  0.22704173813E+02  0.51100000000E-03 0. -1.
        -11    1    3    3    0    0 -0.78298363551E+01  0.41210151945E+01  0.19688208691E+02  0.21585056528E+02  0.51100000000E-03 0.  1.
         12    1    3    3    0    0 -0.26518433890E+01 -0.25810268777E+01 -0.14549493256E+02  0.15012718844E+02  0.00000000000E+00 0. -1.
</event>
<event>
 7    1  0.3461631E-013  0.5930193E+02  0.7816164E-02  0.1266605E+00
        -11   -1    0    0    0    0  0.00000000000E+00  0.00000000000E+00  0.45593999997E+02  0.45594000000E+02  0.51100000000E-03 0.  1.
         11   -1    0    0    0    0 -0.00000000000E+00 -0.00000000000E+00 -0.45593999997E+02  0.45594000000E+02  0.51100000000E-03 0. -1.
    9900012    2    1    2    0    0  0.28258289836E+01 -0.24327428275E+02  0.20418426567E+02  0.59301933774E+02  0.49999981300E+02 0.  0.
         12    1    1    2    0    0 -0.28258289836E+01  0.24327428275E+02 -0.20418426567E+02  0.31886066226E+02  0.00000000000E+00 0. -1.
         11    1    3    3    0    0 -0.18733218519E+01 -0.92107067181E+01  0.76630949303E+01  0.12127220505E+02  0.51100000000E-03 0. -1.
        -11    1    3    3    0    0 -0.14568694779E+02 -0.12052738174E+02  0.18885761990E+02  0.26724284298E+02  0.51100000000E-03 0.  1.
         12    1    3    3    0    0  0.19267845614E+02 -0.30639833822E+01 -0.61304303535E+01  0.20450428971E+02  0.00000000000E+00 0. -1.
</event>
<event>
 7    1  0.3461631E-013  0.5930195E+02  0.7816164E-02  0.1266605E+00
        -11   -1    0    0    0    0  0.00000000000E+00  0.00000000000E+00  0.45593999997E+02  0.45594000000E+02  0.51100000000E-03 0.  1.
         11   -1    0    0    0    0 -0.00000000000E+00 -0.00000000000E+00 -0.45593999997E+02  0.45594000000E+02  0.51100000000E-03 0. -1.
    9900012    2    1    2    0    0 -0.23821740063E+02 -0.40200475674E+01  0.20810672023E+02  0.59301950509E+02  0.50000011820E+02 0.  0.
         12    1    1    2    0    0  0.23821740063E+02  0.40200475674E+01 -0.20810672023E+02  0.31886049491E+02  0.00000000000E+00 0. -1.
         11    1    3    3    0    0 -0.19146135762E+01 -0.12766354151E+02  0.21959125255E+01  0.13094562823E+02  0.51100000000E-03 0. -1.
        -11    1    3    3    0    0 -0.13514490146E+02 -0.12171813343E+02  0.21908398013E+01  0.18319232060E+02  0.51100000000E-03 0.  1.
        -12    1    3    3    0    0 -0.83926363412E+01  0.20918119927E+02  0.16423919696E+02  0.27888155626E+02  0.00000000000E+00 0.  1.
</event>
<event>
 7    1  0.3461631E-013  0.5930195E+02  0.7816164E-02  0.1266605E+00
        -11   -1    0    0    0    0  0.00000000000E+00  0.00000000000E+00  0.45593999997E+02  0.45594000000E+02  0.51100000000E-03 0. -1.
         11   -1    0    0    0    0 -0.00000000000E+00 -0.00000000000E+00 -0.45593999997E+02  0.45594000000E+02  0.51100000000E-03 0.  1.
    9900012    2    1    2    0    0 -0.28324135507E+02 -0.12646676312E+02 -0.73841178480E+01  0.59301948655E+02  0.50000008439E+02 0.  0.
         12    1    1    2    0    0  0.28324135507E+02  0.12646676312E+02  0.73841178480E+01  0.31886051345E+02  0.00000000000E+00 0. -1.
         11    1    3    3    0    0 -0.18608652057E+02 -0.10448256283E+02  0.10986689051E+02  0.24003235768E+02  0.51100000000E-03 0. -1.
        -11    1    3    3    0    0 -0.33342478448E+01 -0.13366844016E+02 -0.11779606425E+01  0.13826688656E+02  0.51100000000E-03 0.  1.
        -12    1    3    3    0    0 -0.63812356049E+01  0.11168423987E+02 -0.17192846256E+02  0.21472024232E+02  0.00000000000E+00 0.  1.
</event>
<event>
 7    1  0.3461631E-013  0.5930195E+02  0.7816164E-02  0.1266605E+00
        -11   -1    0    0    0    0  0.00000000000E+00  0.00000000000E+00  0.45593999997E+02  0.45594000000E+02  0.51100000000E-03 0. -1.
         11   -1    0    0    0    0 -0.00000000000E+00 -0.00000000000E+00 -0.45593999997E+02  0.45594000000E+02  0.51100000000E-03 0.  1.
    9900012    2    1    2    0    0  0.15146180684E+02  0.17839072076E+02 -0.21658272994E+02  0.59301951782E+02  0.50000014142E+02 0.  0.
         12    1    1    2    0    0 -0.15146180684E+02 -0.17839072076E+02  0.21658272994E+02  0.31886048218E+02  0.00000000000E+00 0. -1.
         11    1    3    3    0    0 -0.32904042313E+01  0.37515359460E+01  0.56666804848E+01  0.75506324198E+01  0.51100000000E-03 0. -1.
        -11    1    3    3    0    0  0.20536330278E+02  0.16916619136E+02 -0.25516071399E+01  0.26728702990E+02  0.51100000000E-03 0.  1.
        -12    1    3    3    0    0 -0.20997453627E+01 -0.28290830058E+01 -0.24773346339E+02  0.25022616372E+02  0.00000000000E+00 0.  1.
</event>
<event>
 7    1  0.3461631E-013  0.5930194E+02  0.7816164E-02  0.1266605E+00
        -11   -1    0    0    0    0  0.00000000000E+00  0.00000000000E+00  0.45593999997E+02  0.45594000000E+02  0.51100000000E-03 0.  1.
         11   -1    0    0    0    0 -0.00000000000E+00 -0.00000000000E+00 -0.45593999997E+02  0.45594000000E+02  0.51100000000E-03 0. -1.
    9900012    2    1    2    0    0 -0.27899870830E+02 -0.45871822536E+01  0.14740274714E+02  0.59301941416E+02  0.49999995237E+02 0.  0.
         12    1    1    2    0    0  0.27899870830E+02  0.45871822536E+01 -0.14740274714E+02  0.31886058584E+02  0.00000000000E+00 0. -1.
         11    1    3    3    0    0 -0.55207414541E+01  0.20928776962E+02 -0.65089928067E+00  0.21654467471E+02  0.51100000000E-03 0. -1.
        -11    1    3    3    0    0 -0.16352194403E+01 -0.23605719497E+00  0.86472829966E+00  0.18647844140E+01  0.51100000000E-03 0.  1.
         12    1    3    3    0    0 -0.20743909936E+02 -0.25279902020E+02  0.14526445695E+02  0.35782689531E+02  0.00000000000E+00 0. -1.
</event>
<event>
 7    1  0.3461631E-013  0.5930195E+02  0.7816164E-02  0.1266605E+00
        -11   -1    0    0    0    0  0.00000000000E+00  0.00000000000E+00  0.45593999997E+02  0.45594000000E+02  0.51100000000E-03 0. -1.
         11   -1    0    0    0    0 -0.00000000000E+00 -0.00000000000E+00 -0.45593999997E+02  0.45594000000E+02  0.51100000000E-03 0.  1.
    9900012    2    1    2    0    0 -0.57907398047E+00 -0.29744799083E+02 -0.11473090647E+02  0.59301949631E+02  0.50000010219E+02 0.  0.
         12    1    1    2    0    0  0.57907398047E+00  0.29744799083E+02  0.11473090647E+02  0.31886050369E+02  0.00000000000E+00 0. -1.
         11    1    3    3    0    0  0.14896405682E+02 -0.24404866836E+02 -0.13319466195E+02  0.31542171889E+02  0.51100000000E-03 0.  1.
        -11    1    3    3    0    0 -0.30143897684E+01  0.82030650612E+01 -0.19841433217E+01  0.89617881617E+01  0.51100000000E-03 0. -1.
        -12    1    3    3    0    0 -0.12461089894E+02 -0.13542997308E+02  0.38305188701E+01  0.18797989580E+02  0.00000000000E+00 0.  1.
</event>
<event>
 7    1  0.5013668E-013  0.5930196E+02  0.7816164E-02  0.1266605E+00
        -11   -1    0    0    0    0  0.00000000000E+00  0.00000000000E+00  0.45593999997E+02  0.45594000000E+02  0.51100000000E-03 0.  1.
         11   -1    0    0    0    0 -0.00000000000E+00 -0.00000000000E+00 -0.45593999997E+02  0.45594000000E+02  0.51100000000E-03 0. -1.
    9900012    2    1    2    0    0  0.29147595325E+02  0.98033608387E-01  0.12927795782E+02  0.59301955598E+02  0.50000021101E+02 0.  0.
         12    1    1    2    0    0 -0.29147595325E+02 -0.98033608387E-01 -0.12927795782E+02  0.31886044402E+02  0.00000000000E+00 0. -1.
         11    1    3    3    0    0 -0.43934260384E+01  0.45867683222E+01  0.95689684380E+01  0.11485024738E+02  0.51100000000E-03 0. -1.
        -11    1    3    3    0    0  0.20153996016E+02  0.78242848953E+00  0.18185512546E+02  0.27157109872E+02  0.51100000000E-03 0.  1.
         12    1    3    3    0    0  0.13387025348E+02 -0.52711632034E+01 -0.14826685203E+02  0.20659820989E+02  0.00000000000E+00 0. -1.
</event>
<event>
 7    1  0.3461631E-013  0.5930193E+02  0.7816164E-02  0.1266605E+00
        -11   -1    0    0    0    0  0.00000000000E+00  0.00000000000E+00  0.45593999997E+02  0.45594000000E+02  0.51100000000E-03 0.  1.
         11   -1    0    0    0    0 -0.00000000000E+00 -0.00000000000E+00 -0.45593999997E+02  0.45594000000E+02  0.51100000000E-03 0. -1.
    9900012    2    1    2    0    0  0.29833239143E+01 -0.21598115738E+02  0.23266766233E+02  0.59301933514E+02  0.49999980826E+02 0.  0.
         12    1    1    2    0    0 -0.29833239143E+01  0.21598115738E+02 -0.23266766233E+02  0.31886066486E+02  0.00000000000E+00 0. -1.
         11    1    3    3    0    0 -0.90466548846E+01  0.99304042135E+01  0.12490227235E+02  0.18342864255E+02  0.51100000000E-03 0. -1.
        -11    1    3    3    0    0  0.87874830915E+01 -0.10502902715E+01  0.28985244274E+01  0.93125943138E+01  0.51100000000E-03 0.  1.
         12    1    3    3    0    0  0.32424957074E+01 -0.30478229680E+02  0.78780145702E+01  0.31646474945E+02  0.00000000000E+00 0. -1.
</event>
<event>
 7    1  0.3797846E-013  0.5930195E+02  0.7816164E-02  0.1266605E+00
        -11   -1    0    0    0    0  0.00000000000E+00  0.00000000000E+00  0.45593999997E+02  0.45594000000E+02  0.51100000000E-03 0.  1.
         11   -1    0    0    0    0 -0.00000000000E+00 -0.00000000000E+00 -0.45593999997E+02  0.45594000000E+02  0.51100000000E-03 0. -1.
    9900012    2    1    2    0    0 -0.31667261089E+01 -0.20873385870E+02  0.23895478886E+02  0.59301948141E+02  0.50000007502E+02 0.  0.
         12    1    1    2    0    0  0.31667261089E+01  0.20873385870E+02 -0.23895478886E+02  0.31886051859E+02  0.00000000000E+00 0. -1.
         11    1    3    3    0    0 -0.95981053667E+00 -0.14455453477E+02 -0.19695939173E+01  0.14620556486E+02  0.51100000000E-03 0. -1.
        -11    1    3    3    0    0 -0.71973504027E+01 -0.15258547758E+02  0.29429212135E+02  0.33922023225E+02  0.51100000000E-03 0.  1.
         12    1    3    3    0    0  0.49904348305E+01  0.88406153656E+01 -0.35641393314E+01  0.10759368430E+02  0.00000000000E+00 0. -1.
</event>
<event>
 7    1  0.3461631E-013  0.5930197E+02  0.7816164E-02  0.1266605E+00
        -11   -1    0    0    0    0  0.00000000000E+00  0.00000000000E+00  0.45593999997E+02  0.45594000000E+02  0.51100000000E-03 0. -1.
         11   -1    0    0    0    0 -0.00000000000E+00 -0.00000000000E+00 -0.45593999997E+02  0.45594000000E+02  0.51100000000E-03 0.  1.
    9900012    2    1    2    0    0 -0.16980815046E+02 -0.23334971839E+02 -0.13559136370E+02  0.59301965919E+02  0.50000039924E+02 0.  0.
         12    1    1    2    0    0  0.16980815046E+02  0.23334971839E+02  0.13559136370E+02  0.31886034081E+02  0.00000000000E+00 0. -1.
         11    1    3    3    0    0 -0.77081373707E+01 -0.95681105731E+01 -0.31835969809E+01  0.12692494304E+02  0.51100000000E-03 0. -1.
        -11    1    3    3    0    0 -0.31674121086E+01 -0.15418467604E+02 -0.25640292586E+02  0.30086313281E+02  0.51100000000E-03 0.  1.
         12    1    3    3    0    0 -0.61052655662E+01  0.16516063376E+01  0.15264753197E+02  0.16523158333E+02  0.00000000000E+00 0. -1.
</event>
<event>
 7    1  0.3461631E-013  0.5930193E+02  0.7816164E-02  0.1266605E+00
        -11   -1    0    0    0    0  0.00000000000E+00  0.00000000000E+00  0.45593999997E+02  0.45594000000E+02  0.51100000000E-03 0. -1.
         11   -1    0    0    0    0 -0.00000000000E+00 -0.00000000000E+00 -0.45593999997E+02  0.45594000000E+02  0.51100000000E-03 0.  1.
    9900012    2    1    2    0    0 -0.63243761740E+01 -0.26576282661E+02 -0.16444593330E+02  0.59301934331E+02  0.49999982316E+02 0.  0.
         12    1    1    2    0    0  0.63243761740E+01  0.26576282661E+02  0.16444593330E+02  0.31886065669E+02  0.00000000000E+00 0. -1.
         11    1    3    3    0    0  0.73775433415E+01 -0.10370796534E+02 -0.19016788232E+01  0.12868486668E+02  0.51100000000E-03 0. -1.
        -11    1    3    3    0    0  0.13317168208E+02 -0.67452487042E+01 -0.84891555268E+01  0.17172976183E+02  0.51100000000E-03 0.  1.
         12    1    3    3    0    0 -0.27019087723E+02 -0.94602374220E+01 -0.60537589803E+01  0.29260471480E+02  0.00000000000E+00 0. -1.
</event>
<event>
 7    1  0.3461631E-013  0.5930198E+02  0.7816164E-02  0.1266605E+00
        -11   -1    0    0    0    0  0.00000000000E+00  0.00000000000E+00  0.45593999997E+02  0.45594000000E+02  0.51100000000E-03 0. -1.
         11   -1    0    0    0    0 -0.00000000000E+00 -0.00000000000E+00 -0.45593999997E+02  0.45594000000E+02  0.51100000000E-03 0.  1.
    9900012    2    1    2    0    0 -0.10154872113E+02  0.20397459104E+02 -0.22305616228E+02  0.59301979853E+02  0.50000065336E+02 0.  0.
         12    1    1    2    0    0  0.10154872113E+02 -0.20397459104E+02  0.22305616228E+02  0.31886020147E+02  0.00000000000E+00 0. -1.
         11    1    3    3    0    0  0.60609367025E+01  0.12754984646E+02  0.68291500739E+01  0.15686359617E+02  0.51100000000E-03 0. -1.
        -11    1    3    3    0    0 -0.18187357740E+02  0.12514223689E+01 -0.54839823604E+01  0.19037334433E+02  0.51100000000E-03 0.  1.
        -12    1    3    3    0    0  0.19715489248E+01  0.63910520884E+01 -0.23650783942E+02  0.24578285803E+02  0.00000000000E+00 0.  1.
</event>
<event>
 7    1  0.3461631E-013  0.5930194E+02  0.7816164E-02  0.1266605E+00
        -11   -1    0    0    0    0  0.00000000000E+00  0.00000000000E+00  0.45593999997E+02  0.45594000000E+02  0.51100000000E-03 0.  1.
         11   -1    0    0    0    0 -0.00000000000E+00 -0.00000000000E+00 -0.45593999997E+02  0.45594000000E+02  0.51100000000E-03 0. -1.
    9900012    2    1    2    0    0 -0.31313228358E+02  0.51959343793E+01  0.30339256078E+01  0.59301941779E+02  0.49999995898E+02 0.  0.
         12    1    1    2    0    0  0.31313228358E+02 -0.51959343793E+01 -0.30339256078E+01  0.31886058221E+02  0.00000000000E+00 0. -1.
         11    1    3    3    0    0  0.11883539453E+01 -0.54876355779E+01 -0.70702737507E+01  0.90285713436E+01  0.51100000000E-03 0. -1.
        -11    1    3    3    0    0 -0.33250388589E+02  0.19340002242E+02  0.22023936574E+01  0.38528879638E+02  0.51100000000E-03 0.  1.
         12    1    3    3    0    0  0.74880628579E+00 -0.86564322845E+01  0.79018057010E+01  0.11744490797E+02  0.00000000000E+00 0. -1.
</event>
<event>
 7    1  0.3461631E-013  0.5930194E+02  0.7816164E-02  0.1266605E+00
        -11   -1    0    0    0    0  0.00000000000E+00  0.00000000000E+00  0.45593999997E+02  0.45594000000E+02  0.51100000000E-03 0.  1.
         11   -1    0    0    0    0 -0.00000000000E+00 -0.00000000000E+00 -0.45593999997E+02  0.45594000000E+02  0.51100000000E-03 0. -1.
    9900012    2    1    2    0    0  0.14186217866E+02  0.56849291398E+01  0.27984881717E+02  0.59301940328E+02  0.49999993253E+02 0.  0.
         12    1    1    2    0    0 -0.14186217866E+02 -0.56849291398E+01 -0.27984881717E+02  0.31886059672E+02  0.00000000000E+00 0. -1.
         11    1    3    3    0    0  0.42892014664E+01 -0.19300143291E+01  0.15168183171E+01  0.49419573651E+01  0.51100000000E-03 0. -1.
        -11    1    3    3    0    0  0.77354401457E+00  0.43947383894E+01  0.38591807284E+02  0.38848934163E+02  0.51100000000E-03 0.  1.
         12    1    3    3    0    0  0.91234723848E+01  0.32202050795E+01 -0.12123743884E+02  0.15511048800E+02  0.00000000000E+00 0. -1.
</event>
<event>
 7    1  0.3461631E-013  0.5930198E+02  0.7816164E-02  0.1266605E+00
        -11   -1    0    0    0    0  0.00000000000E+00  0.00000000000E+00  0.45593999997E+02  0.45594000000E+02  0.51100000000E-03 0.  1.
         11   -1    0    0    0    0 -0.00000000000E+00 -0.00000000000E+00 -0.45593999997E+02  0.45594000000E+02  0.51100000000E-03 0. -1.
    9900012    2    1    2    0    0 -0.27213503753E+02  0.24400913888E+01  0.16437448236E+02  0.59301975835E+02  0.50000058010E+02 0.  0.
         12    1    1    2    0    0  0.27213503753E+02 -0.24400913888E+01 -0.16437448236E+02  0.31886024165E+02  0.00000000000E+00 0. -1.
         11    1    3    3    0    0  0.84976150392E+00 -0.68950116317E+01 -0.48801917534E+01  0.84899677164E+01  0.51100000000E-03 0. -1.
        -11    1    3    3    0    0 -0.30392478904E+01 -0.60956597063E+01 -0.71596198162E+01  0.98820165537E+01  0.51100000000E-03 0.  1.
        -12    1    3    3    0    0 -0.25024017366E+02  0.15430762727E+02  0.28477259806E+02  0.40929991565E+02  0.00000000000E+00 0.  1.
</event>
<event>
 7    1  0.3461631E-013  0.5930185E+02  0.7816164E-02  0.1266605E+00
        -11   -1    0    0    0    0  0.00000000000E+00  0.00000000000E+00  0.45593999997E+02  0.45594000000E+02  0.51100000000E-03 0. -1.
         11   -1    0    0    0    0 -0.00000000000E+00 -0.00000000000E+00 -0.45593999997E+02  0.45594000000E+02  0.51100000000E-03 0.  1.
    9900012    2    1    2    0    0  0.23606651110E+02 -0.10489996251E+02 -0.18692577741E+02  0.59301851587E+02  0.49999831411E+02 0.  0.
         12    1    1    2    0    0 -0.23606651110E+02  0.10489996251E+02  0.18692577741E+02  0.31886148413E+02  0.00000000000E+00 0. -1.
         11    1    3    3    0    0  0.15149713006E+02  0.11056452554E+02 -0.92054974335E+01  0.20892585539E+02  0.51100000000E-03 0. -1.
        -11    1    3    3    0    0 -0.10179118637E+02 -0.41619693511E+01  0.56780100221E+00  0.11011759321E+02  0.51100000000E-03 0.  1.
         12    1    3    3    0    0  0.18636056741E+02 -0.17384479454E+02 -0.10054881309E+02  0.27397506727E+02  0.00000000000E+00 0. -1.
</event>
<event>
 7    1  0.3461631E-013  0.5930203E+02  0.7816164E-02  0.1266604E+00
        -11   -1    0    0    0    0  0.00000000000E+00  0.00000000000E+00  0.45593999997E+02  0.45594000000E+02  0.51100000000E-03 0.  1.
         11   -1    0    0    0    0 -0.00000000000E+00 -0.00000000000E+00 -0.45593999997E+02  0.45594000000E+02  0.51100000000E-03 0. -1.
    9900012    2    1    2    0    0 -0.89992999436E+01 -0.24968353869E+02  0.17672265165E+02  0.59302030508E+02  0.50000157719E+02 0.  0.
         12    1    1    2    0    0  0.89992999436E+01  0.24968353869E+02 -0.17672265165E+02  0.31885969492E+02  0.00000000000E+00 0. -1.
         11    1    3    3    0    0 -0.92644892742E+01 -0.70984336438E+00 -0.33793017364E+01  0.98870784158E+01  0.51100000000E-03 0. -1.
        -11    1    3    3    0    0  0.12088665829E+02 -0.15780436445E+02 -0.41575834005E+01  0.20308705422E+02  0.51100000000E-03 0.  1.
         12    1    3    3    0    0 -0.11823476499E+02 -0.84780740593E+01  0.25209150302E+02  0.29106246670E+02  0.00000000000E+00 0. -1.
</event>
<event>
 7    1  0.3461631E-013  0.5930195E+02  0.7816164E-02  0.1266605E+00
        -11   -1    0    0    0    0  0.00000000000E+00  0.00000000000E+00  0.45593999997E+02  0.45594000000E+02  0.51100000000E-03 0. -1.
         11   -1    0    0    0    0 -0.00000000000E+00 -0.00000000000E+00 -0.45593999997E+02  0.45594000000E+02  0.51100000000E-03 0.  1.
    9900012    2    1    2    0    0 -0.18240766568E+02 -0.16876316740E+02 -0.19979601725E+02  0.59301951063E+02  0.50000012832E+02 0.  0.
         12    1    1    2    0    0  0.18240766568E+02  0.16876316740E+02  0.19979601725E+02  0.31886048937E+02  0.00000000000E+00 0. -1.
         11    1    3    3    0    0  0.63952839754E+01  0.55502992019E+01  0.48169915730E+01  0.97421191962E+01  0.51100000000E-03 0. -1.
        -11    1    3    3    0    0 -0.17365233627E+01  0.12222899617E+01  0.48274696035E+01  0.52738950665E+01  0.51100000000E-03 0.  1.
        -12    1    3    3    0    0 -0.22899527181E+02 -0.23648905903E+02 -0.29624062902E+02  0.44285936801E+02  0.00000000000E+00 0.  1.
</event>
<event>
 7    1  0.3461631E-013  0.5930195E+02  0.7816164E-02  0.1266605E+00
        -11   -1    0    0    0    0  0.00000000000E+00  0.00000000000E+00  0.45593999997E+02  0.45594000000E+02  0.51100000000E-03 0.  1.
         11   -1    0    0    0    0 -0.00000000000E+00 -0.00000000000E+00 -0.45593999997E+02  0.45594000000E+02  0.51100000000E-03 0. -1.
    9900012    2    1    2    0    0 -0.16687543889E+02 -0.23137011945E+02  0.14245171061E+02  0.59301947542E+02  0.50000006409E+02 0.  0.
         12    1    1    2    0    0  0.16687543889E+02  0.23137011945E+02 -0.14245171061E+02  0.31886052458E+02  0.00000000000E+00 0. -1.
         11    1    3    3    0    0  0.29765863923E+01 -0.25813361159E+00  0.82934643402E-02  0.29877698297E+01  0.51100000000E-03 0. -1.
        -11    1    3    3    0    0 -0.14603353072E+02 -0.24833917534E+02 -0.10746535587E+02  0.30748486278E+02  0.51100000000E-03 0.  1.
        -12    1    3    3    0    0 -0.50607772096E+01  0.19550392002E+01  0.24983413183E+02  0.25565691434E+02  0.00000000000E+00 0.  1.
</event>
<event>
 7    1  0.3461631E-013  0.5930192E+02  0.7816164E-02  0.1266605E+00
        -11   -1    0    0    0    0  0.00000000000E+00  0.00000000000E+00  0.45593999997E+02  0.45594000000E+02  0.51100000000E-03 0.  1.
         11   -1    0    0    0    0 -0.00000000000E+00 -0.00000000000E+00 -0.45593999997E+02  0.45594000000E+02  0.51100000000E-03 0. -1.
    9900012    2    1    2    0    0 -0.44650987819E+01 -0.26934783078E+02  0.16471260840E+02  0.59301920274E+02  0.49999956680E+02 0.  0.
         12    1    1    2    0    0  0.44650987819E+01  0.26934783078E+02 -0.16471260840E+02  0.31886079726E+02  0.00000000000E+00 0. -1.
         11    1    3    3    0    0 -0.15466413298E+02 -0.91784591107E+01 -0.72910142807E+01  0.19406518014E+02  0.51100000000E-03 0. -1.
        -11    1    3    3    0    0 -0.20114556120E+00 -0.14250294905E+02  0.10025206891E+01  0.14286931526E+02  0.51100000000E-03 0.  1.
        -12    1    3    3    0    0  0.11202460077E+02 -0.35060290623E+01  0.22759754432E+02  0.25608470734E+02  0.00000000000E+00 0.  1.
</event>
<event>
 7    1  0.3461631E-013  0.5930196E+02  0.7816164E-02  0.1266605E+00
        -11   -1    0    0    0    0  0.00000000000E+00  0.00000000000E+00  0.45593999997E+02  0.45594000000E+02  0.51100000000E-03 0.  1.
         11   -1    0    0    0    0 -0.00000000000E+00 -0.00000000000E+00 -0.45593999997E+02  0.45594000000E+02  0.51100000000E-03 0. -1.
    9900012    2    1    2    0    0 -0.25526925683E+02  0.16816311269E+02  0.90723292737E+01  0.59301962022E+02  0.50000032817E+02 0.  0.
         12    1    1    2    0    0  0.25526925683E+02 -0.16816311269E+02 -0.90723292737E+01  0.31886037978E+02  0.00000000000E+00 0. -1.
         11    1    3    3    0    0 -0.18407910609E+02  0.28284539442E+02  0.89869998055E+01  0.34923237395E+02  0.51100000000E-03 0. -1.
        -11    1    3    3    0    0 -0.37121894949E+01  0.54439064064E+01  0.23137277120E+01  0.69835380713E+01  0.51100000000E-03 0.  1.
         12    1    3    3    0    0 -0.34068255789E+01 -0.16912134579E+02 -0.22283982437E+01  0.17395186555E+02  0.00000000000E+00 0. -1.
</event>
<event>
 7    1  0.3461631E-013  0.5930193E+02  0.7816164E-02  0.1266605E+00
        -11   -1    0    0    0    0  0.00000000000E+00  0.00000000000E+00  0.45593999997E+02  0.45594000000E+02  0.51100000000E-03 0.  1.
         11   -1    0    0    0    0 -0.00000000000E+00 -0.00000000000E+00 -0.45593999997E+02  0.45594000000E+02  0.51100000000E-03 0. -1.
    9900012    2    1    2    0    0 -0.45527282821E+01 -0.12023904714E+02  0.29179097718E+02  0.59301931521E+02  0.49999977191E+02 0.  0.
         12    1    1    2    0    0  0.45527282821E+01  0.12023904714E+02 -0.29179097718E+02  0.31886068479E+02  0.00000000000E+00 0. -1.
         11    1    3    3    0    0  0.50175213137E+01 -0.18880784474E+02 -0.11029734734E+01  0.19567219864E+02  0.51100000000E-03 0. -1.
        -11    1    3    3    0    0 -0.80898260832E-01  0.52155966037E+01 -0.23427987163E+01  0.57181901461E+01  0.51100000000E-03 0.  1.
        -12    1    3    3    0    0 -0.94893513349E+01  0.16412831557E+01  0.32624869908E+02  0.34016521510E+02  0.00000000000E+00 0.  1.
</event>
<event>
 7    1  0.3461631E-013  0.5930235E+02  0.7816164E-02  0.1266603E+00
        -11   -1    0    0    0    0  0.00000000000E+00  0.00000000000E+00  0.45593999997E+02  0.45594000000E+02  0.51100000000E-03 0.  1.
         11   -1    0    0    0    0 -0.00000000000E+00 -0.00000000000E+00 -0.45593999997E+02  0.45594000000E+02  0.51100000000E-03 0. -1.
    9900012    2    1    2    0    0 -0.11980399709E+02  0.93604684441E+01  0.28027604752E+02  0.59302345313E+02  0.50000731842E+02 0.  0.
         12    1    1    2    0    0  0.11980399709E+02 -0.93604684441E+01 -0.28027604752E+02  0.31885654687E+02  0.00000000000E+00 0. -1.
         11    1    3    3    0    0  0.16706781538E+00  0.20657233307E+02  0.58527362011E+01  0.21470997202E+02  0.51100000000E-03 0. -1.
        -11    1    3    3    0    0 -0.63683523588E+01  0.80190805210E+01  0.52509870645E+01  0.11508015884E+02  0.51100000000E-03 0.  1.
        -12    1    3    3    0    0 -0.57791151653E+01 -0.19315845384E+02  0.16923881487E+02  0.26323332227E+02  0.00000000000E+00 0.  1.
</event>
<event>
 7    1  0.3461631E-013  0.5930195E+02  0.7816164E-02  0.1266605E+00
        -11   -1    0    0    0    0  0.00000000000E+00  0.00000000000E+00  0.45593999997E+02  0.45594000000E+02  0.51100000000E-03 0. -1.
         11   -1    0    0    0    0 -0.00000000000E+00 -0.00000000000E+00 -0.45593999997E+02  0.45594000000E+02  0.51100000000E-03 0.  1.
    9900012    2    1    2    0    0  0.22039355682E+02  0.21936924688E+02 -0.70539524262E+01  0.59301951194E+02  0.50000013069E+02 0.  0.
         12    1    1    2    0    0 -0.22039355682E+02 -0.21936924688E+02  0.70539524262E+01  0.31886048806E+02  0.00000000000E+00 0. -1.
         11    1    3    3    0    0  0.74988300899E+01  0.10484336960E+02  0.11936354794E+02  0.17567878080E+02  0.51100000000E-03 0. -1.
        -11    1    3    3    0    0  0.10446285290E+02  0.22036326071E+02 -0.73335973537E+01  0.25465784761E+02  0.51100000000E-03 0.  1.
        -12    1    3    3    0    0  0.40942403023E+01 -0.10583738344E+02 -0.11656709867E+02  0.16268288352E+02  0.00000000000E+00 0.  1.
</event>
<event>
 7    1  0.3461631E-013  0.5930194E+02  0.7816164E-02  0.1266605E+00
        -11   -1    0    0    0    0  0.00000000000E+00  0.00000000000E+00  0.45593999997E+02  0.45594000000E+02  0.51100000000E-03 0.  1.
         11   -1    0    0    0    0 -0.00000000000E+00 -0.00000000000E+00 -0.45593999997E+02  0.45594000000E+02  0.51100000000E-03 0. -1.
    9900012    2    1    2    0    0  0.15696625588E+02 -0.29677785519E+01  0.27595817282E+02  0.59301938847E+02  0.49999990551E+02 0.  0.
         12    1    1    2    0    0 -0.15696625588E+02  0.29677785519E+01 -0.27595817282E+02  0.31886061153E+02  0.00000000000E+00 0. -1.
         11    1    3    3    0    0 -0.81717741581E+01  0.16291721272E+01  0.15661911958E+02  0.17740563158E+02  0.51100000000E-03 0. -1.
        -11    1    3    3    0    0  0.52257786822E+01 -0.15511940455E+02  0.11408671786E+02  0.19952113966E+02  0.51100000000E-03 0.  1.
         12    1    3    3    0    0  0.18642621064E+02  0.10914989776E+02  0.52523353754E+00  0.21609261723E+02  0.00000000000E+00 0. -1.
</event>
<event>
 7    1  0.3461631E-013  0.5930195E+02  0.7816164E-02  0.1266605E+00
        -11   -1    0    0    0    0  0.00000000000E+00  0.00000000000E+00  0.45593999997E+02  0.45594000000E+02  0.51100000000E-03 0. -1.
         11   -1    0    0    0    0 -0.00000000000E+00 -0.00000000000E+00 -0.45593999997E+02  0.45594000000E+02  0.51100000000E-03 0.  1.
    9900012    2    1    2    0    0  0.15994415144E+02  0.16572085091E+02 -0.22051417387E+02  0.59301947739E+02  0.50000006768E+02 0.  0.
         12    1    1    2    0    0 -0.15994415144E+02 -0.16572085091E+02  0.22051417387E+02  0.31886052261E+02  0.00000000000E+00 0. -1.
         11    1    3    3    0    0 -0.92136950985E+01 -0.88397411721E+01 -0.67836136810E+01  0.14458582786E+02  0.51100000000E-03 0. -1.
        -11    1    3    3    0    0  0.53040724934E+01  0.81801948508E+01 -0.15737212300E+02  0.18512391095E+02  0.51100000000E-03 0.  1.
        -12    1    3    3    0    0  0.19904037749E+02  0.17231631412E+02  0.46940859426E+00  0.26330973857E+02  0.00000000000E+00 0.  1.
</event>
<event>
 7    1  0.3461631E-013  0.5930192E+02  0.7816164E-02  0.1266605E+00
        -11   -1    0    0    0    0  0.00000000000E+00  0.00000000000E+00  0.45593999997E+02  0.45594000000E+02  0.51100000000E-03 0.  1.
         11   -1    0    0    0    0 -0.00000000000E+00 -0.00000000000E+00 -0.45593999997E+02  0.45594000000E+02  0.51100000000E-03 0. -1.
    9900012    2    1    2    0    0 -0.23487608256E+01 -0.23069298912E+02  0.21886358733E+02  0.59301922658E+02  0.49999961026E+02 0.  0.
         12    1    1    2    0    0  0.23487608256E+01  0.23069298912E+02 -0.21886358733E+02  0.31886077342E+02  0.00000000000E+00 0. -1.
         11    1    3    3    0    0  0.22587432675E+01 -0.90199638779E+01 -0.36807776175E+01  0.10000489670E+02  0.51100000000E-03 0. -1.
        -11    1    3    3    0    0 -0.24723695952E+01 -0.12078406655E+02 -0.85865939367E+01  0.15024317437E+02  0.51100000000E-03 0.  1.
        -12    1    3    3    0    0 -0.21351344978E+01 -0.19709283790E+01  0.34153730287E+02  0.34277115551E+02  0.00000000000E+00 0.  1.
</event>
<event>
 7    1  0.3461631E-013  0.5930199E+02  0.7816164E-02  0.1266605E+00
        -11   -1    0    0    0    0  0.00000000000E+00  0.00000000000E+00  0.45593999997E+02  0.45594000000E+02  0.51100000000E-03 0.  1.
         11   -1    0    0    0    0 -0.00000000000E+00 -0.00000000000E+00 -0.45593999997E+02  0.45594000000E+02  0.51100000000E-03 0. -1.
    9900012    2    1    2    0    0 -0.17685662550E+02  0.29082405342E+01  0.26371903288E+02  0.59301987301E+02  0.50000078919E+02 0.  0.
         12    1    1    2    0    0  0.17685662550E+02 -0.29082405342E+01 -0.26371903288E+02  0.31886012699E+02  0.00000000000E+00 0. -1.
         11    1    3    3    0    0  0.26095250702E+01 -0.12128484408E+02  0.17598567453E+02  0.21531821376E+02  0.51100000000E-03 0. -1.
        -11    1    3    3    0    0 -0.41051599981E+01 -0.74640313711E+01  0.47685133087E+01  0.97623164441E+01  0.51100000000E-03 0.  1.
        -12    1    3    3    0    0 -0.16190027622E+02  0.22500756313E+02  0.40048225269E+01  0.28007849480E+02  0.00000000000E+00 0.  1.
</event>
<event>
 7    1  0.3461631E-013  0.5930195E+02  0.7816164E-02  0.1266605E+00
        -11   -1    0    0    0    0  0.00000000000E+00  0.00000000000E+00  0.45593999997E+02  0.45594000000E+02  0.51100000000E-03 0.  1.
         11   -1    0    0    0    0 -0.00000000000E+00 -0.00000000000E+00 -0.45593999997E+02  0.45594000000E+02  0.51100000000E-03 0. -1.
    9900012    2    1    2    0    0 -0.22283330556E+02 -0.22172245085E+02 -0.53446125846E+01  0.59301950441E+02  0.50000011697E+02 0.  0.
         12    1    1    2    0    0  0.22283330556E+02  0.22172245085E+02  0.53446125846E+01  0.31886049559E+02  0.00000000000E+00 0. -1.
         11    1    3    3    0    0 -0.11506472948E+02  0.95909696489E+00 -0.11236504702E+01  0.11600921401E+02  0.51100000000E-03 0. -1.
        -11    1    3    3    0    0 -0.24145739733E+02 -0.10257176292E+02 -0.10281187302E+02  0.28176749730E+02  0.51100000000E-03 0.  1.
         12    1    3    3    0    0  0.13368882126E+02 -0.12874165758E+02  0.60602251878E+01  0.19524279310E+02  0.00000000000E+00 0. -1.
</event>
<event>
 7    1  0.3461631E-013  0.5930194E+02  0.7816164E-02  0.1266605E+00
        -11   -1    0    0    0    0  0.00000000000E+00  0.00000000000E+00  0.45593999997E+02  0.45594000000E+02  0.51100000000E-03 0. -1.
         11   -1    0    0    0    0 -0.00000000000E+00 -0.00000000000E+00 -0.45593999997E+02  0.45594000000E+02  0.51100000000E-03 0.  1.
    9900012    2    1    2    0    0  0.20053227273E+02  0.10604409115E+02 -0.22408375152E+02  0.59301942017E+02  0.49999996333E+02 0.  0.
         12    1    1    2    0    0 -0.20053227273E+02 -0.10604409115E+02  0.22408375152E+02  0.31886057983E+02  0.00000000000E+00 0. -1.
         11    1    3    3    0    0 -0.58194953563E+01 -0.75741362365E+00  0.66220984755E+01  0.88482987110E+01  0.51100000000E-03 0. -1.
        -11    1    3    3    0    0  0.28533777740E+01  0.21919567891E+01 -0.25110448064E+02  0.25366928106E+02  0.51100000000E-03 0.  1.
        -12    1    3    3    0    0  0.23019344856E+02  0.91698659492E+01 -0.39200255630E+01  0.25086715200E+02  0.00000000000E+00 0.  1.
</event>
<event>
 7    1  0.3461631E-013  0.5930195E+02  0.7816164E-02  0.1266605E+00
        -11   -1    0    0    0    0  0.00000000000E+00  0.00000000000E+00  0.45593999997E+02  0.45594000000E+02  0.51100000000E-03 0.  1.
         11   -1    0    0    0    0 -0.00000000000E+00 -0.00000000000E+00 -0.45593999997E+02  0.45594000000E+02  0.51100000000E-03 0. -1.
    9900012    2    1    2    0    0 -0.29512366806E+02  0.12021559801E+02 -0.11056577802E+01  0.59301950172E+02  0.50000011206E+02 0.  0.
         12    1    1    2    0    0  0.29512366806E+02 -0.12021559801E+02  0.11056577802E+01  0.31886049828E+02  0.00000000000E+00 0. -1.
         11    1    3    3    0    0 -0.24692198373E+02  0.40693779442E+00 -0.18360747996E+02  0.30773159183E+02  0.51100000000E-03 0. -1.
        -11    1    3    3    0    0  0.27748582746E+01 -0.39522593608E+01  0.13526357985E+01  0.50149592585E+01  0.51100000000E-03 0.  1.
         12    1    3    3    0    0 -0.75950267067E+01  0.15566881367E+02  0.15902454417E+02  0.23513831731E+02  0.00000000000E+00 0. -1.
</event>
<event>
 7    1  0.3461631E-013  0.5930190E+02  0.7816164E-02  0.1266605E+00
        -11   -1    0    0    0    0  0.00000000000E+00  0.00000000000E+00  0.45593999997E+02  0.45594000000E+02  0.51100000000E-03 0.  1.
         11   -1    0    0    0    0 -0.00000000000E+00 -0.00000000000E+00 -0.45593999997E+02  0.45594000000E+02  0.51100000000E-03 0. -1.
    9900012    2    1    2    0    0 -0.28366146293E+02  0.13886140013E+02 -0.43886414278E+01  0.59301900935E+02  0.49999921410E+02 0.  0.
         12    1    1    2    0    0  0.28366146293E+02 -0.13886140013E+02  0.43886414278E+01  0.31886099065E+02  0.00000000000E+00 0. -1.
         11    1    3    3    0    0 -0.44248035043E+01  0.72365391175E+01  0.57226408466E+01  0.10232057612E+02  0.51100000000E-03 0. -1.
        -11    1    3    3    0    0  0.39694345851E+01 -0.38439705482E+01  0.11152572081E+02  0.12446380389E+02  0.51100000000E-03 0.  1.
         12    1    3    3    0    0 -0.27910777374E+02  0.10493571443E+02 -0.21263854356E+02  0.36623462935E+02  0.00000000000E+00 0. -1.
</event>
<event>
 7    1  0.3461631E-013  0.5930194E+02  0.7816164E-02  0.1266605E+00
        -11   -1    0    0    0    0  0.00000000000E+00  0.00000000000E+00  0.45593999997E+02  0.45594000000E+02  0.51100000000E-03 0.  1.
         11   -1    0    0    0    0 -0.00000000000E+00 -0.00000000000E+00 -0.45593999997E+02  0.45594000000E+02  0.51100000000E-03 0. -1.
    9900012    2    1    2    0    0 -0.30266438290E+02 -0.82563856389E+01  0.57004908652E+01  0.59301940559E+02  0.49999993673E+02 0.  0.
         12    1    1    2    0    0  0.30266438290E+02  0.82563856389E+01 -0.57004908652E+01  0.31886059441E+02  0.00000000000E+00 0. -1.
         11    1    3    3    0    0  0.25063323293E+01 -0.14361253895E+02  0.30870626392E+01  0.14901586197E+02  0.51100000000E-03 0. -1.
        -11    1    3    3    0    0  0.15094882678E+01  0.36737772722E+01  0.86385413729E+01  0.95078699817E+01  0.51100000000E-03 0.  1.
        -12    1    3    3    0    0 -0.34282258887E+02  0.24310909836E+01 -0.60251131469E+01  0.34892484380E+02  0.00000000000E+00 0.  1.
</event>
<event>
 7    1  0.3461631E-013  0.5930192E+02  0.7816164E-02  0.1266605E+00
        -11   -1    0    0    0    0  0.00000000000E+00  0.00000000000E+00  0.45593999997E+02  0.45594000000E+02  0.51100000000E-03 0.  1.
         11   -1    0    0    0    0 -0.00000000000E+00 -0.00000000000E+00 -0.45593999997E+02  0.45594000000E+02  0.51100000000E-03 0. -1.
    9900012    2    1    2    0    0  0.28738426009E+02  0.80646683620E+01  0.11215450896E+02  0.59301916138E+02  0.49999949136E+02 0.  0.
         12    1    1    2    0    0 -0.28738426009E+02 -0.80646683620E+01 -0.11215450896E+02  0.31886083862E+02  0.00000000000E+00 0. -1.
         11    1    3    3    0    0  0.19488244965E+02  0.11014468753E+01 -0.74467915867E+01  0.20891615118E+02  0.51100000000E-03 0. -1.
        -11    1    3    3    0    0  0.11262260666E+02 -0.52620518570E+01 -0.35920953074E+01  0.12939507487E+02  0.51100000000E-03 0.  1.
         12    1    3    3    0    0 -0.20120796215E+01  0.12225273344E+02  0.22254337790E+02  0.25470793533E+02  0.00000000000E+00 0. -1.
</event>
<event>
 7    1  0.3461631E-013  0.5930194E+02  0.7816164E-02  0.1266605E+00
        -11   -1    0    0    0    0  0.00000000000E+00  0.00000000000E+00  0.45593999997E+02  0.45594000000E+02  0.51100000000E-03 0. -1.
         11   -1    0    0    0    0 -0.00000000000E+00 -0.00000000000E+00 -0.45593999997E+02  0.45594000000E+02  0.51100000000E-03 0.  1.
    9900012    2    1    2    0    0  0.22821532066E+02  0.22121809297E+02 -0.25541922672E+01  0.59301942379E+02  0.49999996994E+02 0.  0.
         12    1    1    2    0    0 -0.22821532066E+02 -0.22121809297E+02  0.25541922672E+01  0.31886057621E+02  0.00000000000E+00 0. -1.
         11    1    3    3    0    0  0.11452799505E+02 -0.81007589997E+01  0.30511175611E+01  0.14356121743E+02  0.51100000000E-03 0. -1.
        -11    1    3    3    0    0  0.62100167998E+01 -0.12259091075E+01  0.80788878486E+01  0.10263312863E+02  0.51100000000E-03 0.  1.
        -12    1    3    3    0    0  0.51587157621E+01  0.31448477405E+02 -0.13684197677E+02  0.34682507773E+02  0.00000000000E+00 0.  1.
</event>
<event>
 7    1  0.3461631E-013  0.5930193E+02  0.7816164E-02  0.1266605E+00
        -11   -1    0    0    0    0  0.00000000000E+00  0.00000000000E+00  0.45593999997E+02  0.45594000000E+02  0.51100000000E-03 0. -1.
         11   -1    0    0    0    0 -0.00000000000E+00 -0.00000000000E+00 -0.45593999997E+02  0.45594000000E+02  0.51100000000E-03 0.  1.
    9900012    2    1    2    0    0 -0.25119371400E+02  0.11027526522E+02 -0.16252154608E+02  0.59301926392E+02  0.49999967836E+02 0.  0.
         12    1    1    2    0    0  0.25119371400E+02 -0.11027526522E+02  0.16252154608E+02  0.31886073608E+02  0.00000000000E+00 0. -1.
         11    1    3    3    0    0 -0.20831605380E+02  0.19047475842E+02  0.65791278523E+01  0.28983565036E+02  0.51100000000E-03 0. -1.
        -11    1    3    3    0    0 -0.89321075287E+01 -0.41647281726E+01 -0.41629440455E+01  0.10698486297E+02  0.51100000000E-03 0.  1.
         12    1    3    3    0    0  0.46443415085E+01 -0.38552211469E+01 -0.18668338415E+02  0.19619875059E+02  0.00000000000E+00 0. -1.
</event>
<event>
 7    1  0.3461631E-013  0.5930203E+02  0.7816164E-02  0.1266604E+00
        -11   -1    0    0    0    0  0.00000000000E+00  0.00000000000E+00  0.45593999997E+02  0.45594000000E+02  0.51100000000E-03 0. -1.
         11   -1    0    0    0    0 -0.00000000000E+00 -0.00000000000E+00 -0.45593999997E+02  0.45594000000E+02  0.51100000000E-03 0.  1.
    9900012    2    1    2    0    0  0.17987980063E+02  0.38255607935E+01 -0.26048276315E+02  0.59302030655E+02  0.50000157987E+02 0.  0.
         12    1    1    2    0    0 -0.17987980063E+02 -0.38255607935E+01  0.26048276315E+02  0.31885969345E+02  0.00000000000E+00 0. -1.
         11    1    3    3    0    0  0.22884031655E+02  0.60516862151E+01 -0.75540753859E+01  0.24846848211E+02  0.51100000000E-03 0. -1.
        -11    1    3    3    0    0  0.11784096057E+02  0.63803149199E+00 -0.50306254914E+01  0.12828842394E+02  0.51100000000E-03 0.  1.
         12    1    3    3    0    0 -0.16680147649E+02 -0.28641569136E+01 -0.13463575437E+02  0.21626340050E+02  0.00000000000E+00 0. -1.
</event>
<event>
 7    1  0.3461631E-013  0.5930193E+02  0.7816164E-02  0.1266605E+00
        -11   -1    0    0    0    0  0.00000000000E+00  0.00000000000E+00  0.45593999997E+02  0.45594000000E+02  0.51100000000E-03 0.  1.
         11   -1    0    0    0    0 -0.00000000000E+00 -0.00000000000E+00 -0.45593999997E+02  0.45594000000E+02  0.51100000000E-03 0. -1.
    9900012    2    1    2    0    0  0.21145034801E+02  0.22106827523E+02  0.89943004095E+01  0.59301925301E+02  0.49999965846E+02 0.  0.
         12    1    1    2    0    0 -0.21145034801E+02 -0.22106827523E+02 -0.89943004095E+01  0.31886074699E+02  0.00000000000E+00 0. -1.
         11    1    3    3    0    0  0.71925349738E+01  0.55378760478E+01 -0.35652741528E+01  0.97525284166E+01  0.51100000000E-03 0. -1.
        -11    1    3    3    0    0  0.46878457274E+01 -0.10193770539E+02 -0.86496753633E+01  0.14167065310E+02  0.51100000000E-03 0.  1.
        -12    1    3    3    0    0  0.92646541001E+01  0.26762722014E+02  0.21209249926E+02  0.35382331574E+02  0.00000000000E+00 0.  1.
</event>
<event>
 7    1  0.3461631E-013  0.5930195E+02  0.7816164E-02  0.1266605E+00
        -11   -1    0    0    0    0  0.00000000000E+00  0.00000000000E+00  0.45593999997E+02  0.45594000000E+02  0.51100000000E-03 0. -1.
         11   -1    0    0    0    0 -0.00000000000E+00 -0.00000000000E+00 -0.45593999997E+02  0.45594000000E+02  0.51100000000E-03 0.  1.
    9900012    2    1    2    0    0  0.24888765885E+02 -0.19864027103E+02  0.16401130548E+01  0.59301949588E+02  0.50000010141E+02 0.  0.
         12    1    1    2    0    0 -0.24888765885E+02  0.19864027103E+02 -0.16401130548E+01  0.31886050412E+02  0.00000000000E+00 0. -1.
         11    1    3    3    0    0  0.56962188394E+01  0.62207212128E+01 -0.99392860025E+01  0.13035861612E+02  0.51100000000E-03 0. -1.
        -11    1    3    3    0    0  0.60643411395E+01 -0.13716608312E+02 -0.10087545619E+02  0.18074295392E+02  0.51100000000E-03 0.  1.
         12    1    3    3    0    0  0.13128205906E+02 -0.12368140003E+02  0.21666944677E+02  0.28191792584E+02  0.00000000000E+00 0. -1.
</event>
<event>
 7    1  0.3461631E-013  0.5930202E+02  0.7816164E-02  0.1266604E+00
        -11   -1    0    0    0    0  0.00000000000E+00  0.00000000000E+00  0.45593999997E+02  0.45594000000E+02  0.51100000000E-03 0. -1.
         11   -1    0    0    0    0 -0.00000000000E+00 -0.00000000000E+00 -0.45593999997E+02  0.45594000000E+02  0.51100000000E-03 0.  1.
    9900012    2    1    2    0    0  0.36908271045E+01 -0.21570306342E+02 -0.23190847193E+02  0.59302020104E+02  0.50000138744E+02 0.  0.
         12    1    1    2    0    0 -0.36908271045E+01  0.21570306342E+02  0.23190847193E+02  0.31885979896E+02  0.00000000000E+00 0. -1.
         11    1    3    3    0    0  0.19553311877E+01 -0.61983716114E+01  0.50713673921E+00  0.65192268422E+01  0.51100000000E-03 0. -1.
        -11    1    3    3    0    0  0.12322446343E+02 -0.27152046042E+02 -0.89257083188E+01  0.31124661563E+02  0.51100000000E-03 0.  1.
        -12    1    3    3    0    0 -0.10586950426E+02  0.11780111312E+02 -0.14772275614E+02  0.21658131698E+02  0.00000000000E+00 0.  1.
</event>
<event>
 7    1  0.3461631E-013  0.5930196E+02  0.7816164E-02  0.1266605E+00
        -11   -1    0    0    0    0  0.00000000000E+00  0.00000000000E+00  0.45593999997E+02  0.45594000000E+02  0.51100000000E-03 0. -1.
         11   -1    0    0    0    0 -0.00000000000E+00 -0.00000000000E+00 -0.45593999997E+02  0.45594000000E+02  0.51100000000E-03 0.  1.
    9900012    2    1    2    0    0  0.31091654638E+01 -0.21808195152E+02 -0.23053308930E+02  0.59301963271E+02  0.50000035095E+02 0.  0.
         12    1    1    2    0    0 -0.31091654638E+01  0.21808195152E+02  0.23053308930E+02  0.31886036729E+02  0.00000000000E+00 0. -1.
         11    1    3    3    0    0 -0.18256484189E+02  0.19110197406E+01 -0.81822644265E+01  0.20097279985E+02  0.51100000000E-03 0.  1.
        -11    1    3    3    0    0  0.10635579547E+02 -0.14903131130E+02  0.72306611827E+00  0.18323255569E+02  0.51100000000E-03 0. -1.
        -12    1    3    3    0    0  0.10730070107E+02 -0.88160837633E+01 -0.15594110621E+02  0.20881427717E+02  0.00000000000E+00 0.  1.
</event>
<event>
 7    1  0.3461631E-013  0.5930198E+02  0.7816164E-02  0.1266605E+00
        -11   -1    0    0    0    0  0.00000000000E+00  0.00000000000E+00  0.45593999997E+02  0.45594000000E+02  0.51100000000E-03 0.  1.
         11   -1    0    0    0    0 -0.00000000000E+00 -0.00000000000E+00 -0.45593999997E+02  0.45594000000E+02  0.51100000000E-03 0. -1.
    9900012    2    1    2    0    0  0.49886471958E+01  0.63139740515E+01  0.30853934446E+02  0.59301982062E+02  0.50000069365E+02 0.  0.
         12    1    1    2    0    0 -0.49886471958E+01 -0.63139740515E+01 -0.30853934446E+02  0.31886017938E+02  0.00000000000E+00 0. -1.
         11    1    3    3    0    0  0.20224885448E+01 -0.27097510677E+00 -0.11220646868E+02  0.11404683416E+02  0.51100000000E-03 0. -1.
        -11    1    3    3    0    0  0.59772821794E+01  0.66771512829E+01  0.41895009830E+01  0.98926321197E+01  0.51100000000E-03 0.  1.
        -12    1    3    3    0    0 -0.30111235284E+01 -0.92202124702E-01  0.37885080331E+02  0.38004666526E+02  0.00000000000E+00 0.  1.
</event>
<event>
 7    1  0.3461631E-013  0.5930194E+02  0.7816164E-02  0.1266605E+00
        -11   -1    0    0    0    0  0.00000000000E+00  0.00000000000E+00  0.45593999997E+02  0.45594000000E+02  0.51100000000E-03 0. -1.
         11   -1    0    0    0    0 -0.00000000000E+00 -0.00000000000E+00 -0.45593999997E+02  0.45594000000E+02  0.51100000000E-03 0.  1.
    9900012    2    1    2    0    0 -0.14800625544E+02 -0.51526083950E+01 -0.27768919164E+02  0.59301940957E+02  0.49999994401E+02 0.  0.
         12    1    1    2    0    0  0.14800625544E+02  0.51526083950E+01  0.27768919164E+02  0.31886059043E+02  0.00000000000E+00 0. -1.
         11    1    3    3    0    0 -0.17196183073E+01  0.19505273967E+02 -0.12538348663E+02  0.23251300762E+02  0.51100000000E-03 0. -1.
        -11    1    3    3    0    0  0.13612918467E+01 -0.21113335632E+01 -0.78999977579E+01  0.82898015503E+01  0.51100000000E-03 0.  1.
         12    1    3    3    0    0 -0.14442299083E+02 -0.22546548799E+02 -0.73305727429E+01  0.27760838645E+02  0.00000000000E+00 0. -1.
</event>
<event>
 7    1  0.3461631E-013  0.5930196E+02  0.7816164E-02  0.1266605E+00
        -11   -1    0    0    0    0  0.00000000000E+00  0.00000000000E+00  0.45593999997E+02  0.45594000000E+02  0.51100000000E-03 0.  1.
         11   -1    0    0    0    0 -0.00000000000E+00 -0.00000000000E+00 -0.45593999997E+02  0.45594000000E+02  0.51100000000E-03 0. -1.
    9900012    2    1    2    0    0 -0.10952286121E+02  0.10912128005E+02  0.27887134826E+02  0.59301962340E+02  0.50000033397E+02 0.  0.
         12    1    1    2    0    0  0.10952286121E+02 -0.10912128005E+02 -0.27887134826E+02  0.31886037660E+02  0.00000000000E+00 0. -1.
         11    1    3    3    0    0  0.20967413663E+01  0.58345679831E+01  0.31394474300E+00  0.62078232473E+01  0.51100000000E-03 0. -1.
        -11    1    3    3    0    0  0.14529908613E+01  0.22301791533E+02  0.17696250178E+02  0.28506812495E+02  0.51100000000E-03 0.  1.
         12    1    3    3    0    0 -0.14502018349E+02 -0.17224231511E+02  0.98769399044E+01  0.24587326597E+02  0.00000000000E+00 0. -1.
</event>
<event>
 7    1  0.3461631E-013  0.5930193E+02  0.7816164E-02  0.1266605E+00
        -11   -1    0    0    0    0  0.00000000000E+00  0.00000000000E+00  0.45593999997E+02  0.45594000000E+02  0.51100000000E-03 0. -1.
         11   -1    0    0    0    0 -0.00000000000E+00 -0.00000000000E+00 -0.45593999997E+02  0.45594000000E+02  0.51100000000E-03 0.  1.
    9900012    2    1    2    0    0 -0.20488526050E+02  0.24281505834E+02 -0.27111331619E+01  0.59301929871E+02  0.49999974181E+02 0.  0.
         12    1    1    2    0    0  0.20488526050E+02 -0.24281505834E+02  0.27111331619E+01  0.31886070129E+02  0.00000000000E+00 0. -1.
         11    1    3    3    0    0 -0.13904116898E+02 -0.15558576442E+01  0.45182454810E+00  0.13998189361E+02  0.51100000000E-03 0. -1.
        -11    1    3    3    0    0 -0.21688169401E+02  0.17874787558E+02 -0.14173990558E+01  0.28140606648E+02  0.51100000000E-03 0.  1.
        -12    1    3    3    0    0  0.15103760248E+02  0.79625759203E+01 -0.17455586542E+01  0.17163133861E+02  0.00000000000E+00 0.  1.
</event>
<event>
 7    1  0.3461631E-013  0.5930197E+02  0.7816164E-02  0.1266605E+00
        -11   -1    0    0    0    0  0.00000000000E+00  0.00000000000E+00  0.45593999997E+02  0.45594000000E+02  0.51100000000E-03 0.  1.
         11   -1    0    0    0    0 -0.00000000000E+00 -0.00000000000E+00 -0.45593999997E+02  0.45594000000E+02  0.51100000000E-03 0. -1.
    9900012    2    1    2    0    0  0.19500891125E+02 -0.10899860598E+02  0.22751422281E+02  0.59301969649E+02  0.50000046727E+02 0.  0.
         12    1    1    2    0    0 -0.19500891125E+02  0.10899860598E+02 -0.22751422281E+02  0.31886030351E+02  0.00000000000E+00 0. -1.
         11    1    3    3    0    0 -0.13085346794E+01 -0.15982129777E+01  0.24560484858E+00  0.20801129133E+01  0.51100000000E-03 0. -1.
        -11    1    3    3    0    0  0.98083178507E+01 -0.21838438664E+02  0.30461013363E+02  0.38742661727E+02  0.51100000000E-03 0.  1.
        -12    1    3    3    0    0  0.11001107954E+02  0.12536791044E+02 -0.79551959306E+01  0.18479195009E+02  0.00000000000E+00 0.  1.
</event>
<event>
 7    1  0.3461631E-013  0.5930194E+02  0.7816164E-02  0.1266605E+00
        -11   -1    0    0    0    0  0.00000000000E+00  0.00000000000E+00  0.45593999997E+02  0.45594000000E+02  0.51100000000E-03 0.  1.
         11   -1    0    0    0    0 -0.00000000000E+00 -0.00000000000E+00 -0.45593999997E+02  0.45594000000E+02  0.51100000000E-03 0. -1.
    9900012    2    1    2    0    0  0.31973755934E+01 -0.31718219893E+02 -0.67264475380E+00  0.59301935100E+02  0.49999983717E+02 0.  0.
         12    1    1    2    0    0 -0.31973755934E+01  0.31718219893E+02  0.67264475380E+00  0.31886064900E+02  0.00000000000E+00 0. -1.
         11    1    3    3    0    0  0.38024242497E+01 -0.16140689236E+02 -0.14959133864E+02  0.22332844992E+02  0.51100000000E-03 0. -1.
        -11    1    3    3    0    0  0.12142056368E+02  0.22278721952E+00 -0.13166638889E-02  0.12144100171E+02  0.51100000000E-03 0.  1.
        -12    1    3    3    0    0 -0.12747105024E+02 -0.15800317876E+02  0.14287805775E+02  0.24824989936E+02  0.00000000000E+00 0.  1.
</event>
<event>
 7    1  0.3461631E-013  0.5930188E+02  0.7816164E-02  0.1266605E+00
        -11   -1    0    0    0    0  0.00000000000E+00  0.00000000000E+00  0.45593999997E+02  0.45594000000E+02  0.51100000000E-03 0.  1.
         11   -1    0    0    0    0 -0.00000000000E+00 -0.00000000000E+00 -0.45593999997E+02  0.45594000000E+02  0.51100000000E-03 0. -1.
    9900012    2    1    2    0    0 -0.26333285907E+02  0.16439233271E+02 -0.72824498662E+01  0.59301883691E+02  0.49999889960E+02 0.  0.
         12    1    1    2    0    0  0.26333285907E+02 -0.16439233271E+02  0.72824498662E+01  0.31886116309E+02  0.00000000000E+00 0. -1.
         11    1    3    3    0    0  0.85007617045E+01  0.28163445913E+01  0.13331224992E+02  0.16059772927E+02  0.51100000000E-03 0. -1.
        -11    1    3    3    0    0 -0.25780164217E+00  0.78233473814E+00 -0.14732712242E+01  0.16879092661E+01  0.51100000000E-03 0.  1.
        -12    1    3    3    0    0 -0.34576245970E+02  0.12840553941E+02 -0.19140403634E+02  0.41554201498E+02  0.00000000000E+00 0.  1.
</event>
<event>
 7    1  0.3461631E-013  0.5930196E+02  0.7816164E-02  0.1266605E+00
        -11   -1    0    0    0    0  0.00000000000E+00  0.00000000000E+00  0.45593999997E+02  0.45594000000E+02  0.51100000000E-03 0.  1.
         11   -1    0    0    0    0 -0.00000000000E+00 -0.00000000000E+00 -0.45593999997E+02  0.45594000000E+02  0.51100000000E-03 0. -1.
    9900012    2    1    2    0    0 -0.10692992827E+02  0.29947969777E+02 -0.23448862086E+01  0.59301961038E+02  0.50000031022E+02 0.  0.
         12    1    1    2    0    0  0.10692992827E+02 -0.29947969777E+02  0.23448862086E+01  0.31886038962E+02  0.00000000000E+00 0. -1.
         11    1    3    3    0    0  0.33984369391E+01  0.14959305485E+02 -0.12471776977E+02  0.19770569426E+02  0.51100000000E-03 0. -1.
        -11    1    3    3    0    0  0.48348830951E+01 -0.74285493501E+01  0.19585857557E+01  0.90771966164E+01  0.51100000000E-03 0.  1.
        -12    1    3    3    0    0 -0.18926312861E+02  0.22417213643E+02  0.81683050124E+01  0.30454194995E+02  0.00000000000E+00 0.  1.
</event>
<event>
 7    1  0.3461631E-013  0.5930194E+02  0.7816164E-02  0.1266605E+00
        -11   -1    0    0    0    0  0.00000000000E+00  0.00000000000E+00  0.45593999997E+02  0.45594000000E+02  0.51100000000E-03 0. -1.
         11   -1    0    0    0    0 -0.00000000000E+00 -0.00000000000E+00 -0.45593999997E+02  0.45594000000E+02  0.51100000000E-03 0.  1.
    9900012    2    1    2    0    0 -0.15100851691E+01 -0.42125960832E+01 -0.31570464780E+02  0.59301943966E+02  0.49999999887E+02 0.  0.
         12    1    1    2    0    0  0.15100851691E+01  0.42125960832E+01  0.31570464780E+02  0.31886056034E+02  0.00000000000E+00 0. -1.
         11    1    3    3    0    0 -0.23321196351E+02  0.22562029579E+01 -0.15030913596E+02  0.27836972084E+02  0.51100000000E-03 0.  1.
        -11    1    3    3    0    0  0.81817210832E+01  0.87885845611E+00  0.74121196195E+00  0.82621030920E+01  0.51100000000E-03 0. -1.
        -12    1    3    3    0    0  0.13629390098E+02 -0.73476574972E+01 -0.17280763146E+02  0.23202868790E+02  0.00000000000E+00 0.  1.
</event>
<event>
 7    1  0.3461631E-013  0.5930169E+02  0.7816164E-02  0.1266606E+00
        -11   -1    0    0    0    0  0.00000000000E+00  0.00000000000E+00  0.45593999997E+02  0.45594000000E+02  0.51100000000E-03 0.  1.
         11   -1    0    0    0    0 -0.00000000000E+00 -0.00000000000E+00 -0.45593999997E+02  0.45594000000E+02  0.51100000000E-03 0. -1.
    9900012    2    1    2    0    0 -0.30033838521E+02  0.25838902125E+01  0.10393682481E+02  0.59301692901E+02  0.49999542003E+02 0.  0.
         12    1    1    2    0    0  0.30033838521E+02 -0.25838902125E+01 -0.10393682481E+02  0.31886307099E+02  0.00000000000E+00 0. -1.
         11    1    3    3    0    0  0.53219449076E+01  0.14958889767E+01 -0.10384903041E+02  0.11764650138E+02  0.51100000000E-03 0. -1.
        -11    1    3    3    0    0 -0.80023477554E+01 -0.81423625336E+01 -0.87481015285E+00  0.11449931454E+02  0.51100000000E-03 0.  1.
        -12    1    3    3    0    0 -0.27353435673E+02  0.92303637695E+01  0.21653395675E+02  0.36087111309E+02  0.00000000000E+00 0.  1.
</event>
<event>
 7    1  0.3461631E-013  0.5930195E+02  0.7816164E-02  0.1266605E+00
        -11   -1    0    0    0    0  0.00000000000E+00  0.00000000000E+00  0.45593999997E+02  0.45594000000E+02  0.51100000000E-03 0.  1.
         11   -1    0    0    0    0 -0.00000000000E+00 -0.00000000000E+00 -0.45593999997E+02  0.45594000000E+02  0.51100000000E-03 0. -1.
    9900012    2    1    2    0    0 -0.22771386208E+02 -0.75751204761E+01  0.20995281880E+02  0.59301947543E+02  0.50000006411E+02 0.  0.
         12    1    1    2    0    0  0.22771386208E+02  0.75751204761E+01 -0.20995281880E+02  0.31886052457E+02  0.00000000000E+00 0. -1.
         11    1    3    3    0    0 -0.14887343803E+02 -0.99207805451E+00 -0.54880105665E+01  0.15897656576E+02  0.51100000000E-03 0. -1.
        -11    1    3    3    0    0 -0.13484051144E+02  0.55520704784E+01  0.98488185029E+00  0.14615577798E+02  0.51100000000E-03 0.  1.
         12    1    3    3    0    0  0.56000087391E+01 -0.12135112900E+02  0.25498410596E+02  0.28788713168E+02  0.00000000000E+00 0. -1.
</event>
<event>
 7    1  0.3461631E-013  0.5930197E+02  0.7816164E-02  0.1266605E+00
        -11   -1    0    0    0    0  0.00000000000E+00  0.00000000000E+00  0.45593999997E+02  0.45594000000E+02  0.51100000000E-03 0.  1.
         11   -1    0    0    0    0 -0.00000000000E+00 -0.00000000000E+00 -0.45593999997E+02  0.45594000000E+02  0.51100000000E-03 0. -1.
    9900012    2    1    2    0    0  0.84559226778E+01 -0.28564659314E+02 -0.11369996500E+02  0.59301965275E+02  0.50000038750E+02 0.  0.
         12    1    1    2    0    0 -0.84559226778E+01  0.28564659314E+02  0.11369996500E+02  0.31886034725E+02  0.00000000000E+00 0. -1.
         11    1    3    3    0    0  0.18841370780E+02 -0.30327321051E+01 -0.67166123691E+01  0.20231351879E+02  0.51100000000E-03 0. -1.
        -11    1    3    3    0    0 -0.11651705079E+02 -0.27311865488E+02  0.41664321476E+01  0.29984318981E+02  0.51100000000E-03 0.  1.
         12    1    3    3    0    0  0.12662569766E+01  0.17799382790E+01 -0.88198162781E+01  0.90862944145E+01  0.00000000000E+00 0. -1.
</event>
<event>
 7    1  0.3461631E-013  0.5930197E+02  0.7816164E-02  0.1266605E+00
        -11   -1    0    0    0    0  0.00000000000E+00  0.00000000000E+00  0.45593999997E+02  0.45594000000E+02  0.51100000000E-03 0.  1.
         11   -1    0    0    0    0 -0.00000000000E+00 -0.00000000000E+00 -0.45593999997E+02  0.45594000000E+02  0.51100000000E-03 0. -1.
    9900012    2    1    2    0    0  0.29221076111E+02  0.12636364768E+02  0.17805002240E+01  0.59301965680E+02  0.50000039488E+02 0.  0.
         12    1    1    2    0    0 -0.29221076111E+02 -0.12636364768E+02 -0.17805002240E+01  0.31886034320E+02  0.00000000000E+00 0. -1.
         11    1    3    3    0    0  0.23853200643E+01  0.77986090515E+01  0.11152148430E+02  0.13815877453E+02  0.51100000000E-03 0. -1.
        -11    1    3    3    0    0  0.24711772112E+02  0.44356859142E+01  0.92372302243E+01  0.26752073058E+02  0.51100000000E-03 0.  1.
         12    1    3    3    0    0  0.21239839347E+01  0.40206980215E+00 -0.18608878430E+02  0.18734015168E+02  0.00000000000E+00 0. -1.
</event>
<event>
 7    1  0.3461631E-013  0.5930194E+02  0.7816164E-02  0.1266605E+00
        -11   -1    0    0    0    0  0.00000000000E+00  0.00000000000E+00  0.45593999997E+02  0.45594000000E+02  0.51100000000E-03 0. -1.
         11   -1    0    0    0    0 -0.00000000000E+00 -0.00000000000E+00 -0.45593999997E+02  0.45594000000E+02  0.51100000000E-03 0.  1.
    9900012    2    1    2    0    0  0.15225483855E+01 -0.28166381432E+02 -0.14868010866E+02  0.59301938097E+02  0.49999989183E+02 0.  0.
         12    1    1    2    0    0 -0.15225483855E+01  0.28166381432E+02  0.14868010866E+02  0.31886061903E+02  0.00000000000E+00 0. -1.
         11    1    3    3    0    0  0.35445063536E-01 -0.19939146864E+02  0.81763017359E+00  0.19955935292E+02  0.51100000000E-03 0. -1.
        -11    1    3    3    0    0 -0.96882094246E+01 -0.92086005419E+01  0.62140080003E+01  0.14740204255E+02  0.51100000000E-03 0.  1.
        -12    1    3    3    0    0  0.11175312747E+02  0.98136597392E+00 -0.21899649040E+02  0.24605798549E+02  0.00000000000E+00 0.  1.
</event>
<event>
 7    1  0.3461631E-013  0.5930196E+02  0.7816164E-02  0.1266605E+00
        -11   -1    0    0    0    0  0.00000000000E+00  0.00000000000E+00  0.45593999997E+02  0.45594000000E+02  0.51100000000E-03 0. -1.
         11   -1    0    0    0    0 -0.00000000000E+00 -0.00000000000E+00 -0.45593999997E+02  0.45594000000E+02  0.51100000000E-03 0.  1.
    9900012    2    1    2    0    0 -0.12768131249E+02 -0.69288608943E+01 -0.28384591719E+02  0.59301963308E+02  0.50000035162E+02 0.  0.
         12    1    1    2    0    0  0.12768131249E+02  0.69288608943E+01  0.28384591719E+02  0.31886036692E+02  0.00000000000E+00 0. -1.
         11    1    3    3    0    0 -0.50394843439E+01  0.63739404069E+01 -0.36558848777E+01  0.89100512492E+01  0.51100000000E-03 0. -1.
        -11    1    3    3    0    0  0.15188895060E+02 -0.14250520585E+01 -0.18234980808E+02  0.23774941258E+02  0.51100000000E-03 0.  1.
        -12    1    3    3    0    0 -0.22917541965E+02 -0.11877749243E+02 -0.64937260332E+01  0.26616970800E+02  0.00000000000E+00 0.  1.
</event>
<event>
 7    1  0.3461631E-013  0.5930194E+02  0.7816164E-02  0.1266605E+00
        -11   -1    0    0    0    0  0.00000000000E+00  0.00000000000E+00  0.45593999997E+02  0.45594000000E+02  0.51100000000E-03 0. -1.
         11   -1    0    0    0    0 -0.00000000000E+00 -0.00000000000E+00 -0.45593999997E+02  0.45594000000E+02  0.51100000000E-03 0.  1.
    9900012    2    1    2    0    0  0.31752721109E+02  0.34328610961E+00  0.28927221300E+01  0.59301937457E+02  0.49999988016E+02 0.  0.
         12    1    1    2    0    0 -0.31752721109E+02 -0.34328610961E+00 -0.28927221300E+01  0.31886062543E+02  0.00000000000E+00 0. -1.
         11    1    3    3    0    0 -0.65547606513E+01 -0.12974029670E+02  0.46076774114E+01  0.15248640086E+02  0.51100000000E-03 0. -1.
        -11    1    3    3    0    0 -0.38935045785E+00  0.12552550988E+01  0.29724075590E+01  0.32499947846E+01  0.51100000000E-03 0.  1.
        -12    1    3    3    0    0  0.38696832218E+02  0.12062060681E+02 -0.46873628404E+01  0.40803302587E+02  0.00000000000E+00 0.  1.
</event>
<event>
 7    1  0.3461631E-013  0.5930192E+02  0.7816164E-02  0.1266605E+00
        -11   -1    0    0    0    0  0.00000000000E+00  0.00000000000E+00  0.45593999997E+02  0.45594000000E+02  0.51100000000E-03 0.  1.
         11   -1    0    0    0    0 -0.00000000000E+00 -0.00000000000E+00 -0.45593999997E+02  0.45594000000E+02  0.51100000000E-03 0. -1.
    9900012    2    1    2    0    0  0.15040773659E+01 -0.25111763254E+02  0.19592325716E+02  0.59301919504E+02  0.49999955274E+02 0.  0.
         12    1    1    2    0    0 -0.15040773659E+01  0.25111763254E+02 -0.19592325716E+02  0.31886080496E+02  0.00000000000E+00 0. -1.
         11    1    3    3    0    0 -0.29106424597E+01 -0.63236873017E+01 -0.14323282156E+02  0.15925365697E+02  0.51100000000E-03 0. -1.
        -11    1    3    3    0    0  0.58438484911E+01 -0.57635311328E+01  0.14081256336E+01  0.83277652685E+01  0.51100000000E-03 0.  1.
        -12    1    3    3    0    0 -0.14291286655E+01 -0.13024544819E+02  0.32507482239E+02  0.35048788538E+02  0.00000000000E+00 0.  1.
</event>
<event>
 7    1  0.3461631E-013  0.5930195E+02  0.7816164E-02  0.1266605E+00
        -11   -1    0    0    0    0  0.00000000000E+00  0.00000000000E+00  0.45593999997E+02  0.45594000000E+02  0.51100000000E-03 0. -1.
         11   -1    0    0    0    0 -0.00000000000E+00 -0.00000000000E+00 -0.45593999997E+02  0.45594000000E+02  0.51100000000E-03 0.  1.
    9900012    2    1    2    0    0  0.11044446345E+02 -0.29176422137E+02  0.65936827716E+01  0.59301952012E+02  0.50000014562E+02 0.  0.
         12    1    1    2    0    0 -0.11044446345E+02  0.29176422137E+02 -0.65936827716E+01  0.31886047988E+02  0.00000000000E+00 0. -1.
         11    1    3    3    0    0  0.95616741788E+01  0.46900379114E+01 -0.20976954169E+01  0.10854602482E+02  0.51100000000E-03 0. -1.
        -11    1    3    3    0    0  0.42498620476E+01  0.43254804159E+01 -0.49192375632E+01  0.78083293166E+01  0.51100000000E-03 0.  1.
         12    1    3    3    0    0 -0.27670898811E+01 -0.38191940464E+02  0.13610615752E+02  0.40639020214E+02  0.00000000000E+00 0. -1.
</event>
<event>
 7    1  0.3461631E-013  0.5930202E+02  0.7816164E-02  0.1266604E+00
        -11   -1    0    0    0    0  0.00000000000E+00  0.00000000000E+00  0.45593999997E+02  0.45594000000E+02  0.51100000000E-03 0.  1.
         11   -1    0    0    0    0 -0.00000000000E+00 -0.00000000000E+00 -0.45593999997E+02  0.45594000000E+02  0.51100000000E-03 0. -1.
    9900012    2    1    2    0    0  0.19777616482E+02 -0.10217865888E+02  0.22828858045E+02  0.59302021003E+02  0.50000140383E+02 0.  0.
         12    1    1    2    0    0 -0.19777616482E+02  0.10217865888E+02 -0.22828858045E+02  0.31885978997E+02  0.00000000000E+00 0. -1.
         11    1    3    3    0    0  0.56694689123E+01 -0.29810339553E+01 -0.25284108498E-01  0.64054727177E+01  0.51100000000E-03 0.  1.
        -11    1    3    3    0    0  0.96101218184E+01 -0.39170110482E+00 -0.12970496526E+02  0.16147496757E+02  0.51100000000E-03 0. -1.
        -12    1    3    3    0    0  0.44980257509E+01 -0.68451308278E+01  0.35824638679E+02  0.36749051528E+02  0.00000000000E+00 0.  1.
</event>
<event>
 7    1  0.3461631E-013  0.5930202E+02  0.7816164E-02  0.1266605E+00
        -11   -1    0    0    0    0  0.00000000000E+00  0.00000000000E+00  0.45593999997E+02  0.45594000000E+02  0.51100000000E-03 0.  1.
         11   -1    0    0    0    0 -0.00000000000E+00 -0.00000000000E+00 -0.45593999997E+02  0.45594000000E+02  0.51100000000E-03 0. -1.
    9900012    2    1    2    0    0  0.12977991410E+02 -0.13514465261E+02  0.25800133613E+02  0.59302016766E+02  0.50000132657E+02 0.  0.
         12    1    1    2    0    0 -0.12977991410E+02  0.13514465261E+02 -0.25800133613E+02  0.31885983234E+02  0.00000000000E+00 0. -1.
         11    1    3    3    0    0  0.11593885161E+02  0.67942502954E+01  0.10383630922E+02  0.16982337930E+02  0.51100000000E-03 0. -1.
        -11    1    3    3    0    0  0.91295225103E+01  0.65116997851E+01  0.67514255447E+01  0.13089391220E+02  0.51100000000E-03 0.  1.
         12    1    3    3    0    0 -0.77454162610E+01 -0.26820415342E+02  0.86650771464E+01  0.29230287616E+02  0.00000000000E+00 0. -1.
</event>
<event>
 7    1  0.3461631E-013  0.5930200E+02  0.7816164E-02  0.1266605E+00
        -11   -1    0    0    0    0  0.00000000000E+00  0.00000000000E+00  0.45593999997E+02  0.45594000000E+02  0.51100000000E-03 0.  1.
         11   -1    0    0    0    0 -0.00000000000E+00 -0.00000000000E+00 -0.45593999997E+02  0.45594000000E+02  0.51100000000E-03 0. -1.
    9900012    2    1    2    0    0  0.29949723120E+02  0.33773855049E+01  0.10407898428E+02  0.59301999976E+02  0.50000102037E+02 0.  0.
         12    1    1    2    0    0 -0.29949723120E+02 -0.33773855049E+01 -0.10407898428E+02  0.31886000024E+02  0.00000000000E+00 0. -1.
         11    1    3    3    0    0  0.10082265074E+02 -0.52621799261E+01  0.78950324589E+01  0.13844643165E+02  0.51100000000E-03 0.  1.
        -11    1    3    3    0    0 -0.42386707628E+01 -0.10950641860E+02  0.75911536803E+01  0.13982435462E+02  0.51100000000E-03 0. -1.
         12    1    3    3    0    0  0.24106128809E+02  0.19590207291E+02 -0.50782877114E+01  0.31474921349E+02  0.00000000000E+00 0. -1.
</event>
<event>
 7    1  0.3461631E-013  0.5930197E+02  0.7816164E-02  0.1266605E+00
        -11   -1    0    0    0    0  0.00000000000E+00  0.00000000000E+00  0.45593999997E+02  0.45594000000E+02  0.51100000000E-03 0.  1.
         11   -1    0    0    0    0 -0.00000000000E+00 -0.00000000000E+00 -0.45593999997E+02  0.45594000000E+02  0.51100000000E-03 0. -1.
    9900012    2    1    2    0    0  0.18216106972E+02 -0.25556293777E+02 -0.56363349178E+01  0.59301968950E+02  0.50000045451E+02 0.  0.
         12    1    1    2    0    0 -0.18216106972E+02  0.25556293777E+02  0.56363349178E+01  0.31886031050E+02  0.00000000000E+00 0. -1.
         11    1    3    3    0    0 -0.96216685102E+01  0.98695808728E+00  0.62325045978E+01  0.11506289802E+02  0.51100000000E-03 0. -1.
        -11    1    3    3    0    0 -0.13492173318E+01 -0.79558723446E+01 -0.10397352454E+02  0.13161353673E+02  0.51100000000E-03 0.  1.
        -12    1    3    3    0    0  0.29186992814E+02 -0.18587379520E+02 -0.14714870612E+01  0.34634325475E+02  0.00000000000E+00 0.  1.
</event>
<event>
 7    1  0.3461631E-013  0.5930195E+02  0.7816164E-02  0.1266605E+00
        -11   -1    0    0    0    0  0.00000000000E+00  0.00000000000E+00  0.45593999997E+02  0.45594000000E+02  0.51100000000E-03 0. -1.
         11   -1    0    0    0    0 -0.00000000000E+00 -0.00000000000E+00 -0.45593999997E+02  0.45594000000E+02  0.51100000000E-03 0.  1.
    9900012    2    1    2    0    0 -0.21771951430E+02 -0.19006723375E+02 -0.13470228875E+02  0.59301945549E+02  0.50000002775E+02 0.  0.
         12    1    1    2    0    0  0.21771951430E+02  0.19006723375E+02  0.13470228875E+02  0.31886054451E+02  0.00000000000E+00 0. -1.
         11    1    3    3    0    0  0.42812885960E+01  0.20232244984E+01 -0.10422410781E+02  0.11447686061E+02  0.51100000000E-03 0. -1.
        -11    1    3    3    0    0 -0.60616199942E+01  0.88368789918E+01 -0.50749553977E+01  0.11857016481E+02  0.51100000000E-03 0.  1.
        -12    1    3    3    0    0 -0.19991620032E+02 -0.29866826865E+02  0.20271373037E+01  0.35997243007E+02  0.00000000000E+00 0.  1.
</event>
<event>
 7    1  0.3461631E-013  0.5930195E+02  0.7816164E-02  0.1266605E+00
        -11   -1    0    0    0    0  0.00000000000E+00  0.00000000000E+00  0.45593999997E+02  0.45594000000E+02  0.51100000000E-03 0. -1.
         11   -1    0    0    0    0 -0.00000000000E+00 -0.00000000000E+00 -0.45593999997E+02  0.45594000000E+02  0.51100000000E-03 0.  1.
    9900012    2    1    2    0    0 -0.23726653577E+02 -0.20029322043E+02 -0.72520787730E+01  0.59301945400E+02  0.50000002502E+02 0.  0.
         12    1    1    2    0    0  0.23726653577E+02  0.20029322043E+02  0.72520787730E+01  0.31886054600E+02  0.00000000000E+00 0. -1.
         11    1    3    3    0    0 -0.29846734193E+01 -0.10262422003E+02 -0.18615438264E+02  0.21465323730E+02  0.51100000000E-03 0. -1.
        -11    1    3    3    0    0 -0.97365147886E+00  0.43154000604E+01 -0.63853658051E+01  0.77681124869E+01  0.51100000000E-03 0.  1.
         12    1    3    3    0    0 -0.19768328679E+02 -0.14082300100E+02  0.17748725296E+02  0.30068509183E+02  0.00000000000E+00 0. -1.
</event>
<event>
 7    1  0.3461631E-013  0.5930194E+02  0.7816164E-02  0.1266605E+00
        -11   -1    0    0    0    0  0.00000000000E+00  0.00000000000E+00  0.45593999997E+02  0.45594000000E+02  0.51100000000E-03 0.  1.
         11   -1    0    0    0    0 -0.00000000000E+00 -0.00000000000E+00 -0.45593999997E+02  0.45594000000E+02  0.51100000000E-03 0. -1.
    9900012    2    1    2    0    0  0.27229313886E+02  0.12995960873E+02 -0.10314577719E+02  0.59301936473E+02  0.49999986223E+02 0.  0.
         12    1    1    2    0    0 -0.27229313886E+02 -0.12995960873E+02  0.10314577719E+02  0.31886063527E+02  0.00000000000E+00 0. -1.
         11    1    3    3    0    0  0.10735612888E+02  0.10795783677E+02  0.10119343477E+02  0.18281231959E+02  0.51100000000E-03 0. -1.
        -11    1    3    3    0    0  0.58737621388E+01  0.11434543999E+01  0.83780488483E+01  0.10295643370E+02  0.51100000000E-03 0.  1.
         12    1    3    3    0    0  0.10619938859E+02  0.10567227965E+01 -0.28811970045E+02  0.30725061144E+02  0.00000000000E+00 0. -1.
</event>
<event>
 7    1  0.3461631E-013  0.5930193E+02  0.7816164E-02  0.1266605E+00
        -11   -1    0    0    0    0  0.00000000000E+00  0.00000000000E+00  0.45593999997E+02  0.45594000000E+02  0.51100000000E-03 0. -1.
         11   -1    0    0    0    0 -0.00000000000E+00 -0.00000000000E+00 -0.45593999997E+02  0.45594000000E+02  0.51100000000E-03 0.  1.
    9900012    2    1    2    0    0 -0.26327730124E+02  0.16517892295E+02  0.71226072406E+01  0.59301926657E+02  0.49999968319E+02 0.  0.
         12    1    1    2    0    0  0.26327730124E+02 -0.16517892295E+02 -0.71226072406E+01  0.31886073343E+02  0.00000000000E+00 0. -1.
         11    1    3    3    0    0  0.92806813752E+00  0.36951324453E+01  0.22550160089E+02  0.22869740588E+02  0.51100000000E-03 0. -1.
        -11    1    3    3    0    0 -0.35013512646E+01  0.51361444874E+01  0.13377614659E+01  0.63583839829E+01  0.51100000000E-03 0.  1.
         12    1    3    3    0    0 -0.23754446997E+02  0.76866153625E+01 -0.16765314314E+02  0.30073802086E+02  0.00000000000E+00 0. -1.
</event>
<event>
 7    1  0.3461631E-013  0.5930193E+02  0.7816164E-02  0.1266605E+00
        -11   -1    0    0    0    0  0.00000000000E+00  0.00000000000E+00  0.45593999997E+02  0.45594000000E+02  0.51100000000E-03 0.  1.
         11   -1    0    0    0    0 -0.00000000000E+00 -0.00000000000E+00 -0.45593999997E+02  0.45594000000E+02  0.51100000000E-03 0. -1.
    9900012    2    1    2    0    0 -0.15826477200E+02 -0.93355601882E+01  0.26059377490E+02  0.59301933768E+02  0.49999981290E+02 0.  0.
         12    1    1    2    0    0  0.15826477200E+02  0.93355601882E+01 -0.26059377490E+02  0.31886066232E+02  0.00000000000E+00 0. -1.
         11    1    3    3    0    0 -0.14165285463E+02 -0.17502557014E+02 -0.53140108911E+01  0.23135114573E+02  0.51100000000E-03 0. -1.
        -11    1    3    3    0    0  0.45115302714E+01 -0.26768164027E+01  0.12331773497E+02  0.13401189846E+02  0.51100000000E-03 0.  1.
        -12    1    3    3    0    0 -0.61727220079E+01  0.10843813228E+02  0.19041614883E+02  0.22765629350E+02  0.00000000000E+00 0.  1.
</event>
<event>
 7    1  0.3461631E-013  0.5930194E+02  0.7816164E-02  0.1266605E+00
        -11   -1    0    0    0    0  0.00000000000E+00  0.00000000000E+00  0.45593999997E+02  0.45594000000E+02  0.51100000000E-03 0.  1.
         11   -1    0    0    0    0 -0.00000000000E+00 -0.00000000000E+00 -0.45593999997E+02  0.45594000000E+02  0.51100000000E-03 0. -1.
    9900012    2    1    2    0    0  0.94874461964E+01  0.37499174626E+01  0.30210050531E+02  0.59301942398E+02  0.49999997028E+02 0.  0.
         12    1    1    2    0    0 -0.94874461964E+01 -0.37499174626E+01 -0.30210050531E+02  0.31886057602E+02  0.00000000000E+00 0. -1.
         11    1    3    3    0    0 -0.55962614261E+01  0.71415732003E+01  0.26732790566E+01  0.94586801881E+01  0.51100000000E-03 0. -1.
        -11    1    3    3    0    0  0.13448303486E+02  0.43012715219E+01 -0.60404521834E+01  0.15357241491E+02  0.51100000000E-03 0.  1.
        -12    1    3    3    0    0  0.16354041363E+01 -0.76929272596E+01  0.33577223658E+02  0.34486020719E+02  0.00000000000E+00 0.  1.
</event>
<event>
 7    1  0.3461631E-013  0.5930196E+02  0.7816164E-02  0.1266605E+00
        -11   -1    0    0    0    0  0.00000000000E+00  0.00000000000E+00  0.45593999997E+02  0.45594000000E+02  0.51100000000E-03 0. -1.
         11   -1    0    0    0    0 -0.00000000000E+00 -0.00000000000E+00 -0.45593999997E+02  0.45594000000E+02  0.51100000000E-03 0.  1.
    9900012    2    1    2    0    0 -0.11762185253E+02 -0.24547145842E+02 -0.16607476128E+02  0.59301958630E+02  0.50000026630E+02 0.  0.
         12    1    1    2    0    0  0.11762185253E+02  0.24547145842E+02  0.16607476128E+02  0.31886041370E+02  0.00000000000E+00 0. -1.
         11    1    3    3    0    0  0.14613852017E+02 -0.12393554338E+02  0.24866656017E+01  0.19322224664E+02  0.51100000000E-03 0. -1.
        -11    1    3    3    0    0 -0.72848542177E+01 -0.49848600187E+01 -0.17407131630E+02  0.19517329792E+02  0.51100000000E-03 0.  1.
        -12    1    3    3    0    0 -0.19091183053E+02 -0.71687314858E+01 -0.16870101002E+01  0.20462404173E+02  0.00000000000E+00 0.  1.
</event>
<event>
 7    1  0.3803852E-013  0.5930195E+02  0.7816164E-02  0.1266605E+00
        -11   -1    0    0    0    0  0.00000000000E+00  0.00000000000E+00  0.45593999997E+02  0.45594000000E+02  0.51100000000E-03 0. -1.
         11   -1    0    0    0    0 -0.00000000000E+00 -0.00000000000E+00 -0.45593999997E+02  0.45594000000E+02  0.51100000000E-03 0.  1.
    9900012    2    1    2    0    0 -0.12831725004E+02  0.15004768979E+02 -0.25038445693E+02  0.59301952559E+02  0.50000015559E+02 0.  0.
         12    1    1    2    0    0  0.12831725004E+02 -0.15004768979E+02  0.25038445693E+02  0.31886047441E+02  0.00000000000E+00 0. -1.
         11    1    3    3    0    0 -0.41547134625E+01  0.12958972116E+02 -0.34619055243E+01  0.14042129197E+02  0.51100000000E-03 0. -1.
        -11    1    3    3    0    0 -0.58176014906E+01  0.13586521042E+02 -0.28062148370E+02  0.31716276776E+02  0.51100000000E-03 0.  1.
         12    1    3    3    0    0 -0.28594100506E+01 -0.11540724179E+02  0.64856082010E+01  0.13543546586E+02  0.00000000000E+00 0. -1.
</event>
<event>
 7    1  0.5048194E-013  0.5930195E+02  0.7816164E-02  0.1266605E+00
        -11   -1    0    0    0    0  0.00000000000E+00  0.00000000000E+00  0.45593999997E+02  0.45594000000E+02  0.51100000000E-03 0. -1.
         11   -1    0    0    0    0 -0.00000000000E+00 -0.00000000000E+00 -0.45593999997E+02  0.45594000000E+02  0.51100000000E-03 0.  1.
    9900012    2    1    2    0    0 -0.98687549062E+01  0.21283259791E+01 -0.30245630546E+02  0.59301948786E+02  0.50000008679E+02 0.  0.
         12    1    1    2    0    0  0.98687549062E+01 -0.21283259791E+01  0.30245630546E+02  0.31886051214E+02  0.00000000000E+00 0. -1.
         11    1    3    3    0    0  0.62095808267E+01 -0.11512749335E+02 -0.48888206118E+01  0.13964342395E+02  0.51100000000E-03 0. -1.
        -11    1    3    3    0    0 -0.17754594042E+02 -0.38849527345E+01 -0.19797166248E+02  0.26874639701E+02  0.51100000000E-03 0.  1.
         12    1    3    3    0    0  0.16762583094E+01  0.17526028049E+02 -0.55596436858E+01  0.18462966690E+02  0.00000000000E+00 0. -1.
</event>
<event>
 7    1  0.3461631E-013  0.5930196E+02  0.7816164E-02  0.1266605E+00
        -11   -1    0    0    0    0  0.00000000000E+00  0.00000000000E+00  0.45593999997E+02  0.45594000000E+02  0.51100000000E-03 0. -1.
         11   -1    0    0    0    0 -0.00000000000E+00 -0.00000000000E+00 -0.45593999997E+02  0.45594000000E+02  0.51100000000E-03 0.  1.
    9900012    2    1    2    0    0  0.18452366884E+02 -0.20482982508E+02 -0.16021153547E+02  0.59301956391E+02  0.50000022547E+02 0.  0.
         12    1    1    2    0    0 -0.18452366884E+02  0.20482982508E+02  0.16021153547E+02  0.31886043609E+02  0.00000000000E+00 0. -1.
         11    1    3    3    0    0  0.17504007708E+02 -0.82024531824E+01 -0.25868463653E+00  0.19332290140E+02  0.51100000000E-03 0. -1.
        -11    1    3    3    0    0  0.82767068987E+01  0.71910312961E+01  0.36086115990E+01  0.11542828342E+02  0.51100000000E-03 0.  1.
        -12    1    3    3    0    0 -0.73283477225E+01 -0.19471560622E+02 -0.19371080510E+02  0.28426837909E+02  0.00000000000E+00 0.  1.
</event>
<event>
 7    1  0.3461631E-013  0.5930195E+02  0.7816164E-02  0.1266605E+00
        -11   -1    0    0    0    0  0.00000000000E+00  0.00000000000E+00  0.45593999997E+02  0.45594000000E+02  0.51100000000E-03 0. -1.
         11   -1    0    0    0    0 -0.00000000000E+00 -0.00000000000E+00 -0.45593999997E+02  0.45594000000E+02  0.51100000000E-03 0.  1.
    9900012    2    1    2    0    0 -0.25727263817E+02 -0.15581517843E+02 -0.10585098848E+02  0.59301951022E+02  0.50000012756E+02 0.  0.
         12    1    1    2    0    0  0.25727263817E+02  0.15581517843E+02  0.10585098848E+02  0.31886048978E+02  0.00000000000E+00 0. -1.
         11    1    3    3    0    0 -0.17780269353E+02 -0.16106348727E+00  0.48288910907E+01  0.18425040275E+02  0.51100000000E-03 0. -1.
        -11    1    3    3    0    0 -0.11735895794E+02  0.70605252010E+01 -0.64129485874E+00  0.13711073100E+02  0.51100000000E-03 0.  1.
        -12    1    3    3    0    0  0.37889013304E+01 -0.22480979557E+02 -0.14772695080E+02  0.27165837646E+02  0.00000000000E+00 0.  1.
</event>
<event>
 7    1  0.3461631E-013  0.5930201E+02  0.7816164E-02  0.1266605E+00
        -11   -1    0    0    0    0  0.00000000000E+00  0.00000000000E+00  0.45593999997E+02  0.45594000000E+02  0.51100000000E-03 0.  1.
         11   -1    0    0    0    0 -0.00000000000E+00 -0.00000000000E+00 -0.45593999997E+02  0.45594000000E+02  0.51100000000E-03 0. -1.
    9900012    2    1    2    0    0 -0.27501935054E+02  0.14938751955E+02  0.60986668680E+01  0.59302008103E+02  0.50000116857E+02 0.  0.
         12    1    1    2    0    0  0.27501935054E+02 -0.14938751955E+02 -0.60986668680E+01  0.31885991897E+02  0.00000000000E+00 0. -1.
         11    1    3    3    0    0 -0.14591742366E+02  0.11707952191E+02 -0.13494160456E+02  0.23067020970E+02  0.51100000000E-03 0. -1.
        -11    1    3    3    0    0 -0.20963489593E+02  0.45788738628E+01  0.10107115937E+02  0.23718932830E+02  0.51100000000E-03 0.  1.
        -12    1    3    3    0    0  0.80532969040E+01 -0.13480740981E+01  0.94857113871E+01  0.12516054303E+02  0.00000000000E+00 0.  1.
</event>
<event>
 7    1  0.3461631E-013  0.5930194E+02  0.7816164E-02  0.1266605E+00
        -11   -1    0    0    0    0  0.00000000000E+00  0.00000000000E+00  0.45593999997E+02  0.45594000000E+02  0.51100000000E-03 0. -1.
         11   -1    0    0    0    0 -0.00000000000E+00 -0.00000000000E+00 -0.45593999997E+02  0.45594000000E+02  0.51100000000E-03 0.  1.
    9900012    2    1    2    0    0  0.14506377577E+02  0.69758178020E+01 -0.27524965612E+02  0.59301941035E+02  0.49999994541E+02 0.  0.
         12    1    1    2    0    0 -0.14506377577E+02 -0.69758178020E+01  0.27524965612E+02  0.31886058965E+02  0.00000000000E+00 0. -1.
         11    1    3    3    0    0  0.93154986516E+01 -0.57522567182E+01 -0.24538764329E+02  0.26870391280E+02  0.51100000000E-03 0. -1.
        -11    1    3    3    0    0  0.87089546880E+01 -0.76262565099E+01 -0.20345317586E+01  0.11753510108E+02  0.51100000000E-03 0.  1.
        -12    1    3    3    0    0 -0.35180757626E+01  0.20354331030E+02 -0.95166952429E+00  0.20678039647E+02  0.00000000000E+00 0.  1.
</event>
<event>
 7    1  0.3461631E-013  0.5930206E+02  0.7816164E-02  0.1266604E+00
        -11   -1    0    0    0    0  0.00000000000E+00  0.00000000000E+00  0.45593999997E+02  0.45594000000E+02  0.51100000000E-03 0.  1.
         11   -1    0    0    0    0 -0.00000000000E+00 -0.00000000000E+00 -0.45593999997E+02  0.45594000000E+02  0.51100000000E-03 0. -1.
    9900012    2    1    2    0    0  0.72093044805E+01 -0.24342637193E+02  0.19291841329E+02  0.59302059549E+02  0.50000210683E+02 0.  0.
         12    1    1    2    0    0 -0.72093044805E+01  0.24342637193E+02 -0.19291841329E+02  0.31885940451E+02  0.00000000000E+00 0. -1.
         11    1    3    3    0    0 -0.29277414297E+01 -0.23842709583E+02  0.79593113668E+01  0.25306068597E+02  0.51100000000E-03 0. -1.
        -11    1    3    3    0    0  0.86386589806E+01 -0.82308440319E+01 -0.71468733385E+01  0.13908667127E+02  0.51100000000E-03 0.  1.
        -12    1    3    3    0    0  0.14983869296E+01  0.77309164227E+01  0.18479403300E+02  0.20087323825E+02  0.00000000000E+00 0.  1.
</event>
<event>
 7    1  0.3461631E-013  0.5930228E+02  0.7816164E-02  0.1266604E+00
        -11   -1    0    0    0    0  0.00000000000E+00  0.00000000000E+00  0.45593999997E+02  0.45594000000E+02  0.51100000000E-03 0.  1.
         11   -1    0    0    0    0 -0.00000000000E+00 -0.00000000000E+00 -0.45593999997E+02  0.45594000000E+02  0.51100000000E-03 0. -1.
    9900012    2    1    2    0    0 -0.17602018014E+01 -0.27832213547E+02  0.15458615142E+02  0.59302279004E+02  0.50000610913E+02 0.  0.
         12    1    1    2    0    0  0.17602018014E+01  0.27832213547E+02 -0.15458615142E+02  0.31885720996E+02  0.00000000000E+00 0. -1.
         11    1    3    3    0    0  0.13004013399E+02 -0.17692634755E+01  0.15373752115E+02  0.20213532894E+02  0.51100000000E-03 0. -1.
        -11    1    3    3    0    0 -0.27440574516E+00 -0.23946569634E+02  0.30697181191E+01  0.24144081373E+02  0.51100000000E-03 0.  1.
        -12    1    3    3    0    0 -0.14489809455E+02 -0.21163804377E+01 -0.29848550923E+01  0.14944664738E+02  0.00000000000E+00 0.  1.
</event>
<event>
 7    1  0.3461631E-013  0.5930193E+02  0.7816164E-02  0.1266605E+00
        -11   -1    0    0    0    0  0.00000000000E+00  0.00000000000E+00  0.45593999997E+02  0.45594000000E+02  0.51100000000E-03 0.  1.
         11   -1    0    0    0    0 -0.00000000000E+00 -0.00000000000E+00 -0.45593999997E+02  0.45594000000E+02  0.51100000000E-03 0. -1.
    9900012    2    1    2    0    0  0.15975427643E+02  0.65939404355E+00  0.27587537344E+02  0.59301932422E+02  0.49999978834E+02 0.  0.
         12    1    1    2    0    0 -0.15975427643E+02 -0.65939404355E+00 -0.27587537344E+02  0.31886067578E+02  0.00000000000E+00 0. -1.
         11    1    3    3    0    0  0.14647186904E+02  0.14575317468E+02  0.20219145577E+01  0.20762179612E+02  0.51100000000E-03 0. -1.
        -11    1    3    3    0    0  0.19505854495E+00  0.72814116465E+01  0.92086184310E+01  0.11741194874E+02  0.51100000000E-03 0.  1.
         12    1    3    3    0    0  0.11331821938E+01 -0.21197335071E+02  0.16357004355E+02  0.26798557936E+02  0.00000000000E+00 0. -1.
</event>
<event>
 7    1  0.3461631E-013  0.5930190E+02  0.7816164E-02  0.1266605E+00
        -11   -1    0    0    0    0  0.00000000000E+00  0.00000000000E+00  0.45593999997E+02  0.45594000000E+02  0.51100000000E-03 0.  1.
         11   -1    0    0    0    0 -0.00000000000E+00 -0.00000000000E+00 -0.45593999997E+02  0.45594000000E+02  0.51100000000E-03 0. -1.
    9900012    2    1    2    0    0 -0.19921871955E+02 -0.11209982038E+02  0.22230130619E+02  0.59301899786E+02  0.49999919315E+02 0.  0.
         12    1    1    2    0    0  0.19921871955E+02  0.11209982038E+02 -0.22230130619E+02  0.31886100214E+02  0.00000000000E+00 0. -1.
         11    1    3    3    0    0 -0.37774839743E+01  0.11798441034E+02  0.13371927797E+02  0.18228577818E+02  0.51100000000E-03 0. -1.
        -11    1    3    3    0    0  0.68132593111E+01 -0.53748866355E+01  0.84643374049E+01  0.12122496308E+02  0.51100000000E-03 0.  1.
        -12    1    3    3    0    0 -0.22957647292E+02 -0.17633536436E+02  0.39386541777E+00  0.28950825660E+02  0.00000000000E+00 0.  1.
</event>
<event>
 7    1  0.3461631E-013  0.5930194E+02  0.7816164E-02  0.1266605E+00
        -11   -1    0    0    0    0  0.00000000000E+00  0.00000000000E+00  0.45593999997E+02  0.45594000000E+02  0.51100000000E-03 0. -1.
         11   -1    0    0    0    0 -0.00000000000E+00 -0.00000000000E+00 -0.45593999997E+02  0.45594000000E+02  0.51100000000E-03 0.  1.
    9900012    2    1    2    0    0  0.30042862213E+02 -0.84560387351E+01  0.65301525938E+01  0.59301936368E+02  0.49999986030E+02 0.  0.
         12    1    1    2    0    0 -0.30042862213E+02  0.84560387351E+01 -0.65301525938E+01  0.31886063632E+02  0.00000000000E+00 0. -1.
         11    1    3    3    0    0  0.12079655977E+02 -0.97259904314E+01  0.75905089297E+01  0.17266406820E+02  0.51100000000E-03 0. -1.
        -11    1    3    3    0    0  0.19465813065E+02 -0.51189463772E+01  0.14725821670E+02  0.24939352727E+02  0.51100000000E-03 0.  1.
         12    1    3    3    0    0 -0.15026068291E+01  0.63888980734E+01 -0.15786178006E+02  0.17096176821E+02  0.00000000000E+00 0. -1.
</event>
<event>
 7    1  0.3461631E-013  0.5930209E+02  0.7816164E-02  0.1266604E+00
        -11   -1    0    0    0    0  0.00000000000E+00  0.00000000000E+00  0.45593999997E+02  0.45594000000E+02  0.51100000000E-03 0.  1.
         11   -1    0    0    0    0 -0.00000000000E+00 -0.00000000000E+00 -0.45593999997E+02  0.45594000000E+02  0.51100000000E-03 0. -1.
    9900012    2    1    2    0    0  0.80358229584E+01 -0.39770384296E+01  0.30599349604E+02  0.59302086473E+02  0.50000259785E+02 0.  0.
         12    1    1    2    0    0 -0.80358229584E+01  0.39770384296E+01 -0.30599349604E+02  0.31885913527E+02  0.00000000000E+00 0. -1.
         11    1    3    3    0    0 -0.48281181020E+00  0.10893512083E+02  0.12996272029E+02  0.16964810628E+02  0.51100000000E-03 0. -1.
        -11    1    3    3    0    0 -0.80039400912E+00  0.52011532913E+01  0.19432303596E+02  0.20132239057E+02  0.51100000000E-03 0.  1.
         12    1    3    3    0    0  0.93190287778E+01 -0.20071703803E+02 -0.18292260209E+01  0.22205036788E+02  0.00000000000E+00 0. -1.
</event>
<event>
 7    1  0.3461631E-013  0.5930193E+02  0.7816164E-02  0.1266605E+00
        -11   -1    0    0    0    0  0.00000000000E+00  0.00000000000E+00  0.45593999997E+02  0.45594000000E+02  0.51100000000E-03 0. -1.
         11   -1    0    0    0    0 -0.00000000000E+00 -0.00000000000E+00 -0.45593999997E+02  0.45594000000E+02  0.51100000000E-03 0.  1.
    9900012    2    1    2    0    0  0.12688361245E+02  0.41039162025E+01 -0.28963503698E+02  0.59301934301E+02  0.49999982261E+02 0.  0.
         12    1    1    2    0    0 -0.12688361245E+02 -0.41039162025E+01  0.28963503698E+02  0.31886065699E+02  0.00000000000E+00 0. -1.
         11    1    3    3    0    0  0.47378505163E+01 -0.69357843314E+01  0.30364403864E+01  0.89315341509E+01  0.51100000000E-03 0. -1.
        -11    1    3    3    0    0  0.14417569495E+02 -0.93267140620E+01 -0.10892026938E+02  0.20334457367E+02  0.51100000000E-03 0.  1.
         12    1    3    3    0    0 -0.64670587670E+01  0.20366414596E+02 -0.21107917147E+02  0.30035942783E+02  0.00000000000E+00 0. -1.
</event>
<event>
 7    1  0.3461631E-013  0.5930191E+02  0.7816164E-02  0.1266605E+00
        -11   -1    0    0    0    0  0.00000000000E+00  0.00000000000E+00  0.45593999997E+02  0.45594000000E+02  0.51100000000E-03 0. -1.
         11   -1    0    0    0    0 -0.00000000000E+00 -0.00000000000E+00 -0.45593999997E+02  0.45594000000E+02  0.51100000000E-03 0.  1.
    9900012    2    1    2    0    0  0.23217321771E+02 -0.32770372849E+01 -0.21608793179E+02  0.59301906695E+02  0.49999931915E+02 0.  0.
         12    1    1    2    0    0 -0.23217321771E+02  0.32770372849E+01  0.21608793179E+02  0.31886093305E+02  0.00000000000E+00 0. -1.
         11    1    3    3    0    0  0.29675084591E+01 -0.17664229068E+01  0.83140670490E+01  0.90027810979E+01  0.51100000000E-03 0. -1.
        -11    1    3    3    0    0  0.20752054661E+01  0.45991779660E+01  0.70385736942E+01  0.86602791871E+01  0.51100000000E-03 0.  1.
        -12    1    3    3    0    0  0.18174607846E+02 -0.61097923441E+01 -0.36961433922E+02  0.41638846410E+02  0.00000000000E+00 0.  1.
</event>
<event>
 7    1  0.3461631E-013  0.5930193E+02  0.7816164E-02  0.1266605E+00
        -11   -1    0    0    0    0  0.00000000000E+00  0.00000000000E+00  0.45593999997E+02  0.45594000000E+02  0.51100000000E-03 0. -1.
         11   -1    0    0    0    0 -0.00000000000E+00 -0.00000000000E+00 -0.45593999997E+02  0.45594000000E+02  0.51100000000E-03 0.  1.
    9900012    2    1    2    0    0 -0.28424127229E+02 -0.14431950916E+02  0.71359985792E+00  0.59301930303E+02  0.49999974970E+02 0.  0.
         12    1    1    2    0    0  0.28424127229E+02  0.14431950916E+02 -0.71359985792E+00  0.31886069697E+02  0.00000000000E+00 0. -1.
         11    1    3    3    0    0 -0.81090207911E+01 -0.69326031253E+01  0.29550035071E+01  0.11070196488E+02  0.51100000000E-03 0.  1.
        -11    1    3    3    0    0 -0.63803899683E+01 -0.19118873643E+02  0.13460742998E+02  0.24237002864E+02  0.51100000000E-03 0. -1.
        -12    1    3    3    0    0 -0.13934716469E+02  0.11619525852E+02 -0.15702146647E+02  0.23994730951E+02  0.00000000000E+00 0.  1.
</event>
<event>
 7    1  0.3461631E-013  0.5930196E+02  0.7816164E-02  0.1266605E+00
        -11   -1    0    0    0    0  0.00000000000E+00  0.00000000000E+00  0.45593999997E+02  0.45594000000E+02  0.51100000000E-03 0.  1.
         11   -1    0    0    0    0 -0.00000000000E+00 -0.00000000000E+00 -0.45593999997E+02  0.45594000000E+02  0.51100000000E-03 0. -1.
    9900012    2    1    2    0    0 -0.17078283886E+02  0.14560904393E+02  0.22650206036E+02  0.59301959940E+02  0.50000029020E+02 0.  0.
         12    1    1    2    0    0  0.17078283886E+02 -0.14560904393E+02 -0.22650206036E+02  0.31886040060E+02  0.00000000000E+00 0. -1.
         11    1    3    3    0    0 -0.21193449904E+02  0.33604415514E+01  0.11325505432E+02  0.24263593300E+02  0.51100000000E-03 0. -1.
        -11    1    3    3    0    0 -0.56818150978E+01 -0.53508525378E+00 -0.83553301488E+01  0.10118343797E+02  0.51100000000E-03 0.  1.
         12    1    3    3    0    0  0.97969811160E+01  0.11735548095E+02  0.19680030753E+02  0.24920022844E+02  0.00000000000E+00 0. -1.
</event>
<event>
 7    1  0.3461631E-013  0.5930193E+02  0.7816164E-02  0.1266605E+00
        -11   -1    0    0    0    0  0.00000000000E+00  0.00000000000E+00  0.45593999997E+02  0.45594000000E+02  0.51100000000E-03 0.  1.
         11   -1    0    0    0    0 -0.00000000000E+00 -0.00000000000E+00 -0.45593999997E+02  0.45594000000E+02  0.51100000000E-03 0. -1.
    9900012    2    1    2    0    0  0.13251263211E+02 -0.28178663049E+02  0.68620791866E+01  0.59301934726E+02  0.49999983036E+02 0.  0.
         12    1    1    2    0    0 -0.13251263211E+02  0.28178663049E+02 -0.68620791866E+01  0.31886065274E+02  0.00000000000E+00 0. -1.
         11    1    3    3    0    0  0.37208912189E+01 -0.11774233839E+01 -0.10785276580E+02  0.11469679527E+02  0.51100000000E-03 0. -1.
        -11    1    3    3    0    0  0.18365869868E+02 -0.28466038636E+02  0.18894943324E+02  0.38789681812E+02  0.51100000000E-03 0.  1.
         12    1    3    3    0    0 -0.88354978761E+01  0.14647989711E+01 -0.12475875576E+01  0.90425733870E+01  0.00000000000E+00 0. -1.
</event>
<event>
 7    1  0.3461631E-013  0.5930195E+02  0.7816164E-02  0.1266605E+00
        -11   -1    0    0    0    0  0.00000000000E+00  0.00000000000E+00  0.45593999997E+02  0.45594000000E+02  0.51100000000E-03 0. -1.
         11   -1    0    0    0    0 -0.00000000000E+00 -0.00000000000E+00 -0.45593999997E+02  0.45594000000E+02  0.51100000000E-03 0.  1.
    9900012    2    1    2    0    0  0.26468212645E+02  0.17139645445E+02  0.47314163740E+01  0.59301952463E+02  0.50000015384E+02 0.  0.
         12    1    1    2    0    0 -0.26468212645E+02 -0.17139645445E+02 -0.47314163740E+01  0.31886047537E+02  0.00000000000E+00 0. -1.
         11    1    3    3    0    0  0.63975326564E+01 -0.12068775373E+02 -0.22791297256E+01  0.13848400473E+02  0.51100000000E-03 0. -1.
        -11    1    3    3    0    0  0.26170538114E+02  0.21009898150E+02  0.96098461318E+01  0.34909340131E+02  0.51100000000E-03 0.  1.
        -12    1    3    3    0    0 -0.60998581254E+01  0.81985226674E+01 -0.25993000321E+01  0.10544211859E+02  0.00000000000E+00 0.  1.
</event>
<event>
 7    1  0.3461631E-013  0.5930195E+02  0.7816164E-02  0.1266605E+00
        -11   -1    0    0    0    0  0.00000000000E+00  0.00000000000E+00  0.45593999997E+02  0.45594000000E+02  0.51100000000E-03 0.  1.
         11   -1    0    0    0    0 -0.00000000000E+00 -0.00000000000E+00 -0.45593999997E+02  0.45594000000E+02  0.51100000000E-03 0. -1.
    9900012    2    1    2    0    0  0.31401509927E+02 -0.38720168445E+01 -0.39589267535E+01  0.59301945977E+02  0.50000003555E+02 0.  0.
         12    1    1    2    0    0 -0.31401509927E+02  0.38720168445E+01  0.39589267535E+01  0.31886054023E+02  0.00000000000E+00 0. -1.
         11    1    3    3    0    0  0.68834187523E+01  0.88260178380E+00 -0.70053915273E+01  0.98608290899E+01  0.51100000000E-03 0. -1.
        -11    1    3    3    0    0  0.28312928355E+02 -0.10627952481E+02 -0.12244809973E+02  0.32626839527E+02  0.51100000000E-03 0.  1.
        -12    1    3    3    0    0 -0.37948371806E+01  0.58733338523E+01  0.15291274747E+02  0.16814277360E+02  0.00000000000E+00 0.  1.
</event>
<event>
 7    1  0.3461631E-013  0.5930194E+02  0.7816164E-02  0.1266605E+00
        -11   -1    0    0    0    0  0.00000000000E+00  0.00000000000E+00  0.45593999997E+02  0.45594000000E+02  0.51100000000E-03 0.  1.
         11   -1    0    0    0    0 -0.00000000000E+00 -0.00000000000E+00 -0.45593999997E+02  0.45594000000E+02  0.51100000000E-03 0. -1.
    9900012    2    1    2    0    0  0.17753318568E+01  0.23664658077E+02  0.21296782180E+02  0.59301940721E+02  0.49999993970E+02 0.  0.
         12    1    1    2    0    0 -0.17753318568E+01 -0.23664658077E+02 -0.21296782180E+02  0.31886059279E+02  0.00000000000E+00 0. -1.
         11    1    3    3    0    0  0.49684438091E+01  0.22138778908E+01  0.11623933269E+02  0.12833647732E+02  0.51100000000E-03 0. -1.
        -11    1    3    3    0    0  0.92432170567E+01  0.20515592226E+02 -0.88154192679E+01  0.24166882362E+02  0.51100000000E-03 0.  1.
         12    1    3    3    0    0 -0.12436329009E+02  0.93518796025E+00  0.18488268179E+02  0.22301410628E+02  0.00000000000E+00 0. -1.
</event>
<event>
 7    1  0.3461631E-013  0.5930199E+02  0.7816164E-02  0.1266605E+00
        -11   -1    0    0    0    0  0.00000000000E+00  0.00000000000E+00  0.45593999997E+02  0.45594000000E+02  0.51100000000E-03 0.  1.
         11   -1    0    0    0    0 -0.00000000000E+00 -0.00000000000E+00 -0.45593999997E+02  0.45594000000E+02  0.51100000000E-03 0. -1.
    9900012    2    1    2    0    0  0.27134807468E+02  0.14850593279E+02  0.77381980340E+01  0.59301990436E+02  0.50000084638E+02 0.  0.
         12    1    1    2    0    0 -0.27134807468E+02 -0.14850593279E+02 -0.77381980340E+01  0.31886009564E+02  0.00000000000E+00 0. -1.
         11    1    3    3    0    0 -0.91918830468E+01 -0.31528310924E+01 -0.48684591959E+00  0.97297521578E+01  0.51100000000E-03 0. -1.
        -11    1    3    3    0    0  0.99277628240E+01  0.46214425264E+01  0.15609806303E+02  0.19067885535E+02  0.51100000000E-03 0.  1.
         12    1    3    3    0    0  0.26398927691E+02  0.13381981845E+02 -0.73847623492E+01  0.30504352743E+02  0.00000000000E+00 0. -1.
</event>
<event>
 7    1  0.3461631E-013  0.5930196E+02  0.7816164E-02  0.1266605E+00
        -11   -1    0    0    0    0  0.00000000000E+00  0.00000000000E+00  0.45593999997E+02  0.45594000000E+02  0.51100000000E-03 0.  1.
         11   -1    0    0    0    0 -0.00000000000E+00 -0.00000000000E+00 -0.45593999997E+02  0.45594000000E+02  0.51100000000E-03 0. -1.
    9900012    2    1    2    0    0 -0.79619049559E+01 -0.30429307345E+02  0.52330477046E+01  0.59301961295E+02  0.50000031491E+02 0.  0.
         12    1    1    2    0    0  0.79619049559E+01  0.30429307345E+02 -0.52330477046E+01  0.31886038705E+02  0.00000000000E+00 0. -1.
         11    1    3    3    0    0 -0.61225880412E+01 -0.32172673728E+01 -0.12505760943E+02  0.14290939462E+02  0.51100000000E-03 0. -1.
        -11    1    3    3    0    0 -0.51982499366E+01 -0.25317894660E+01 -0.75539578294E+01  0.95128355106E+01  0.51100000000E-03 0.  1.
        -12    1    3    3    0    0  0.33589330218E+01 -0.24680250506E+02  0.25292766477E+02  0.35498186322E+02  0.00000000000E+00 0.  1.
</event>
<event>
 7    1  0.3461631E-013  0.5930195E+02  0.7816164E-02  0.1266605E+00
        -11   -1    0    0    0    0  0.00000000000E+00  0.00000000000E+00  0.45593999997E+02  0.45594000000E+02  0.51100000000E-03 0.  1.
         11   -1    0    0    0    0 -0.00000000000E+00 -0.00000000000E+00 -0.45593999997E+02  0.45594000000E+02  0.51100000000E-03 0. -1.
    9900012    2    1    2    0    0  0.25339570597E+02 -0.93435603390E+01  0.16950639998E+02  0.59301950477E+02  0.50000011762E+02 0.  0.
         12    1    1    2    0    0 -0.25339570597E+02  0.93435603390E+01 -0.16950639998E+02  0.31886049523E+02  0.00000000000E+00 0. -1.
         11    1    3    3    0    0 -0.78262100997E+01 -0.80924630413E+01 -0.99386152085E+01  0.15017110079E+02  0.51100000000E-03 0. -1.
        -11    1    3    3    0    0  0.31574435223E+01  0.35520742129E+01  0.29026301999E+01  0.55688367860E+01  0.51100000000E-03 0.  1.
        -12    1    3    3    0    0  0.30008337174E+02 -0.48031715105E+01  0.23986625006E+02  0.38716003612E+02  0.00000000000E+00 0.  1.
</event>
<event>
 7    1  0.3461631E-013  0.5930194E+02  0.7816164E-02  0.1266605E+00
        -11   -1    0    0    0    0  0.00000000000E+00  0.00000000000E+00  0.45593999997E+02  0.45594000000E+02  0.51100000000E-03 0. -1.
         11   -1    0    0    0    0 -0.00000000000E+00 -0.00000000000E+00 -0.45593999997E+02  0.45594000000E+02  0.51100000000E-03 0.  1.
    9900012    2    1    2    0    0 -0.22335325643E+02 -0.18006096588E+02 -0.13915267238E+02  0.59301938026E+02  0.49999989054E+02 0.  0.
         12    1    1    2    0    0  0.22335325643E+02  0.18006096588E+02  0.13915267238E+02  0.31886061974E+02  0.00000000000E+00 0. -1.
         11    1    3    3    0    0 -0.17994887840E+02 -0.88122593505E+01 -0.16769172740E+02  0.26128089442E+02  0.51100000000E-03 0. -1.
        -11    1    3    3    0    0 -0.15105493948E+02  0.43778268163E+01  0.14905496278E+01  0.15797564797E+02  0.51100000000E-03 0.  1.
         12    1    3    3    0    0  0.10765056146E+02 -0.13571664054E+02  0.13633558744E+01  0.17376283787E+02  0.00000000000E+00 0. -1.
</event>
<event>
 7    1  0.3461631E-013  0.5930194E+02  0.7816164E-02  0.1266605E+00
        -11   -1    0    0    0    0  0.00000000000E+00  0.00000000000E+00  0.45593999997E+02  0.45594000000E+02  0.51100000000E-03 0. -1.
         11   -1    0    0    0    0 -0.00000000000E+00 -0.00000000000E+00 -0.45593999997E+02  0.45594000000E+02  0.51100000000E-03 0.  1.
    9900012    2    1    2    0    0 -0.13860471294E+02  0.69277080071E+01 -0.27867812706E+02  0.59301940542E+02  0.49999993643E+02 0.  0.
         12    1    1    2    0    0  0.13860471294E+02 -0.69277080071E+01  0.27867812706E+02  0.31886059458E+02  0.00000000000E+00 0. -1.
         11    1    3    3    0    0 -0.34402873891E+01  0.31287950012E+01  0.80288037958E+01  0.92782878879E+01  0.51100000000E-03 0. -1.
        -11    1    3    3    0    0 -0.10012899909E+02 -0.12588321500E+02 -0.87476246150E+01  0.18309695231E+02  0.51100000000E-03 0.  1.
         12    1    3    3    0    0 -0.40728399681E+00  0.16387234506E+02 -0.27148991887E+02  0.31713957424E+02  0.00000000000E+00 0. -1.
</event>
<event>
 7    1  0.3461631E-013  0.5930195E+02  0.7816164E-02  0.1266605E+00
        -11   -1    0    0    0    0  0.00000000000E+00  0.00000000000E+00  0.45593999997E+02  0.45594000000E+02  0.51100000000E-03 0.  1.
         11   -1    0    0    0    0 -0.00000000000E+00 -0.00000000000E+00 -0.45593999997E+02  0.45594000000E+02  0.51100000000E-03 0. -1.
    9900012    2    1    2    0    0 -0.19501277883E+02 -0.11610995919E+02  0.22396541414E+02  0.59301950816E+02  0.50000012380E+02 0.  0.
         12    1    1    2    0    0  0.19501277883E+02  0.11610995919E+02 -0.22396541414E+02  0.31886049184E+02  0.00000000000E+00 0. -1.
         11    1    3    3    0    0  0.39093838609E+01  0.34832759459E+00  0.29143319194E+01  0.48885524527E+01  0.51100000000E-03 0. -1.
        -11    1    3    3    0    0 -0.15958681240E+02 -0.13735720856E+02  0.32842520039E+02  0.39012570502E+02  0.51100000000E-03 0.  1.
         12    1    3    3    0    0 -0.74519805040E+01  0.17763973431E+01 -0.13360310545E+02  0.15400827861E+02  0.00000000000E+00 0. -1.
</event>
<event>
 7    1  0.3461631E-013  0.5930198E+02  0.7816164E-02  0.1266605E+00
        -11   -1    0    0    0    0  0.00000000000E+00  0.00000000000E+00  0.45593999997E+02  0.45594000000E+02  0.51100000000E-03 0.  1.
         11   -1    0    0    0    0 -0.00000000000E+00 -0.00000000000E+00 -0.45593999997E+02  0.45594000000E+02  0.51100000000E-03 0. -1.
    9900012    2    1    2    0    0  0.56071555036E+01 -0.72286244275E+00  0.31380816086E+02  0.59301978906E+02  0.50000063610E+02 0.  0.
         12    1    1    2    0    0 -0.56071555036E+01  0.72286244275E+00 -0.31380816086E+02  0.31886021094E+02  0.00000000000E+00 0. -1.
         11    1    3    3    0    0 -0.56710394102E+01 -0.11548152697E+02  0.12403642453E+02  0.17870950312E+02  0.51100000000E-03 0. -1.
        -11    1    3    3    0    0  0.18509639979E+02 -0.37767623377E+01  0.16232032294E+02  0.24906817913E+02  0.51100000000E-03 0.  1.
        -12    1    3    3    0    0 -0.72314450655E+01  0.14602052592E+02  0.27451413401E+01  0.16524210681E+02  0.00000000000E+00 0.  1.
</event>
<event>
 7    1  0.3461631E-013  0.5930194E+02  0.7816164E-02  0.1266605E+00
        -11   -1    0    0    0    0  0.00000000000E+00  0.00000000000E+00  0.45593999997E+02  0.45594000000E+02  0.51100000000E-03 0. -1.
         11   -1    0    0    0    0 -0.00000000000E+00 -0.00000000000E+00 -0.45593999997E+02  0.45594000000E+02  0.51100000000E-03 0.  1.
    9900012    2    1    2    0    0  0.24480746700E+02  0.14057185042E+02 -0.14825972436E+02  0.59301939268E+02  0.49999991320E+02 0.  0.
         12    1    1    2    0    0 -0.24480746700E+02 -0.14057185042E+02  0.14825972436E+02  0.31886060732E+02  0.00000000000E+00 0. -1.
         11    1    3    3    0    0  0.17808764860E+01 -0.51873764551E+01  0.74499839880E+01  0.92510895157E+01  0.51100000000E-03 0. -1.
        -11    1    3    3    0    0 -0.23438321337E+01 -0.12427762851E+01 -0.17074440514E+02  0.17279310203E+02  0.51100000000E-03 0.  1.
         12    1    3    3    0    0  0.25043702348E+02  0.20487337782E+02 -0.52015159105E+01  0.32771539550E+02  0.00000000000E+00 0. -1.
</event>
<event>
 7    1  0.3461631E-013  0.5930194E+02  0.7816164E-02  0.1266605E+00
        -11   -1    0    0    0    0  0.00000000000E+00  0.00000000000E+00  0.45593999997E+02  0.45594000000E+02  0.51100000000E-03 0.  1.
         11   -1    0    0    0    0 -0.00000000000E+00 -0.00000000000E+00 -0.45593999997E+02  0.45594000000E+02  0.51100000000E-03 0. -1.
    9900012    2    1    2    0    0  0.15872236742E+02 -0.18808036037E+02  0.20274385489E+02  0.59301939947E+02  0.49999992558E+02 0.  0.
         12    1    1    2    0    0 -0.15872236742E+02  0.18808036037E+02 -0.20274385489E+02  0.31886060053E+02  0.00000000000E+00 0. -1.
         11    1    3    3    0    0  0.53009111711E+01 -0.68462969293E+01 -0.11418625383E+02  0.14330263318E+02  0.51100000000E-03 0. -1.
        -11    1    3    3    0    0  0.40370630109E+01 -0.40285053553E+01 -0.45523457784E+01  0.72972998772E+01  0.51100000000E-03 0.  1.
        -12    1    3    3    0    0  0.65342625596E+01 -0.79332337526E+01  0.36245356649E+02  0.37674376752E+02  0.00000000000E+00 0.  1.
</event>
<event>
 7    1  0.3461631E-013  0.5930195E+02  0.7816164E-02  0.1266605E+00
        -11   -1    0    0    0    0  0.00000000000E+00  0.00000000000E+00  0.45593999997E+02  0.45594000000E+02  0.51100000000E-03 0.  1.
         11   -1    0    0    0    0 -0.00000000000E+00 -0.00000000000E+00 -0.45593999997E+02  0.45594000000E+02  0.51100000000E-03 0. -1.
    9900012    2    1    2    0    0 -0.14953642340E+02 -0.38987396017E+01  0.27891014678E+02  0.59301948356E+02  0.50000007893E+02 0.  0.
         12    1    1    2    0    0  0.14953642340E+02  0.38987396017E+01 -0.27891014678E+02  0.31886051644E+02  0.00000000000E+00 0. -1.
         11    1    3    3    0    0 -0.41649194715E+01 -0.82095484858E+01  0.10461932198E+02  0.13935396160E+02  0.51100000000E-03 0.  1.
        -11    1    3    3    0    0  0.40742830392E+01  0.19737519310E+02  0.57012157572E+01  0.20944529409E+02  0.51100000000E-03 0. -1.
         12    1    3    3    0    0 -0.14863005908E+02 -0.15426710425E+02  0.11727866722E+02  0.24422022787E+02  0.00000000000E+00 0. -1.
</event>
<event>
 7    1  0.3461631E-013  0.5930191E+02  0.7816164E-02  0.1266605E+00
        -11   -1    0    0    0    0  0.00000000000E+00  0.00000000000E+00  0.45593999997E+02  0.45594000000E+02  0.51100000000E-03 0.  1.
         11   -1    0    0    0    0 -0.00000000000E+00 -0.00000000000E+00 -0.45593999997E+02  0.45594000000E+02  0.51100000000E-03 0. -1.
    9900012    2    1    2    0    0 -0.17027367983E+02 -0.23711756322E+02  0.12827465906E+02  0.59301913225E+02  0.49999943823E+02 0.  0.
         12    1    1    2    0    0  0.17027367983E+02  0.23711756322E+02 -0.12827465906E+02  0.31886086775E+02  0.00000000000E+00 0. -1.
         11    1    3    3    0    0  0.40960622111E+01 -0.20777576110E+01 -0.65926369915E+01  0.80347784718E+01  0.51100000000E-03 0. -1.
        -11    1    3    3    0    0 -0.22042768713E+01 -0.27498826757E+02  0.12486481423E+02  0.30281290067E+02  0.51100000000E-03 0.  1.
        -12    1    3    3    0    0 -0.18919153322E+02  0.58648280462E+01  0.69336214739E+01  0.20985844686E+02  0.00000000000E+00 0.  1.
</event>
<event>
 7    1  0.3461631E-013  0.5930196E+02  0.7816164E-02  0.1266605E+00
        -11   -1    0    0    0    0  0.00000000000E+00  0.00000000000E+00  0.45593999997E+02  0.45594000000E+02  0.51100000000E-03 0.  1.
         11   -1    0    0    0    0 -0.00000000000E+00 -0.00000000000E+00 -0.45593999997E+02  0.45594000000E+02  0.51100000000E-03 0. -1.
    9900012    2    1    2    0    0  0.23556464699E+01 -0.22250566300E+02  0.22717460293E+02  0.59301956453E+02  0.50000022660E+02 0.  0.
         12    1    1    2    0    0 -0.23556464699E+01  0.22250566300E+02 -0.22717460293E+02  0.31886043547E+02  0.00000000000E+00 0. -1.
         11    1    3    3    0    0  0.38341479310E+01 -0.79867929678E+01 -0.14995278122E+01  0.89854402334E+01  0.51100000000E-03 0. -1.
        -11    1    3    3    0    0  0.87955265902E+01  0.25468547915E+01  0.28688030707E+02  0.30113964592E+02  0.51100000000E-03 0.  1.
         12    1    3    3    0    0 -0.10274028051E+02 -0.16810628124E+02 -0.44710426022E+01  0.20202551628E+02  0.00000000000E+00 0. -1.
</event>
<event>
 7    1  0.3461631E-013  0.5930193E+02  0.7816164E-02  0.1266605E+00
        -11   -1    0    0    0    0  0.00000000000E+00  0.00000000000E+00  0.45593999997E+02  0.45594000000E+02  0.51100000000E-03 0. -1.
         11   -1    0    0    0    0 -0.00000000000E+00 -0.00000000000E+00 -0.45593999997E+02  0.45594000000E+02  0.51100000000E-03 0.  1.
    9900012    2    1    2    0    0 -0.20655085542E+02 -0.11059412222E+02 -0.21628178448E+02  0.59301933130E+02  0.49999980125E+02 0.  0.
         12    1    1    2    0    0  0.20655085542E+02  0.11059412222E+02  0.21628178448E+02  0.31886066870E+02  0.00000000000E+00 0. -1.
         11    1    3    3    0    0  0.98872458914E-02 -0.32978740886E+01 -0.24815622294E+01  0.41272536415E+01  0.51100000000E-03 0. -1.
        -11    1    3    3    0    0  0.22266235102E+01 -0.17153199681E+02 -0.24371505880E+02  0.29885789444E+02  0.51100000000E-03 0.  1.
         12    1    3    3    0    0 -0.22891596298E+02  0.93916615476E+01  0.52248896615E+01  0.25288890044E+02  0.00000000000E+00 0. -1.
</event>
<event>
 7    1  0.3461631E-013  0.5930195E+02  0.7816164E-02  0.1266605E+00
        -11   -1    0    0    0    0  0.00000000000E+00  0.00000000000E+00  0.45593999997E+02  0.45594000000E+02  0.51100000000E-03 0. -1.
         11   -1    0    0    0    0 -0.00000000000E+00 -0.00000000000E+00 -0.45593999997E+02  0.45594000000E+02  0.51100000000E-03 0.  1.
    9900012    2    1    2    0    0  0.95241489128E+01  0.11147622291E+02 -0.28315031018E+02  0.59301954827E+02  0.50000019695E+02 0.  0.
         12    1    1    2    0    0 -0.95241489128E+01 -0.11147622291E+02  0.28315031018E+02  0.31886045173E+02  0.00000000000E+00 0. -1.
         11    1    3    3    0    0 -0.71646157701E+01  0.11976780898E+02 -0.16540551175E+02  0.21641738222E+02  0.51100000000E-03 0. -1.
        -11    1    3    3    0    0 -0.10591841343E+01  0.11542496777E+02 -0.11049260062E+02  0.16013658266E+02  0.51100000000E-03 0.  1.
         12    1    3    3    0    0  0.17747948817E+02 -0.12371655385E+02 -0.72521978000E+00  0.21646558339E+02  0.00000000000E+00 0. -1.
</event>
<event>
 7    1  0.3461631E-013  0.5930195E+02  0.7816164E-02  0.1266605E+00
        -11   -1    0    0    0    0  0.00000000000E+00  0.00000000000E+00  0.45593999997E+02  0.45594000000E+02  0.51100000000E-03 0. -1.
         11   -1    0    0    0    0 -0.00000000000E+00 -0.00000000000E+00 -0.45593999997E+02  0.45594000000E+02  0.51100000000E-03 0.  1.
    9900012    2    1    2    0    0 -0.18581124905E+02 -0.21186328506E+02 -0.14919829589E+02  0.59301952373E+02  0.50000015220E+02 0.  0.
         12    1    1    2    0    0  0.18581124905E+02  0.21186328506E+02  0.14919829589E+02  0.31886047627E+02  0.00000000000E+00 0. -1.
         11    1    3    3    0    0 -0.11650375202E+02 -0.87992170354E+01  0.88279721401E+01  0.17061376121E+02  0.51100000000E-03 0. -1.
        -11    1    3    3    0    0  0.39954267712E+01 -0.57449513647E+01  0.64063822433E+01  0.94873407747E+01  0.51100000000E-03 0.  1.
        -12    1    3    3    0    0 -0.10926176474E+02 -0.66421601059E+01 -0.30154183972E+02  0.32753235477E+02  0.00000000000E+00 0.  1.
</event>
<event>
 7    1  0.3461631E-013  0.5930193E+02  0.7816164E-02  0.1266605E+00
        -11   -1    0    0    0    0  0.00000000000E+00  0.00000000000E+00  0.45593999997E+02  0.45594000000E+02  0.51100000000E-03 0.  1.
         11   -1    0    0    0    0 -0.00000000000E+00 -0.00000000000E+00 -0.45593999997E+02  0.45594000000E+02  0.51100000000E-03 0. -1.
    9900012    2    1    2    0    0  0.21081662655E+02 -0.20701759180E+02  0.11988411910E+02  0.59301931669E+02  0.49999977461E+02 0.  0.
         12    1    1    2    0    0 -0.21081662655E+02  0.20701759180E+02 -0.11988411910E+02  0.31886068331E+02  0.00000000000E+00 0. -1.
         11    1    3    3    0    0  0.23068572890E+02 -0.61628320669E+01 -0.56428558991E+01  0.24535308786E+02  0.51100000000E-03 0. -1.
        -11    1    3    3    0    0  0.71938395132E+01 -0.52814562665E+00  0.16464510795E+02  0.17975271367E+02  0.51100000000E-03 0.  1.
        -12    1    3    3    0    0 -0.91807497480E+01 -0.14010781487E+02  0.11667570149E+01  0.16791351516E+02  0.00000000000E+00 0.  1.
</event>
<event>
 7    1  0.3461631E-013  0.5930193E+02  0.7816164E-02  0.1266605E+00
        -11   -1    0    0    0    0  0.00000000000E+00  0.00000000000E+00  0.45593999997E+02  0.45594000000E+02  0.51100000000E-03 0.  1.
         11   -1    0    0    0    0 -0.00000000000E+00 -0.00000000000E+00 -0.45593999997E+02  0.45594000000E+02  0.51100000000E-03 0. -1.
    9900012    2    1    2    0    0  0.44549322773E+01 -0.10380032083E+02  0.29818277305E+02  0.59301934876E+02  0.49999983309E+02 0.  0.
         12    1    1    2    0    0 -0.44549322773E+01  0.10380032083E+02 -0.29818277305E+02  0.31886065124E+02  0.00000000000E+00 0. -1.
         11    1    3    3    0    0  0.81219155254E+00 -0.15499589288E+02 -0.15413915259E+01  0.15597205240E+02  0.51100000000E-03 0. -1.
        -11    1    3    3    0    0  0.14108568160E+02  0.38306418893E+01  0.52285903228E+01  0.15526225228E+02  0.51100000000E-03 0.  1.
        -12    1    3    3    0    0 -0.10465827436E+02  0.12889153156E+01  0.26131078509E+02  0.28178504407E+02  0.00000000000E+00 0.  1.
</event>
<event>
 7    1  0.3461631E-013  0.5930194E+02  0.7816164E-02  0.1266605E+00
        -11   -1    0    0    0    0  0.00000000000E+00  0.00000000000E+00  0.45593999997E+02  0.45594000000E+02  0.51100000000E-03 0. -1.
         11   -1    0    0    0    0 -0.00000000000E+00 -0.00000000000E+00 -0.45593999997E+02  0.45594000000E+02  0.51100000000E-03 0.  1.
    9900012    2    1    2    0    0  0.18722308844E+02  0.25674984854E+02  0.26440937369E+01  0.59301938352E+02  0.49999989650E+02 0.  0.
         12    1    1    2    0    0 -0.18722308844E+02 -0.25674984854E+02 -0.26440937369E+01  0.31886061648E+02  0.00000000000E+00 0. -1.
         11    1    3    3    0    0  0.11367137881E+02  0.10306722326E+02 -0.10788415251E+02  0.18757138711E+02  0.51100000000E-03 0. -1.
        -11    1    3    3    0    0  0.76278579468E+01 -0.75989745181E+01 -0.42320359480E+01  0.11568870261E+02  0.51100000000E-03 0.  1.
        -12    1    3    3    0    0 -0.27268698343E+00  0.22967237046E+02  0.17664544936E+02  0.28975929381E+02  0.00000000000E+00 0.  1.
</event>
<event>
 7    1  0.3461631E-013  0.5930195E+02  0.7816164E-02  0.1266605E+00
        -11   -1    0    0    0    0  0.00000000000E+00  0.00000000000E+00  0.45593999997E+02  0.45594000000E+02  0.51100000000E-03 0.  1.
         11   -1    0    0    0    0 -0.00000000000E+00 -0.00000000000E+00 -0.45593999997E+02  0.45594000000E+02  0.51100000000E-03 0. -1.
    9900012    2    1    2    0    0  0.31619921307E+01 -0.23591554267E+02  0.21216980638E+02  0.59301954552E+02  0.50000019193E+02 0.  0.
         12    1    1    2    0    0 -0.31619921307E+01  0.23591554267E+02 -0.21216980638E+02  0.31886045448E+02  0.00000000000E+00 0. -1.
         11    1    3    3    0    0  0.56840492308E+00 -0.13929969639E+01 -0.22284623538E+01  0.26887858638E+01  0.51100000000E-03 0. -1.
        -11    1    3    3    0    0 -0.11418981437E+02 -0.23002228720E+02 -0.38045374756E+01  0.25960935438E+02  0.51100000000E-03 0.  1.
         12    1    3    3    0    0  0.14012568645E+02  0.80367141729E+00  0.27249980467E+02  0.30652233250E+02  0.00000000000E+00 0. -1.
</event>
<event>
 7    1  0.3461631E-013  0.5930206E+02  0.7816164E-02  0.1266604E+00
        -11   -1    0    0    0    0  0.00000000000E+00  0.00000000000E+00  0.45593999997E+02  0.45594000000E+02  0.51100000000E-03 0. -1.
         11   -1    0    0    0    0 -0.00000000000E+00 -0.00000000000E+00 -0.45593999997E+02  0.45594000000E+02  0.51100000000E-03 0.  1.
    9900012    2    1    2    0    0 -0.23716303234E+02 -0.11234579886E+02 -0.18111720273E+02  0.59302058967E+02  0.50000209621E+02 0.  0.
         12    1    1    2    0    0  0.23716303234E+02  0.11234579886E+02  0.18111720273E+02  0.31885941033E+02  0.00000000000E+00 0. -1.
         11    1    3    3    0    0 -0.23712147365E+02  0.11393406353E+01 -0.11642896280E+01  0.23768037368E+02  0.51100000000E-03 0. -1.
        -11    1    3    3    0    0  0.15529962098E+01 -0.64974668839E+01 -0.24753985814E+02  0.25639592178E+02  0.51100000000E-03 0.  1.
         12    1    3    3    0    0 -0.15571520795E+01 -0.58764536377E+01  0.78065551687E+01  0.98944294204E+01  0.00000000000E+00 0. -1.
</event>
<event>
 7    1  0.3461631E-013  0.5930194E+02  0.7816164E-02  0.1266605E+00
        -11   -1    0    0    0    0  0.00000000000E+00  0.00000000000E+00  0.45593999997E+02  0.45594000000E+02  0.51100000000E-03 0. -1.
         11   -1    0    0    0    0 -0.00000000000E+00 -0.00000000000E+00 -0.45593999997E+02  0.45594000000E+02  0.51100000000E-03 0.  1.
    9900012    2    1    2    0    0  0.16891629580E+02 -0.13224384303E+02 -0.23590447581E+02  0.59301941806E+02  0.49999995948E+02 0.  0.
         12    1    1    2    0    0 -0.16891629580E+02  0.13224384303E+02  0.23590447581E+02  0.31886058194E+02  0.00000000000E+00 0. -1.
         11    1    3    3    0    0  0.24980517944E+02 -0.65661903676E+01 -0.12536516172E+02  0.28710718742E+02  0.51100000000E-03 0. -1.
        -11    1    3    3    0    0  0.17305447858E+01  0.47189791419E+01 -0.14350463140E+02  0.15205240610E+02  0.51100000000E-03 0.  1.
        -12    1    3    3    0    0 -0.98194331497E+01 -0.11377173077E+02  0.32965317313E+01  0.15385982454E+02  0.00000000000E+00 0.  1.
</event>
<event>
 7    1  0.3461631E-013  0.5930195E+02  0.7816164E-02  0.1266605E+00
        -11   -1    0    0    0    0  0.00000000000E+00  0.00000000000E+00  0.45593999997E+02  0.45594000000E+02  0.51100000000E-03 0. -1.
         11   -1    0    0    0    0 -0.00000000000E+00 -0.00000000000E+00 -0.45593999997E+02  0.45594000000E+02  0.51100000000E-03 0.  1.
    9900012    2    1    2    0    0 -0.43491980088E+01  0.74291457251E+01 -0.30701997526E+02  0.59301946911E+02  0.50000005258E+02 0.  0.
         12    1    1    2    0    0  0.43491980088E+01 -0.74291457251E+01  0.30701997526E+02  0.31886053089E+02  0.00000000000E+00 0. -1.
         11    1    3    3    0    0 -0.14423361000E+02 -0.89705210648E+01 -0.12238646608E+02  0.20935330467E+02  0.51100000000E-03 0. -1.
        -11    1    3    3    0    0  0.14512031322E+02  0.82981272591E+00 -0.16608066049E+02  0.22070693247E+02  0.51100000000E-03 0.  1.
        -12    1    3    3    0    0 -0.44378683315E+01  0.15569854064E+02 -0.18552848689E+01  0.16295923197E+02  0.00000000000E+00 0.  1.
</event>
<event>
 7    1  0.4012121E-013  0.5930195E+02  0.7816164E-02  0.1266605E+00
        -11   -1    0    0    0    0  0.00000000000E+00  0.00000000000E+00  0.45593999997E+02  0.45594000000E+02  0.51100000000E-03 0.  1.
         11   -1    0    0    0    0 -0.00000000000E+00 -0.00000000000E+00 -0.45593999997E+02  0.45594000000E+02  0.51100000000E-03 0. -1.
    9900012    2    1    2    0    0  0.11716986865E+02  0.27402092072E+02  0.11338326970E+02  0.59301951490E+02  0.50000013610E+02 0.  0.
         12    1    1    2    0    0 -0.11716986865E+02 -0.27402092072E+02 -0.11338326970E+02  0.31886048510E+02  0.00000000000E+00 0. -1.
         11    1    3    3    0    0 -0.19249342111E+01 -0.83507627837E+01 -0.10587283468E+01  0.86349010857E+01  0.51100000000E-03 0. -1.
        -11    1    3    3    0    0  0.71998870420E+00  0.20829151652E+02  0.20586923859E+02  0.29294937728E+02  0.51100000000E-03 0.  1.
         12    1    3    3    0    0  0.12921932371E+02  0.14923703204E+02 -0.81898685417E+01  0.21372112676E+02  0.00000000000E+00 0. -1.
</event>
<event>
 7    1  0.3461631E-013  0.5930193E+02  0.7816164E-02  0.1266605E+00
        -11   -1    0    0    0    0  0.00000000000E+00  0.00000000000E+00  0.45593999997E+02  0.45594000000E+02  0.51100000000E-03 0.  1.
         11   -1    0    0    0    0 -0.00000000000E+00 -0.00000000000E+00 -0.45593999997E+02  0.45594000000E+02  0.51100000000E-03 0. -1.
    9900012    2    1    2    0    0  0.24105873974E+02 -0.11853386936E+02  0.17179217510E+02  0.59301930061E+02  0.49999974528E+02 0.  0.
         12    1    1    2    0    0 -0.24105873974E+02  0.11853386936E+02 -0.17179217510E+02  0.31886069939E+02  0.00000000000E+00 0. -1.
         11    1    3    3    0    0  0.85711260936E+01  0.55916545713E+01  0.18322754259E+02  0.20986999006E+02  0.51100000000E-03 0. -1.
        -11    1    3    3    0    0  0.65227511014E+01  0.84049922986E+01 -0.24141552456E+01  0.10909551929E+02  0.51100000000E-03 0.  1.
         12    1    3    3    0    0  0.90119967794E+01 -0.25850033806E+02  0.12706184962E+01  0.27405379126E+02  0.00000000000E+00 0. -1.
</event>
<event>
 7    1  0.3461631E-013  0.5930197E+02  0.7816164E-02  0.1266605E+00
        -11   -1    0    0    0    0  0.00000000000E+00  0.00000000000E+00  0.45593999997E+02  0.45594000000E+02  0.51100000000E-03 0. -1.
         11   -1    0    0    0    0 -0.00000000000E+00 -0.00000000000E+00 -0.45593999997E+02  0.45594000000E+02  0.51100000000E-03 0.  1.
    9900012    2    1    2    0    0 -0.25862059320E+01  0.31779874803E+02  0.26505133627E+00  0.59301966132E+02  0.50000040313E+02 0.  0.
         12    1    1    2    0    0  0.25862059320E+01 -0.31779874803E+02 -0.26505133627E+00  0.31886033868E+02  0.00000000000E+00 0. -1.
         11    1    3    3    0    0  0.52558138931E+01  0.15294114132E+02 -0.11743513633E+02  0.19986085647E+02  0.51100000000E-03 0. -1.
        -11    1    3    3    0    0  0.93474667789E+01 -0.40522365764E+01  0.60200871589E+00  0.10205791062E+02  0.51100000000E-03 0.  1.
         12    1    3    3    0    0 -0.17189486604E+02  0.20537997247E+02  0.11406556253E+02  0.29110089423E+02  0.00000000000E+00 0. -1.
</event>
<event>
 7    1  0.3461631E-013  0.5930201E+02  0.7816164E-02  0.1266605E+00
        -11   -1    0    0    0    0  0.00000000000E+00  0.00000000000E+00  0.45593999997E+02  0.45594000000E+02  0.51100000000E-03 0.  1.
         11   -1    0    0    0    0 -0.00000000000E+00 -0.00000000000E+00 -0.45593999997E+02  0.45594000000E+02  0.51100000000E-03 0. -1.
    9900012    2    1    2    0    0  0.23403801036E+02 -0.69406784730E+01  0.20513536704E+02  0.59302013914E+02  0.50000127456E+02 0.  0.
         12    1    1    2    0    0 -0.23403801036E+02  0.69406784730E+01 -0.20513536704E+02  0.31885986086E+02  0.00000000000E+00 0. -1.
         11    1    3    3    0    0  0.66365856351E+01  0.59457743276E+00 -0.38450729515E+01  0.76930083504E+01  0.51100000000E-03 0. -1.
        -11    1    3    3    0    0  0.16892087421E+02  0.31587315738E+01 -0.69402439186E+01  0.18533407364E+02  0.51100000000E-03 0.  1.
        -12    1    3    3    0    0 -0.12487202097E+00 -0.10693987480E+02  0.31298853574E+02  0.33075598200E+02  0.00000000000E+00 0.  1.
</event>
<event>
 7    1  0.3461631E-013  0.5930197E+02  0.7816164E-02  0.1266605E+00
        -11   -1    0    0    0    0  0.00000000000E+00  0.00000000000E+00  0.45593999997E+02  0.45594000000E+02  0.51100000000E-03 0.  1.
         11   -1    0    0    0    0 -0.00000000000E+00 -0.00000000000E+00 -0.45593999997E+02  0.45594000000E+02  0.51100000000E-03 0. -1.
    9900012    2    1    2    0    0 -0.28701394843E+02 -0.13044919257E+02  0.47727224511E+01  0.59301970709E+02  0.50000048660E+02 0.  0.
         12    1    1    2    0    0  0.28701394843E+02  0.13044919257E+02 -0.47727224511E+01  0.31886029291E+02  0.00000000000E+00 0. -1.
         11    1    3    3    0    0 -0.14700873392E+02  0.37704335804E+00  0.19978492538E+01  0.14840796545E+02  0.51100000000E-03 0. -1.
        -11    1    3    3    0    0 -0.23990637711E+01  0.14206144785E+02  0.11047392101E+01  0.14449584964E+02  0.51100000000E-03 0.  1.
         12    1    3    3    0    0 -0.11601457680E+02 -0.27628107400E+02  0.16701339872E+01  0.30011589201E+02  0.00000000000E+00 0. -1.
</event>
<event>
 7    1  0.3461631E-013  0.5930194E+02  0.7816164E-02  0.1266605E+00
        -11   -1    0    0    0    0  0.00000000000E+00  0.00000000000E+00  0.45593999997E+02  0.45594000000E+02  0.51100000000E-03 0. -1.
         11   -1    0    0    0    0 -0.00000000000E+00 -0.00000000000E+00 -0.45593999997E+02  0.45594000000E+02  0.51100000000E-03 0.  1.
    9900012    2    1    2    0    0  0.33759921071E+01 -0.12704537391E+02 -0.29050275689E+02  0.59301935479E+02  0.49999984409E+02 0.  0.
         12    1    1    2    0    0 -0.33759921071E+01  0.12704537391E+02  0.29050275689E+02  0.31886064521E+02  0.00000000000E+00 0. -1.
         11    1    3    3    0    0  0.50624258812E+01 -0.48292945356E+01  0.64427026310E+01  0.95109757106E+01  0.51100000000E-03 0. -1.
        -11    1    3    3    0    0 -0.98142742427E+01 -0.17298181814E+02 -0.12061245202E+02  0.23259851871E+02  0.51100000000E-03 0.  1.
        -12    1    3    3    0    0  0.81278404686E+01  0.94229389591E+01 -0.23431733118E+02  0.26531107897E+02  0.00000000000E+00 0.  1.
</event>
<event>
 7    1  0.3461631E-013  0.5930187E+02  0.7816164E-02  0.1266605E+00
        -11   -1    0    0    0    0  0.00000000000E+00  0.00000000000E+00  0.45593999997E+02  0.45594000000E+02  0.51100000000E-03 0.  1.
         11   -1    0    0    0    0 -0.00000000000E+00 -0.00000000000E+00 -0.45593999997E+02  0.45594000000E+02  0.51100000000E-03 0. -1.
    9900012    2    1    2    0    0  0.18226522929E+02  0.37689700326E+00  0.26160600074E+02  0.59301871579E+02  0.49999867871E+02 0.  0.
         12    1    1    2    0    0 -0.18226522929E+02 -0.37689700326E+00 -0.26160600074E+02  0.31886128421E+02  0.00000000000E+00 0. -1.
         11    1    3    3    0    0  0.91914356138E+01 -0.14762411468E+02  0.21202896882E+02  0.27422146478E+02  0.51100000000E-03 0. -1.
        -11    1    3    3    0    0 -0.36843417175E+01  0.25938262886E+01  0.11891049193E+02  0.12716106317E+02  0.51100000000E-03 0.  1.
         12    1    3    3    0    0  0.12719429033E+02  0.12545482183E+02 -0.69333460005E+01  0.19163618784E+02  0.00000000000E+00 0. -1.
</event>
<event>
 7    1  0.3461631E-013  0.5930195E+02  0.7816164E-02  0.1266605E+00
        -11   -1    0    0    0    0  0.00000000000E+00  0.00000000000E+00  0.45593999997E+02  0.45594000000E+02  0.51100000000E-03 0. -1.
         11   -1    0    0    0    0 -0.00000000000E+00 -0.00000000000E+00 -0.45593999997E+02  0.45594000000E+02  0.51100000000E-03 0.  1.
    9900012    2    1    2    0    0  0.81155912261E+01  0.11897793879E+02 -0.28448192202E+02  0.59301953527E+02  0.50000017324E+02 0.  0.
         12    1    1    2    0    0 -0.81155912261E+01 -0.11897793879E+02  0.28448192202E+02  0.31886046473E+02  0.00000000000E+00 0. -1.
         11    1    3    3    0    0 -0.89548207970E+01  0.14981255302E+02  0.71269623325E+00  0.17468106998E+02  0.51100000000E-03 0. -1.
        -11    1    3    3    0    0 -0.15521559339E+01 -0.74491110749E+01 -0.83512919900E+00  0.76547948953E+01  0.51100000000E-03 0.  1.
        -12    1    3    3    0    0  0.18622567957E+02  0.43656496519E+01 -0.28325759236E+02  0.34179051633E+02  0.00000000000E+00 0.  1.
</event>
<event>
 7    1  0.3461631E-013  0.5930197E+02  0.7816164E-02  0.1266605E+00
        -11   -1    0    0    0    0  0.00000000000E+00  0.00000000000E+00  0.45593999997E+02  0.45594000000E+02  0.51100000000E-03 0.  1.
         11   -1    0    0    0    0 -0.00000000000E+00 -0.00000000000E+00 -0.45593999997E+02  0.45594000000E+02  0.51100000000E-03 0. -1.
    9900012    2    1    2    0    0  0.27843399908E+02  0.88938699367E+01 -0.12742177632E+02  0.59301969647E+02  0.50000046723E+02 0.  0.
         12    1    1    2    0    0 -0.27843399908E+02 -0.88938699367E+01  0.12742177632E+02  0.31886030353E+02  0.00000000000E+00 0. -1.
         11    1    3    3    0    0  0.14978543454E+01 -0.35444822934E+01  0.91361258641E+01  0.99134110393E+01  0.51100000000E-03 0. -1.
        -11    1    3    3    0    0  0.17725267926E+02 -0.77171386680E+01 -0.13884941943E+01  0.19382137877E+02  0.51100000000E-03 0.  1.
        -12    1    3    3    0    0  0.86202776360E+01  0.20155490898E+02 -0.20489809302E+02  0.30006420731E+02  0.00000000000E+00 0.  1.
</event>
<event>
 7    1  0.3461631E-013  0.5930210E+02  0.7816164E-02  0.1266604E+00
        -11   -1    0    0    0    0  0.00000000000E+00  0.00000000000E+00  0.45593999997E+02  0.45594000000E+02  0.51100000000E-03 0.  1.
         11   -1    0    0    0    0 -0.00000000000E+00 -0.00000000000E+00 -0.45593999997E+02  0.45594000000E+02  0.51100000000E-03 0. -1.
    9900012    2    1    2    0    0 -0.17529855432E+02  0.22253510011E+02  0.14635448620E+02  0.59302095660E+02  0.50000276540E+02 0.  0.
         12    1    1    2    0    0  0.17529855432E+02 -0.22253510011E+02 -0.14635448620E+02  0.31885904340E+02  0.00000000000E+00 0. -1.
         11    1    3    3    0    0 -0.26861684995E+01 -0.11296679419E+02  0.84700220481E+01  0.14372603830E+02  0.51100000000E-03 0. -1.
        -11    1    3    3    0    0 -0.50145876682E+01 -0.35366970535E+01  0.75365767996E+00  0.61824198895E+01  0.51100000000E-03 0.  1.
         12    1    3    3    0    0 -0.98290992640E+01  0.37086886484E+02  0.54117688922E+01  0.38747071940E+02  0.00000000000E+00 0. -1.
</event>
<event>
 7    1  0.3461631E-013  0.5930194E+02  0.7816164E-02  0.1266605E+00
        -11   -1    0    0    0    0  0.00000000000E+00  0.00000000000E+00  0.45593999997E+02  0.45594000000E+02  0.51100000000E-03 0. -1.
         11   -1    0    0    0    0 -0.00000000000E+00 -0.00000000000E+00 -0.45593999997E+02  0.45594000000E+02  0.51100000000E-03 0.  1.
    9900012    2    1    2    0    0 -0.77675309442E+01  0.26606786940E+02 -0.15762779320E+02  0.59301939407E+02  0.49999991572E+02 0.  0.
         12    1    1    2    0    0  0.77675309442E+01 -0.26606786940E+02  0.15762779320E+02  0.31886060593E+02  0.00000000000E+00 0. -1.
         11    1    3    3    0    0  0.16770742836E+02  0.10451111377E+02 -0.52113760121E+01  0.20436290869E+02  0.51100000000E-03 0. -1.
        -11    1    3    3    0    0  0.23783751031E+01  0.90017537381E+01 -0.46032627129E+01  0.10386446281E+02  0.51100000000E-03 0.  1.
        -12    1    3    3    0    0 -0.26916648883E+02  0.71539218252E+01 -0.59481405954E+01  0.28479202256E+02  0.00000000000E+00 0.  1.
</event>
<event>
 7    1  0.3461631E-013  0.5930195E+02  0.7816164E-02  0.1266605E+00
        -11   -1    0    0    0    0  0.00000000000E+00  0.00000000000E+00  0.45593999997E+02  0.45594000000E+02  0.51100000000E-03 0.  1.
         11   -1    0    0    0    0 -0.00000000000E+00 -0.00000000000E+00 -0.45593999997E+02  0.45594000000E+02  0.51100000000E-03 0. -1.
    9900012    2    1    2    0    0  0.22180984116E+02 -0.13871110007E+02  0.18229556423E+02  0.59301945421E+02  0.50000002542E+02 0.  0.
         12    1    1    2    0    0 -0.22180984116E+02  0.13871110007E+02 -0.18229556423E+02  0.31886054579E+02  0.00000000000E+00 0. -1.
         11    1    3    3    0    0 -0.11376614881E+01 -0.65999353430E+00 -0.48536725148E+01  0.50287177560E+01  0.51100000000E-03 0. -1.
        -11    1    3    3    0    0  0.52547556627E+01 -0.14057620918E+02 -0.89603518915E+01  0.17479046577E+02  0.51100000000E-03 0.  1.
        -12    1    3    3    0    0  0.18063889942E+02  0.84650444558E+00  0.32043580830E+02  0.36794181089E+02  0.00000000000E+00 0.  1.
</event>
<event>
 7    1  0.3529639E-013  0.5930194E+02  0.7816164E-02  0.1266605E+00
        -11   -1    0    0    0    0  0.00000000000E+00  0.00000000000E+00  0.45593999997E+02  0.45594000000E+02  0.51100000000E-03 0. -1.
         11   -1    0    0    0    0 -0.00000000000E+00 -0.00000000000E+00 -0.45593999997E+02  0.45594000000E+02  0.51100000000E-03 0.  1.
    9900012    2    1    2    0    0  0.11417697994E+02 -0.14286545722E+02 -0.26119947865E+02  0.59301938898E+02  0.49999990644E+02 0.  0.
         12    1    1    2    0    0 -0.11417697994E+02  0.14286545722E+02  0.26119947865E+02  0.31886061102E+02  0.00000000000E+00 0. -1.
         11    1    3    3    0    0  0.99176499683E+01 -0.98632585608E+01 -0.61994199249E+01  0.15299557444E+02  0.51100000000E-03 0. -1.
        -11    1    3    3    0    0  0.27871037798E+01 -0.15640317654E+02 -0.26527428881E+02  0.30920736846E+02  0.51100000000E-03 0.  1.
         12    1    3    3    0    0 -0.12870557541E+01  0.11217030492E+02  0.66069009414E+01  0.13081644607E+02  0.00000000000E+00 0. -1.
</event>
<event>
 7    1  0.3461631E-013  0.5930195E+02  0.7816164E-02  0.1266605E+00
        -11   -1    0    0    0    0  0.00000000000E+00  0.00000000000E+00  0.45593999997E+02  0.45594000000E+02  0.51100000000E-03 0.  1.
         11   -1    0    0    0    0 -0.00000000000E+00 -0.00000000000E+00 -0.45593999997E+02  0.45594000000E+02  0.51100000000E-03 0. -1.
    9900012    2    1    2    0    0 -0.29664603635E+02  0.78686034277E+01  0.86496589566E+01  0.59301949307E+02  0.50000009628E+02 0.  0.
         12    1    1    2    0    0  0.29664603635E+02 -0.78686034277E+01 -0.86496589566E+01  0.31886050693E+02  0.00000000000E+00 0. -1.
         11    1    3    3    0    0 -0.26016739478E+02 -0.10882761622E+01 -0.10442055075E+02  0.28055152691E+02  0.51100000000E-03 0. -1.
        -11    1    3    3    0    0  0.81524154739E+01  0.63719015750E+01  0.23649131698E+01  0.10613944710E+02  0.51100000000E-03 0.  1.
        -12    1    3    3    0    0 -0.11800279631E+02  0.25849780148E+01  0.16726800862E+02  0.20632851906E+02  0.00000000000E+00 0.  1.
</event>
<event>
 7    1  0.3461631E-013  0.5930192E+02  0.7816164E-02  0.1266605E+00
        -11   -1    0    0    0    0  0.00000000000E+00  0.00000000000E+00  0.45593999997E+02  0.45594000000E+02  0.51100000000E-03 0.  1.
         11   -1    0    0    0    0 -0.00000000000E+00 -0.00000000000E+00 -0.45593999997E+02  0.45594000000E+02  0.51100000000E-03 0. -1.
    9900012    2    1    2    0    0 -0.30555612458E+02 -0.47050222281E+01  0.78063688808E+01  0.59301920248E+02  0.49999956631E+02 0.  0.
         12    1    1    2    0    0  0.30555612458E+02  0.47050222281E+01 -0.78063688808E+01  0.31886079752E+02  0.00000000000E+00 0. -1.
         11    1    3    3    0    0 -0.81051217477E+01 -0.10549706228E+02  0.33311363878E+01  0.13714436552E+02  0.51100000000E-03 0. -1.
        -11    1    3    3    0    0 -0.28989895182E+02 -0.76650633330E+01  0.22080052849E+00  0.29986930015E+02  0.51100000000E-03 0.  1.
        -12    1    3    3    0    0  0.65394044718E+01  0.13509747333E+02  0.42544319645E+01  0.15600553682E+02  0.00000000000E+00 0.  1.
</event>
<event>
 7    1  0.3461631E-013  0.5930193E+02  0.7816164E-02  0.1266605E+00
        -11   -1    0    0    0    0  0.00000000000E+00  0.00000000000E+00  0.45593999997E+02  0.45594000000E+02  0.51100000000E-03 0.  1.
         11   -1    0    0    0    0 -0.00000000000E+00 -0.00000000000E+00 -0.45593999997E+02  0.45594000000E+02  0.51100000000E-03 0. -1.
    9900012    2    1    2    0    0 -0.90522896800E+01  0.21779798581E+02  0.21457351713E+02  0.59301929103E+02  0.49999972781E+02 0.  0.
         12    1    1    2    0    0  0.90522896800E+01 -0.21779798581E+02 -0.21457351713E+02  0.31886070897E+02  0.00000000000E+00 0. -1.
         11    1    3    3    0    0 -0.74669514315E+01  0.20641552339E+02  0.16094830714E+02  0.27218975414E+02  0.51100000000E-03 0.  1.
        -11    1    3    3    0    0 -0.15561652218E+02 -0.40295014728E+01 -0.46818454293E+00  0.16081700746E+02  0.51100000000E-03 0. -1.
         12    1    3    3    0    0  0.13976313969E+02  0.51677477158E+01  0.58307055418E+01  0.16001252943E+02  0.00000000000E+00 0. -1.
</event>
<event>
 7    1  0.3461631E-013  0.5930198E+02  0.7816164E-02  0.1266605E+00
        -11   -1    0    0    0    0  0.00000000000E+00  0.00000000000E+00  0.45593999997E+02  0.45594000000E+02  0.51100000000E-03 0. -1.
         11   -1    0    0    0    0 -0.00000000000E+00 -0.00000000000E+00 -0.45593999997E+02  0.45594000000E+02  0.51100000000E-03 0.  1.
    9900012    2    1    2    0    0  0.12087368352E+02  0.13947344270E+02 -0.26001645896E+02  0.59301976805E+02  0.50000059778E+02 0.  0.
         12    1    1    2    0    0 -0.12087368352E+02 -0.13947344270E+02  0.26001645896E+02  0.31886023195E+02  0.00000000000E+00 0. -1.
         11    1    3    3    0    0  0.25736754944E+02  0.10260980681E+02 -0.19940622359E+02  0.34136442402E+02  0.51100000000E-03 0. -1.
        -11    1    3    3    0    0  0.16079989784E+01  0.78527475100E+01 -0.46977550013E+01  0.92908668316E+01  0.51100000000E-03 0.  1.
        -12    1    3    3    0    0 -0.15257385570E+02 -0.41663839206E+01 -0.13632685363E+01  0.15874667571E+02  0.00000000000E+00 0.  1.
</event>
<event>
 7    1  0.3461631E-013  0.5930193E+02  0.7816164E-02  0.1266605E+00
        -11   -1    0    0    0    0  0.00000000000E+00  0.00000000000E+00  0.45593999997E+02  0.45594000000E+02  0.51100000000E-03 0.  1.
         11   -1    0    0    0    0 -0.00000000000E+00 -0.00000000000E+00 -0.45593999997E+02  0.45594000000E+02  0.51100000000E-03 0. -1.
    9900012    2    1    2    0    0 -0.83408284229E+01  0.11896840867E+02  0.28383393736E+02  0.59301932802E+02  0.49999979526E+02 0.  0.
         12    1    1    2    0    0  0.83408284229E+01 -0.11896840867E+02 -0.28383393736E+02  0.31886067198E+02  0.00000000000E+00 0. -1.
         11    1    3    3    0    0  0.30038681597E+01  0.52603584431E+00  0.66899819943E+01  0.73522647515E+01  0.51100000000E-03 0. -1.
        -11    1    3    3    0    0  0.29402216598E+00 -0.15410805975E+02 -0.26125218447E+00  0.15415824428E+02  0.51100000000E-03 0.  1.
         12    1    3    3    0    0 -0.11638718749E+02  0.26781610997E+02  0.21954663926E+02  0.36533843623E+02  0.00000000000E+00 0. -1.
</event>
<event>
 7    1  0.3461631E-013  0.5930187E+02  0.7816164E-02  0.1266605E+00
        -11   -1    0    0    0    0  0.00000000000E+00  0.00000000000E+00  0.45593999997E+02  0.45594000000E+02  0.51100000000E-03 0.  1.
         11   -1    0    0    0    0 -0.00000000000E+00 -0.00000000000E+00 -0.45593999997E+02  0.45594000000E+02  0.51100000000E-03 0. -1.
    9900012    2    1    2    0    0  0.10135113549E+02  0.23907586348E+02  0.18504928338E+02  0.59301865326E+02  0.49999856467E+02 0.  0.
         12    1    1    2    0    0 -0.10135113549E+02 -0.23907586348E+02 -0.18504928338E+02  0.31886134674E+02  0.00000000000E+00 0. -1.
         11    1    3    3    0    0  0.23267625598E+01 -0.11262259500E+02  0.17629501023E+01  0.11634444824E+02  0.51100000000E-03 0. -1.
        -11    1    3    3    0    0  0.36833692917E+01  0.41253187413E+01  0.15353616982E+02  0.16319283647E+02  0.51100000000E-03 0.  1.
        -12    1    3    3    0    0  0.41249816973E+01  0.31044527107E+02  0.13883612536E+01  0.31348136855E+02  0.00000000000E+00 0.  1.
</event>
<event>
 7    1  0.3461631E-013  0.5930195E+02  0.7816164E-02  0.1266605E+00
        -11   -1    0    0    0    0  0.00000000000E+00  0.00000000000E+00  0.45593999997E+02  0.45594000000E+02  0.51100000000E-03 0. -1.
         11   -1    0    0    0    0 -0.00000000000E+00 -0.00000000000E+00 -0.45593999997E+02  0.45594000000E+02  0.51100000000E-03 0.  1.
    9900012    2    1    2    0    0  0.16703525913E+02 -0.27084095615E+02 -0.20406258690E+01  0.59301950274E+02  0.50000011391E+02 0.  0.
         12    1    1    2    0    0 -0.16703525913E+02  0.27084095615E+02  0.20406258690E+01  0.31886049726E+02  0.00000000000E+00 0. -1.
         11    1    3    3    0    0  0.20543495696E+02 -0.86453106490E+01  0.63978154335E+01  0.23188545755E+02  0.51100000000E-03 0. -1.
        -11    1    3    3    0    0  0.60343995088E+00 -0.91948806215E+00 -0.16347655814E+02  0.16384610125E+02  0.51100000000E-03 0.  1.
        -12    1    3    3    0    0 -0.44434097342E+01 -0.17519296904E+02  0.79092145113E+01  0.19728794394E+02  0.00000000000E+00 0.  1.
</event>
<event>
 7    1  0.3461631E-013  0.5930193E+02  0.7816164E-02  0.1266605E+00
        -11   -1    0    0    0    0  0.00000000000E+00  0.00000000000E+00  0.45593999997E+02  0.45594000000E+02  0.51100000000E-03 0. -1.
         11   -1    0    0    0    0 -0.00000000000E+00 -0.00000000000E+00 -0.45593999997E+02  0.45594000000E+02  0.51100000000E-03 0.  1.
    9900012    2    1    2    0    0  0.18711442429E+02 -0.19390186598E+02 -0.17047701605E+02  0.59301928683E+02  0.49999972015E+02 0.  0.
         12    1    1    2    0    0 -0.18711442429E+02  0.19390186598E+02  0.17047701605E+02  0.31886071317E+02  0.00000000000E+00 0. -1.
         11    1    3    3    0    0  0.44708340246E+01  0.84345390369E+00 -0.68771096954E+01  0.82458722636E+01  0.51100000000E-03 0. -1.
        -11    1    3    3    0    0 -0.13798662951E+00  0.82973734746E+01 -0.16515119146E+02  0.18482819253E+02  0.51100000000E-03 0.  1.
         12    1    3    3    0    0  0.14378595033E+02 -0.28531013976E+02  0.63445272365E+01  0.32573237166E+02  0.00000000000E+00 0. -1.
</event>
<event>
 7    1  0.3461631E-013  0.5930196E+02  0.7816164E-02  0.1266605E+00
        -11   -1    0    0    0    0  0.00000000000E+00  0.00000000000E+00  0.45593999997E+02  0.45594000000E+02  0.51100000000E-03 0.  1.
         11   -1    0    0    0    0 -0.00000000000E+00 -0.00000000000E+00 -0.45593999997E+02  0.45594000000E+02  0.51100000000E-03 0. -1.
    9900012    2    1    2    0    0 -0.89357076143E+01 -0.30416392284E+02 -0.34228703871E+01  0.59301955532E+02  0.50000020981E+02 0.  0.
         12    1    1    2    0    0  0.89357076143E+01  0.30416392284E+02  0.34228703871E+01  0.31886044468E+02  0.00000000000E+00 0. -1.
         11    1    3    3    0    0 -0.67229332934E+01 -0.82757735011E+01  0.88132987155E+01  0.13833311014E+02  0.51100000000E-03 0. -1.
        -11    1    3    3    0    0  0.78590929150E+01 -0.75746805557E+01  0.11499273280E+02  0.15854791490E+02  0.51100000000E-03 0.  1.
         12    1    3    3    0    0 -0.10071867236E+02 -0.14565938227E+02 -0.23735442383E+02  0.29613853028E+02  0.00000000000E+00 0. -1.
</event>
<event>
 7    1  0.3461631E-013  0.5930194E+02  0.7816164E-02  0.1266605E+00
        -11   -1    0    0    0    0  0.00000000000E+00  0.00000000000E+00  0.45593999997E+02  0.45594000000E+02  0.51100000000E-03 0. -1.
         11   -1    0    0    0    0 -0.00000000000E+00 -0.00000000000E+00 -0.45593999997E+02  0.45594000000E+02  0.51100000000E-03 0.  1.
    9900012    2    1    2    0    0 -0.98989622657E+00 -0.30517693423E+02  0.91875464576E+01  0.59301944799E+02  0.50000001407E+02 0.  0.
         12    1    1    2    0    0  0.98989622657E+00  0.30517693423E+02 -0.91875464576E+01  0.31886055201E+02  0.00000000000E+00 0. -1.
         11    1    3    3    0    0  0.10228403129E+02  0.19687131349E+01  0.73521613823E+01  0.12749523098E+02  0.51100000000E-03 0. -1.
        -11    1    3    3    0    0 -0.34625034706E+01 -0.19309063995E+02 -0.14335833993E+02  0.24297016672E+02  0.51100000000E-03 0.  1.
         12    1    3    3    0    0 -0.77557958854E+01 -0.13177342563E+02  0.16171219068E+02  0.22255405029E+02  0.00000000000E+00 0. -1.
</event>
<event>
 7    1  0.3461631E-013  0.5930194E+02  0.7816164E-02  0.1266605E+00
        -11   -1    0    0    0    0  0.00000000000E+00  0.00000000000E+00  0.45593999997E+02  0.45594000000E+02  0.51100000000E-03 0. -1.
         11   -1    0    0    0    0 -0.00000000000E+00 -0.00000000000E+00 -0.45593999997E+02  0.45594000000E+02  0.51100000000E-03 0.  1.
    9900012    2    1    2    0    0  0.11407474427E+02 -0.29662770843E+02 -0.25904549853E+01  0.59301938720E+02  0.49999990321E+02 0.  0.
         12    1    1    2    0    0 -0.11407474427E+02  0.29662770843E+02  0.25904549853E+01  0.31886061280E+02  0.00000000000E+00 0. -1.
         11    1    3    3    0    0  0.25329052493E+01  0.30515971977E+01 -0.64875957555E+01  0.76037328600E+01  0.51100000000E-03 0. -1.
        -11    1    3    3    0    0  0.13883890376E+02 -0.25997328952E+01 -0.10833852396E+02  0.17801499406E+02  0.51100000000E-03 0.  1.
         12    1    3    3    0    0 -0.50093211981E+01 -0.30114635146E+02  0.14730993166E+02  0.33896706455E+02  0.00000000000E+00 0. -1.
</event>
<event>
 7    1  0.3461631E-013  0.5930197E+02  0.7816164E-02  0.1266605E+00
        -11   -1    0    0    0    0  0.00000000000E+00  0.00000000000E+00  0.45593999997E+02  0.45594000000E+02  0.51100000000E-03 0.  1.
         11   -1    0    0    0    0 -0.00000000000E+00 -0.00000000000E+00 -0.45593999997E+02  0.45594000000E+02  0.51100000000E-03 0. -1.
    9900012    2    1    2    0    0  0.12496037242E+01  0.31819084804E+02 -0.16440771211E+01  0.59301973957E+02  0.50000054584E+02 0.  0.
         12    1    1    2    0    0 -0.12496037242E+01 -0.31819084804E+02  0.16440771211E+01  0.31886026043E+02  0.00000000000E+00 0. -1.
         11    1    3    3    0    0 -0.55986081541E+01 -0.22304340658E+01 -0.76081640450E+01  0.97058441046E+01  0.51100000000E-03 0. -1.
        -11    1    3    3    0    0 -0.89263480413E+01  0.14731321151E+02  0.15227745887E+02  0.22990775483E+02  0.51100000000E-03 0.  1.
         12    1    3    3    0    0  0.15774559920E+02  0.19318197719E+02 -0.92636589634E+01  0.26605354370E+02  0.00000000000E+00 0. -1.
</event>
<event>
 7    1  0.3461631E-013  0.5930205E+02  0.7816164E-02  0.1266604E+00
        -11   -1    0    0    0    0  0.00000000000E+00  0.00000000000E+00  0.45593999997E+02  0.45594000000E+02  0.51100000000E-03 0.  1.
         11   -1    0    0    0    0 -0.00000000000E+00 -0.00000000000E+00 -0.45593999997E+02  0.45594000000E+02  0.51100000000E-03 0. -1.
    9900012    2    1    2    0    0 -0.62657535453E+01 -0.17259941971E+02  0.26068145910E+02  0.59302054891E+02  0.50000202187E+02 0.  0.
         12    1    1    2    0    0  0.62657535453E+01  0.17259941971E+02 -0.26068145910E+02  0.31885945109E+02  0.00000000000E+00 0. -1.
         11    1    3    3    0    0 -0.63499685285E+01 -0.35285384750E+01  0.51532801470E+01  0.89066817961E+01  0.51100000000E-03 0. -1.
        -11    1    3    3    0    0 -0.19318122068E+02 -0.12233989949E+02  0.15134870174E+01  0.22916173186E+02  0.51100000000E-03 0.  1.
         12    1    3    3    0    0  0.19402337051E+02 -0.14974135465E+01  0.19401378746E+02  0.27479199908E+02  0.00000000000E+00 0. -1.
</event>
<event>
 7    1  0.3461631E-013  0.5930193E+02  0.7816164E-02  0.1266605E+00
        -11   -1    0    0    0    0  0.00000000000E+00  0.00000000000E+00  0.45593999997E+02  0.45594000000E+02  0.51100000000E-03 0. -1.
         11   -1    0    0    0    0 -0.00000000000E+00 -0.00000000000E+00 -0.45593999997E+02  0.45594000000E+02  0.51100000000E-03 0.  1.
    9900012    2    1    2    0    0 -0.45875574088E+01  0.41178237667E+01 -0.31284486354E+02  0.59301933419E+02  0.49999980652E+02 0.  0.
         12    1    1    2    0    0  0.45875574088E+01 -0.41178237667E+01  0.31284486354E+02  0.31886066581E+02  0.00000000000E+00 0. -1.
         11    1    3    3    0    0 -0.44276126942E+01  0.40404322502E+01  0.68711517186E+01  0.91182001041E+01  0.51100000000E-03 0. -1.
        -11    1    3    3    0    0  0.11004663399E+02 -0.24288688327E+01 -0.10088925927E+01  0.11314587260E+02  0.51100000000E-03 0.  1.
        -12    1    3    3    0    0 -0.11164608114E+02  0.25062603493E+01 -0.37146745480E+02  0.38869146055E+02  0.00000000000E+00 0.  1.
</event>
<event>
 7    1  0.3461631E-013  0.5930196E+02  0.7816164E-02  0.1266605E+00
        -11   -1    0    0    0    0  0.00000000000E+00  0.00000000000E+00  0.45593999997E+02  0.45594000000E+02  0.51100000000E-03 0. -1.
         11   -1    0    0    0    0 -0.00000000000E+00 -0.00000000000E+00 -0.45593999997E+02  0.45594000000E+02  0.51100000000E-03 0.  1.
    9900012    2    1    2    0    0 -0.22608431190E+02  0.17528901746E+02  0.14082475884E+02  0.59301957845E+02  0.50000025200E+02 0.  0.
         12    1    1    2    0    0  0.22608431190E+02 -0.17528901746E+02 -0.14082475884E+02  0.31886042155E+02  0.00000000000E+00 0. -1.
         11    1    3    3    0    0 -0.16717324319E+02  0.96588742239E+01  0.30788778350E+02  0.36341596776E+02  0.51100000000E-03 0. -1.
        -11    1    3    3    0    0  0.91008989172E+00  0.63256659324E+01 -0.20204516988E+01  0.67025769990E+01  0.51100000000E-03 0.  1.
        -12    1    3    3    0    0 -0.68011967621E+01  0.15443615898E+01 -0.14685850767E+02  0.16257784070E+02  0.00000000000E+00 0.  1.
</event>
<event>
 7    1  0.3461631E-013  0.5930197E+02  0.7816164E-02  0.1266605E+00
        -11   -1    0    0    0    0  0.00000000000E+00  0.00000000000E+00  0.45593999997E+02  0.45594000000E+02  0.51100000000E-03 0.  1.
         11   -1    0    0    0    0 -0.00000000000E+00 -0.00000000000E+00 -0.45593999997E+02  0.45594000000E+02  0.51100000000E-03 0. -1.
    9900012    2    1    2    0    0 -0.27840387515E+02  0.14579273528E+02 -0.53922622264E+01  0.59301970371E+02  0.50000048044E+02 0.  0.
         12    1    1    2    0    0  0.27840387515E+02 -0.14579273528E+02  0.53922622264E+01  0.31886029629E+02  0.00000000000E+00 0. -1.
         11    1    3    3    0    0  0.69739798220E+01  0.12142073118E+02  0.26869805202E+01  0.14257846918E+02  0.51100000000E-03 0. -1.
        -11    1    3    3    0    0 -0.12514339411E+02  0.13776608290E+02  0.43647130260E+00  0.18617038817E+02  0.51100000000E-03 0.  1.
        -12    1    3    3    0    0 -0.22300027926E+02 -0.11339407880E+02 -0.85157140492E+01  0.26427084635E+02  0.00000000000E+00 0.  1.
</event>
<event>
 7    1  0.3461631E-013  0.5930195E+02  0.7816164E-02  0.1266605E+00
        -11   -1    0    0    0    0  0.00000000000E+00  0.00000000000E+00  0.45593999997E+02  0.45594000000E+02  0.51100000000E-03 0. -1.
         11   -1    0    0    0    0 -0.00000000000E+00 -0.00000000000E+00 -0.45593999997E+02  0.45594000000E+02  0.51100000000E-03 0.  1.
    9900012    2    1    2    0    0 -0.20811495986E+02 -0.13986271860E+02 -0.19697358852E+02  0.59301951147E+02  0.50000012984E+02 0.  0.
         12    1    1    2    0    0  0.20811495986E+02  0.13986271860E+02  0.19697358852E+02  0.31886048853E+02  0.00000000000E+00 0. -1.
         11    1    3    3    0    0 -0.99403422892E+00 -0.10470705908E+01 -0.99661110009E+01  0.10070145461E+02  0.51100000000E-03 0. -1.
        -11    1    3    3    0    0 -0.31486760421E+02 -0.67041169756E+01 -0.14312091922E+02  0.35230629312E+02  0.51100000000E-03 0.  1.
         12    1    3    3    0    0  0.11669298664E+02 -0.62350842931E+01  0.45808440707E+01  0.14001176374E+02  0.00000000000E+00 0. -1.
</event>
<event>
 7    1  0.3461631E-013  0.5930196E+02  0.7816164E-02  0.1266605E+00
        -11   -1    0    0    0    0  0.00000000000E+00  0.00000000000E+00  0.45593999997E+02  0.45594000000E+02  0.51100000000E-03 0.  1.
         11   -1    0    0    0    0 -0.00000000000E+00 -0.00000000000E+00 -0.45593999997E+02  0.45594000000E+02  0.51100000000E-03 0. -1.
    9900012    2    1    2    0    0 -0.27180121530E+02 -0.67747208271E+01  0.15233639083E+02  0.59301959035E+02  0.50000027370E+02 0.  0.
         12    1    1    2    0    0  0.27180121530E+02  0.67747208271E+01 -0.15233639083E+02  0.31886040965E+02  0.00000000000E+00 0. -1.
         11    1    3    3    0    0 -0.22566020987E+01  0.89389078046E+01 -0.69159278955E+01  0.11525032958E+02  0.51100000000E-03 0. -1.
        -11    1    3    3    0    0 -0.15816246965E+02 -0.14268202624E+02 -0.25111447990E+01  0.21448569245E+02  0.51100000000E-03 0.  1.
        -12    1    3    3    0    0 -0.91072724661E+01 -0.14454260080E+01  0.24660711778E+02  0.26328356832E+02  0.00000000000E+00 0.  1.
</event>
<event>
 7    1  0.3461631E-013  0.5930192E+02  0.7816164E-02  0.1266605E+00
        -11   -1    0    0    0    0  0.00000000000E+00  0.00000000000E+00  0.45593999997E+02  0.45594000000E+02  0.51100000000E-03 0.  1.
         11   -1    0    0    0    0 -0.00000000000E+00 -0.00000000000E+00 -0.45593999997E+02  0.45594000000E+02  0.51100000000E-03 0. -1.
    9900012    2    1    2    0    0 -0.94318946888E+01  0.97161294505E+01  0.28867943307E+02  0.59301922165E+02  0.49999960127E+02 0.  0.
         12    1    1    2    0    0  0.94318946888E+01 -0.97161294505E+01 -0.28867943307E+02  0.31886077835E+02  0.00000000000E+00 0. -1.
         11    1    3    3    0    0 -0.26582380011E+00 -0.79036864404E+01  0.42771460911E+01  0.89907119065E+01  0.51100000000E-03 0. -1.
        -11    1    3    3    0    0 -0.23909810932E+02  0.57211481329E+01  0.10668339966E+02  0.26799702846E+02  0.51100000000E-03 0.  1.
         12    1    3    3    0    0  0.14743740043E+02  0.11898667758E+02  0.13922457251E+02  0.23511507412E+02  0.00000000000E+00 0. -1.
</event>
<event>
 7    1  0.3461631E-013  0.5930183E+02  0.7816164E-02  0.1266605E+00
        -11   -1    0    0    0    0  0.00000000000E+00  0.00000000000E+00  0.45593999997E+02  0.45594000000E+02  0.51100000000E-03 0.  1.
         11   -1    0    0    0    0 -0.00000000000E+00 -0.00000000000E+00 -0.45593999997E+02  0.45594000000E+02  0.51100000000E-03 0. -1.
    9900012    2    1    2    0    0 -0.20701437783E+02  0.14201816235E+02  0.19659258317E+02  0.59301834533E+02  0.49999800307E+02 0.  0.
         12    1    1    2    0    0  0.20701437783E+02 -0.14201816235E+02 -0.19659258317E+02  0.31886165467E+02  0.00000000000E+00 0. -1.
         11    1    3    3    0    0  0.67086826063E+01 -0.27989860879E+01  0.29154788980E+01  0.78320344035E+01  0.51100000000E-03 0. -1.
        -11    1    3    3    0    0 -0.58019255862E+01 -0.15852525958E+01  0.21719487169E+02  0.22536891743E+02  0.51100000000E-03 0.  1.
         12    1    3    3    0    0 -0.21608194803E+02  0.18586054918E+02 -0.49757077500E+01  0.28932908386E+02  0.00000000000E+00 0. -1.
</event>
<event>
 7    1  0.3461631E-013  0.5930195E+02  0.7816164E-02  0.1266605E+00
        -11   -1    0    0    0    0  0.00000000000E+00  0.00000000000E+00  0.45593999997E+02  0.45594000000E+02  0.51100000000E-03 0. -1.
         11   -1    0    0    0    0 -0.00000000000E+00 -0.00000000000E+00 -0.45593999997E+02  0.45594000000E+02  0.51100000000E-03 0.  1.
    9900012    2    1    2    0    0 -0.65164772065E+00 -0.20413404199E+02 -0.24486501005E+02  0.59301945882E+02  0.50000003382E+02 0.  0.
         12    1    1    2    0    0  0.65164772065E+00  0.20413404199E+02  0.24486501005E+02  0.31886054118E+02  0.00000000000E+00 0. -1.
         11    1    3    3    0    0  0.69370695371E+01  0.10023742870E+02 -0.17081956625E+02  0.20985509221E+02  0.51100000000E-03 0. -1.
        -11    1    3    3    0    0  0.61346751749E+01 -0.18148503611E+02 -0.32225608557E+01  0.19426459316E+02  0.51100000000E-03 0.  1.
        -12    1    3    3    0    0 -0.13723392433E+02 -0.12288643457E+02 -0.41819835250E+01  0.18889977345E+02  0.00000000000E+00 0.  1.
</event>
<event>
 7    1  0.3765635E-013  0.5930195E+02  0.7816164E-02  0.1266605E+00
        -11   -1    0    0    0    0  0.00000000000E+00  0.00000000000E+00  0.45593999997E+02  0.45594000000E+02  0.51100000000E-03 0.  1.
         11   -1    0    0    0    0 -0.00000000000E+00 -0.00000000000E+00 -0.45593999997E+02  0.45594000000E+02  0.51100000000E-03 0. -1.
    9900012    2    1    2    0    0 -0.63840043696E+01 -0.13782002388E+02  0.28036069604E+02  0.59301948183E+02  0.50000007578E+02 0.  0.
         12    1    1    2    0    0  0.63840043696E+01  0.13782002388E+02 -0.28036069604E+02  0.31886051817E+02  0.00000000000E+00 0. -1.
         11    1    3    3    0    0  0.32303016431E+01 -0.11097959204E+02  0.15284943169E+02  0.19163220897E+02  0.51100000000E-03 0. -1.
        -11    1    3    3    0    0 -0.61405348546E+01  0.91683007733E+01  0.22064483350E+02  0.24669927708E+02  0.51100000000E-03 0.  1.
         12    1    3    3    0    0 -0.34737711581E+01 -0.11852343958E+02 -0.93133569147E+01  0.15468799578E+02  0.00000000000E+00 0. -1.
</event>
<event>
 7    1  0.3461631E-013  0.5930195E+02  0.7816164E-02  0.1266605E+00
        -11   -1    0    0    0    0  0.00000000000E+00  0.00000000000E+00  0.45593999997E+02  0.45594000000E+02  0.51100000000E-03 0.  1.
         11   -1    0    0    0    0 -0.00000000000E+00 -0.00000000000E+00 -0.45593999997E+02  0.45594000000E+02  0.51100000000E-03 0. -1.
    9900012    2    1    2    0    0 -0.14177439651E+02 -0.23254178407E+02  0.16582018869E+02  0.59301953549E+02  0.50000017365E+02 0.  0.
         12    1    1    2    0    0  0.14177439651E+02  0.23254178407E+02 -0.16582018869E+02  0.31886046451E+02  0.00000000000E+00 0. -1.
         11    1    3    3    0    0 -0.82625459706E+01  0.33588414845E+01  0.66077045685E+01  0.11100146033E+02  0.51100000000E-03 0. -1.
        -11    1    3    3    0    0 -0.62233414568E+01  0.93125536548E+01  0.31183253791E+01  0.11626589693E+02  0.51100000000E-03 0.  1.
         12    1    3    3    0    0  0.30844777610E+00 -0.35925573547E+02  0.68559889215E+01  0.36575217823E+02  0.00000000000E+00 0. -1.
</event>
<event>
 7    1  0.3461631E-013  0.5930194E+02  0.7816164E-02  0.1266605E+00
        -11   -1    0    0    0    0  0.00000000000E+00  0.00000000000E+00  0.45593999997E+02  0.45594000000E+02  0.51100000000E-03 0. -1.
         11   -1    0    0    0    0 -0.00000000000E+00 -0.00000000000E+00 -0.45593999997E+02  0.45594000000E+02  0.51100000000E-03 0.  1.
    9900012    2    1    2    0    0  0.95412231113E+01  0.28046068460E+02 -0.11794231055E+02  0.59301940653E+02  0.49999993844E+02 0.  0.
         12    1    1    2    0    0 -0.95412231113E+01 -0.28046068460E+02  0.11794231055E+02  0.31886059347E+02  0.00000000000E+00 0. -1.
         11    1    3    3    0    0 -0.77743210001E+01 -0.79625556029E+01 -0.56206842840E+01  0.12467335354E+02  0.51100000000E-03 0. -1.
        -11    1    3    3    0    0 -0.32302919308E+00  0.30060578767E+01 -0.88169658308E+01  0.93209236956E+01  0.51100000000E-03 0.  1.
         12    1    3    3    0    0  0.17638573304E+02  0.33002566186E+02  0.26434190595E+01  0.37513681603E+02  0.00000000000E+00 0. -1.
</event>
<event>
 7    1  0.3461631E-013  0.5930195E+02  0.7816164E-02  0.1266605E+00
        -11   -1    0    0    0    0  0.00000000000E+00  0.00000000000E+00  0.45593999997E+02  0.45594000000E+02  0.51100000000E-03 0.  1.
         11   -1    0    0    0    0 -0.00000000000E+00 -0.00000000000E+00 -0.45593999997E+02  0.45594000000E+02  0.51100000000E-03 0. -1.
    9900012    2    1    2    0    0  0.64486060143E+01 -0.49042602030E+01  0.30839651336E+02  0.59301946901E+02  0.50000005240E+02 0.  0.
         12    1    1    2    0    0 -0.64486060143E+01  0.49042602030E+01 -0.30839651336E+02  0.31886053099E+02  0.00000000000E+00 0. -1.
         11    1    3    3    0    0  0.20690252589E+01 -0.59128619952E+01  0.20360606603E+02  0.21302514030E+02  0.51100000000E-03 0. -1.
        -11    1    3    3    0    0 -0.13602110030E+02 -0.86303889771E+01  0.51591122790E+01  0.16915006679E+02  0.51100000000E-03 0.  1.
         12    1    3    3    0    0  0.17981690786E+02  0.96389907693E+01  0.53199324547E+01  0.21084426193E+02  0.00000000000E+00 0. -1.
</event>
<event>
 7    1  0.3461631E-013  0.5930188E+02  0.7816164E-02  0.1266605E+00
        -11   -1    0    0    0    0  0.00000000000E+00  0.00000000000E+00  0.45593999997E+02  0.45594000000E+02  0.51100000000E-03 0. -1.
         11   -1    0    0    0    0 -0.00000000000E+00 -0.00000000000E+00 -0.45593999997E+02  0.45594000000E+02  0.51100000000E-03 0.  1.
    9900012    2    1    2    0    0  0.84094400994E+01  0.30754577421E+02 -0.40278204900E+00  0.59301875298E+02  0.49999874653E+02 0.  0.
         12    1    1    2    0    0 -0.84094400994E+01 -0.30754577421E+02  0.40278204900E+00  0.31886124702E+02  0.00000000000E+00 0. -1.
         11    1    3    3    0    0 -0.11658251576E+02 -0.18766875904E+01  0.49410787853E+01  0.12800431475E+02  0.51100000000E-03 0. -1.
        -11    1    3    3    0    0 -0.49995980662E+01  0.52689793636E+01  0.39200482363E+01  0.82537811210E+01  0.51100000000E-03 0.  1.
        -12    1    3    3    0    0  0.25067289742E+02  0.27362285648E+02 -0.92639090706E+01  0.38247662702E+02  0.00000000000E+00 0.  1.
</event>
<event>
 7    1  0.3461631E-013  0.5930195E+02  0.7816164E-02  0.1266605E+00
        -11   -1    0    0    0    0  0.00000000000E+00  0.00000000000E+00  0.45593999997E+02  0.45594000000E+02  0.51100000000E-03 0.  1.
         11   -1    0    0    0    0 -0.00000000000E+00 -0.00000000000E+00 -0.45593999997E+02  0.45594000000E+02  0.51100000000E-03 0. -1.
    9900012    2    1    2    0    0  0.26925670037E+02 -0.49180179222E+01  0.16356697087E+02  0.59301950592E+02  0.50000011972E+02 0.  0.
         12    1    1    2    0    0 -0.26925670037E+02  0.49180179222E+01 -0.16356697087E+02  0.31886049408E+02  0.00000000000E+00 0. -1.
         11    1    3    3    0    0  0.10423174799E+02 -0.70289502864E+01 -0.57935443268E+01  0.13842466223E+02  0.51100000000E-03 0. -1.
        -11    1    3    3    0    0  0.25145842002E+02 -0.48032424649E+01  0.67162509612E+01  0.26466819518E+02  0.51100000000E-03 0.  1.
        -12    1    3    3    0    0 -0.86433467636E+01  0.69141748292E+01  0.15433990452E+02  0.18992664851E+02  0.00000000000E+00 0.  1.
</event>
<event>
 7    1  0.3461631E-013  0.5930190E+02  0.7816164E-02  0.1266605E+00
        -11   -1    0    0    0    0  0.00000000000E+00  0.00000000000E+00  0.45593999997E+02  0.45594000000E+02  0.51100000000E-03 0.  1.
         11   -1    0    0    0    0 -0.00000000000E+00 -0.00000000000E+00 -0.45593999997E+02  0.45594000000E+02  0.51100000000E-03 0. -1.
    9900012    2    1    2    0    0 -0.31883551439E+02 -0.29177676003E+00  0.27767266217E+00  0.59301904470E+02  0.49999927856E+02 0.  0.
         12    1    1    2    0    0  0.31883551439E+02  0.29177676003E+00 -0.27767266217E+00  0.31886095530E+02  0.00000000000E+00 0. -1.
         11    1    3    3    0    0 -0.12943926259E+02  0.42052738132E+01  0.90214900909E+01  0.16328405879E+02  0.51100000000E-03 0. -1.
        -11    1    3    3    0    0  0.10310964281E+02 -0.72269944360E+01 -0.40254778018E+01  0.13219300465E+02  0.51100000000E-03 0.  1.
         12    1    3    3    0    0 -0.29250589461E+02  0.27299438628E+01 -0.47183396269E+01  0.29754198126E+02  0.00000000000E+00 0. -1.
</event>
<event>
 7    1  0.3461631E-013  0.5930190E+02  0.7816164E-02  0.1266605E+00
        -11   -1    0    0    0    0  0.00000000000E+00  0.00000000000E+00  0.45593999997E+02  0.45594000000E+02  0.51100000000E-03 0.  1.
         11   -1    0    0    0    0 -0.00000000000E+00 -0.00000000000E+00 -0.45593999997E+02  0.45594000000E+02  0.51100000000E-03 0. -1.
    9900012    2    1    2    0    0 -0.27288468560E+02  0.11892058112E+02  0.11429855031E+02  0.59301903524E+02  0.49999926130E+02 0.  0.
         12    1    1    2    0    0  0.27288468560E+02 -0.11892058112E+02 -0.11429855031E+02  0.31886096476E+02  0.00000000000E+00 0. -1.
         11    1    3    3    0    0  0.47614600800E+01  0.64136886385E+01  0.68697578997E+01  0.10535676433E+02  0.51100000000E-03 0. -1.
        -11    1    3    3    0    0 -0.11417106527E+02  0.20157006712E+02  0.91617349261E+00  0.23183930106E+02  0.51100000000E-03 0.  1.
        -12    1    3    3    0    0 -0.20632822113E+02 -0.14678637238E+02  0.36439236389E+01  0.25582296985E+02  0.00000000000E+00 0.  1.
</event>
<event>
 7    1  0.3461631E-013  0.5930195E+02  0.7816164E-02  0.1266605E+00
        -11   -1    0    0    0    0  0.00000000000E+00  0.00000000000E+00  0.45593999997E+02  0.45594000000E+02  0.51100000000E-03 0.  1.
         11   -1    0    0    0    0 -0.00000000000E+00 -0.00000000000E+00 -0.45593999997E+02  0.45594000000E+02  0.51100000000E-03 0. -1.
    9900012    2    1    2    0    0 -0.60093714922E+01 -0.16856449664E+02  0.26390680031E+02  0.59301946097E+02  0.50000003774E+02 0.  0.
         12    1    1    2    0    0  0.60093714922E+01  0.16856449664E+02 -0.26390680031E+02  0.31886053903E+02  0.00000000000E+00 0. -1.
         11    1    3    3    0    0 -0.38555586680E+01  0.36596914316E+01  0.16274583053E+01  0.55594329579E+01  0.51100000000E-03 0. -1.
        -11    1    3    3    0    0 -0.59342483032E+01 -0.29563314105E+01  0.33229980125E+02  0.33884904865E+02  0.51100000000E-03 0.  1.
         12    1    3    3    0    0  0.37804354790E+01 -0.17559809685E+02 -0.84667583989E+01  0.19857608274E+02  0.00000000000E+00 0. -1.
</event>
<event>
 7    1  0.3461631E-013  0.5930192E+02  0.7816164E-02  0.1266605E+00
        -11   -1    0    0    0    0  0.00000000000E+00  0.00000000000E+00  0.45593999997E+02  0.45594000000E+02  0.51100000000E-03 0. -1.
         11   -1    0    0    0    0 -0.00000000000E+00 -0.00000000000E+00 -0.45593999997E+02  0.45594000000E+02  0.51100000000E-03 0.  1.
    9900012    2    1    2    0    0  0.28618240548E+01 -0.27179643872E+02 -0.16425560278E+02  0.59301919834E+02  0.49999955876E+02 0.  0.
         12    1    1    2    0    0 -0.28618240548E+01  0.27179643872E+02  0.16425560278E+02  0.31886080166E+02  0.00000000000E+00 0. -1.
         11    1    3    3    0    0 -0.58601435965E+01  0.22003129274E+01 -0.15464534287E+02  0.16683359401E+02  0.51100000000E-03 0. -1.
        -11    1    3    3    0    0 -0.59724525465E+01 -0.60202455448E+01  0.98338254990E+01  0.12985286676E+02  0.51100000000E-03 0.  1.
        -12    1    3    3    0    0  0.14694420198E+02 -0.23359711255E+02 -0.10794851490E+02  0.29633273757E+02  0.00000000000E+00 0.  1.
</event>
<event>
 7    1  0.3461631E-013  0.5930194E+02  0.7816164E-02  0.1266605E+00
        -11   -1    0    0    0    0  0.00000000000E+00  0.00000000000E+00  0.45593999997E+02  0.45594000000E+02  0.51100000000E-03 0.  1.
         11   -1    0    0    0    0 -0.00000000000E+00 -0.00000000000E+00 -0.45593999997E+02  0.45594000000E+02  0.51100000000E-03 0. -1.
    9900012    2    1    2    0    0 -0.19013082042E+02  0.18614761054E+02  0.17570268752E+02  0.59301937812E+02  0.49999988664E+02 0.  0.
         12    1    1    2    0    0  0.19013082042E+02 -0.18614761054E+02 -0.17570268752E+02  0.31886062188E+02  0.00000000000E+00 0. -1.
         11    1    3    3    0    0  0.69789337897E+01  0.88901824001E+01 -0.29362394216E+01  0.11677429604E+02  0.51100000000E-03 0. -1.
        -11    1    3    3    0    0  0.42677028033E+01  0.68185349332E+01 -0.36141043467E+01  0.88185858471E+01  0.51100000000E-03 0.  1.
         12    1    3    3    0    0 -0.30259718635E+02  0.29060437210E+01  0.24120612520E+02  0.38805922361E+02  0.00000000000E+00 0. -1.
</event>
<event>
 7    1  0.3461631E-013  0.5930195E+02  0.7816164E-02  0.1266605E+00
        -11   -1    0    0    0    0  0.00000000000E+00  0.00000000000E+00  0.45593999997E+02  0.45594000000E+02  0.51100000000E-03 0.  1.
         11   -1    0    0    0    0 -0.00000000000E+00 -0.00000000000E+00 -0.45593999997E+02  0.45594000000E+02  0.51100000000E-03 0. -1.
    9900012    2    1    2    0    0 -0.50919995970E+01  0.27009397973E+02  0.16164294324E+02  0.59301945843E+02  0.50000003310E+02 0.  0.
         12    1    1    2    0    0  0.50919995970E+01 -0.27009397973E+02 -0.16164294324E+02  0.31886054157E+02  0.00000000000E+00 0. -1.
         11    1    3    3    0    0  0.40609942798E+01 -0.33939058603E+01 -0.59069033797E+01  0.79310641989E+01  0.51100000000E-03 0.  1.
        -11    1    3    3    0    0  0.36402031649E+01 -0.62623939785E+01  0.13970379265E+01  0.73770165143E+01  0.51100000000E-03 0. -1.
        -12    1    3    3    0    0 -0.12793197042E+02  0.36665697811E+02  0.20674159777E+02  0.43993865129E+02  0.00000000000E+00 0.  1.
</event>
<event>
 7    1  0.3461631E-013  0.5930193E+02  0.7816164E-02  0.1266605E+00
        -11   -1    0    0    0    0  0.00000000000E+00  0.00000000000E+00  0.45593999997E+02  0.45594000000E+02  0.51100000000E-03 0. -1.
         11   -1    0    0    0    0 -0.00000000000E+00 -0.00000000000E+00 -0.45593999997E+02  0.45594000000E+02  0.51100000000E-03 0.  1.
    9900012    2    1    2    0    0  0.12991367174E+01  0.20503632784E+02 -0.24385138569E+02  0.59301926291E+02  0.49999967652E+02 0.  0.
         12    1    1    2    0    0 -0.12991367174E+01 -0.20503632784E+02  0.24385138569E+02  0.31886073709E+02  0.00000000000E+00 0. -1.
         11    1    3    3    0    0  0.43802590308E+01  0.87628166021E+01  0.30778007802E+01  0.10268713740E+02  0.51100000000E-03 0. -1.
        -11    1    3    3    0    0 -0.29295351522E+01 -0.12164935904E+02  0.14463736690E+00  0.12513543143E+02  0.51100000000E-03 0.  1.
         12    1    3    3    0    0 -0.15158716117E+00  0.23905752086E+02 -0.27607576716E+02  0.36519669407E+02  0.00000000000E+00 0. -1.
</event>
<event>
 7    1  0.3461631E-013  0.5930195E+02  0.7816164E-02  0.1266605E+00
        -11   -1    0    0    0    0  0.00000000000E+00  0.00000000000E+00  0.45593999997E+02  0.45594000000E+02  0.51100000000E-03 0.  1.
         11   -1    0    0    0    0 -0.00000000000E+00 -0.00000000000E+00 -0.45593999997E+02  0.45594000000E+02  0.51100000000E-03 0. -1.
    9900012    2    1    2    0    0 -0.76749775791E+01  0.73985405529E+01  0.30051230774E+02  0.59301950477E+02  0.50000011763E+02 0.  0.
         12    1    1    2    0    0  0.76749775791E+01 -0.73985405529E+01 -0.30051230774E+02  0.31886049523E+02  0.00000000000E+00 0. -1.
         11    1    3    3    0    0  0.11506285802E+01  0.11915079124E+02  0.24223183624E+02  0.27019542590E+02  0.51100000000E-03 0. -1.
        -11    1    3    3    0    0 -0.10329758542E+02 -0.54068207794E+01  0.17198708581E+02  0.20778190479E+02  0.51100000000E-03 0.  1.
         12    1    3    3    0    0  0.15041523825E+01  0.89028220870E+00 -0.11370661431E+02  0.11504217408E+02  0.00000000000E+00 0. -1.
</event>
<event>
 7    1  0.3461631E-013  0.5930195E+02  0.7816164E-02  0.1266605E+00
        -11   -1    0    0    0    0  0.00000000000E+00  0.00000000000E+00  0.45593999997E+02  0.45594000000E+02  0.51100000000E-03 0.  1.
         11   -1    0    0    0    0 -0.00000000000E+00 -0.00000000000E+00 -0.45593999997E+02  0.45594000000E+02  0.51100000000E-03 0. -1.
    9900012    2    1    2    0    0 -0.28986363077E+02  0.64073138581E+01  0.11638622865E+02  0.59301945721E+02  0.50000003087E+02 0.  0.
         12    1    1    2    0    0  0.28986363077E+02 -0.64073138581E+01 -0.11638622865E+02  0.31886054279E+02  0.00000000000E+00 0. -1.
         11    1    3    3    0    0 -0.28018061583E+02  0.74218948036E+01  0.84430902436E+01  0.30189105162E+02  0.51100000000E-03 0.  1.
        -11    1    3    3    0    0 -0.19011481190E+01  0.12278449786E+02 -0.50837603376E+01  0.13424578681E+02  0.51100000000E-03 0. -1.
        -12    1    3    3    0    0  0.93284662499E+00 -0.13293030732E+02  0.82792929592E+01  0.15688261878E+02  0.00000000000E+00 0.  1.
</event>
<event>
 7    1  0.3461631E-013  0.5930179E+02  0.7816164E-02  0.1266605E+00
        -11   -1    0    0    0    0  0.00000000000E+00  0.00000000000E+00  0.45593999997E+02  0.45594000000E+02  0.51100000000E-03 0.  1.
         11   -1    0    0    0    0 -0.00000000000E+00 -0.00000000000E+00 -0.45593999997E+02  0.45594000000E+02  0.51100000000E-03 0. -1.
    9900012    2    1    2    0    0  0.13600903735E+02  0.62666207700E+01  0.28150934480E+02  0.59301792474E+02  0.49999723602E+02 0.  0.
         12    1    1    2    0    0 -0.13600903735E+02 -0.62666207700E+01 -0.28150934480E+02  0.31886207526E+02  0.00000000000E+00 0. -1.
         11    1    3    3    0    0  0.11087402510E+02  0.10875156554E+02  0.95750115984E+00  0.15560087829E+02  0.51100000000E-03 0.  1.
        -11    1    3    3    0    0 -0.13178184499E+02 -0.41336414179E+00  0.13982585319E+01  0.13258602633E+02  0.51100000000E-03 0. -1.
        -12    1    3    3    0    0  0.15691685724E+02 -0.41951716425E+01  0.25795174788E+02  0.30483102013E+02  0.00000000000E+00 0.  1.
</event>
<event>
 7    1  0.3461631E-013  0.5930193E+02  0.7816164E-02  0.1266605E+00
        -11   -1    0    0    0    0  0.00000000000E+00  0.00000000000E+00  0.45593999997E+02  0.45594000000E+02  0.51100000000E-03 0. -1.
         11   -1    0    0    0    0 -0.00000000000E+00 -0.00000000000E+00 -0.45593999997E+02  0.45594000000E+02  0.51100000000E-03 0.  1.
    9900012    2    1    2    0    0  0.13012349780E+02 -0.27962699401E+02 -0.80924254891E+01  0.59301934785E+02  0.49999983143E+02 0.  0.
         12    1    1    2    0    0 -0.13012349780E+02  0.27962699401E+02  0.80924254891E+01  0.31886065215E+02  0.00000000000E+00 0. -1.
         11    1    3    3    0    0 -0.99340626676E-01  0.22633117848E+01 -0.11706289315E+02  0.11923491878E+02  0.51100000000E-03 0. -1.
        -11    1    3    3    0    0 -0.15798644840E+01 -0.19182427633E+02 -0.12487761154E+02  0.22943532434E+02  0.51100000000E-03 0.  1.
         12    1    3    3    0    0  0.14691554891E+02 -0.11043583553E+02  0.16101624979E+02  0.24434910472E+02  0.00000000000E+00 0. -1.
</event>
<event>
 7    1  0.3461631E-013  0.5930196E+02  0.7816164E-02  0.1266605E+00
        -11   -1    0    0    0    0  0.00000000000E+00  0.00000000000E+00  0.45593999997E+02  0.45594000000E+02  0.51100000000E-03 0.  1.
         11   -1    0    0    0    0 -0.00000000000E+00 -0.00000000000E+00 -0.45593999997E+02  0.45594000000E+02  0.51100000000E-03 0. -1.
    9900012    2    1    2    0    0  0.12079522306E+02 -0.11569686264E+02  0.27146772179E+02  0.59301956985E+02  0.50000023631E+02 0.  0.
         12    1    1    2    0    0 -0.12079522306E+02  0.11569686264E+02 -0.27146772179E+02  0.31886043015E+02  0.00000000000E+00 0. -1.
         11    1    3    3    0    0 -0.27915876988E+01 -0.73730501993E-01  0.36896081718E+01  0.46272677457E+01  0.51100000000E-03 0. -1.
        -11    1    3    3    0    0 -0.66852662353E+01  0.12563782550E+02 -0.83496938062E+00  0.14256177283E+02  0.51100000000E-03 0.  1.
         12    1    3    3    0    0  0.21556376240E+02 -0.24059738312E+02  0.24292133388E+02  0.40418511957E+02  0.00000000000E+00 0. -1.
</event>
<event>
 7    1  0.3461631E-013  0.5930196E+02  0.7816164E-02  0.1266605E+00
        -11   -1    0    0    0    0  0.00000000000E+00  0.00000000000E+00  0.45593999997E+02  0.45594000000E+02  0.51100000000E-03 0.  1.
         11   -1    0    0    0    0 -0.00000000000E+00 -0.00000000000E+00 -0.45593999997E+02  0.45594000000E+02  0.51100000000E-03 0. -1.
    9900012    2    1    2    0    0 -0.24678202556E+02 -0.15839647947E+02  0.12522424372E+02  0.59301964803E+02  0.50000037889E+02 0.  0.
         12    1    1    2    0    0  0.24678202556E+02  0.15839647947E+02 -0.12522424372E+02  0.31886035197E+02  0.00000000000E+00 0. -1.
         11    1    3    3    0    0 -0.21356924166E+02 -0.27248188627E+02 -0.78432663487E-01  0.34620631785E+02  0.51100000000E-03 0. -1.
        -11    1    3    3    0    0 -0.60824424016E-01 -0.32242686322E+01  0.85708500604E+01  0.91574602834E+01  0.51100000000E-03 0.  1.
         12    1    3    3    0    0 -0.32604539659E+01  0.14632809313E+02  0.40300069752E+01  0.15523872734E+02  0.00000000000E+00 0. -1.
</event>
<event>
 7    1  0.3461631E-013  0.5930195E+02  0.7816164E-02  0.1266605E+00
        -11   -1    0    0    0    0  0.00000000000E+00  0.00000000000E+00  0.45593999997E+02  0.45594000000E+02  0.51100000000E-03 0. -1.
         11   -1    0    0    0    0 -0.00000000000E+00 -0.00000000000E+00 -0.45593999997E+02  0.45594000000E+02  0.51100000000E-03 0.  1.
    9900012    2    1    2    0    0 -0.14644233791E+02  0.97888841092E+01 -0.26579026465E+02  0.59301945317E+02  0.50000002351E+02 0.  0.
         12    1    1    2    0    0  0.14644233791E+02 -0.97888841092E+01  0.26579026465E+02  0.31886054683E+02  0.00000000000E+00 0. -1.
         11    1    3    3    0    0  0.57675667565E+01 -0.77378794059E+01  0.30115267442E+01  0.10109841620E+02  0.51100000000E-03 0. -1.
        -11    1    3    3    0    0 -0.75441362859E+01 -0.41259420925E+01 -0.20812281233E+02  0.22518624311E+02  0.51100000000E-03 0.  1.
        -12    1    3    3    0    0 -0.12867664261E+02  0.21652705608E+02 -0.87782719763E+01  0.26673479386E+02  0.00000000000E+00 0.  1.
</event>
<event>
 7    1  0.3461631E-013  0.5930194E+02  0.7816164E-02  0.1266605E+00
        -11   -1    0    0    0    0  0.00000000000E+00  0.00000000000E+00  0.45593999997E+02  0.45594000000E+02  0.51100000000E-03 0.  1.
         11   -1    0    0    0    0 -0.00000000000E+00 -0.00000000000E+00 -0.45593999997E+02  0.45594000000E+02  0.51100000000E-03 0. -1.
    9900012    2    1    2    0    0  0.82724663114E+01 -0.26347995075E+02  0.15939583203E+02  0.59301939472E+02  0.49999991691E+02 0.  0.
         12    1    1    2    0    0 -0.82724663114E+01  0.26347995075E+02 -0.15939583203E+02  0.31886060528E+02  0.00000000000E+00 0. -1.
         11    1    3    3    0    0  0.17443024226E+02 -0.84741653026E+01 -0.53582747327E+01  0.20119186865E+02  0.51100000000E-03 0. -1.
        -11    1    3    3    0    0 -0.93895672986E+01 -0.11392231475E+02 -0.20919461636E+01  0.14910504722E+02  0.51100000000E-03 0.  1.
        -12    1    3    3    0    0  0.21900938360E+00 -0.64815982971E+01  0.23389804099E+02  0.24272247885E+02  0.00000000000E+00 0.  1.
</event>
<event>
 7    1  0.3850255E-013  0.5930194E+02  0.7816164E-02  0.1266605E+00
        -11   -1    0    0    0    0  0.00000000000E+00  0.00000000000E+00  0.45593999997E+02  0.45594000000E+02  0.51100000000E-03 0.  1.
         11   -1    0    0    0    0 -0.00000000000E+00 -0.00000000000E+00 -0.45593999997E+02  0.45594000000E+02  0.51100000000E-03 0. -1.
    9900012    2    1    2    0    0 -0.99993692374E+01 -0.30277529225E+02 -0.67719034707E-01  0.59301941181E+02  0.49999994809E+02 0.  0.
         12    1    1    2    0    0  0.99993692374E+01  0.30277529225E+02  0.67719034707E-01  0.31886058819E+02  0.00000000000E+00 0. -1.
         11    1    3    3    0    0  0.55316143790E+01 -0.21600936823E+01  0.93575807295E+01  0.11082828147E+02  0.51100000000E-03 0. -1.
        -11    1    3    3    0    0 -0.69493823005E+01 -0.32749654292E+02  0.15782947272E+01  0.33516037730E+02  0.51100000000E-03 0.  1.
         12    1    3    3    0    0 -0.85816013160E+01  0.46322187492E+01 -0.11003594491E+02  0.14703075305E+02  0.00000000000E+00 0. -1.
</event>
<event>
 7    1  0.3461631E-013  0.5930193E+02  0.7816164E-02  0.1266605E+00
        -11   -1    0    0    0    0  0.00000000000E+00  0.00000000000E+00  0.45593999997E+02  0.45594000000E+02  0.51100000000E-03 0. -1.
         11   -1    0    0    0    0 -0.00000000000E+00 -0.00000000000E+00 -0.45593999997E+02  0.45594000000E+02  0.51100000000E-03 0.  1.
    9900012    2    1    2    0    0  0.25836274283E+02  0.14600927150E+02  0.11662812596E+02  0.59301931880E+02  0.49999977846E+02 0.  0.
         12    1    1    2    0    0 -0.25836274283E+02 -0.14600927150E+02 -0.11662812596E+02  0.31886068120E+02  0.00000000000E+00 0. -1.
         11    1    3    3    0    0  0.10346807555E+02 -0.81304078301E+01 -0.10074126075E+02  0.16572506585E+02  0.51100000000E-03 0. -1.
        -11    1    3    3    0    0  0.94715278352E+01 -0.29874562818E+01  0.90107830918E+01  0.13410031572E+02  0.51100000000E-03 0.  1.
         12    1    3    3    0    0  0.60179388924E+01  0.25718791262E+02  0.12726155579E+02  0.29319393724E+02  0.00000000000E+00 0. -1.
</event>
<event>
 7    1  0.3461631E-013  0.5930195E+02  0.7816164E-02  0.1266605E+00
        -11   -1    0    0    0    0  0.00000000000E+00  0.00000000000E+00  0.45593999997E+02  0.45594000000E+02  0.51100000000E-03 0. -1.
         11   -1    0    0    0    0 -0.00000000000E+00 -0.00000000000E+00 -0.45593999997E+02  0.45594000000E+02  0.51100000000E-03 0.  1.
    9900012    2    1    2    0    0  0.20265406614E+01  0.14712902918E+02 -0.28216022813E+02  0.59301947834E+02  0.50000006942E+02 0.  0.
         12    1    1    2    0    0 -0.20265406614E+01 -0.14712902918E+02  0.28216022813E+02  0.31886052166E+02  0.00000000000E+00 0. -1.
         11    1    3    3    0    0  0.11138834887E+02  0.58503559357E+01 -0.12349754018E+01  0.12642209923E+02  0.51100000000E-03 0. -1.
        -11    1    3    3    0    0  0.39677487765E+01 -0.11739091608E+02 -0.36988589153E+01  0.12931777127E+02  0.51100000000E-03 0.  1.
         12    1    3    3    0    0 -0.13080043002E+02  0.20601638590E+02 -0.23282188496E+02  0.33727960785E+02  0.00000000000E+00 0. -1.
</event>
<event>
 7    1  0.3461631E-013  0.5930195E+02  0.7816164E-02  0.1266605E+00
        -11   -1    0    0    0    0  0.00000000000E+00  0.00000000000E+00  0.45593999997E+02  0.45594000000E+02  0.51100000000E-03 0.  1.
         11   -1    0    0    0    0 -0.00000000000E+00 -0.00000000000E+00 -0.45593999997E+02  0.45594000000E+02  0.51100000000E-03 0. -1.
    9900012    2    1    2    0    0 -0.57703867186E+01  0.20380240120E+02  0.23834187640E+02  0.59301952100E+02  0.50000014722E+02 0.  0.
         12    1    1    2    0    0  0.57703867186E+01 -0.20380240120E+02 -0.23834187640E+02  0.31886047900E+02  0.00000000000E+00 0. -1.
         11    1    3    3    0    0  0.17046033977E+02  0.46893605234E+01 -0.49714645185E+00  0.17686280879E+02  0.51100000000E-03 0. -1.
        -11    1    3    3    0    0 -0.55802475894E+01 -0.45094811245E+01  0.59377877752E+01  0.93129966765E+01  0.51100000000E-03 0.  1.
        -12    1    3    3    0    0 -0.17236173107E+02  0.20200360721E+02  0.18393546317E+02  0.32302674544E+02  0.00000000000E+00 0.  1.
</event>
<event>
 7    1  0.3461631E-013  0.5930195E+02  0.7816164E-02  0.1266605E+00
        -11   -1    0    0    0    0  0.00000000000E+00  0.00000000000E+00  0.45593999997E+02  0.45594000000E+02  0.51100000000E-03 0. -1.
         11   -1    0    0    0    0 -0.00000000000E+00 -0.00000000000E+00 -0.45593999997E+02  0.45594000000E+02  0.51100000000E-03 0.  1.
    9900012    2    1    2    0    0 -0.26138286150E+02  0.10663587837E+02  0.14825588574E+02  0.59301949994E+02  0.50000010882E+02 0.  0.
         12    1    1    2    0    0  0.26138286150E+02 -0.10663587837E+02 -0.14825588574E+02  0.31886050006E+02  0.00000000000E+00 0. -1.
         11    1    3    3    0    0 -0.20008328502E+02  0.14740088419E+02  0.50221625670E+01  0.25354004282E+02  0.51100000000E-03 0. -1.
        -11    1    3    3    0    0  0.26161621968E+01  0.10214411967E+02 -0.49270564074E+01  0.11638487942E+02  0.51100000000E-03 0.  1.
        -12    1    3    3    0    0 -0.87461198448E+01 -0.14290912549E+02  0.14730482414E+02  0.22309457770E+02  0.00000000000E+00 0.  1.
</event>
<event>
 7    1  0.3461631E-013  0.5930195E+02  0.7816164E-02  0.1266605E+00
        -11   -1    0    0    0    0  0.00000000000E+00  0.00000000000E+00  0.45593999997E+02  0.45594000000E+02  0.51100000000E-03 0.  1.
         11   -1    0    0    0    0 -0.00000000000E+00 -0.00000000000E+00 -0.45593999997E+02  0.45594000000E+02  0.51100000000E-03 0. -1.
    9900012    2    1    2    0    0 -0.27427965521E+02 -0.56763081633E+01  0.15238325972E+02  0.59301947479E+02  0.50000006294E+02 0.  0.
         12    1    1    2    0    0  0.27427965521E+02  0.56763081633E+01 -0.15238325972E+02  0.31886052521E+02  0.00000000000E+00 0. -1.
         11    1    3    3    0    0  0.84634310098E+01 -0.20381267465E+01  0.72883499675E+01  0.11353575234E+02  0.51100000000E-03 0. -1.
        -11    1    3    3    0    0 -0.35385317742E+01  0.21639414561E+01 -0.97650673755E+01  0.10609448188E+02  0.51100000000E-03 0.  1.
        -12    1    3    3    0    0 -0.32352864756E+02 -0.58021228729E+01  0.17715043380E+02  0.37338924057E+02  0.00000000000E+00 0.  1.
</event>
<event>
 7    1  0.3461631E-013  0.5930193E+02  0.7816164E-02  0.1266605E+00
        -11   -1    0    0    0    0  0.00000000000E+00  0.00000000000E+00  0.45593999997E+02  0.45594000000E+02  0.51100000000E-03 0.  1.
         11   -1    0    0    0    0 -0.00000000000E+00 -0.00000000000E+00 -0.45593999997E+02  0.45594000000E+02  0.51100000000E-03 0. -1.
    9900012    2    1    2    0    0 -0.20378021568E+02  0.73130569940E+01  0.23408907198E+02  0.59301929345E+02  0.49999973222E+02 0.  0.
         12    1    1    2    0    0  0.20378021568E+02 -0.73130569940E+01 -0.23408907198E+02  0.31886070655E+02  0.00000000000E+00 0. -1.
         11    1    3    3    0    0 -0.58097245417E+01  0.43906500485E+01  0.13179237089E+02  0.15057323720E+02  0.51100000000E-03 0. -1.
        -11    1    3    3    0    0  0.50813962590E+00  0.34537784362E+01  0.23738868544E+02  0.23994179948E+02  0.51100000000E-03 0.  1.
         12    1    3    3    0    0 -0.15076436652E+02 -0.53137149076E+00 -0.13509198434E+02  0.20250425678E+02  0.00000000000E+00 0. -1.
</event>
<event>
 7    1  0.3461631E-013  0.5930196E+02  0.7816164E-02  0.1266605E+00
        -11   -1    0    0    0    0  0.00000000000E+00  0.00000000000E+00  0.45593999997E+02  0.45594000000E+02  0.51100000000E-03 0. -1.
         11   -1    0    0    0    0 -0.00000000000E+00 -0.00000000000E+00 -0.45593999997E+02  0.45594000000E+02  0.51100000000E-03 0.  1.
    9900012    2    1    2    0    0 -0.27620496367E+02 -0.11535977683E+02 -0.10988572056E+02  0.59301963613E+02  0.50000035718E+02 0.  0.
         12    1    1    2    0    0  0.27620496367E+02  0.11535977683E+02  0.10988572056E+02  0.31886036387E+02  0.00000000000E+00 0. -1.
         11    1    3    3    0    0  0.38211553988E+01 -0.31386336755E+01  0.10958312511E+02  0.12022348493E+02  0.51100000000E-03 0. -1.
        -11    1    3    3    0    0 -0.19950320115E+02 -0.11938336914E+02 -0.11760017580E+01  0.23279221236E+02  0.51100000000E-03 0.  1.
        -12    1    3    3    0    0 -0.11491331651E+02  0.35409929069E+01 -0.20770882809E+02  0.24000393883E+02  0.00000000000E+00 0.  1.
</event>
<event>
 7    1  0.3461631E-013  0.5930197E+02  0.7816164E-02  0.1266605E+00
        -11   -1    0    0    0    0  0.00000000000E+00  0.00000000000E+00  0.45593999997E+02  0.45594000000E+02  0.51100000000E-03 0.  1.
         11   -1    0    0    0    0 -0.00000000000E+00 -0.00000000000E+00 -0.45593999997E+02  0.45594000000E+02  0.51100000000E-03 0. -1.
    9900012    2    1    2    0    0  0.60432040206E+01  0.10331862026E+02  0.29554206256E+02  0.59301971787E+02  0.50000050627E+02 0.  0.
         12    1    1    2    0    0 -0.60432040206E+01 -0.10331862026E+02 -0.29554206256E+02  0.31886028213E+02  0.00000000000E+00 0. -1.
         11    1    3    3    0    0  0.12961855828E+00  0.15152541806E+01 -0.45073965708E+01  0.47570390276E+01  0.51100000000E-03 0. -1.
        -11    1    3    3    0    0 -0.13233228650E+02  0.69190512784E+01 -0.55203104020E+00  0.14943103748E+02  0.51100000000E-03 0.  1.
        -12    1    3    3    0    0  0.19146814113E+02  0.18975565667E+01  0.34613633867E+02  0.39601829012E+02  0.00000000000E+00 0.  1.
</event>
<event>
 7    1  0.3461631E-013  0.5930198E+02  0.7816164E-02  0.1266605E+00
        -11   -1    0    0    0    0  0.00000000000E+00  0.00000000000E+00  0.45593999997E+02  0.45594000000E+02  0.51100000000E-03 0.  1.
         11   -1    0    0    0    0 -0.00000000000E+00 -0.00000000000E+00 -0.45593999997E+02  0.45594000000E+02  0.51100000000E-03 0. -1.
    9900012    2    1    2    0    0 -0.23723931915E+02 -0.12417810650E+02  0.17311588365E+02  0.59301983338E+02  0.50000071693E+02 0.  0.
         12    1    1    2    0    0  0.23723931915E+02  0.12417810650E+02 -0.17311588365E+02  0.31886016662E+02  0.00000000000E+00 0. -1.
         11    1    3    3    0    0 -0.31235881284E+02 -0.10446501392E+02  0.68270608611E+01  0.33636563903E+02  0.51100000000E-03 0. -1.
        -11    1    3    3    0    0  0.14211851471E+01  0.29903366470E+01 -0.63091495444E+01  0.71251139443E+01  0.51100000000E-03 0.  1.
        -12    1    3    3    0    0  0.60907642224E+01 -0.49616459055E+01  0.16793677048E+02  0.18540305491E+02  0.00000000000E+00 0.  1.
</event>
<event>
 7    1  0.3461631E-013  0.5930195E+02  0.7816164E-02  0.1266605E+00
        -11   -1    0    0    0    0  0.00000000000E+00  0.00000000000E+00  0.45593999997E+02  0.45594000000E+02  0.51100000000E-03 0.  1.
         11   -1    0    0    0    0 -0.00000000000E+00 -0.00000000000E+00 -0.45593999997E+02  0.45594000000E+02  0.51100000000E-03 0. -1.
    9900012    2    1    2    0    0  0.13097107127E+02  0.19157313779E+02  0.21867407118E+02  0.59301946930E+02  0.50000005293E+02 0.  0.
         12    1    1    2    0    0 -0.13097107127E+02 -0.19157313779E+02 -0.21867407118E+02  0.31886053070E+02  0.00000000000E+00 0. -1.
         11    1    3    3    0    0  0.19241784390E+02  0.24678934928E+02  0.19240186533E+02  0.36735281049E+02  0.51100000000E-03 0. -1.
        -11    1    3    3    0    0 -0.62924886487E+01 -0.11432772259E+01  0.11223880751E+02  0.12918126628E+02  0.51100000000E-03 0.  1.
        -12    1    3    3    0    0  0.14781138582E+00 -0.43783439233E+01 -0.85966601652E+01  0.96485392528E+01  0.00000000000E+00 0.  1.
</event>
<event>
 7    1  0.3461631E-013  0.5930194E+02  0.7816164E-02  0.1266605E+00
        -11   -1    0    0    0    0  0.00000000000E+00  0.00000000000E+00  0.45593999997E+02  0.45594000000E+02  0.51100000000E-03 0.  1.
         11   -1    0    0    0    0 -0.00000000000E+00 -0.00000000000E+00 -0.45593999997E+02  0.45594000000E+02  0.51100000000E-03 0. -1.
    9900012    2    1    2    0    0  0.31861777716E+02  0.11909001076E+01  0.36041415191E+00  0.59301936890E+02  0.49999986982E+02 0.  0.
         12    1    1    2    0    0 -0.31861777716E+02 -0.11909001076E+01 -0.36041415191E+00  0.31886063110E+02  0.00000000000E+00 0. -1.
         11    1    3    3    0    0 -0.16174597797E+01  0.36432413342E+01 -0.83006784986E+01  0.92081837165E+01  0.51100000000E-03 0.  1.
        -11    1    3    3    0    0 -0.48037972693E+01 -0.90154580588E+01 -0.34700109611E+00  0.10221319007E+02  0.51100000000E-03 0. -1.
        -12    1    3    3    0    0  0.38283034765E+02  0.65631168322E+01  0.90080937467E+01  0.39872434166E+02  0.00000000000E+00 0.  1.
</event>
<event>
 7    1  0.3461631E-013  0.5930218E+02  0.7816164E-02  0.1266604E+00
        -11   -1    0    0    0    0  0.00000000000E+00  0.00000000000E+00  0.45593999997E+02  0.45594000000E+02  0.51100000000E-03 0.  1.
         11   -1    0    0    0    0 -0.00000000000E+00 -0.00000000000E+00 -0.45593999997E+02  0.45594000000E+02  0.51100000000E-03 0. -1.
    9900012    2    1    2    0    0  0.18970798986E+02  0.52471595916E+01  0.25085488359E+02  0.59302178321E+02  0.50000427293E+02 0.  0.
         12    1    1    2    0    0 -0.18970798986E+02 -0.52471595916E+01 -0.25085488359E+02  0.31885821679E+02  0.00000000000E+00 0. -1.
         11    1    3    3    0    0  0.18762244607E+02  0.10368411348E+02  0.22136530815E+01  0.21550546090E+02  0.51100000000E-03 0. -1.
        -11    1    3    3    0    0  0.12014789180E+02 -0.11217960553E+02  0.15309783056E+02  0.22463019732E+02  0.51100000000E-03 0.  1.
         12    1    3    3    0    0 -0.11806234801E+02  0.60967087965E+01  0.75620522217E+01  0.15288612499E+02  0.00000000000E+00 0. -1.
</event>
<event>
 7    1  0.3461631E-013  0.5930193E+02  0.7816164E-02  0.1266605E+00
        -11   -1    0    0    0    0  0.00000000000E+00  0.00000000000E+00  0.45593999997E+02  0.45594000000E+02  0.51100000000E-03 0. -1.
         11   -1    0    0    0    0 -0.00000000000E+00 -0.00000000000E+00 -0.45593999997E+02  0.45594000000E+02  0.51100000000E-03 0.  1.
    9900012    2    1    2    0    0  0.25598565929E+02  0.18970814713E+02  0.12423289073E+01  0.59301925146E+02  0.49999965564E+02 0.  0.
         12    1    1    2    0    0 -0.25598565929E+02 -0.18970814713E+02 -0.12423289073E+01  0.31886074854E+02  0.00000000000E+00 0. -1.
         11    1    3    3    0    0  0.35474048888E+01  0.55625624382E+01  0.18553069494E+02  0.19691180011E+02  0.51100000000E-03 0. -1.
        -11    1    3    3    0    0  0.68510718098E+01 -0.69289648491E+01 -0.19544618492E+01  0.99381919987E+01  0.51100000000E-03 0.  1.
        -12    1    3    3    0    0  0.15200089230E+02  0.20337217124E+02 -0.15356278737E+02  0.29672553136E+02  0.00000000000E+00 0.  1.
</event>
<event>
 7    1  0.3461631E-013  0.5930188E+02  0.7816164E-02  0.1266605E+00
        -11   -1    0    0    0    0  0.00000000000E+00  0.00000000000E+00  0.45593999997E+02  0.45594000000E+02  0.51100000000E-03 0.  1.
         11   -1    0    0    0    0 -0.00000000000E+00 -0.00000000000E+00 -0.45593999997E+02  0.45594000000E+02  0.51100000000E-03 0. -1.
    9900012    2    1    2    0    0  0.18987485083E+02 -0.21898744583E+02 -0.13290777445E+02  0.59301884382E+02  0.49999891221E+02 0.  0.
         12    1    1    2    0    0 -0.18987485083E+02  0.21898744583E+02  0.13290777445E+02  0.31886115618E+02  0.00000000000E+00 0. -1.
         11    1    3    3    0    0 -0.74489110105E+00 -0.25643669640E+01  0.61448991757E+00  0.27401530611E+01  0.51100000000E-03 0. -1.
        -11    1    3    3    0    0  0.11641709102E+02 -0.33310609158E+02 -0.54405341482E-01  0.35286385951E+02  0.51100000000E-03 0.  1.
         12    1    3    3    0    0  0.80906670821E+01  0.13976231539E+02 -0.13850862021E+02  0.21275345370E+02  0.00000000000E+00 0. -1.
</event>
<event>
 7    1  0.3461631E-013  0.5930195E+02  0.7816164E-02  0.1266605E+00
        -11   -1    0    0    0    0  0.00000000000E+00  0.00000000000E+00  0.45593999997E+02  0.45594000000E+02  0.51100000000E-03 0. -1.
         11   -1    0    0    0    0 -0.00000000000E+00 -0.00000000000E+00 -0.45593999997E+02  0.45594000000E+02  0.51100000000E-03 0.  1.
    9900012    2    1    2    0    0 -0.31716884217E+02 -0.23793395148E+01  0.22578781901E+01  0.59301952661E+02  0.50000015745E+02 0.  0.
         12    1    1    2    0    0  0.31716884217E+02  0.23793395148E+01 -0.22578781901E+01  0.31886047339E+02  0.00000000000E+00 0. -1.
         11    1    3    3    0    0 -0.64718653145E+01 -0.93832475535E+00  0.17767365639E+02  0.18932637852E+02  0.51100000000E-03 0. -1.
        -11    1    3    3    0    0 -0.13034330288E+01 -0.10049088474E+02 -0.10202518079E+02  0.14379655498E+02  0.51100000000E-03 0.  1.
         12    1    3    3    0    0 -0.23941585874E+02  0.86080737148E+01 -0.53069693704E+01  0.25989659312E+02  0.00000000000E+00 0. -1.
</event>
<event>
 7    1  0.3461631E-013  0.5930193E+02  0.7816164E-02  0.1266605E+00
        -11   -1    0    0    0    0  0.00000000000E+00  0.00000000000E+00  0.45593999997E+02  0.45594000000E+02  0.51100000000E-03 0. -1.
         11   -1    0    0    0    0 -0.00000000000E+00 -0.00000000000E+00 -0.45593999997E+02  0.45594000000E+02  0.51100000000E-03 0.  1.
    9900012    2    1    2    0    0  0.24449530505E+02 -0.11924560241E+02 -0.16635717152E+02  0.59301925233E+02  0.49999965723E+02 0.  0.
         12    1    1    2    0    0 -0.24449530505E+02  0.11924560241E+02  0.16635717152E+02  0.31886074767E+02  0.00000000000E+00 0. -1.
         11    1    3    3    0    0  0.26536878776E-02  0.28810063925E+01 -0.90384617543E+01  0.94865165377E+01  0.51100000000E-03 0. -1.
        -11    1    3    3    0    0  0.24816176816E+01  0.13038489593E+02 -0.52489582750E+01  0.14272778300E+02  0.51100000000E-03 0.  1.
         12    1    3    3    0    0  0.21965259136E+02 -0.27844056226E+02 -0.23482971226E+01  0.35542630395E+02  0.00000000000E+00 0. -1.
</event>
<event>
 7    1  0.3461631E-013  0.5930197E+02  0.7816164E-02  0.1266605E+00
        -11   -1    0    0    0    0  0.00000000000E+00  0.00000000000E+00  0.45593999997E+02  0.45594000000E+02  0.51100000000E-03 0.  1.
         11   -1    0    0    0    0 -0.00000000000E+00 -0.00000000000E+00 -0.45593999997E+02  0.45594000000E+02  0.51100000000E-03 0. -1.
    9900012    2    1    2    0    0  0.29330782806E+02 -0.80256756510E+00  0.12481173446E+02  0.59301974451E+02  0.50000055485E+02 0.  0.
         12    1    1    2    0    0 -0.29330782806E+02  0.80256756510E+00 -0.12481173446E+02  0.31886025549E+02  0.00000000000E+00 0. -1.
         11    1    3    3    0    0  0.94084218386E+01  0.65697419538E+00 -0.91813852534E+01  0.13162364986E+02  0.51100000000E-03 0. -1.
        -11    1    3    3    0    0  0.12193871993E+02 -0.18355984344E+02  0.13518026202E+02  0.25852847195E+02  0.51100000000E-03 0.  1.
        -12    1    3    3    0    0  0.77284889743E+01  0.16896442584E+02  0.81445324982E+01  0.20286762270E+02  0.00000000000E+00 0.  1.
</event>
<event>
 7    1  0.3461631E-013  0.5930195E+02  0.7816164E-02  0.1266605E+00
        -11   -1    0    0    0    0  0.00000000000E+00  0.00000000000E+00  0.45593999997E+02  0.45594000000E+02  0.51100000000E-03 0.  1.
         11   -1    0    0    0    0 -0.00000000000E+00 -0.00000000000E+00 -0.45593999997E+02  0.45594000000E+02  0.51100000000E-03 0. -1.
    9900012    2    1    2    0    0 -0.27554994635E+02 -0.27102192946E+01  0.15814470274E+02  0.59301945242E+02  0.50000002215E+02 0.  0.
         12    1    1    2    0    0  0.27554994635E+02  0.27102192946E+01 -0.15814470274E+02  0.31886054758E+02  0.00000000000E+00 0. -1.
         11    1    3    3    0    0  0.66498530848E+01 -0.40779912685E+01  0.60242482125E+01  0.98560704960E+01  0.51100000000E-03 0. -1.
        -11    1    3    3    0    0 -0.58339080443E+01  0.11166962834E+02  0.14338809520E+02  0.19087613804E+02  0.51100000000E-03 0.  1.
         12    1    3    3    0    0 -0.28370939676E+02 -0.97991908601E+01 -0.45485874584E+01  0.30358260943E+02  0.00000000000E+00 0. -1.
</event>
<event>
 7    1  0.3461631E-013  0.5930193E+02  0.7816164E-02  0.1266605E+00
        -11   -1    0    0    0    0  0.00000000000E+00  0.00000000000E+00  0.45593999997E+02  0.45594000000E+02  0.51100000000E-03 0.  1.
         11   -1    0    0    0    0 -0.00000000000E+00 -0.00000000000E+00 -0.45593999997E+02  0.45594000000E+02  0.51100000000E-03 0. -1.
    9900012    2    1    2    0    0 -0.10826727456E+02  0.33333994263E+01  0.29805899618E+02  0.59301933589E+02  0.49999980962E+02 0.  0.
         12    1    1    2    0    0  0.10826727456E+02 -0.33333994263E+01 -0.29805899618E+02  0.31886066411E+02  0.00000000000E+00 0. -1.
         11    1    3    3    0    0 -0.66621138143E+01 -0.66246469084E+01  0.90206021655E+00  0.94384013493E+01  0.51100000000E-03 0. -1.
        -11    1    3    3    0    0 -0.89478271250E+01 -0.13630070924E+02  0.14466321084E+02  0.21797176185E+02  0.51100000000E-03 0.  1.
         12    1    3    3    0    0  0.47832134835E+01  0.23588117259E+02  0.14437518317E+02  0.28066356055E+02  0.00000000000E+00 0. -1.
</event>
<event>
 7    1  0.3461631E-013  0.5930194E+02  0.7816164E-02  0.1266605E+00
        -11   -1    0    0    0    0  0.00000000000E+00  0.00000000000E+00  0.45593999997E+02  0.45594000000E+02  0.51100000000E-03 0. -1.
         11   -1    0    0    0    0 -0.00000000000E+00 -0.00000000000E+00 -0.45593999997E+02  0.45594000000E+02  0.51100000000E-03 0.  1.
    9900012    2    1    2    0    0 -0.27224040845E+02 -0.42308525975E+01 -0.16052180316E+02  0.59301937111E+02  0.49999987386E+02 0.  0.
         12    1    1    2    0    0  0.27224040845E+02  0.42308525975E+01  0.16052180316E+02  0.31886062889E+02  0.00000000000E+00 0. -1.
         11    1    3    3    0    0 -0.15446785382E+02 -0.24267415330E+01 -0.90591726177E+01  0.18070995044E+02  0.51100000000E-03 0.  1.
        -11    1    3    3    0    0 -0.18544063935E+02 -0.14505410482E+02  0.29663285597E+01  0.23729482629E+02  0.51100000000E-03 0. -1.
         12    1    3    3    0    0  0.67668084716E+01  0.12701299417E+02 -0.99593362583E+01  0.17501459439E+02  0.00000000000E+00 0. -1.
</event>
<event>
 7    1  0.3461631E-013  0.5930206E+02  0.7816164E-02  0.1266604E+00
        -11   -1    0    0    0    0  0.00000000000E+00  0.00000000000E+00  0.45593999997E+02  0.45594000000E+02  0.51100000000E-03 0. -1.
         11   -1    0    0    0    0 -0.00000000000E+00 -0.00000000000E+00 -0.45593999997E+02  0.45594000000E+02  0.51100000000E-03 0.  1.
    9900012    2    1    2    0    0  0.29105550668E+02 -0.49239777906E+01 -0.12055481621E+02  0.59302058363E+02  0.50000208519E+02 0.  0.
         12    1    1    2    0    0 -0.29105550668E+02  0.49239777906E+01  0.12055481621E+02  0.31885941637E+02  0.00000000000E+00 0. -1.
         11    1    3    3    0    0 -0.31323004602E+01  0.48596384215E+01 -0.27399430964E+01  0.63980215843E+01  0.51100000000E-03 0. -1.
        -11    1    3    3    0    0  0.41901283667E+01  0.13400746764E+02  0.32398924582E+01  0.14409513974E+02  0.51100000000E-03 0.  1.
        -12    1    3    3    0    0  0.28047722762E+02 -0.23184362976E+02 -0.12555430983E+02  0.38494522804E+02  0.00000000000E+00 0.  1.
</event>
<event>
 7    1  0.3461631E-013  0.5930214E+02  0.7816164E-02  0.1266604E+00
        -11   -1    0    0    0    0  0.00000000000E+00  0.00000000000E+00  0.45593999997E+02  0.45594000000E+02  0.51100000000E-03 0.  1.
         11   -1    0    0    0    0 -0.00000000000E+00 -0.00000000000E+00 -0.45593999997E+02  0.45594000000E+02  0.51100000000E-03 0. -1.
    9900012    2    1    2    0    0  0.30948184628E+02 -0.55599532117E+01  0.52919693618E+01  0.59302138694E+02  0.50000355024E+02 0.  0.
         12    1    1    2    0    0 -0.30948184628E+02  0.55599532117E+01 -0.52919693618E+01  0.31885861306E+02  0.00000000000E+00 0. -1.
         11    1    3    3    0    0  0.21055073937E+02 -0.39402273614E+01 -0.17005863337E+02  0.27350336712E+02  0.51100000000E-03 0. -1.
        -11    1    3    3    0    0 -0.27638919886E+01 -0.32850029459E+01 -0.18205870690E+01  0.46631406602E+01  0.51100000000E-03 0.  1.
        -12    1    3    3    0    0  0.12657002680E+02  0.16652770956E+01  0.24118419768E+02  0.27288661322E+02  0.00000000000E+00 0.  1.
</event>
<event>
 7    1  0.3461631E-013  0.5930195E+02  0.7816164E-02  0.1266605E+00
        -11   -1    0    0    0    0  0.00000000000E+00  0.00000000000E+00  0.45593999997E+02  0.45594000000E+02  0.51100000000E-03 0. -1.
         11   -1    0    0    0    0 -0.00000000000E+00 -0.00000000000E+00 -0.45593999997E+02  0.45594000000E+02  0.51100000000E-03 0.  1.
    9900012    2    1    2    0    0 -0.13589829004E+02  0.25035895852E+02 -0.14326225607E+02  0.59301948604E+02  0.50000008346E+02 0.  0.
         12    1    1    2    0    0  0.13589829004E+02 -0.25035895852E+02  0.14326225607E+02  0.31886051396E+02  0.00000000000E+00 0. -1.
         11    1    3    3    0    0 -0.16450540707E+02  0.21765849380E+02 -0.12124552742E+02  0.29855941925E+02  0.51100000000E-03 0. -1.
        -11    1    3    3    0    0 -0.54630827542E+01 -0.17443053566E+01 -0.13426080655E+02  0.14599572472E+02  0.51100000000E-03 0.  1.
         12    1    3    3    0    0  0.83237944570E+01  0.50143518293E+01  0.11224407790E+02  0.14846434207E+02  0.00000000000E+00 0. -1.
</event>
<event>
 7    1  0.3461631E-013  0.5930196E+02  0.7816164E-02  0.1266605E+00
        -11   -1    0    0    0    0  0.00000000000E+00  0.00000000000E+00  0.45593999997E+02  0.45594000000E+02  0.51100000000E-03 0. -1.
         11   -1    0    0    0    0 -0.00000000000E+00 -0.00000000000E+00 -0.45593999997E+02  0.45594000000E+02  0.51100000000E-03 0.  1.
    9900012    2    1    2    0    0  0.22349249929E+02 -0.17806808118E+02  0.14147370438E+02  0.59301961079E+02  0.50000031098E+02 0.  0.
         12    1    1    2    0    0 -0.22349249929E+02  0.17806808118E+02 -0.14147370438E+02  0.31886038921E+02  0.00000000000E+00 0. -1.
         11    1    3    3    0    0  0.31590348464E+02 -0.21327211705E+02  0.11554764036E+02  0.39828540614E+02  0.51100000000E-03 0. -1.
        -11    1    3    3    0    0 -0.82386118143E+01 -0.22939371554E+01 -0.49624230545E+01  0.98874928639E+01  0.51100000000E-03 0.  1.
        -12    1    3    3    0    0 -0.10024867214E+01  0.58143407426E+01  0.75550294564E+01  0.95859276017E+01  0.00000000000E+00 0.  1.
</event>
<event>
 7    1  0.3461631E-013  0.5930176E+02  0.7816164E-02  0.1266605E+00
        -11   -1    0    0    0    0  0.00000000000E+00  0.00000000000E+00  0.45593999997E+02  0.45594000000E+02  0.51100000000E-03 0. -1.
         11   -1    0    0    0    0 -0.00000000000E+00 -0.00000000000E+00 -0.45593999997E+02  0.45594000000E+02  0.51100000000E-03 0.  1.
    9900012    2    1    2    0    0 -0.97471464678E+01  0.28662257343E+02 -0.10010005469E+02  0.59301763631E+02  0.49999670999E+02 0.  0.
         12    1    1    2    0    0  0.97471464678E+01 -0.28662257343E+02  0.10010005469E+02  0.31886236369E+02  0.00000000000E+00 0. -1.
         11    1    3    3    0    0 -0.11824327575E+02  0.26401096592E+02  0.68277678116E+01  0.29722904255E+02  0.51100000000E-03 0. -1.
        -11    1    3    3    0    0 -0.40264746524E+01  0.12021203692E+02 -0.72971545659E+01  0.14627723724E+02  0.51100000000E-03 0.  1.
        -12    1    3    3    0    0  0.61036557594E+01 -0.97600429399E+01 -0.95406187144E+01  0.14951135652E+02  0.00000000000E+00 0.  1.
</event>
<event>
 7    1  0.3461631E-013  0.5930191E+02  0.7816164E-02  0.1266605E+00
        -11   -1    0    0    0    0  0.00000000000E+00  0.00000000000E+00  0.45593999997E+02  0.45594000000E+02  0.51100000000E-03 0. -1.
         11   -1    0    0    0    0 -0.00000000000E+00 -0.00000000000E+00 -0.45593999997E+02  0.45594000000E+02  0.51100000000E-03 0.  1.
    9900012    2    1    2    0    0  0.25466558810E+02 -0.18497314660E+02 -0.51015950548E+01  0.59301913075E+02  0.49999943550E+02 0.  0.
         12    1    1    2    0    0 -0.25466558810E+02  0.18497314660E+02  0.51015950548E+01  0.31886086925E+02  0.00000000000E+00 0. -1.
         11    1    3    3    0    0  0.14053972114E+02 -0.19916737904E+02  0.28946863840E+01  0.24547297008E+02  0.51100000000E-03 0. -1.
        -11    1    3    3    0    0  0.19403101337E+02 -0.39289958280E+01  0.31370431711E+01  0.20043911540E+02  0.51100000000E-03 0.  1.
        -12    1    3    3    0    0 -0.79905146408E+01  0.53484190714E+01 -0.11133324610E+02  0.14710704526E+02  0.00000000000E+00 0.  1.
</event>
<event>
 7    1  0.3461631E-013  0.5930194E+02  0.7816164E-02  0.1266605E+00
        -11   -1    0    0    0    0  0.00000000000E+00  0.00000000000E+00  0.45593999997E+02  0.45594000000E+02  0.51100000000E-03 0.  1.
         11   -1    0    0    0    0 -0.00000000000E+00 -0.00000000000E+00 -0.45593999997E+02  0.45594000000E+02  0.51100000000E-03 0. -1.
    9900012    2    1    2    0    0 -0.67187360444E+01  0.11384570298E+02  0.29016735178E+02  0.59301940737E+02  0.49999993999E+02 0.  0.
         12    1    1    2    0    0  0.67187360444E+01 -0.11384570298E+02 -0.29016735178E+02  0.31886059263E+02  0.00000000000E+00 0. -1.
         11    1    3    3    0    0 -0.43439622271E+01  0.35290526460E+01  0.12448739325E+02  0.13649004779E+02  0.51100000000E-03 0. -1.
        -11    1    3    3    0    0  0.19176546659E+02  0.12487422934E+01  0.11992016518E+02  0.22651882030E+02  0.51100000000E-03 0.  1.
         12    1    3    3    0    0 -0.21551320476E+02  0.66067753587E+01  0.45759793349E+01  0.23001053928E+02  0.00000000000E+00 0. -1.
</event>
<event>
 7    1  0.3461631E-013  0.5930195E+02  0.7816164E-02  0.1266605E+00
        -11   -1    0    0    0    0  0.00000000000E+00  0.00000000000E+00  0.45593999997E+02  0.45594000000E+02  0.51100000000E-03 0. -1.
         11   -1    0    0    0    0 -0.00000000000E+00 -0.00000000000E+00 -0.45593999997E+02  0.45594000000E+02  0.51100000000E-03 0.  1.
    9900012    2    1    2    0    0  0.30090484305E+02  0.65207658635E+01 -0.82923072671E+01  0.59301953005E+02  0.50000016372E+02 0.  0.
         12    1    1    2    0    0 -0.30090484305E+02 -0.65207658635E+01  0.82923072671E+01  0.31886046995E+02  0.00000000000E+00 0. -1.
         11    1    3    3    0    0  0.24939454333E+02 -0.95509987378E+01 -0.12146131583E+02  0.29338140227E+02  0.51100000000E-03 0. -1.
        -11    1    3    3    0    0  0.63538548772E+01  0.98231450455E+01 -0.95658069001E+01  0.15111926161E+02  0.51100000000E-03 0.  1.
         12    1    3    3    0    0 -0.12028249046E+01  0.62486195559E+01  0.13419631216E+02  0.14851886616E+02  0.00000000000E+00 0. -1.
</event>
<event>
 7    1  0.3461631E-013  0.5930193E+02  0.7816164E-02  0.1266605E+00
        -11   -1    0    0    0    0  0.00000000000E+00  0.00000000000E+00  0.45593999997E+02  0.45594000000E+02  0.51100000000E-03 0.  1.
         11   -1    0    0    0    0 -0.00000000000E+00 -0.00000000000E+00 -0.45593999997E+02  0.45594000000E+02  0.51100000000E-03 0. -1.
    9900012    2    1    2    0    0  0.17051573178E+02  0.20681648347E+02  0.17269467739E+02  0.59301933417E+02  0.49999980648E+02 0.  0.
         12    1    1    2    0    0 -0.17051573178E+02 -0.20681648347E+02 -0.17269467739E+02  0.31886066583E+02  0.00000000000E+00 0. -1.
         11    1    3    3    0    0  0.17354352534E-01  0.45876037903E+00 -0.67655537264E+01  0.67811119844E+01  0.51100000000E-03 0. -1.
        -11    1    3    3    0    0 -0.11688708122E+02  0.40006635501E+01  0.12246285400E+01  0.12414947512E+02  0.51100000000E-03 0.  1.
        -12    1    3    3    0    0  0.28722926947E+02  0.16222224418E+02  0.22810392925E+02  0.40105873920E+02  0.00000000000E+00 0.  1.
</event>
<event>
 7    1  0.3461631E-013  0.5930195E+02  0.7816164E-02  0.1266605E+00
        -11   -1    0    0    0    0  0.00000000000E+00  0.00000000000E+00  0.45593999997E+02  0.45594000000E+02  0.51100000000E-03 0.  1.
         11   -1    0    0    0    0 -0.00000000000E+00 -0.00000000000E+00 -0.45593999997E+02  0.45594000000E+02  0.51100000000E-03 0. -1.
    9900012    2    1    2    0    0  0.75838027885E+01 -0.27366785208E+01  0.30849907600E+02  0.59301948614E+02  0.50000008365E+02 0.  0.
         12    1    1    2    0    0 -0.75838027885E+01  0.27366785208E+01 -0.30849907600E+02  0.31886051386E+02  0.00000000000E+00 0. -1.
         11    1    3    3    0    0  0.10113689917E+02 -0.84838067894E+00 -0.90448686564E+01  0.13594709367E+02  0.51100000000E-03 0. -1.
        -11    1    3    3    0    0  0.60759839984E+01 -0.80651048739E+01  0.11000352497E+02  0.14932221988E+02  0.51100000000E-03 0.  1.
        -12    1    3    3    0    0 -0.86058711264E+01  0.61768070320E+01  0.28894423759E+02  0.30775017259E+02  0.00000000000E+00 0.  1.
</event>
<event>
 7    1  0.5332391E-013  0.5930194E+02  0.7816164E-02  0.1266605E+00
        -11   -1    0    0    0    0  0.00000000000E+00  0.00000000000E+00  0.45593999997E+02  0.45594000000E+02  0.51100000000E-03 0.  1.
         11   -1    0    0    0    0 -0.00000000000E+00 -0.00000000000E+00 -0.45593999997E+02  0.45594000000E+02  0.51100000000E-03 0. -1.
    9900012    2    1    2    0    0 -0.16836055771E+02 -0.13063352220E+02  0.23719542100E+02  0.59301943132E+02  0.49999998366E+02 0.  0.
         12    1    1    2    0    0  0.16836055771E+02  0.13063352220E+02 -0.23719542100E+02  0.31886056868E+02  0.00000000000E+00 0. -1.
         11    1    3    3    0    0 -0.12157782537E+02 -0.19678638837E+01 -0.56893025483E+01  0.13566588673E+02  0.51100000000E-03 0. -1.
        -11    1    3    3    0    0 -0.13462365031E+02  0.78795617435E-01  0.28467922418E+02  0.31490698436E+02  0.51100000000E-03 0.  1.
         12    1    3    3    0    0  0.87840917967E+01 -0.11174283953E+02  0.94092223120E+00  0.14244656023E+02  0.00000000000E+00 0. -1.
</event>
<event>
 7    1  0.3461631E-013  0.5930194E+02  0.7816164E-02  0.1266605E+00
        -11   -1    0    0    0    0  0.00000000000E+00  0.00000000000E+00  0.45593999997E+02  0.45594000000E+02  0.51100000000E-03 0. -1.
         11   -1    0    0    0    0 -0.00000000000E+00 -0.00000000000E+00 -0.45593999997E+02  0.45594000000E+02  0.51100000000E-03 0.  1.
    9900012    2    1    2    0    0 -0.28010798081E+02 -0.15140015324E+02  0.17018275756E+01  0.59301935799E+02  0.49999984993E+02 0.  0.
         12    1    1    2    0    0  0.28010798081E+02  0.15140015324E+02 -0.17018275756E+01  0.31886064201E+02  0.00000000000E+00 0. -1.
         11    1    3    3    0    0  0.10265730786E+02 -0.97777678679E+01  0.72994319604E+01  0.15945898540E+02  0.51100000000E-03 0. -1.
        -11    1    3    3    0    0 -0.27644408184E+02  0.43066450681E+00 -0.11429248777E+02  0.29916993560E+02  0.51100000000E-03 0.  1.
        -12    1    3    3    0    0 -0.10632120683E+02 -0.57929119632E+01  0.58316443927E+01  0.13439043699E+02  0.00000000000E+00 0.  1.
</event>
<event>
 7    1  0.3461631E-013  0.5930193E+02  0.7816164E-02  0.1266605E+00
        -11   -1    0    0    0    0  0.00000000000E+00  0.00000000000E+00  0.45593999997E+02  0.45594000000E+02  0.51100000000E-03 0.  1.
         11   -1    0    0    0    0 -0.00000000000E+00 -0.00000000000E+00 -0.45593999997E+02  0.45594000000E+02  0.51100000000E-03 0. -1.
    9900012    2    1    2    0    0  0.21965143043E+02 -0.14278153016E+02  0.18176578788E+02  0.59301934409E+02  0.49999982457E+02 0.  0.
         12    1    1    2    0    0 -0.21965143043E+02  0.14278153016E+02 -0.18176578788E+02  0.31886065591E+02  0.00000000000E+00 0. -1.
         11    1    3    3    0    0  0.63122004292E+00  0.35349297368E+01 -0.69231431999E+01  0.77989793572E+01  0.51100000000E-03 0. -1.
        -11    1    3    3    0    0 -0.26666790045E+01  0.60407710584E+01 -0.32488350944E+01  0.73591454412E+01  0.51100000000E-03 0.  1.
        -12    1    3    3    0    0  0.24000602004E+02 -0.23853853812E+02  0.28348557083E+02  0.44143809610E+02  0.00000000000E+00 0.  1.
</event>
<event>
 7    1  0.3461631E-013  0.5930195E+02  0.7816164E-02  0.1266605E+00
        -11   -1    0    0    0    0  0.00000000000E+00  0.00000000000E+00  0.45593999997E+02  0.45594000000E+02  0.51100000000E-03 0. -1.
         11   -1    0    0    0    0 -0.00000000000E+00 -0.00000000000E+00 -0.45593999997E+02  0.45594000000E+02  0.51100000000E-03 0.  1.
    9900012    2    1    2    0    0  0.43386090049E+01  0.26479871156E+02 -0.17225356404E+02  0.59301952773E+02  0.50000015948E+02 0.  0.
         12    1    1    2    0    0 -0.43386090049E+01 -0.26479871156E+02  0.17225356404E+02  0.31886047227E+02  0.00000000000E+00 0. -1.
         11    1    3    3    0    0  0.36299450592E+01  0.95278360324E+00 -0.15220168945E+02  0.15676027581E+02  0.51100000000E-03 0.  1.
        -11    1    3    3    0    0  0.11676453237E+02 -0.30550354847E+00  0.76320864559E+01  0.13952836147E+02  0.51100000000E-03 0. -1.
         12    1    3    3    0    0 -0.10967789291E+02  0.25832591101E+02 -0.96372739149E+01  0.29673089045E+02  0.00000000000E+00 0. -1.
</event>
<event>
 7    1  0.3461631E-013  0.5930197E+02  0.7816164E-02  0.1266605E+00
        -11   -1    0    0    0    0  0.00000000000E+00  0.00000000000E+00  0.45593999997E+02  0.45594000000E+02  0.51100000000E-03 0.  1.
         11   -1    0    0    0    0 -0.00000000000E+00 -0.00000000000E+00 -0.45593999997E+02  0.45594000000E+02  0.51100000000E-03 0. -1.
    9900012    2    1    2    0    0 -0.49217462857E+01  0.24499906160E+02  0.19805293530E+02  0.59301974218E+02  0.50000055060E+02 0.  0.
         12    1    1    2    0    0  0.49217462857E+01 -0.24499906160E+02 -0.19805293530E+02  0.31886025782E+02  0.00000000000E+00 0. -1.
         11    1    3    3    0    0  0.66788934084E+01  0.25275060165E+02 -0.52318275449E+01  0.26660988414E+02  0.51100000000E-03 0. -1.
        -11    1    3    3    0    0 -0.34154881877E-02  0.41053023747E+01 -0.53598015859E+00  0.41401442300E+01  0.51100000000E-03 0.  1.
        -12    1    3    3    0    0 -0.11597224206E+02 -0.48804563795E+01  0.25573101234E+02  0.28500841575E+02  0.00000000000E+00 0.  1.
</event>
<event>
 7    1  0.3461631E-013  0.5930196E+02  0.7816164E-02  0.1266605E+00
        -11   -1    0    0    0    0  0.00000000000E+00  0.00000000000E+00  0.45593999997E+02  0.45594000000E+02  0.51100000000E-03 0. -1.
         11   -1    0    0    0    0 -0.00000000000E+00 -0.00000000000E+00 -0.45593999997E+02  0.45594000000E+02  0.51100000000E-03 0.  1.
    9900012    2    1    2    0    0  0.25343016731E+00 -0.27354870809E+02 -0.16381894280E+02  0.59301958477E+02  0.50000026352E+02 0.  0.
         12    1    1    2    0    0 -0.25343016731E+00  0.27354870809E+02  0.16381894280E+02  0.31886041523E+02  0.00000000000E+00 0. -1.
         11    1    3    3    0    0 -0.15359133078E+02 -0.19539631205E+02 -0.64387655083E+01  0.25674069761E+02  0.51100000000E-03 0.  1.
        -11    1    3    3    0    0 -0.71857237563E+01 -0.47035143937E+01 -0.67576581432E-01  0.85884946532E+01  0.51100000000E-03 0. -1.
        -12    1    3    3    0    0  0.22798287002E+02 -0.31117252099E+01 -0.98755521901E+01  0.25039394063E+02  0.00000000000E+00 0.  1.
</event>
<event>
 7    1  0.3461631E-013  0.5930197E+02  0.7816164E-02  0.1266605E+00
        -11   -1    0    0    0    0  0.00000000000E+00  0.00000000000E+00  0.45593999997E+02  0.45594000000E+02  0.51100000000E-03 0.  1.
         11   -1    0    0    0    0 -0.00000000000E+00 -0.00000000000E+00 -0.45593999997E+02  0.45594000000E+02  0.51100000000E-03 0. -1.
    9900012    2    1    2    0    0 -0.12486054925E+02  0.16452049559E+01  0.29293523926E+02  0.59301971540E+02  0.50000050176E+02 0.  0.
         12    1    1    2    0    0  0.12486054925E+02 -0.16452049559E+01 -0.29293523926E+02  0.31886028460E+02  0.00000000000E+00 0. -1.
         11    1    3    3    0    0 -0.43635284042E+00  0.90763027574E+01 -0.11940341090E+02  0.15004713298E+02  0.51100000000E-03 0. -1.
        -11    1    3    3    0    0 -0.71751651396E+00 -0.26677682361E+00 -0.16372517685E+00  0.78281927421E+00  0.51100000000E-03 0.  1.
        -12    1    3    3    0    0 -0.11332185570E+02 -0.71643209778E+01  0.41397590193E+02  0.43514438968E+02  0.00000000000E+00 0.  1.
</event>
<event>
 7    1  0.3461631E-013  0.5930194E+02  0.7816164E-02  0.1266605E+00
        -11   -1    0    0    0    0  0.00000000000E+00  0.00000000000E+00  0.45593999997E+02  0.45594000000E+02  0.51100000000E-03 0.  1.
         11   -1    0    0    0    0 -0.00000000000E+00 -0.00000000000E+00 -0.45593999997E+02  0.45594000000E+02  0.51100000000E-03 0. -1.
    9900012    2    1    2    0    0 -0.10563914386E+02  0.14061212767E+02  0.26597117904E+02  0.59301942351E+02  0.49999996942E+02 0.  0.
         12    1    1    2    0    0  0.10563914386E+02 -0.14061212767E+02 -0.26597117904E+02  0.31886057649E+02  0.00000000000E+00 0. -1.
         11    1    3    3    0    0  0.50566811551E+01 -0.67235904055E+01 -0.10217573807E+01  0.84747082930E+01  0.51100000000E-03 0. -1.
        -11    1    3    3    0    0 -0.82202988224E+01  0.29702462352E+02  0.17488595760E+02  0.35435301106E+02  0.51100000000E-03 0.  1.
         12    1    3    3    0    0 -0.74002967186E+01 -0.89176591802E+01  0.10130279524E+02  0.15391932952E+02  0.00000000000E+00 0. -1.
</event>
<event>
 7    1  0.3461631E-013  0.5930194E+02  0.7816164E-02  0.1266605E+00
        -11   -1    0    0    0    0  0.00000000000E+00  0.00000000000E+00  0.45593999997E+02  0.45594000000E+02  0.51100000000E-03 0. -1.
         11   -1    0    0    0    0 -0.00000000000E+00 -0.00000000000E+00 -0.45593999997E+02  0.45594000000E+02  0.51100000000E-03 0.  1.
    9900012    2    1    2    0    0  0.15011443110E+01 -0.17532905734E+02 -0.26590686991E+02  0.59301939529E+02  0.49999991795E+02 0.  0.
         12    1    1    2    0    0 -0.15011443110E+01  0.17532905734E+02  0.26590686991E+02  0.31886060471E+02  0.00000000000E+00 0. -1.
         11    1    3    3    0    0 -0.15967096200E+01 -0.21133103669E+02 -0.59902426243E+00  0.21201801401E+02  0.51100000000E-03 0. -1.
        -11    1    3    3    0    0 -0.12648402486E+01 -0.11528346910E+02 -0.74906752529E+01  0.13806260150E+02  0.51100000000E-03 0.  1.
         12    1    3    3    0    0  0.43626941796E+01  0.15128544845E+02 -0.18500987475E+02  0.24293877978E+02  0.00000000000E+00 0. -1.
</event>
<event>
 7    1  0.3461631E-013  0.5930194E+02  0.7816164E-02  0.1266605E+00
        -11   -1    0    0    0    0  0.00000000000E+00  0.00000000000E+00  0.45593999997E+02  0.45594000000E+02  0.51100000000E-03 0. -1.
         11   -1    0    0    0    0 -0.00000000000E+00 -0.00000000000E+00 -0.45593999997E+02  0.45594000000E+02  0.51100000000E-03 0.  1.
    9900012    2    1    2    0    0 -0.21621925337E+02  0.67122837494E+01 -0.22453473721E+02  0.59301938930E+02  0.49999990703E+02 0.  0.
         12    1    1    2    0    0  0.21621925337E+02 -0.67122837494E+01  0.22453473721E+02  0.31886061070E+02  0.00000000000E+00 0. -1.
         11    1    3    3    0    0 -0.17589906487E+02  0.20340443542E+02 -0.93499087543E+01  0.28470322227E+02  0.51100000000E-03 0. -1.
        -11    1    3    3    0    0 -0.13472021798E+02 -0.65298302581E+01 -0.11571248478E+02  0.18921623771E+02  0.51100000000E-03 0.  1.
        -12    1    3    3    0    0  0.94400029477E+01 -0.70983295349E+01 -0.15323164887E+01  0.11909992933E+02  0.00000000000E+00 0.  1.
</event>
<event>
 7    1  0.3461631E-013  0.5930195E+02  0.7816164E-02  0.1266605E+00
        -11   -1    0    0    0    0  0.00000000000E+00  0.00000000000E+00  0.45593999997E+02  0.45594000000E+02  0.51100000000E-03 0.  1.
         11   -1    0    0    0    0 -0.00000000000E+00 -0.00000000000E+00 -0.45593999997E+02  0.45594000000E+02  0.51100000000E-03 0. -1.
    9900012    2    1    2    0    0 -0.30391981311E+02  0.56576919333E+01  0.78126948900E+01  0.59301949641E+02  0.50000010238E+02 0.  0.
         12    1    1    2    0    0  0.30391981311E+02 -0.56576919333E+01 -0.78126948900E+01  0.31886050359E+02  0.00000000000E+00 0. -1.
         11    1    3    3    0    0 -0.85580643886E+01 -0.21348895087E+01 -0.65656106700E+01  0.10995702025E+02  0.51100000000E-03 0. -1.
        -11    1    3    3    0    0  0.32526247257E+01  0.11203178862E+02 -0.82998403373E+01  0.14317057453E+02  0.51100000000E-03 0.  1.
        -12    1    3    3    0    0 -0.25086541648E+02 -0.34105974201E+01  0.22678145897E+02  0.33989190163E+02  0.00000000000E+00 0.  1.
</event>
<event>
 7    1  0.3461631E-013  0.5930194E+02  0.7816164E-02  0.1266605E+00
        -11   -1    0    0    0    0  0.00000000000E+00  0.00000000000E+00  0.45593999997E+02  0.45594000000E+02  0.51100000000E-03 0. -1.
         11   -1    0    0    0    0 -0.00000000000E+00 -0.00000000000E+00 -0.45593999997E+02  0.45594000000E+02  0.51100000000E-03 0.  1.
    9900012    2    1    2    0    0  0.23114368123E+02 -0.99007829058E+01 -0.19606657361E+02  0.59301944604E+02  0.50000001050E+02 0.  0.
         12    1    1    2    0    0 -0.23114368123E+02  0.99007829058E+01  0.19606657361E+02  0.31886055396E+02  0.00000000000E+00 0. -1.
         11    1    3    3    0    0  0.13861169331E+01 -0.61155400353E+01  0.53386221343E+01  0.82354135676E+01  0.51100000000E-03 0. -1.
        -11    1    3    3    0    0  0.15615316297E+02 -0.20555415318E+02 -0.96455652696E+01  0.27557215599E+02  0.51100000000E-03 0.  1.
         12    1    3    3    0    0  0.61129348931E+01  0.16770172447E+02 -0.15299714226E+02  0.23509315437E+02  0.00000000000E+00 0. -1.
</event>
<event>
 7    1  0.3461631E-013  0.5930185E+02  0.7816164E-02  0.1266605E+00
        -11   -1    0    0    0    0  0.00000000000E+00  0.00000000000E+00  0.45593999997E+02  0.45594000000E+02  0.51100000000E-03 0.  1.
         11   -1    0    0    0    0 -0.00000000000E+00 -0.00000000000E+00 -0.45593999997E+02  0.45594000000E+02  0.51100000000E-03 0. -1.
    9900012    2    1    2    0    0  0.19752862374E+02  0.30211885218E+00  0.25029174851E+02  0.59301851887E+02  0.49999831957E+02 0.  0.
         12    1    1    2    0    0 -0.19752862374E+02 -0.30211885218E+00 -0.25029174851E+02  0.31886148113E+02  0.00000000000E+00 0. -1.
         11    1    3    3    0    0  0.10849670094E+02 -0.31713038859E+01  0.32952889918E+01  0.11774185291E+02  0.51100000000E-03 0.  1.
        -11    1    3    3    0    0  0.23842698630E+02 -0.46478442055E+01  0.77076112808E+01  0.25484976077E+02  0.51100000000E-03 0. -1.
         12    1    3    3    0    0 -0.14939506350E+02  0.81212669436E+01  0.14026274579E+02  0.22042690519E+02  0.00000000000E+00 0. -1.
</event>
<event>
 7    1  0.3461631E-013  0.5930194E+02  0.7816164E-02  0.1266605E+00
        -11   -1    0    0    0    0  0.00000000000E+00  0.00000000000E+00  0.45593999997E+02  0.45594000000E+02  0.51100000000E-03 0. -1.
         11   -1    0    0    0    0 -0.00000000000E+00 -0.00000000000E+00 -0.45593999997E+02  0.45594000000E+02  0.51100000000E-03 0.  1.
    9900012    2    1    2    0    0 -0.13989384938E+02 -0.28571371066E+02 -0.21666591786E+01  0.59301944310E+02  0.50000000514E+02 0.  0.
         12    1    1    2    0    0  0.13989384938E+02  0.28571371066E+02  0.21666591786E+01  0.31886055690E+02  0.00000000000E+00 0. -1.
         11    1    3    3    0    0 -0.30081786304E+01 -0.52912406911E-01  0.12741981681E+02  0.13092365555E+02  0.51100000000E-03 0. -1.
        -11    1    3    3    0    0 -0.78126756742E+01 -0.61170174156E+00  0.70634463856E+01  0.10550087929E+02  0.51100000000E-03 0.  1.
        -12    1    3    3    0    0 -0.31685306330E+01 -0.27906756917E+02 -0.21972087245E+02  0.35659490825E+02  0.00000000000E+00 0.  1.
</event>
<event>
 7    1  0.3461631E-013  0.5930199E+02  0.7816164E-02  0.1266605E+00
        -11   -1    0    0    0    0  0.00000000000E+00  0.00000000000E+00  0.45593999997E+02  0.45594000000E+02  0.51100000000E-03 0.  1.
         11   -1    0    0    0    0 -0.00000000000E+00 -0.00000000000E+00 -0.45593999997E+02  0.45594000000E+02  0.51100000000E-03 0. -1.
    9900012    2    1    2    0    0  0.36358308789E+01  0.22368181210E+02  0.22431294005E+02  0.59301988215E+02  0.50000080587E+02 0.  0.
         12    1    1    2    0    0 -0.36358308789E+01 -0.22368181210E+02 -0.22431294005E+02  0.31886011785E+02  0.00000000000E+00 0. -1.
         11    1    3    3    0    0  0.85664253372E+01 -0.23019873916E+01  0.23166383636E+02  0.24806533818E+02  0.51100000000E-03 0. -1.
        -11    1    3    3    0    0  0.55144300165E+01  0.26897535576E+01  0.66652569659E+01  0.90592142755E+01  0.51100000000E-03 0.  1.
        -12    1    3    3    0    0 -0.10445024475E+02  0.21980415044E+02 -0.74003465970E+01  0.25436240122E+02  0.00000000000E+00 0.  1.
</event>
<event>
 7    1  0.3461631E-013  0.5930200E+02  0.7816164E-02  0.1266605E+00
        -11   -1    0    0    0    0  0.00000000000E+00  0.00000000000E+00  0.45593999997E+02  0.45594000000E+02  0.51100000000E-03 0. -1.
         11   -1    0    0    0    0 -0.00000000000E+00 -0.00000000000E+00 -0.45593999997E+02  0.45594000000E+02  0.51100000000E-03 0.  1.
    9900012    2    1    2    0    0 -0.55038311679E+01 -0.30943608593E+02  0.53775433349E+01  0.59301999270E+02  0.50000100748E+02 0.  0.
         12    1    1    2    0    0  0.55038311679E+01  0.30943608593E+02 -0.53775433349E+01  0.31886000730E+02  0.00000000000E+00 0. -1.
         11    1    3    3    0    0 -0.28017253753E+01  0.63394467147E+01  0.41822447488E+01  0.80950244673E+01  0.51100000000E-03 0. -1.
        -11    1    3    3    0    0  0.93223091840E+01 -0.22829932186E+01  0.92532230280E+01  0.13331903211E+02  0.51100000000E-03 0.  1.
        -12    1    3    3    0    0 -0.12024414977E+02 -0.35000062089E+02 -0.80579244418E+01  0.37875071591E+02  0.00000000000E+00 0.  1.
</event>
<event>
 7    1  0.3461631E-013  0.5930195E+02  0.7816164E-02  0.1266605E+00
        -11   -1    0    0    0    0  0.00000000000E+00  0.00000000000E+00  0.45593999997E+02  0.45594000000E+02  0.51100000000E-03 0.  1.
         11   -1    0    0    0    0 -0.00000000000E+00 -0.00000000000E+00 -0.45593999997E+02  0.45594000000E+02  0.51100000000E-03 0. -1.
    9900012    2    1    2    0    0  0.12085232372E+02 -0.29458595687E+02 -0.16906846542E+01  0.59301951077E+02  0.50000012856E+02 0.  0.
         12    1    1    2    0    0 -0.12085232372E+02  0.29458595687E+02  0.16906846542E+01  0.31886048923E+02  0.00000000000E+00 0. -1.
         11    1    3    3    0    0 -0.22113655376E+01 -0.69200966476E+01 -0.34951996188E+01  0.80619039804E+01  0.51100000000E-03 0. -1.
        -11    1    3    3    0    0 -0.86528213304E+01 -0.37925783514E+01 -0.14584677753E+02  0.17377220518E+02  0.51100000000E-03 0.  1.
        -12    1    3    3    0    0  0.22949419240E+02 -0.18745920688E+02  0.16389192718E+02  0.33862826578E+02  0.00000000000E+00 0.  1.
</event>
<event>
 7    1  0.3461631E-013  0.5930189E+02  0.7816164E-02  0.1266605E+00
        -11   -1    0    0    0    0  0.00000000000E+00  0.00000000000E+00  0.45593999997E+02  0.45594000000E+02  0.51100000000E-03 0. -1.
         11   -1    0    0    0    0 -0.00000000000E+00 -0.00000000000E+00 -0.45593999997E+02  0.45594000000E+02  0.51100000000E-03 0.  1.
    9900012    2    1    2    0    0  0.30082731000E+02  0.74273792877E+01 -0.75224589284E+01  0.59301889296E+02  0.49999900183E+02 0.  0.
         12    1    1    2    0    0 -0.30082731000E+02 -0.74273792877E+01  0.75224589284E+01  0.31886110704E+02  0.00000000000E+00 0. -1.
         11    1    3    3    0    0  0.13572058016E+02 -0.20415914433E+02 -0.64944066612E+01  0.25361144277E+02  0.51100000000E-03 0. -1.
        -11    1    3    3    0    0  0.22301456200E+01  0.13506007444E+02 -0.33508091469E+00  0.13692993319E+02  0.51100000000E-03 0.  1.
        -12    1    3    3    0    0  0.14280527364E+02  0.14337286277E+02 -0.69297135251E+00  0.20247751700E+02  0.00000000000E+00 0.  1.
</event>
<event>
 7    1  0.3461631E-013  0.5930195E+02  0.7816164E-02  0.1266605E+00
        -11   -1    0    0    0    0  0.00000000000E+00  0.00000000000E+00  0.45593999997E+02  0.45594000000E+02  0.51100000000E-03 0.  1.
         11   -1    0    0    0    0 -0.00000000000E+00 -0.00000000000E+00 -0.45593999997E+02  0.45594000000E+02  0.51100000000E-03 0. -1.
    9900012    2    1    2    0    0  0.20554798056E+02 -0.23683671622E+02 -0.57710025717E+01  0.59301945128E+02  0.50000002007E+02 0.  0.
         12    1    1    2    0    0 -0.20554798056E+02  0.23683671622E+02  0.57710025717E+01  0.31886054872E+02  0.00000000000E+00 0. -1.
         11    1    3    3    0    0  0.16107712791E+02  0.61582188759E+01 -0.44603462763E+01  0.17812264321E+02  0.51100000000E-03 0. -1.
        -11    1    3    3    0    0  0.63876629459E+01  0.32178368981E+01  0.36061184131E+01  0.80100438503E+01  0.51100000000E-03 0.  1.
        -12    1    3    3    0    0 -0.19405776810E+01 -0.33059727396E+02 -0.49167747085E+01  0.33479636957E+02  0.00000000000E+00 0.  1.
</event>
<event>
 7    1  0.3461631E-013  0.5930196E+02  0.7816164E-02  0.1266605E+00
        -11   -1    0    0    0    0  0.00000000000E+00  0.00000000000E+00  0.45593999997E+02  0.45594000000E+02  0.51100000000E-03 0. -1.
         11   -1    0    0    0    0 -0.00000000000E+00 -0.00000000000E+00 -0.45593999997E+02  0.45594000000E+02  0.51100000000E-03 0.  1.
    9900012    2    1    2    0    0  0.13804430285E+02 -0.26291425403E+01 -0.28622455431E+02  0.59301958526E+02  0.50000026442E+02 0.  0.
         12    1    1    2    0    0 -0.13804430285E+02  0.26291425403E+01  0.28622455431E+02  0.31886041474E+02  0.00000000000E+00 0. -1.
         11    1    3    3    0    0  0.46775293678E+01  0.47234447818E+01  0.59828337368E+01  0.89434060277E+01  0.51100000000E-03 0. -1.
        -11    1    3    3    0    0  0.17757633651E+02 -0.11232771053E+02 -0.86336367417E+01  0.22716698309E+02  0.51100000000E-03 0.  1.
        -12    1    3    3    0    0 -0.86307327340E+01  0.38801837310E+01 -0.25971652426E+02  0.27641854190E+02  0.00000000000E+00 0.  1.
</event>
<event>
 7    1  0.3461631E-013  0.5930195E+02  0.7816164E-02  0.1266605E+00
        -11   -1    0    0    0    0  0.00000000000E+00  0.00000000000E+00  0.45593999997E+02  0.45594000000E+02  0.51100000000E-03 0.  1.
         11   -1    0    0    0    0 -0.00000000000E+00 -0.00000000000E+00 -0.45593999997E+02  0.45594000000E+02  0.51100000000E-03 0. -1.
    9900012    2    1    2    0    0  0.15913769249E+02 -0.24955496801E+02 -0.11861511304E+02  0.59301947834E+02  0.50000006943E+02 0.  0.
         12    1    1    2    0    0 -0.15913769249E+02  0.24955496801E+02  0.11861511304E+02  0.31886052166E+02  0.00000000000E+00 0. -1.
         11    1    3    3    0    0  0.13632682646E+02 -0.48932328913E+01 -0.76229481100E+01  0.16367745795E+02  0.51100000000E-03 0. -1.
        -11    1    3    3    0    0  0.23097231902E+01 -0.30943934857E+02 -0.67744762096E+01  0.31760910784E+02  0.51100000000E-03 0.  1.
        -12    1    3    3    0    0 -0.28636587961E-01  0.10881670947E+02  0.25359130158E+01  0.11173291255E+02  0.00000000000E+00 0.  1.
</event>
<event>
 7    1  0.3461631E-013  0.5930198E+02  0.7816164E-02  0.1266605E+00
        -11   -1    0    0    0    0  0.00000000000E+00  0.00000000000E+00  0.45593999997E+02  0.45594000000E+02  0.51100000000E-03 0. -1.
         11   -1    0    0    0    0 -0.00000000000E+00 -0.00000000000E+00 -0.45593999997E+02  0.45594000000E+02  0.51100000000E-03 0.  1.
    9900012    2    1    2    0    0 -0.21494931960E+02 -0.20635672453E+02 -0.11351429019E+02  0.59301983969E+02  0.50000072844E+02 0.  0.
         12    1    1    2    0    0  0.21494931960E+02  0.20635672453E+02  0.11351429019E+02  0.31886016031E+02  0.00000000000E+00 0. -1.
         11    1    3    3    0    0 -0.12134659877E+02 -0.11759227427E+02  0.11725743691E+02  0.20567509946E+02  0.51100000000E-03 0. -1.
        -11    1    3    3    0    0  0.23436580980E+01  0.52730449846E+01  0.32601591216E+01  0.66276975225E+01  0.51100000000E-03 0.  1.
        -12    1    3    3    0    0 -0.11703930181E+02 -0.14149490010E+02 -0.26337331832E+02  0.32106776500E+02  0.00000000000E+00 0.  1.
</event>
<event>
 7    1  0.3461631E-013  0.5930194E+02  0.7816164E-02  0.1266605E+00
        -11   -1    0    0    0    0  0.00000000000E+00  0.00000000000E+00  0.45593999997E+02  0.45594000000E+02  0.51100000000E-03 0. -1.
         11   -1    0    0    0    0 -0.00000000000E+00 -0.00000000000E+00 -0.45593999997E+02  0.45594000000E+02  0.51100000000E-03 0.  1.
    9900012    2    1    2    0    0 -0.20703561034E+02  0.21121589499E+02  0.11914773203E+02  0.59301940304E+02  0.49999993209E+02 0.  0.
         12    1    1    2    0    0  0.20703561034E+02 -0.21121589499E+02 -0.11914773203E+02  0.31886059696E+02  0.00000000000E+00 0. -1.
         11    1    3    3    0    0 -0.14829153977E+02  0.17544125651E+02  0.19004688881E+02  0.29814062995E+02  0.51100000000E-03 0. -1.
        -11    1    3    3    0    0 -0.16678151623E+02  0.21805674741E+01 -0.78621155782E+01  0.18566865048E+02  0.51100000000E-03 0.  1.
         12    1    3    3    0    0  0.10803744566E+02  0.13968963736E+01  0.77219989970E+00  0.10921012261E+02  0.00000000000E+00 0. -1.
</event>
<event>
 7    1  0.3461631E-013  0.5930190E+02  0.7816164E-02  0.1266605E+00
        -11   -1    0    0    0    0  0.00000000000E+00  0.00000000000E+00  0.45593999997E+02  0.45594000000E+02  0.51100000000E-03 0.  1.
         11   -1    0    0    0    0 -0.00000000000E+00 -0.00000000000E+00 -0.45593999997E+02  0.45594000000E+02  0.51100000000E-03 0. -1.
    9900012    2    1    2    0    0  0.46783836701E+01 -0.29105721290E+01  0.31406441523E+02  0.59301901571E+02  0.49999922568E+02 0.  0.
         12    1    1    2    0    0 -0.46783836701E+01  0.29105721290E+01 -0.31406441523E+02  0.31886098429E+02  0.00000000000E+00 0. -1.
         11    1    3    3    0    0  0.89382168902E+01 -0.21293573447E+02  0.18405907863E+02  0.29531092697E+02  0.51100000000E-03 0. -1.
        -11    1    3    3    0    0 -0.88864676105E+01  0.17578840774E+02  0.14907277305E+02  0.24702466809E+02  0.51100000000E-03 0.  1.
         12    1    3    3    0    0  0.46266343904E+01  0.80416054445E+00 -0.19067436441E+01  0.50683420650E+01  0.00000000000E+00 0. -1.
</event>
<event>
 7    1  0.3461631E-013  0.5930199E+02  0.7816164E-02  0.1266605E+00
        -11   -1    0    0    0    0  0.00000000000E+00  0.00000000000E+00  0.45593999997E+02  0.45594000000E+02  0.51100000000E-03 0.  1.
         11   -1    0    0    0    0 -0.00000000000E+00 -0.00000000000E+00 -0.45593999997E+02  0.45594000000E+02  0.51100000000E-03 0. -1.
    9900012    2    1    2    0    0 -0.19072308214E+02  0.15398981557E+02  0.20392056505E+02  0.59301991436E+02  0.50000086462E+02 0.  0.
         12    1    1    2    0    0  0.19072308214E+02 -0.15398981557E+02 -0.20392056505E+02  0.31886008564E+02  0.00000000000E+00 0. -1.
         11    1    3    3    0    0 -0.94257385405E+01  0.42070937169E+01 -0.36816529572E+01  0.10958957676E+02  0.51100000000E-03 0. -1.
        -11    1    3    3    0    0 -0.23356785494E+02  0.86191447853E+01  0.61754810379E+01  0.25650841151E+02  0.51100000000E-03 0.  1.
         12    1    3    3    0    0  0.13710215821E+02  0.25727430549E+01  0.17898228425E+02  0.22692192610E+02  0.00000000000E+00 0. -1.
</event>
<event>
 7    1  0.3461631E-013  0.5930194E+02  0.7816164E-02  0.1266605E+00
        -11   -1    0    0    0    0  0.00000000000E+00  0.00000000000E+00  0.45593999997E+02  0.45594000000E+02  0.51100000000E-03 0. -1.
         11   -1    0    0    0    0 -0.00000000000E+00 -0.00000000000E+00 -0.45593999997E+02  0.45594000000E+02  0.51100000000E-03 0.  1.
    9900012    2    1    2    0    0  0.30262556768E+02  0.96656431929E+01  0.27338761329E+01  0.59301935973E+02  0.49999985309E+02 0.  0.
         12    1    1    2    0    0 -0.30262556768E+02 -0.96656431929E+01 -0.27338761329E+01  0.31886064027E+02  0.00000000000E+00 0. -1.
         11    1    3    3    0    0  0.26304673719E+01 -0.62227994627E+01  0.20080769663E+01  0.70480469004E+01  0.51100000000E-03 0. -1.
        -11    1    3    3    0    0  0.32244765927E+02  0.38725500562E+01 -0.11548418471E+02  0.34468645797E+02  0.51100000000E-03 0.  1.
         12    1    3    3    0    0 -0.46126765317E+01  0.12015892599E+02  0.12274217637E+02  0.17785243275E+02  0.00000000000E+00 0. -1.
</event>
<event>
 7    1  0.3461631E-013  0.5930194E+02  0.7816164E-02  0.1266605E+00
        -11   -1    0    0    0    0  0.00000000000E+00  0.00000000000E+00  0.45593999997E+02  0.45594000000E+02  0.51100000000E-03 0.  1.
         11   -1    0    0    0    0 -0.00000000000E+00 -0.00000000000E+00 -0.45593999997E+02  0.45594000000E+02  0.51100000000E-03 0. -1.
    9900012    2    1    2    0    0  0.22313540149E+02 -0.21271635116E+02  0.81452075071E+01  0.59301938158E+02  0.49999989295E+02 0.  0.
         12    1    1    2    0    0 -0.22313540149E+02  0.21271635116E+02 -0.81452075071E+01  0.31886061842E+02  0.00000000000E+00 0. -1.
         11    1    3    3    0    0  0.56331067659E+01  0.11130774744E+02 -0.26416699385E+01  0.12751645327E+02  0.51100000000E-03 0. -1.
        -11    1    3    3    0    0 -0.27260309758E+01 -0.16465429603E+01 -0.57711374865E+01  0.65915382689E+01  0.51100000000E-03 0.  1.
        -12    1    3    3    0    0  0.19406464358E+02 -0.30755866899E+02  0.16558014932E+02  0.39958754562E+02  0.00000000000E+00 0.  1.
</event>
<event>
 7    1  0.3461631E-013  0.5930198E+02  0.7816164E-02  0.1266605E+00
        -11   -1    0    0    0    0  0.00000000000E+00  0.00000000000E+00  0.45593999997E+02  0.45594000000E+02  0.51100000000E-03 0.  1.
         11   -1    0    0    0    0 -0.00000000000E+00 -0.00000000000E+00 -0.45593999997E+02  0.45594000000E+02  0.51100000000E-03 0. -1.
    9900012    2    1    2    0    0 -0.26128732495E+02 -0.17078814240E+02  0.65055265141E+01  0.59301977469E+02  0.50000060988E+02 0.  0.
         12    1    1    2    0    0  0.26128732495E+02  0.17078814240E+02 -0.65055265141E+01  0.31886022531E+02  0.00000000000E+00 0. -1.
         11    1    3    3    0    0 -0.48878126089E+01 -0.14000751523E+02  0.62840449067E+00  0.14842730469E+02  0.51100000000E-03 0. -1.
        -11    1    3    3    0    0 -0.10095626171E+02 -0.17685209138E+02 -0.75328831708E+01  0.21712499146E+02  0.51100000000E-03 0.  1.
        -12    1    3    3    0    0 -0.11145293715E+02  0.14607146422E+02  0.13410005194E+02  0.22746747853E+02  0.00000000000E+00 0.  1.
</event>
<event>
 7    1  0.3461631E-013  0.5930198E+02  0.7816164E-02  0.1266605E+00
        -11   -1    0    0    0    0  0.00000000000E+00  0.00000000000E+00  0.45593999997E+02  0.45594000000E+02  0.51100000000E-03 0. -1.
         11   -1    0    0    0    0 -0.00000000000E+00 -0.00000000000E+00 -0.45593999997E+02  0.45594000000E+02  0.51100000000E-03 0.  1.
    9900012    2    1    2    0    0  0.18583071842E+02  0.56332372912E+01 -0.25291385254E+02  0.59301982853E+02  0.50000070807E+02 0.  0.
         12    1    1    2    0    0 -0.18583071842E+02 -0.56332372912E+01  0.25291385254E+02  0.31886017147E+02  0.00000000000E+00 0. -1.
         11    1    3    3    0    0  0.24233991177E+01 -0.70185926876E+01  0.11340078416E+01  0.75112902117E+01  0.51100000000E-03 0. -1.
        -11    1    3    3    0    0 -0.77265986571E+01  0.14134364627E+02  0.41006836394E-01  0.16108453434E+02  0.51100000000E-03 0.  1.
         12    1    3    3    0    0  0.23886271382E+02 -0.14825346478E+01 -0.26466399931E+02  0.35682239207E+02  0.00000000000E+00 0. -1.
</event>
<event>
 7    1  0.3461631E-013  0.5930192E+02  0.7816164E-02  0.1266605E+00
        -11   -1    0    0    0    0  0.00000000000E+00  0.00000000000E+00  0.45593999997E+02  0.45594000000E+02  0.51100000000E-03 0.  1.
         11   -1    0    0    0    0 -0.00000000000E+00 -0.00000000000E+00 -0.45593999997E+02  0.45594000000E+02  0.51100000000E-03 0. -1.
    9900012    2    1    2    0    0  0.14769148133E+00 -0.74471316163E+01  0.31003883528E+02  0.59301915638E+02  0.49999948224E+02 0.  0.
         12    1    1    2    0    0 -0.14769148133E+00  0.74471316163E+01 -0.31003883528E+02  0.31886084362E+02  0.00000000000E+00 0. -1.
         11    1    3    3    0    0 -0.15579995361E+02  0.28250923017E+01  0.48622911875E+01  0.16563794185E+02  0.51100000000E-03 0. -1.
        -11    1    3    3    0    0  0.71167941734E+01 -0.85026093623E+00 -0.52277583922E+01  0.88713674839E+01  0.51100000000E-03 0.  1.
        -12    1    3    3    0    0  0.86108926689E+01 -0.94219629817E+01  0.31369350733E+02  0.33866753969E+02  0.00000000000E+00 0.  1.
</event>
<event>
 7    1  0.3461631E-013  0.5930194E+02  0.7816164E-02  0.1266605E+00
        -11   -1    0    0    0    0  0.00000000000E+00  0.00000000000E+00  0.45593999997E+02  0.45594000000E+02  0.51100000000E-03 0.  1.
         11   -1    0    0    0    0 -0.00000000000E+00 -0.00000000000E+00 -0.45593999997E+02  0.45594000000E+02  0.51100000000E-03 0. -1.
    9900012    2    1    2    0    0  0.57183283235E+00 -0.31757158110E+02  0.28066028295E+01  0.59301935592E+02  0.49999984615E+02 0.  0.
         12    1    1    2    0    0 -0.57183283235E+00  0.31757158110E+02 -0.28066028295E+01  0.31886064408E+02  0.00000000000E+00 0. -1.
         11    1    3    3    0    0 -0.38392484700E+01 -0.18226798829E+00 -0.54970495950E+00  0.38826828659E+01  0.51100000000E-03 0. -1.
        -11    1    3    3    0    0 -0.20022820742E+02 -0.86893572194E+01  0.74397607041E+00  0.21839683606E+02  0.51100000000E-03 0.  1.
        -12    1    3    3    0    0  0.24433902044E+02 -0.22885532902E+02  0.26123317186E+01  0.33579569120E+02  0.00000000000E+00 0.  1.
</event>
<event>
 7    1  0.3461631E-013  0.5930194E+02  0.7816164E-02  0.1266605E+00
        -11   -1    0    0    0    0  0.00000000000E+00  0.00000000000E+00  0.45593999997E+02  0.45594000000E+02  0.51100000000E-03 0. -1.
         11   -1    0    0    0    0 -0.00000000000E+00 -0.00000000000E+00 -0.45593999997E+02  0.45594000000E+02  0.51100000000E-03 0.  1.
    9900012    2    1    2    0    0  0.68913108691E+00  0.22115225230E+02 -0.22960017838E+02  0.59301944933E+02  0.50000001651E+02 0.  0.
         12    1    1    2    0    0 -0.68913108691E+00 -0.22115225230E+02  0.22960017838E+02  0.31886055067E+02  0.00000000000E+00 0. -1.
         11    1    3    3    0    0  0.31585422411E+01 -0.18579224904E+01  0.70048338737E+01  0.79054388195E+01  0.51100000000E-03 0. -1.
        -11    1    3    3    0    0  0.10964606775E+02  0.24646273125E+02 -0.13589050117E+02  0.30204696059E+02  0.51100000000E-03 0.  1.
         12    1    3    3    0    0 -0.13434017929E+02 -0.67312540459E+00 -0.16375801595E+02  0.21191810055E+02  0.00000000000E+00 0. -1.
</event>
<event>
 7    1  0.3461631E-013  0.5930204E+02  0.7816164E-02  0.1266604E+00
        -11   -1    0    0    0    0  0.00000000000E+00  0.00000000000E+00  0.45593999997E+02  0.45594000000E+02  0.51100000000E-03 0. -1.
         11   -1    0    0    0    0 -0.00000000000E+00 -0.00000000000E+00 -0.45593999997E+02  0.45594000000E+02  0.51100000000E-03 0.  1.
    9900012    2    1    2    0    0 -0.23705549351E+02  0.11834385998E+02 -0.17740022243E+02  0.59302044610E+02  0.50000183437E+02 0.  0.
         12    1    1    2    0    0  0.23705549351E+02 -0.11834385998E+02  0.17740022243E+02  0.31885955390E+02  0.00000000000E+00 0. -1.
         11    1    3    3    0    0 -0.31346521304E+01 -0.56420131927E+01  0.21502520553E+01  0.68030831987E+01  0.51100000000E-03 0. -1.
        -11    1    3    3    0    0  0.17142536478E+01  0.43211808803E+01  0.11153521974E+02  0.12083555870E+02  0.51100000000E-03 0.  1.
        -12    1    3    3    0    0 -0.22285150868E+02  0.13155218310E+02 -0.31043796273E+02  0.40415405541E+02  0.00000000000E+00 0.  1.
</event>
<event>
 7    1  0.3461631E-013  0.5930190E+02  0.7816164E-02  0.1266605E+00
        -11   -1    0    0    0    0  0.00000000000E+00  0.00000000000E+00  0.45593999997E+02  0.45594000000E+02  0.51100000000E-03 0.  1.
         11   -1    0    0    0    0 -0.00000000000E+00 -0.00000000000E+00 -0.45593999997E+02  0.45594000000E+02  0.51100000000E-03 0. -1.
    9900012    2    1    2    0    0  0.30986139028E+02 -0.35460285377E+01  0.66338737918E+01  0.59301899396E+02  0.49999918603E+02 0.  0.
         12    1    1    2    0    0 -0.30986139028E+02  0.35460285377E+01 -0.66338737918E+01  0.31886100604E+02  0.00000000000E+00 0. -1.
         11    1    3    3    0    0  0.85005449245E+00  0.86290314326E+01 -0.83858749937E+01  0.12062573348E+02  0.51100000000E-03 0. -1.
        -11    1    3    3    0    0  0.10733325276E+02 -0.14752409931E+02 -0.53277143575E+01  0.19005852014E+02  0.51100000000E-03 0.  1.
        -12    1    3    3    0    0  0.19402759260E+02  0.25773499602E+01  0.20347463143E+02  0.28233474035E+02  0.00000000000E+00 0.  1.
</event>
<event>
 7    1  0.3461631E-013  0.5930197E+02  0.7816164E-02  0.1266605E+00
        -11   -1    0    0    0    0  0.00000000000E+00  0.00000000000E+00  0.45593999997E+02  0.45594000000E+02  0.51100000000E-03 0.  1.
         11   -1    0    0    0    0 -0.00000000000E+00 -0.00000000000E+00 -0.45593999997E+02  0.45594000000E+02  0.51100000000E-03 0. -1.
    9900012    2    1    2    0    0  0.30118455355E+02 -0.94761680460E+01  0.44497046708E+01  0.59301968804E+02  0.50000045186E+02 0.  0.
         12    1    1    2    0    0 -0.30118455355E+02  0.94761680460E+01 -0.44497046708E+01  0.31886031196E+02  0.00000000000E+00 0. -1.
         11    1    3    3    0    0  0.10193229202E+01 -0.11320458102E+02  0.13542347887E+02  0.17680129451E+02  0.51100000000E-03 0. -1.
        -11    1    3    3    0    0  0.12272402056E+02 -0.11070658238E+02  0.35824144176E+01  0.16911682925E+02  0.51100000000E-03 0.  1.
         12    1    3    3    0    0  0.16826730378E+02  0.12914948293E+02 -0.12675057634E+02  0.24710156427E+02  0.00000000000E+00 0. -1.
</event>
<event>
 7    1  0.3461631E-013  0.5930194E+02  0.7816164E-02  0.1266605E+00
        -11   -1    0    0    0    0  0.00000000000E+00  0.00000000000E+00  0.45593999997E+02  0.45594000000E+02  0.51100000000E-03 0.  1.
         11   -1    0    0    0    0 -0.00000000000E+00 -0.00000000000E+00 -0.45593999997E+02  0.45594000000E+02  0.51100000000E-03 0. -1.
    9900012    2    1    2    0    0 -0.30189743762E+02  0.29635478012E+01 -0.98243282308E+01  0.59301942401E+02  0.49999997034E+02 0.  0.
         12    1    1    2    0    0  0.30189743762E+02 -0.29635478012E+01  0.98243282308E+01  0.31886057599E+02  0.00000000000E+00 0. -1.
         11    1    3    3    0    0 -0.10432839780E+02 -0.32759926531E+01  0.13406115170E+02  0.17300294736E+02  0.51100000000E-03 0. -1.
        -11    1    3    3    0    0 -0.95296907925E+01  0.82674159828E+01  0.36801316076E+01  0.13141862218E+02  0.51100000000E-03 0.  1.
         12    1    3    3    0    0 -0.10227213189E+02 -0.20278755285E+01 -0.26910575008E+02  0.28859785447E+02  0.00000000000E+00 0. -1.
</event>
<event>
 7    1  0.3461631E-013  0.5930198E+02  0.7816164E-02  0.1266605E+00
        -11   -1    0    0    0    0  0.00000000000E+00  0.00000000000E+00  0.45593999997E+02  0.45594000000E+02  0.51100000000E-03 0.  1.
         11   -1    0    0    0    0 -0.00000000000E+00 -0.00000000000E+00 -0.45593999997E+02  0.45594000000E+02  0.51100000000E-03 0. -1.
    9900012    2    1    2    0    0 -0.26073229376E+02  0.15517572726E+02 -0.98035717396E+01  0.59301978419E+02  0.50000062721E+02 0.  0.
         12    1    1    2    0    0  0.26073229376E+02 -0.15517572726E+02  0.98035717396E+01  0.31886021581E+02  0.00000000000E+00 0. -1.
         11    1    3    3    0    0  0.25681692441E+01  0.42052297572E+01 -0.24060936809E+01  0.54834968441E+01  0.51100000000E-03 0. -1.
        -11    1    3    3    0    0 -0.19973910881E+02  0.22627743558E+02  0.95657431799E+01  0.31661890930E+02  0.51100000000E-03 0.  1.
         12    1    3    3    0    0 -0.86674877393E+01 -0.11315400589E+02 -0.16963221239E+02  0.22156590645E+02  0.00000000000E+00 0. -1.
</event>
<event>
 7    1  0.3461631E-013  0.5930196E+02  0.7816164E-02  0.1266605E+00
        -11   -1    0    0    0    0  0.00000000000E+00  0.00000000000E+00  0.45593999997E+02  0.45594000000E+02  0.51100000000E-03 0.  1.
         11   -1    0    0    0    0 -0.00000000000E+00 -0.00000000000E+00 -0.45593999997E+02  0.45594000000E+02  0.51100000000E-03 0. -1.
    9900012    2    1    2    0    0 -0.18625471506E+02 -0.14208699147E+02  0.21631557295E+02  0.59301959304E+02  0.50000027861E+02 0.  0.
         12    1    1    2    0    0  0.18625471506E+02  0.14208699147E+02 -0.21631557295E+02  0.31886040696E+02  0.00000000000E+00 0. -1.
         11    1    3    3    0    0  0.80973353184E+01 -0.84372729890E+01  0.38356355526E+01  0.12307173319E+02  0.51100000000E-03 0. -1.
        -11    1    3    3    0    0 -0.13630627146E+02 -0.19378915167E+02  0.14637407587E+02  0.27849417419E+02  0.51100000000E-03 0.  1.
         12    1    3    3    0    0 -0.13092179679E+02  0.13607489010E+02  0.31585141554E+01  0.19145368567E+02  0.00000000000E+00 0. -1.
</event>
<event>
 7    1  0.3461631E-013  0.5930194E+02  0.7816164E-02  0.1266605E+00
        -11   -1    0    0    0    0  0.00000000000E+00  0.00000000000E+00  0.45593999997E+02  0.45594000000E+02  0.51100000000E-03 0.  1.
         11   -1    0    0    0    0 -0.00000000000E+00 -0.00000000000E+00 -0.45593999997E+02  0.45594000000E+02  0.51100000000E-03 0. -1.
    9900012    2    1    2    0    0  0.26665428369E+02 -0.11879970823E+02  0.12827385911E+02  0.59301943390E+02  0.49999998836E+02 0.  0.
         12    1    1    2    0    0 -0.26665428369E+02  0.11879970823E+02 -0.12827385911E+02  0.31886056610E+02  0.00000000000E+00 0. -1.
         11    1    3    3    0    0 -0.23735808712E+01 -0.41142434373E+01  0.20335495264E+01  0.51668374419E+01  0.51100000000E-03 0. -1.
        -11    1    3    3    0    0  0.38561758172E+01 -0.19447768178E+02 -0.71544844824E+01  0.21077770934E+02  0.51100000000E-03 0.  1.
         12    1    3    3    0    0  0.25182833423E+02  0.11682040793E+02  0.17948320867E+02  0.33057335014E+02  0.00000000000E+00 0. -1.
</event>
<event>
 7    1  0.3461631E-013  0.5930194E+02  0.7816164E-02  0.1266605E+00
        -11   -1    0    0    0    0  0.00000000000E+00  0.00000000000E+00  0.45593999997E+02  0.45594000000E+02  0.51100000000E-03 0. -1.
         11   -1    0    0    0    0 -0.00000000000E+00 -0.00000000000E+00 -0.45593999997E+02  0.45594000000E+02  0.51100000000E-03 0.  1.
    9900012    2    1    2    0    0  0.17271643080E+02  0.24899998177E+02 -0.99197496954E+01  0.59301937246E+02  0.49999987632E+02 0.  0.
         12    1    1    2    0    0 -0.17271643080E+02 -0.24899998177E+02  0.99197496954E+01  0.31886062754E+02  0.00000000000E+00 0. -1.
         11    1    3    3    0    0 -0.11988249657E+02  0.26091434931E+01 -0.15367485263E+01  0.12364762671E+02  0.51100000000E-03 0. -1.
        -11    1    3    3    0    0  0.25865615265E+01  0.10908327138E+02  0.78656707066E+01  0.13694914290E+02  0.51100000000E-03 0.  1.
        -12    1    3    3    0    0  0.26673331210E+02  0.11382527546E+02 -0.16248671876E+02  0.33242260286E+02  0.00000000000E+00 0.  1.
</event>
<event>
 7    1  0.3461631E-013  0.5930192E+02  0.7816164E-02  0.1266605E+00
        -11   -1    0    0    0    0  0.00000000000E+00  0.00000000000E+00  0.45593999997E+02  0.45594000000E+02  0.51100000000E-03 0. -1.
         11   -1    0    0    0    0 -0.00000000000E+00 -0.00000000000E+00 -0.45593999997E+02  0.45594000000E+02  0.51100000000E-03 0.  1.
    9900012    2    1    2    0    0  0.17844959960E+02  0.17080055983E+02 -0.20163112776E+02  0.59301921138E+02  0.49999958255E+02 0.  0.
         12    1    1    2    0    0 -0.17844959960E+02 -0.17080055983E+02  0.20163112776E+02  0.31886078862E+02  0.00000000000E+00 0. -1.
         11    1    3    3    0    0 -0.46058188885E+01  0.84804909301E+01 -0.11023498212E+01  0.97132625538E+01  0.51100000000E-03 0. -1.
        -11    1    3    3    0    0  0.74265701134E+01  0.23411481052E+02 -0.12038599134E+02  0.27352865628E+02  0.51100000000E-03 0.  1.
        -12    1    3    3    0    0  0.15024208735E+02 -0.14811915999E+02 -0.70221638213E+01  0.22235792957E+02  0.00000000000E+00 0.  1.
</event>
<event>
 7    1  0.3461631E-013  0.5930199E+02  0.7816164E-02  0.1266605E+00
        -11   -1    0    0    0    0  0.00000000000E+00  0.00000000000E+00  0.45593999997E+02  0.45594000000E+02  0.51100000000E-03 0.  1.
         11   -1    0    0    0    0 -0.00000000000E+00 -0.00000000000E+00 -0.45593999997E+02  0.45594000000E+02  0.51100000000E-03 0. -1.
    9900012    2    1    2    0    0  0.25208436919E+02 -0.18872754568E+02 -0.50071673058E+01  0.59301986117E+02  0.50000076761E+02 0.  0.
         12    1    1    2    0    0 -0.25208436919E+02  0.18872754568E+02  0.50071673058E+01  0.31886013883E+02  0.00000000000E+00 0. -1.
         11    1    3    3    0    0 -0.14151865237E+01 -0.13791370398E+02 -0.12068269740E+02  0.18380636146E+02  0.51100000000E-03 0. -1.
        -11    1    3    3    0    0  0.16861276346E+02 -0.15411671171E+02  0.12088878853E+02  0.25844984823E+02  0.51100000000E-03 0.  1.
        -12    1    3    3    0    0  0.97623470972E+01  0.10330287002E+02 -0.50277764180E+01  0.15076365149E+02  0.00000000000E+00 0.  1.
</event>
<event>
 7    1  0.3461631E-013  0.5930194E+02  0.7816164E-02  0.1266605E+00
        -11   -1    0    0    0    0  0.00000000000E+00  0.00000000000E+00  0.45593999997E+02  0.45594000000E+02  0.51100000000E-03 0. -1.
         11   -1    0    0    0    0 -0.00000000000E+00 -0.00000000000E+00 -0.45593999997E+02  0.45594000000E+02  0.51100000000E-03 0.  1.
    9900012    2    1    2    0    0 -0.99096005363E+00  0.24089229056E+02 -0.20867384233E+02  0.59301942183E+02  0.49999996636E+02 0.  0.
         12    1    1    2    0    0  0.99096005363E+00 -0.24089229056E+02  0.20867384233E+02  0.31886057817E+02  0.00000000000E+00 0. -1.
         11    1    3    3    0    0  0.37078709770E+01  0.28565401011E+02 -0.11702026431E+02  0.31091282781E+02  0.51100000000E-03 0. -1.
        -11    1    3    3    0    0 -0.75136893909E+01  0.73488494161E+01 -0.11769743424E+02  0.15779352855E+02  0.51100000000E-03 0.  1.
         12    1    3    3    0    0  0.28148583603E+01 -0.11825021371E+02  0.26043856223E+01  0.12431306547E+02  0.00000000000E+00 0. -1.
</event>
<event>
 7    1  0.3461631E-013  0.5930194E+02  0.7816164E-02  0.1266605E+00
        -11   -1    0    0    0    0  0.00000000000E+00  0.00000000000E+00  0.45593999997E+02  0.45594000000E+02  0.51100000000E-03 0. -1.
         11   -1    0    0    0    0 -0.00000000000E+00 -0.00000000000E+00 -0.45593999997E+02  0.45594000000E+02  0.51100000000E-03 0.  1.
    9900012    2    1    2    0    0  0.26066677551E+02 -0.67283241574E+01 -0.17087395136E+02  0.59301935692E+02  0.49999984797E+02 0.  0.
         12    1    1    2    0    0 -0.26066677551E+02  0.67283241574E+01  0.17087395136E+02  0.31886064308E+02  0.00000000000E+00 0. -1.
         11    1    3    3    0    0 -0.77601245591E+01 -0.19460384494E+01 -0.58294896966E+01  0.98989670776E+01  0.51100000000E-03 0. -1.
        -11    1    3    3    0    0  0.20231502232E+02  0.13670254432E+01 -0.22819045764E+02  0.30526894552E+02  0.51100000000E-03 0.  1.
         12    1    3    3    0    0  0.13595299878E+02 -0.61493111511E+01  0.11561140324E+02  0.18876074062E+02  0.00000000000E+00 0. -1.
</event>
<event>
 7    1  0.3461631E-013  0.5930196E+02  0.7816164E-02  0.1266605E+00
        -11   -1    0    0    0    0  0.00000000000E+00  0.00000000000E+00  0.45593999997E+02  0.45594000000E+02  0.51100000000E-03 0. -1.
         11   -1    0    0    0    0 -0.00000000000E+00 -0.00000000000E+00 -0.45593999997E+02  0.45594000000E+02  0.51100000000E-03 0.  1.
    9900012    2    1    2    0    0 -0.89172430535E+00 -0.17498839198E+02 -0.26640477379E+02  0.59301959473E+02  0.50000028168E+02 0.  0.
         12    1    1    2    0    0  0.89172430535E+00  0.17498839198E+02  0.26640477379E+02  0.31886040527E+02  0.00000000000E+00 0. -1.
         11    1    3    3    0    0 -0.23420685104E+01 -0.13837150485E+01 -0.20981311813E+02  0.21156923167E+02  0.51100000000E-03 0.  1.
        -11    1    3    3    0    0  0.13143052532E+02 -0.86306868816E+00  0.72102063159E+01  0.15015718191E+02  0.51100000000E-03 0. -1.
         12    1    3    3    0    0 -0.11692708327E+02 -0.15252055461E+02 -0.12869371882E+02  0.23129318115E+02  0.00000000000E+00 0. -1.
</event>
<event>
 7    1  0.3461631E-013  0.5930194E+02  0.7816164E-02  0.1266605E+00
        -11   -1    0    0    0    0  0.00000000000E+00  0.00000000000E+00  0.45593999997E+02  0.45594000000E+02  0.51100000000E-03 0.  1.
         11   -1    0    0    0    0 -0.00000000000E+00 -0.00000000000E+00 -0.45593999997E+02  0.45594000000E+02  0.51100000000E-03 0. -1.
    9900012    2    1    2    0    0 -0.97121285255E+01 -0.16180631385E+02  0.25701800854E+02  0.59301939729E+02  0.49999992160E+02 0.  0.
         12    1    1    2    0    0  0.97121285255E+01  0.16180631385E+02 -0.25701800854E+02  0.31886060271E+02  0.00000000000E+00 0. -1.
         11    1    3    3    0    0  0.16997294461E+02 -0.79748385896E+01  0.22236187769E+02  0.29102476119E+02  0.51100000000E-03 0. -1.
        -11    1    3    3    0    0 -0.81236061700E+01 -0.75925467267E+01  0.33148202277E+01  0.11602921029E+02  0.51100000000E-03 0.  1.
        -12    1    3    3    0    0 -0.18585816816E+02 -0.61324606829E+00  0.15079285740E+00  0.18596542581E+02  0.00000000000E+00 0.  1.
</event>
<event>
 7    1  0.3461631E-013  0.5930179E+02  0.7816164E-02  0.1266605E+00
        -11   -1    0    0    0    0  0.00000000000E+00  0.00000000000E+00  0.45593999997E+02  0.45594000000E+02  0.51100000000E-03 0.  1.
         11   -1    0    0    0    0 -0.00000000000E+00 -0.00000000000E+00 -0.45593999997E+02  0.45594000000E+02  0.51100000000E-03 0. -1.
    9900012    2    1    2    0    0 -0.99233038775E+01 -0.45410438551E+01  0.29960597582E+02  0.59301789083E+02  0.49999717418E+02 0.  0.
         12    1    1    2    0    0  0.99233038775E+01  0.45410438551E+01 -0.29960597582E+02  0.31886210917E+02  0.00000000000E+00 0. -1.
         11    1    3    3    0    0 -0.78034700529E+01 -0.38361070268E+00 -0.15356100284E+01  0.79623740466E+01  0.51100000000E-03 0. -1.
        -11    1    3    3    0    0  0.66290616921E+01  0.15293394830E+02  0.51567767447E+01  0.17447771519E+02  0.51100000000E-03 0.  1.
         12    1    3    3    0    0 -0.87488955167E+01 -0.19450827982E+02  0.26339430866E+02  0.33891643517E+02  0.00000000000E+00 0. -1.
</event>
<event>
 7    1  0.3461631E-013  0.5930195E+02  0.7816164E-02  0.1266605E+00
        -11   -1    0    0    0    0  0.00000000000E+00  0.00000000000E+00  0.45593999997E+02  0.45594000000E+02  0.51100000000E-03 0. -1.
         11   -1    0    0    0    0 -0.00000000000E+00 -0.00000000000E+00 -0.45593999997E+02  0.45594000000E+02  0.51100000000E-03 0.  1.
    9900012    2    1    2    0    0  0.23251376125E+02 -0.12429870989E+02 -0.17932994310E+02  0.59301945534E+02  0.50000002746E+02 0.  0.
         12    1    1    2    0    0 -0.23251376125E+02  0.12429870989E+02  0.17932994310E+02  0.31886054466E+02  0.00000000000E+00 0. -1.
         11    1    3    3    0    0 -0.73551473766E+01 -0.14415456931E+02  0.12496137225E+01  0.16231608860E+02  0.51100000000E-03 0. -1.
        -11    1    3    3    0    0  0.24355353115E+02 -0.39635255135E+01 -0.31674862880E+01  0.24878217973E+02  0.51100000000E-03 0.  1.
         12    1    3    3    0    0  0.62511703862E+01  0.59491114556E+01 -0.16015121745E+02  0.18192118700E+02  0.00000000000E+00 0. -1.
</event>
<event>
 7    1  0.3461631E-013  0.5930194E+02  0.7816164E-02  0.1266605E+00
        -11   -1    0    0    0    0  0.00000000000E+00  0.00000000000E+00  0.45593999997E+02  0.45594000000E+02  0.51100000000E-03 0. -1.
         11   -1    0    0    0    0 -0.00000000000E+00 -0.00000000000E+00 -0.45593999997E+02  0.45594000000E+02  0.51100000000E-03 0.  1.
    9900012    2    1    2    0    0 -0.80998748974E+01  0.68767260258E+01 -0.30063652984E+02  0.59301944037E+02  0.50000000016E+02 0.  0.
         12    1    1    2    0    0  0.80998748974E+01 -0.68767260258E+01  0.30063652984E+02  0.31886055963E+02  0.00000000000E+00 0. -1.
         11    1    3    3    0    0  0.10544527071E+02 -0.42717826219E+01 -0.89658093436E+01  0.14485196421E+02  0.51100000000E-03 0.  1.
        -11    1    3    3    0    0  0.28243534785E+01  0.16617578596E+02 -0.12777354454E+02  0.21151398963E+02  0.51100000000E-03 0. -1.
        -12    1    3    3    0    0 -0.21468755447E+02 -0.54690699486E+01 -0.83204891862E+01  0.23665348653E+02  0.00000000000E+00 0.  1.
</event>
<event>
 7    1  0.3461631E-013  0.5930194E+02  0.7816164E-02  0.1266605E+00
        -11   -1    0    0    0    0  0.00000000000E+00  0.00000000000E+00  0.45593999997E+02  0.45594000000E+02  0.51100000000E-03 0. -1.
         11   -1    0    0    0    0 -0.00000000000E+00 -0.00000000000E+00 -0.45593999997E+02  0.45594000000E+02  0.51100000000E-03 0.  1.
    9900012    2    1    2    0    0 -0.16035072691E+02 -0.23038899456E+01 -0.27464334466E+02  0.59301935132E+02  0.49999983777E+02 0.  0.
         12    1    1    2    0    0  0.16035072691E+02  0.23038899456E+01  0.27464334466E+02  0.31886064868E+02  0.00000000000E+00 0. -1.
         11    1    3    3    0    0 -0.88855313116E+01  0.11239393799E+02 -0.23618275629E+02  0.27624257159E+02  0.51100000000E-03 0. -1.
        -11    1    3    3    0    0  0.71701813208E+01 -0.73440106128E+01 -0.10527955594E+02  0.14703191535E+02  0.51100000000E-03 0.  1.
         12    1    3    3    0    0 -0.14319722700E+02 -0.61992731314E+01  0.66818967571E+01  0.16974486438E+02  0.00000000000E+00 0. -1.
</event>
<event>
 7    1  0.3461631E-013  0.5930197E+02  0.7816164E-02  0.1266605E+00
        -11   -1    0    0    0    0  0.00000000000E+00  0.00000000000E+00  0.45593999997E+02  0.45594000000E+02  0.51100000000E-03 0. -1.
         11   -1    0    0    0    0 -0.00000000000E+00 -0.00000000000E+00 -0.45593999997E+02  0.45594000000E+02  0.51100000000E-03 0.  1.
    9900012    2    1    2    0    0 -0.82912635379E+01 -0.22841239710E+02 -0.20645863857E+02  0.59301968937E+02  0.50000045429E+02 0.  0.
         12    1    1    2    0    0  0.82912635379E+01  0.22841239710E+02  0.20645863857E+02  0.31886031063E+02  0.00000000000E+00 0. -1.
         11    1    3    3    0    0  0.83754754633E+01 -0.13648893608E+02 -0.30777861622E+02  0.34694634343E+02  0.51100000000E-03 0.  1.
        -11    1    3    3    0    0 -0.67315078140E+01 -0.98153171719E+01  0.27533682056E+01  0.12216164921E+02  0.51100000000E-03 0. -1.
        -12    1    3    3    0    0 -0.99352311872E+01  0.62297106930E+00  0.73786295593E+01  0.12391169673E+02  0.00000000000E+00 0.  1.
</event>
<event>
 7    1  0.3461631E-013  0.5930196E+02  0.7816164E-02  0.1266605E+00
        -11   -1    0    0    0    0  0.00000000000E+00  0.00000000000E+00  0.45593999997E+02  0.45594000000E+02  0.51100000000E-03 0. -1.
         11   -1    0    0    0    0 -0.00000000000E+00 -0.00000000000E+00 -0.45593999997E+02  0.45594000000E+02  0.51100000000E-03 0.  1.
    9900012    2    1    2    0    0 -0.52883221759E+01  0.30810044448E+02  0.62844540562E+01  0.59301959902E+02  0.50000028952E+02 0.  0.
         12    1    1    2    0    0  0.52883221759E+01 -0.30810044448E+02 -0.62844540562E+01  0.31886040098E+02  0.00000000000E+00 0. -1.
         11    1    3    3    0    0 -0.10966966069E+01  0.43814324413E+01  0.15546531572E+02  0.16189327901E+02  0.51100000000E-03 0. -1.
        -11    1    3    3    0    0 -0.78116435342E+01 -0.56883989101E+01 -0.35300405580E+01  0.10287897913E+02  0.51100000000E-03 0.  1.
        -12    1    3    3    0    0  0.36200179653E+01  0.32117010917E+02 -0.57320369582E+01  0.32824734089E+02  0.00000000000E+00 0.  1.
</event>
<event>
 7    1  0.3735564E-013  0.5930197E+02  0.7816164E-02  0.1266605E+00
        -11   -1    0    0    0    0  0.00000000000E+00  0.00000000000E+00  0.45593999997E+02  0.45594000000E+02  0.51100000000E-03 0.  1.
         11   -1    0    0    0    0 -0.00000000000E+00 -0.00000000000E+00 -0.45593999997E+02  0.45594000000E+02  0.51100000000E-03 0. -1.
    9900012    2    1    2    0    0 -0.15452508568E+02  0.27824315371E+02 -0.19355731554E+01  0.59301968727E+02  0.50000045046E+02 0.  0.
         12    1    1    2    0    0  0.15452508568E+02 -0.27824315371E+02  0.19355731554E+01  0.31886031273E+02  0.00000000000E+00 0. -1.
         11    1    3    3    0    0 -0.29173344677E+01 -0.28992059236E+01  0.11038408927E+02  0.11779758371E+02  0.51100000000E-03 0. -1.
        -11    1    3    3    0    0 -0.12622443546E+02  0.27291121646E+02  0.38835811922E+01  0.30318535666E+02  0.51100000000E-03 0.  1.
         12    1    3    3    0    0  0.87269445974E-01  0.34323996483E+01 -0.16857563274E+02  0.17203674690E+02  0.00000000000E+00 0. -1.
</event>
<event>
 7    1  0.3461631E-013  0.5930193E+02  0.7816164E-02  0.1266605E+00
        -11   -1    0    0    0    0  0.00000000000E+00  0.00000000000E+00  0.45593999997E+02  0.45594000000E+02  0.51100000000E-03 0. -1.
         11   -1    0    0    0    0 -0.00000000000E+00 -0.00000000000E+00 -0.45593999997E+02  0.45594000000E+02  0.51100000000E-03 0.  1.
    9900012    2    1    2    0    0  0.55697212704E+01 -0.18045232074E+02 -0.25691808781E+02  0.59301933543E+02  0.49999980879E+02 0.  0.
         12    1    1    2    0    0 -0.55697212704E+01  0.18045232074E+02  0.25691808781E+02  0.31886066457E+02  0.00000000000E+00 0. -1.
         11    1    3    3    0    0 -0.69516473642E+01 -0.80241642951E+01 -0.14450674777E+02  0.17931386324E+02  0.51100000000E-03 0. -1.
        -11    1    3    3    0    0 -0.24743080199E+01 -0.15102197140E+02 -0.18452280106E+02  0.23972592684E+02  0.51100000000E-03 0.  1.
         12    1    3    3    0    0  0.14995676655E+02  0.50811293609E+01  0.72111461024E+01  0.17397954535E+02  0.00000000000E+00 0. -1.
</event>
<event>
 7    1  0.3461631E-013  0.5930194E+02  0.7816164E-02  0.1266605E+00
        -11   -1    0    0    0    0  0.00000000000E+00  0.00000000000E+00  0.45593999997E+02  0.45594000000E+02  0.51100000000E-03 0.  1.
         11   -1    0    0    0    0 -0.00000000000E+00 -0.00000000000E+00 -0.45593999997E+02  0.45594000000E+02  0.51100000000E-03 0. -1.
    9900012    2    1    2    0    0 -0.34487513337E+01  0.20745248875E+02  0.23967926261E+02  0.59301941512E+02  0.49999995411E+02 0.  0.
         12    1    1    2    0    0  0.34487513337E+01 -0.20745248875E+02 -0.23967926261E+02  0.31886058488E+02  0.00000000000E+00 0. -1.
         11    1    3    3    0    0  0.13877772472E+02  0.12926700079E+02  0.47655633317E+01  0.19555120502E+02  0.51100000000E-03 0. -1.
        -11    1    3    3    0    0 -0.87959098987E+01  0.18731657967E+02  0.13829239562E+02  0.24889574289E+02  0.51100000000E-03 0.  1.
        -12    1    3    3    0    0 -0.85306139067E+01 -0.10913109171E+02  0.53731233674E+01  0.14857246721E+02  0.00000000000E+00 0.  1.
</event>
<event>
 7    1  0.3461631E-013  0.5930193E+02  0.7816164E-02  0.1266605E+00
        -11   -1    0    0    0    0  0.00000000000E+00  0.00000000000E+00  0.45593999997E+02  0.45594000000E+02  0.51100000000E-03 0. -1.
         11   -1    0    0    0    0 -0.00000000000E+00 -0.00000000000E+00 -0.45593999997E+02  0.45594000000E+02  0.51100000000E-03 0.  1.
    9900012    2    1    2    0    0 -0.21992562993E+02 -0.22021736236E+02  0.69348227650E+01  0.59301929991E+02  0.49999974400E+02 0.  0.
         12    1    1    2    0    0  0.21992562993E+02  0.22021736236E+02 -0.69348227650E+01  0.31886070009E+02  0.00000000000E+00 0. -1.
         11    1    3    3    0    0 -0.61982979205E+01 -0.11574524808E+02  0.14303594890E+02  0.19416007537E+02  0.51100000000E-03 0. -1.
        -11    1    3    3    0    0 -0.72736665204E+01 -0.59726151083E+01  0.13758681469E+02  0.16669723210E+02  0.51100000000E-03 0.  1.
        -12    1    3    3    0    0 -0.85205985520E+01 -0.44745963201E+01 -0.21127453594E+02  0.23216199243E+02  0.00000000000E+00 0.  1.
</event>
<event>
 7    1  0.3461631E-013  0.5930195E+02  0.7816164E-02  0.1266605E+00
        -11   -1    0    0    0    0  0.00000000000E+00  0.00000000000E+00  0.45593999997E+02  0.45594000000E+02  0.51100000000E-03 0.  1.
         11   -1    0    0    0    0 -0.00000000000E+00 -0.00000000000E+00 -0.45593999997E+02  0.45594000000E+02  0.51100000000E-03 0. -1.
    9900012    2    1    2    0    0  0.22160093775E+02 -0.65901473367E+01  0.21959512389E+02  0.59301953171E+02  0.50000016675E+02 0.  0.
         12    1    1    2    0    0 -0.22160093775E+02  0.65901473367E+01 -0.21959512389E+02  0.31886046829E+02  0.00000000000E+00 0. -1.
         11    1    3    3    0    0 -0.31854284317E+01 -0.95352107980E+01  0.72163942408E+00  0.10079085424E+02  0.51100000000E-03 0. -1.
        -11    1    3    3    0    0  0.14258030073E+02 -0.37398592132E+01  0.30112272120E+02  0.33526510421E+02  0.51100000000E-03 0.  1.
         12    1    3    3    0    0  0.11087492133E+02  0.66849226745E+01 -0.88743991548E+01  0.15696357327E+02  0.00000000000E+00 0. -1.
</event>
<event>
 7    1  0.3461631E-013  0.5930188E+02  0.7816164E-02  0.1266605E+00
        -11   -1    0    0    0    0  0.00000000000E+00  0.00000000000E+00  0.45593999997E+02  0.45594000000E+02  0.51100000000E-03 0.  1.
         11   -1    0    0    0    0 -0.00000000000E+00 -0.00000000000E+00 -0.45593999997E+02  0.45594000000E+02  0.51100000000E-03 0. -1.
    9900012    2    1    2    0    0  0.24784131047E+01  0.30639183710E+02  0.84748212492E+01  0.59301879114E+02  0.49999881613E+02 0.  0.
         12    1    1    2    0    0 -0.24784131047E+01 -0.30639183710E+02 -0.84748212492E+01  0.31886120886E+02  0.00000000000E+00 0. -1.
         11    1    3    3    0    0  0.28688635321E+00 -0.58944030030E+01  0.12897963815E+01  0.60406841921E+01  0.51100000000E-03 0. -1.
        -11    1    3    3    0    0 -0.15647188393E+02  0.72812468165E+01 -0.29994423942E+01  0.17517069239E+02  0.51100000000E-03 0.  1.
        -12    1    3    3    0    0  0.17838715144E+02  0.29252339896E+02  0.10184467262E+02  0.35744125683E+02  0.00000000000E+00 0.  1.
</event>
<event>
 7    1  0.3461631E-013  0.5930191E+02  0.7816164E-02  0.1266605E+00
        -11   -1    0    0    0    0  0.00000000000E+00  0.00000000000E+00  0.45593999997E+02  0.45594000000E+02  0.51100000000E-03 0.  1.
         11   -1    0    0    0    0 -0.00000000000E+00 -0.00000000000E+00 -0.45593999997E+02  0.45594000000E+02  0.51100000000E-03 0. -1.
    9900012    2    1    2    0    0  0.25898928973E+02  0.11461209568E+02  0.14649539157E+02  0.59301908295E+02  0.49999934833E+02 0.  0.
         12    1    1    2    0    0 -0.25898928973E+02 -0.11461209568E+02 -0.14649539157E+02  0.31886091705E+02  0.00000000000E+00 0. -1.
         11    1    3    3    0    0 -0.15643967705E+01  0.14721920438E+02  0.10574967878E+01  0.14842526009E+02  0.51100000000E-03 0. -1.
        -11    1    3    3    0    0  0.48599162601E+01  0.13128472287E+02  0.75038190383E+01  0.15883414968E+02  0.51100000000E-03 0.  1.
        -12    1    3    3    0    0  0.22603409483E+02 -0.16389183157E+02  0.60882233305E+01  0.28575967318E+02  0.00000000000E+00 0.  1.
</event>
<event>
 7    1  0.3461631E-013  0.5930194E+02  0.7816164E-02  0.1266605E+00
        -11   -1    0    0    0    0  0.00000000000E+00  0.00000000000E+00  0.45593999997E+02  0.45594000000E+02  0.51100000000E-03 0. -1.
         11   -1    0    0    0    0 -0.00000000000E+00 -0.00000000000E+00 -0.45593999997E+02  0.45594000000E+02  0.51100000000E-03 0.  1.
    9900012    2    1    2    0    0 -0.31139749971E+02 -0.35173507518E+01  0.58877140965E+01  0.59301937812E+02  0.49999988664E+02 0.  0.
         12    1    1    2    0    0  0.31139749971E+02  0.35173507518E+01 -0.58877140965E+01  0.31886062188E+02  0.00000000000E+00 0. -1.
         11    1    3    3    0    0 -0.52580141835E+01  0.27257444728E+01  0.32257581992E+01  0.67440278992E+01  0.51100000000E-03 0. -1.
        -11    1    3    3    0    0 -0.88308085860E+01  0.12922442588E+02 -0.14788129563E+02  0.21532800072E+02  0.51100000000E-03 0.  1.
         12    1    3    3    0    0 -0.17050927202E+02 -0.19165537812E+02  0.17450085460E+02  0.31025109841E+02  0.00000000000E+00 0. -1.
</event>
<event>
 7    1  0.3461631E-013  0.5930194E+02  0.7816164E-02  0.1266605E+00
        -11   -1    0    0    0    0  0.00000000000E+00  0.00000000000E+00  0.45593999997E+02  0.45594000000E+02  0.51100000000E-03 0.  1.
         11   -1    0    0    0    0 -0.00000000000E+00 -0.00000000000E+00 -0.45593999997E+02  0.45594000000E+02  0.51100000000E-03 0. -1.
    9900012    2    1    2    0    0 -0.26301692321E+02 -0.17833626187E+02 -0.26274199223E+01  0.59301943841E+02  0.49999999660E+02 0.  0.
         12    1    1    2    0    0  0.26301692321E+02  0.17833626187E+02  0.26274199223E+01  0.31886056159E+02  0.00000000000E+00 0. -1.
         11    1    3    3    0    0 -0.18076505810E+02 -0.11839174205E+02 -0.89795006652E+01  0.23399947449E+02  0.51100000000E-03 0. -1.
        -11    1    3    3    0    0 -0.13314490571E+02 -0.12718673256E+02 -0.73393284614E+01  0.19821857912E+02  0.51100000000E-03 0.  1.
         12    1    3    3    0    0  0.50893040604E+01  0.67242212735E+01  0.13691409204E+02  0.16080138481E+02  0.00000000000E+00 0. -1.
</event>
<event>
 7    1  0.3461631E-013  0.5930193E+02  0.7816164E-02  0.1266605E+00
        -11   -1    0    0    0    0  0.00000000000E+00  0.00000000000E+00  0.45593999997E+02  0.45594000000E+02  0.51100000000E-03 0.  1.
         11   -1    0    0    0    0 -0.00000000000E+00 -0.00000000000E+00 -0.45593999997E+02  0.45594000000E+02  0.51100000000E-03 0. -1.
    9900012    2    1    2    0    0 -0.27582430845E+02  0.10887550760E+02  0.11721438397E+02  0.59301931397E+02  0.49999976964E+02 0.  0.
         12    1    1    2    0    0  0.27582430845E+02 -0.10887550760E+02 -0.11721438397E+02  0.31886068603E+02  0.00000000000E+00 0. -1.
         11    1    3    3    0    0 -0.42133571405E+01  0.85055192401E+01 -0.52603604285E+01  0.10852079434E+02  0.51100000000E-03 0. -1.
        -11    1    3    3    0    0 -0.32615178173E+02  0.12189096989E+01  0.20439762743E+02  0.38509992072E+02  0.51100000000E-03 0.  1.
        -12    1    3    3    0    0  0.92461044686E+01  0.11631218208E+01 -0.34579639170E+01  0.99398598916E+01  0.00000000000E+00 0.  1.
</event>
<event>
 7    1  0.3461631E-013  0.5930207E+02  0.7816164E-02  0.1266604E+00
        -11   -1    0    0    0    0  0.00000000000E+00  0.00000000000E+00  0.45593999997E+02  0.45594000000E+02  0.51100000000E-03 0.  1.
         11   -1    0    0    0    0 -0.00000000000E+00 -0.00000000000E+00 -0.45593999997E+02  0.45594000000E+02  0.51100000000E-03 0. -1.
    9900012    2    1    2    0    0  0.12972115534E+02  0.25961676045E+02  0.13207114508E+02  0.59302073981E+02  0.50000237002E+02 0.  0.
         12    1    1    2    0    0 -0.12972115534E+02 -0.25961676045E+02 -0.13207114508E+02  0.31885926019E+02  0.00000000000E+00 0. -1.
         11    1    3    3    0    0  0.41460190935E+01 -0.10414931469E+02  0.11170098606E+02  0.15825023695E+02  0.51100000000E-03 0. -1.
        -11    1    3    3    0    0 -0.34273788989E+01  0.30932106875E+01 -0.55377853310E+01  0.72098505607E+01  0.51100000000E-03 0.  1.
        -12    1    3    3    0    0  0.12253475339E+02  0.33283396826E+02  0.75748012334E+01  0.36267199725E+02  0.00000000000E+00 0.  1.
</event>
<event>
 7    1  0.3461631E-013  0.5930193E+02  0.7816164E-02  0.1266605E+00
        -11   -1    0    0    0    0  0.00000000000E+00  0.00000000000E+00  0.45593999997E+02  0.45594000000E+02  0.51100000000E-03 0.  1.
         11   -1    0    0    0    0 -0.00000000000E+00 -0.00000000000E+00 -0.45593999997E+02  0.45594000000E+02  0.51100000000E-03 0. -1.
    9900012    2    1    2    0    0 -0.16925878175E+02  0.26941527841E+02  0.20953473197E+01  0.59301925378E+02  0.49999965988E+02 0.  0.
         12    1    1    2    0    0  0.16925878175E+02 -0.26941527841E+02 -0.20953473197E+01  0.31886074622E+02  0.00000000000E+00 0. -1.
         11    1    3    3    0    0 -0.55973603262E+01  0.72430449930E+01 -0.11367935874E+02  0.14595276965E+02  0.51100000000E-03 0. -1.
        -11    1    3    3    0    0  0.67449296321E+01  0.20171485645E+02 -0.13805784658E+01  0.21314054190E+02  0.51100000000E-03 0.  1.
        -12    1    3    3    0    0 -0.18073447481E+02 -0.47300279704E+00  0.14843861660E+02  0.23392594222E+02  0.00000000000E+00 0.  1.
</event>
<event>
 7    1  0.3461631E-013  0.5930198E+02  0.7816164E-02  0.1266605E+00
        -11   -1    0    0    0    0  0.00000000000E+00  0.00000000000E+00  0.45593999997E+02  0.45594000000E+02  0.51100000000E-03 0.  1.
         11   -1    0    0    0    0 -0.00000000000E+00 -0.00000000000E+00 -0.45593999997E+02  0.45594000000E+02  0.51100000000E-03 0. -1.
    9900012    2    1    2    0    0 -0.12537464304E+02  0.27157984863E+02  0.11044197278E+02  0.59301977255E+02  0.50000060599E+02 0.  0.
         12    1    1    2    0    0  0.12537464304E+02 -0.27157984863E+02 -0.11044197278E+02  0.31886022745E+02  0.00000000000E+00 0. -1.
         11    1    3    3    0    0 -0.14207881050E+02  0.85631729626E+01  0.12851048342E+02  0.20984309826E+02  0.51100000000E-03 0. -1.
        -11    1    3    3    0    0  0.12041718990E+01 -0.62807063420E+01 -0.10218181438E+02  0.12054398959E+02  0.51100000000E-03 0.  1.
         12    1    3    3    0    0  0.46624484686E+00  0.24875518242E+02  0.84113303735E+01  0.26263268470E+02  0.00000000000E+00 0. -1.
</event>
<event>
 7    1  0.3461631E-013  0.5930194E+02  0.7816164E-02  0.1266605E+00
        -11   -1    0    0    0    0  0.00000000000E+00  0.00000000000E+00  0.45593999997E+02  0.45594000000E+02  0.51100000000E-03 0.  1.
         11   -1    0    0    0    0 -0.00000000000E+00 -0.00000000000E+00 -0.45593999997E+02  0.45594000000E+02  0.51100000000E-03 0. -1.
    9900012    2    1    2    0    0 -0.22232687553E+02 -0.18010204487E+00  0.22855977236E+02  0.59301944615E+02  0.50000001071E+02 0.  0.
         12    1    1    2    0    0  0.22232687553E+02  0.18010204487E+00 -0.22855977236E+02  0.31886055385E+02  0.00000000000E+00 0. -1.
         11    1    3    3    0    0 -0.34138297433E+01  0.18740256849E+02  0.11877546988E+01  0.19085654869E+02  0.51100000000E-03 0. -1.
        -11    1    3    3    0    0 -0.17667869449E+02 -0.31171418519E+01  0.12995935180E+02  0.22153205539E+02  0.51100000000E-03 0.  1.
        -12    1    3    3    0    0 -0.11509883610E+01 -0.15803217042E+02  0.86722873575E+01  0.18063084208E+02  0.00000000000E+00 0.  1.
</event>
<event>
 7    1  0.3461631E-013  0.5930194E+02  0.7816164E-02  0.1266605E+00
        -11   -1    0    0    0    0  0.00000000000E+00  0.00000000000E+00  0.45593999997E+02  0.45594000000E+02  0.51100000000E-03 0.  1.
         11   -1    0    0    0    0 -0.00000000000E+00 -0.00000000000E+00 -0.45593999997E+02  0.45594000000E+02  0.51100000000E-03 0. -1.
    9900012    2    1    2    0    0 -0.10926564855E+02 -0.10094943665E+02  0.28203246807E+02  0.59301939760E+02  0.49999992218E+02 0.  0.
         12    1    1    2    0    0  0.10926564855E+02  0.10094943665E+02 -0.28203246807E+02  0.31886060240E+02  0.00000000000E+00 0. -1.
         11    1    3    3    0    0 -0.36369419804E+01  0.60670656614E+00  0.13028090988E+02  0.13539815171E+02  0.51100000000E-03 0.  1.
        -11    1    3    3    0    0 -0.52195159311E+01 -0.18913377159E+02 -0.79235640614E+01  0.21159916111E+02  0.51100000000E-03 0. -1.
         12    1    3    3    0    0 -0.20701069436E+01  0.82117269276E+01  0.23098719881E+02  0.24602208478E+02  0.00000000000E+00 0. -1.
</event>
<event>
 7    1  0.3461631E-013  0.5930200E+02  0.7816164E-02  0.1266605E+00
        -11   -1    0    0    0    0  0.00000000000E+00  0.00000000000E+00  0.45593999997E+02  0.45594000000E+02  0.51100000000E-03 0.  1.
         11   -1    0    0    0    0 -0.00000000000E+00 -0.00000000000E+00 -0.45593999997E+02  0.45594000000E+02  0.51100000000E-03 0. -1.
    9900012    2    1    2    0    0  0.11840545726E+02 -0.79037761380E+01  0.28531545419E+02  0.59301995478E+02  0.50000093834E+02 0.  0.
         12    1    1    2    0    0 -0.11840545726E+02  0.79037761380E+01 -0.28531545419E+02  0.31886004522E+02  0.00000000000E+00 0. -1.
         11    1    3    3    0    0 -0.55874153516E+01  0.18200257607E+00 -0.79868542986E+01  0.97489577442E+01  0.51100000000E-03 0. -1.
        -11    1    3    3    0    0  0.17898520096E+02 -0.99327393089E+01  0.96734174981E+01  0.22640480078E+02  0.51100000000E-03 0.  1.
        -12    1    3    3    0    0 -0.47055901811E+00  0.18469605948E+01  0.26844982220E+02  0.26912557657E+02  0.00000000000E+00 0.  1.
</event>
<event>
 7    1  0.3461631E-013  0.5930196E+02  0.7816164E-02  0.1266605E+00
        -11   -1    0    0    0    0  0.00000000000E+00  0.00000000000E+00  0.45593999997E+02  0.45594000000E+02  0.51100000000E-03 0.  1.
         11   -1    0    0    0    0 -0.00000000000E+00 -0.00000000000E+00 -0.45593999997E+02  0.45594000000E+02  0.51100000000E-03 0. -1.
    9900012    2    1    2    0    0 -0.66484150932E+01  0.99927894493E+01  0.29540860960E+02  0.59301957121E+02  0.50000023878E+02 0.  0.
         12    1    1    2    0    0  0.66484150932E+01 -0.99927894493E+01 -0.29540860960E+02  0.31886042879E+02  0.00000000000E+00 0. -1.
         11    1    3    3    0    0 -0.13654296459E+02 -0.49023255735E+01  0.46379757215E+01  0.15231002162E+02  0.51100000000E-03 0. -1.
        -11    1    3    3    0    0 -0.39589974925E+01 -0.90139369731E+01  0.47288225087E+01  0.10921835170E+02  0.51100000000E-03 0.  1.
        -12    1    3    3    0    0  0.10964878858E+02  0.23909051996E+02  0.20174062730E+02  0.33149119788E+02  0.00000000000E+00 0.  1.
</event>
<event>
 7    1  0.3461631E-013  0.5930195E+02  0.7816164E-02  0.1266605E+00
        -11   -1    0    0    0    0  0.00000000000E+00  0.00000000000E+00  0.45593999997E+02  0.45594000000E+02  0.51100000000E-03 0.  1.
         11   -1    0    0    0    0 -0.00000000000E+00 -0.00000000000E+00 -0.45593999997E+02  0.45594000000E+02  0.51100000000E-03 0. -1.
    9900012    2    1    2    0    0  0.80237461201E+01 -0.29654090037E+02  0.85425303456E+01  0.59301946898E+02  0.50000005234E+02 0.  0.
         12    1    1    2    0    0 -0.80237461201E+01  0.29654090037E+02 -0.85425303456E+01  0.31886053102E+02  0.00000000000E+00 0. -1.
         11    1    3    3    0    0  0.10932330819E+02  0.17659677837E+01 -0.80297797749E+01  0.13678883830E+02  0.51100000000E-03 0. -1.
        -11    1    3    3    0    0  0.11185163784E+02 -0.21674985030E+02  0.48666500488E+01  0.24871613294E+02  0.51100000000E-03 0.  1.
         12    1    3    3    0    0 -0.14093748482E+02 -0.97450727910E+01  0.11705660072E+02  0.20751449773E+02  0.00000000000E+00 0. -1.
</event>
<event>
 7    1  0.3461631E-013  0.5930191E+02  0.7816164E-02  0.1266605E+00
        -11   -1    0    0    0    0  0.00000000000E+00  0.00000000000E+00  0.45593999997E+02  0.45594000000E+02  0.51100000000E-03 0.  1.
         11   -1    0    0    0    0 -0.00000000000E+00 -0.00000000000E+00 -0.45593999997E+02  0.45594000000E+02  0.51100000000E-03 0. -1.
    9900012    2    1    2    0    0 -0.17672080209E+02 -0.23514783940E+01  0.26436546929E+02  0.59301907686E+02  0.49999933721E+02 0.  0.
         12    1    1    2    0    0  0.17672080209E+02  0.23514783940E+01 -0.26436546929E+02  0.31886092314E+02  0.00000000000E+00 0. -1.
         11    1    3    3    0    0 -0.72230656554E+01 -0.37175473487E+01  0.45771340032E+01  0.93243225865E+01  0.51100000000E-03 0. -1.
        -11    1    3    3    0    0 -0.99962873507E+01 -0.19500602504E+02  0.18820037792E+02  0.28885863005E+02  0.51100000000E-03 0.  1.
         12    1    3    3    0    0 -0.45272720332E+00  0.20866671459E+02  0.30393751335E+01  0.21091722094E+02  0.00000000000E+00 0. -1.
</event>
<event>
 7    1  0.3461631E-013  0.5930191E+02  0.7816164E-02  0.1266605E+00
        -11   -1    0    0    0    0  0.00000000000E+00  0.00000000000E+00  0.45593999997E+02  0.45594000000E+02  0.51100000000E-03 0.  1.
         11   -1    0    0    0    0 -0.00000000000E+00 -0.00000000000E+00 -0.45593999997E+02  0.45594000000E+02  0.51100000000E-03 0. -1.
    9900012    2    1    2    0    0 -0.44193037220E+01  0.44857740589E+00  0.31575166800E+02  0.59301911724E+02  0.49999941085E+02 0.  0.
         12    1    1    2    0    0  0.44193037220E+01 -0.44857740589E+00 -0.31575166800E+02  0.31886088276E+02  0.00000000000E+00 0. -1.
         11    1    3    3    0    0 -0.11461113396E+02  0.71270411983E+01 -0.81162993614E+01  0.15748846056E+02  0.51100000000E-03 0. -1.
        -11    1    3    3    0    0 -0.15494835833E+01 -0.89076338384E+01  0.19230883351E+02  0.21250263873E+02  0.51100000000E-03 0.  1.
        -12    1    3    3    0    0  0.85912932569E+01  0.22291700459E+01  0.20460582811E+02  0.22302801795E+02  0.00000000000E+00 0.  1.
</event>
<event>
 7    1  0.3461631E-013  0.5930196E+02  0.7816164E-02  0.1266605E+00
        -11   -1    0    0    0    0  0.00000000000E+00  0.00000000000E+00  0.45593999997E+02  0.45594000000E+02  0.51100000000E-03 0.  1.
         11   -1    0    0    0    0 -0.00000000000E+00 -0.00000000000E+00 -0.45593999997E+02  0.45594000000E+02  0.51100000000E-03 0. -1.
    9900012    2    1    2    0    0  0.14724970557E+02 -0.20298480023E+01  0.28209478263E+02  0.59301957525E+02  0.50000024616E+02 0.  0.
         12    1    1    2    0    0 -0.14724970557E+02  0.20298480023E+01 -0.28209478263E+02  0.31886042475E+02  0.00000000000E+00 0. -1.
         11    1    3    3    0    0 -0.12347909258E+01  0.67325868845E+01 -0.56170034444E+01  0.88545560444E+01  0.51100000000E-03 0. -1.
        -11    1    3    3    0    0  0.11983002072E+01 -0.16885459857E+01 -0.65550972952E+01  0.68743299123E+01  0.51100000000E-03 0.  1.
        -12    1    3    3    0    0  0.14761461276E+02 -0.70738889011E+01  0.40381579003E+02  0.43573071569E+02  0.00000000000E+00 0.  1.
</event>
<event>
 7    1  0.3461631E-013  0.5930197E+02  0.7816164E-02  0.1266605E+00
        -11   -1    0    0    0    0  0.00000000000E+00  0.00000000000E+00  0.45593999997E+02  0.45594000000E+02  0.51100000000E-03 0. -1.
         11   -1    0    0    0    0 -0.00000000000E+00 -0.00000000000E+00 -0.45593999997E+02  0.45594000000E+02  0.51100000000E-03 0.  1.
    9900012    2    1    2    0    0 -0.25446278646E+01  0.41108668407E+01 -0.31517371043E+02  0.59301968033E+02  0.50000043780E+02 0.  0.
         12    1    1    2    0    0  0.25446278646E+01 -0.41108668407E+01  0.31517371043E+02  0.31886031967E+02  0.00000000000E+00 0. -1.
         11    1    3    3    0    0 -0.10310087434E+02  0.30640229979E+01 -0.14263675868E+02  0.17864450436E+02  0.51100000000E-03 0. -1.
        -11    1    3    3    0    0  0.16222804675E+02  0.10673743199E+02 -0.20480396157E+02  0.28223302649E+02  0.51100000000E-03 0.  1.
         12    1    3    3    0    0 -0.84573451053E+01 -0.96268993567E+01  0.32267009830E+01  0.13214214948E+02  0.00000000000E+00 0. -1.
</event>
<event>
 7    1  0.3461631E-013  0.5930195E+02  0.7816164E-02  0.1266605E+00
        -11   -1    0    0    0    0  0.00000000000E+00  0.00000000000E+00  0.45593999997E+02  0.45594000000E+02  0.51100000000E-03 0.  1.
         11   -1    0    0    0    0 -0.00000000000E+00 -0.00000000000E+00 -0.45593999997E+02  0.45594000000E+02  0.51100000000E-03 0. -1.
    9900012    2    1    2    0    0  0.18480394675E+02  0.12140836033E+02  0.22973795766E+02  0.59301950091E+02  0.50000011058E+02 0.  0.
         12    1    1    2    0    0 -0.18480394675E+02 -0.12140836033E+02 -0.22973795766E+02  0.31886049909E+02  0.00000000000E+00 0. -1.
         11    1    3    3    0    0  0.31962190025E+01  0.17404893766E+02  0.15735453049E+02  0.23680173687E+02  0.51100000000E-03 0. -1.
        -11    1    3    3    0    0  0.41091982213E+01  0.65224780820E+01  0.15565243184E+02  0.17369658200E+02  0.51100000000E-03 0.  1.
         12    1    3    3    0    0  0.11174977451E+02 -0.11786535815E+02 -0.83269004673E+01  0.18252118204E+02  0.00000000000E+00 0. -1.
</event>
<event>
 7    1  0.3461631E-013  0.5930188E+02  0.7816164E-02  0.1266605E+00
        -11   -1    0    0    0    0  0.00000000000E+00  0.00000000000E+00  0.45593999997E+02  0.45594000000E+02  0.51100000000E-03 0.  1.
         11   -1    0    0    0    0 -0.00000000000E+00 -0.00000000000E+00 -0.45593999997E+02  0.45594000000E+02  0.51100000000E-03 0. -1.
    9900012    2    1    2    0    0  0.13895156185E+02 -0.28699279664E+02 -0.19413929885E-01  0.59301883969E+02  0.49999890467E+02 0.  0.
         12    1    1    2    0    0 -0.13895156185E+02  0.28699279664E+02  0.19413929885E-01  0.31886116031E+02  0.00000000000E+00 0. -1.
         11    1    3    3    0    0  0.71622381546E+01 -0.47559898426E+01 -0.18605441875E+02  0.20495842564E+02  0.51100000000E-03 0. -1.
        -11    1    3    3    0    0  0.37567343551E+01 -0.36173398829E+01 -0.52085167787E+01  0.73706748768E+01  0.51100000000E-03 0.  1.
        -12    1    3    3    0    0  0.29761836750E+01 -0.20325949939E+02  0.23794544724E+02  0.31435366529E+02  0.00000000000E+00 0.  1.
</event>
<event>
 7    1  0.3461631E-013  0.5930194E+02  0.7816164E-02  0.1266605E+00
        -11   -1    0    0    0    0  0.00000000000E+00  0.00000000000E+00  0.45593999997E+02  0.45594000000E+02  0.51100000000E-03 0.  1.
         11   -1    0    0    0    0 -0.00000000000E+00 -0.00000000000E+00 -0.45593999997E+02  0.45594000000E+02  0.51100000000E-03 0. -1.
    9900012    2    1    2    0    0  0.41807198605E+01  0.18686580228E+02  0.25496163638E+02  0.59301936282E+02  0.49999985874E+02 0.  0.
         12    1    1    2    0    0 -0.41807198605E+01 -0.18686580228E+02 -0.25496163638E+02  0.31886063718E+02  0.00000000000E+00 0. -1.
         11    1    3    3    0    0 -0.22224754293E+01  0.11698320008E+01  0.52581289677E+01  0.58271626411E+01  0.51100000000E-03 0. -1.
        -11    1    3    3    0    0 -0.12839321336E+02 -0.13383535983E+01  0.23018585580E+02  0.26391184988E+02  0.51100000000E-03 0.  1.
         12    1    3    3    0    0  0.19242516625E+02  0.18855101826E+02 -0.27805509102E+01  0.27083588653E+02  0.00000000000E+00 0. -1.
</event>
<event>
 7    1  0.3461631E-013  0.5930193E+02  0.7816164E-02  0.1266605E+00
        -11   -1    0    0    0    0  0.00000000000E+00  0.00000000000E+00  0.45593999997E+02  0.45594000000E+02  0.51100000000E-03 0. -1.
         11   -1    0    0    0    0 -0.00000000000E+00 -0.00000000000E+00 -0.45593999997E+02  0.45594000000E+02  0.51100000000E-03 0.  1.
    9900012    2    1    2    0    0 -0.17780588863E+02  0.22863900487E+02 -0.13334690068E+02  0.59301933372E+02  0.49999980567E+02 0.  0.
         12    1    1    2    0    0  0.17780588863E+02 -0.22863900487E+02  0.13334690068E+02  0.31886066628E+02  0.00000000000E+00 0. -1.
         11    1    3    3    0    0 -0.35856927109E+00 -0.73442092250E+01  0.11595051857E+02  0.13729938415E+02  0.51100000000E-03 0. -1.
        -11    1    3    3    0    0 -0.79211361996E+01  0.19646228160E+01 -0.35653040092E+01  0.89059269277E+01  0.51100000000E-03 0.  1.
        -12    1    3    3    0    0 -0.95008833925E+01  0.28243486896E+02 -0.21364437915E+02  0.36666068029E+02  0.00000000000E+00 0.  1.
</event>
<event>
 7    1  0.3461631E-013  0.5930180E+02  0.7816164E-02  0.1266605E+00
        -11   -1    0    0    0    0  0.00000000000E+00  0.00000000000E+00  0.45593999997E+02  0.45594000000E+02  0.51100000000E-03 0. -1.
         11   -1    0    0    0    0 -0.00000000000E+00 -0.00000000000E+00 -0.45593999997E+02  0.45594000000E+02  0.51100000000E-03 0.  1.
    9900012    2    1    2    0    0 -0.25928411321E+02 -0.86349854757E+01 -0.16428152186E+02  0.59301801229E+02  0.49999739569E+02 0.  0.
         12    1    1    2    0    0  0.25928411321E+02  0.86349854757E+01  0.16428152186E+02  0.31886198771E+02  0.00000000000E+00 0. -1.
         11    1    3    3    0    0 -0.35545479095E+02 -0.71596922753E+01 -0.16895963852E+02  0.40002698313E+02  0.51100000000E-03 0.  1.
        -11    1    3    3    0    0  0.63201697195E+01 -0.24377865991E+01 -0.78091789043E+01  0.10337824926E+02  0.51100000000E-03 0. -1.
        -12    1    3    3    0    0  0.32968980540E+01  0.96249339874E+00  0.82769905699E+01  0.89612779901E+01  0.00000000000E+00 0.  1.
</event>
<event>
 7    1  0.3461631E-013  0.5930195E+02  0.7816164E-02  0.1266605E+00
        -11   -1    0    0    0    0  0.00000000000E+00  0.00000000000E+00  0.45593999997E+02  0.45594000000E+02  0.51100000000E-03 0. -1.
         11   -1    0    0    0    0 -0.00000000000E+00 -0.00000000000E+00 -0.45593999997E+02  0.45594000000E+02  0.51100000000E-03 0.  1.
    9900012    2    1    2    0    0 -0.10993552900E+02 -0.24808897965E+02 -0.16744562293E+02  0.59301953052E+02  0.50000016457E+02 0.  0.
         12    1    1    2    0    0  0.10993552900E+02  0.24808897965E+02  0.16744562293E+02  0.31886046948E+02  0.00000000000E+00 0. -1.
         11    1    3    3    0    0  0.20468382998E+01 -0.59596769676E+01 -0.65017319530E+01  0.90542705522E+01  0.51100000000E-03 0. -1.
        -11    1    3    3    0    0  0.90867118860E+01  0.94160612401E+01 -0.69759125473E+00  0.13104090048E+02  0.51100000000E-03 0.  1.
         12    1    3    3    0    0 -0.22127103086E+02 -0.28265282238E+02 -0.95452390853E+01  0.37143592451E+02  0.00000000000E+00 0. -1.
</event>
<event>
 7    1  0.3461631E-013  0.5930195E+02  0.7816164E-02  0.1266605E+00
        -11   -1    0    0    0    0  0.00000000000E+00  0.00000000000E+00  0.45593999997E+02  0.45594000000E+02  0.51100000000E-03 0. -1.
         11   -1    0    0    0    0 -0.00000000000E+00 -0.00000000000E+00 -0.45593999997E+02  0.45594000000E+02  0.51100000000E-03 0.  1.
    9900012    2    1    2    0    0 -0.82385546989E+01  0.30565364995E+02  0.38216625286E+01  0.59301946226E+02  0.50000004009E+02 0.  0.
         12    1    1    2    0    0  0.82385546989E+01 -0.30565364995E+02 -0.38216625286E+01  0.31886053774E+02  0.00000000000E+00 0. -1.
         11    1    3    3    0    0 -0.53240054009E+00  0.17671230718E+02 -0.12384910543E+02  0.21585686342E+02  0.51100000000E-03 0. -1.
        -11    1    3    3    0    0 -0.12046320062E+01  0.53276973880E+01 -0.90445411214E+01  0.10565946341E+02  0.51100000000E-03 0.  1.
         12    1    3    3    0    0 -0.65015221526E+01  0.75664368892E+01  0.25251114193E+02  0.27150313543E+02  0.00000000000E+00 0. -1.
</event>
<event>
 7    1  0.3461631E-013  0.5930195E+02  0.7816164E-02  0.1266605E+00
        -11   -1    0    0    0    0  0.00000000000E+00  0.00000000000E+00  0.45593999997E+02  0.45594000000E+02  0.51100000000E-03 0.  1.
         11   -1    0    0    0    0 -0.00000000000E+00 -0.00000000000E+00 -0.45593999997E+02  0.45594000000E+02  0.51100000000E-03 0. -1.
    9900012    2    1    2    0    0 -0.30447836794E+02 -0.81032959258E+01 -0.48975771550E+01  0.59301946116E+02  0.50000003809E+02 0.  0.
         12    1    1    2    0    0  0.30447836794E+02  0.81032959258E+01  0.48975771550E+01  0.31886053884E+02  0.00000000000E+00 0. -1.
         11    1    3    3    0    0 -0.15366969849E+02  0.41018818042E+01  0.13126230895E+02  0.20622006073E+02  0.51100000000E-03 0. -1.
        -11    1    3    3    0    0 -0.17159616565E+02 -0.17068108377E+01  0.53929208370E+00  0.17252723846E+02  0.51100000000E-03 0.  1.
         12    1    3    3    0    0  0.20787496207E+01 -0.10498366892E+02 -0.18563100134E+02  0.21427216197E+02  0.00000000000E+00 0. -1.
</event>
<event>
 7    1  0.3461631E-013  0.5930194E+02  0.7816164E-02  0.1266605E+00
        -11   -1    0    0    0    0  0.00000000000E+00  0.00000000000E+00  0.45593999997E+02  0.45594000000E+02  0.51100000000E-03 0.  1.
         11   -1    0    0    0    0 -0.00000000000E+00 -0.00000000000E+00 -0.45593999997E+02  0.45594000000E+02  0.51100000000E-03 0. -1.
    9900012    2    1    2    0    0 -0.13141302509E+02 -0.10290795091E+02  0.27168484841E+02  0.59301939350E+02  0.49999991469E+02 0.  0.
         12    1    1    2    0    0  0.13141302509E+02  0.10290795091E+02 -0.27168484841E+02  0.31886060650E+02  0.00000000000E+00 0. -1.
         11    1    3    3    0    0 -0.10081110084E+02  0.15133693917E+02  0.29494233503E+01  0.18421633219E+02  0.51100000000E-03 0. -1.
        -11    1    3    3    0    0 -0.52899795836E+01  0.12233104198E+01  0.11194318082E+01  0.55437803178E+01  0.51100000000E-03 0.  1.
         12    1    3    3    0    0  0.22297871586E+01 -0.26647799428E+02  0.23099629682E+02  0.35336525813E+02  0.00000000000E+00 0. -1.
</event>
<event>
 7    1  0.3461631E-013  0.5930205E+02  0.7816164E-02  0.1266604E+00
        -11   -1    0    0    0    0  0.00000000000E+00  0.00000000000E+00  0.45593999997E+02  0.45594000000E+02  0.51100000000E-03 0. -1.
         11   -1    0    0    0    0 -0.00000000000E+00 -0.00000000000E+00 -0.45593999997E+02  0.45594000000E+02  0.51100000000E-03 0.  1.
    9900012    2    1    2    0    0 -0.65396170262E+01  0.54223847744E+01 -0.30733453327E+02  0.59302046966E+02  0.50000187734E+02 0.  0.
         12    1    1    2    0    0  0.65396170262E+01 -0.54223847744E+01  0.30733453327E+02  0.31885953034E+02  0.00000000000E+00 0. -1.
         11    1    3    3    0    0  0.60290068465E+01  0.54317304018E+01 -0.42875248455E+01  0.91779893373E+01  0.51100000000E-03 0. -1.
        -11    1    3    3    0    0  0.14282759171E+02 -0.23224103349E+01 -0.15004153460E+02  0.20845033475E+02  0.51100000000E-03 0.  1.
         12    1    3    3    0    0 -0.26851383043E+02  0.23130647075E+01 -0.11441775022E+02  0.29279024153E+02  0.00000000000E+00 0. -1.
</event>
<event>
 7    1  0.3461631E-013  0.5930193E+02  0.7816164E-02  0.1266605E+00
        -11   -1    0    0    0    0  0.00000000000E+00  0.00000000000E+00  0.45593999997E+02  0.45594000000E+02  0.51100000000E-03 0.  1.
         11   -1    0    0    0    0 -0.00000000000E+00 -0.00000000000E+00 -0.45593999997E+02  0.45594000000E+02  0.51100000000E-03 0. -1.
    9900012    2    1    2    0    0  0.30689963232E+02  0.79109490456E+01  0.35020343335E+01  0.59301934039E+02  0.49999981783E+02 0.  0.
         12    1    1    2    0    0 -0.30689963232E+02 -0.79109490456E+01 -0.35020343335E+01  0.31886065961E+02  0.00000000000E+00 0. -1.
         11    1    3    3    0    0  0.50537751119E+01 -0.11023981015E+02  0.77693438909E+00  0.12152054461E+02  0.51100000000E-03 0. -1.
        -11    1    3    3    0    0 -0.13298141499E+01 -0.56447561974E+00  0.12408347078E+02  0.12492162178E+02  0.51100000000E-03 0.  1.
         12    1    3    3    0    0  0.26966002270E+02  0.19499405681E+02 -0.96832471339E+01  0.34657717400E+02  0.00000000000E+00 0. -1.
</event>
<event>
 7    1  0.3461631E-013  0.5930193E+02  0.7816164E-02  0.1266605E+00
        -11   -1    0    0    0    0  0.00000000000E+00  0.00000000000E+00  0.45593999997E+02  0.45594000000E+02  0.51100000000E-03 0. -1.
         11   -1    0    0    0    0 -0.00000000000E+00 -0.00000000000E+00 -0.45593999997E+02  0.45594000000E+02  0.51100000000E-03 0.  1.
    9900012    2    1    2    0    0  0.34726285490E+01  0.22583248869E+02 -0.22240934585E+02  0.59301930161E+02  0.49999974711E+02 0.  0.
         12    1    1    2    0    0 -0.34726285490E+01 -0.22583248869E+02  0.22240934585E+02  0.31886069839E+02  0.00000000000E+00 0. -1.
         11    1    3    3    0    0 -0.14893944272E+01 -0.25316150320E+00  0.53195416827E+00  0.16016747500E+01  0.51100000000E-03 0. -1.
        -11    1    3    3    0    0 -0.30903993277E+01 -0.78029788499E+01  0.93634521678E+01  0.12574230939E+02  0.51100000000E-03 0.  1.
        -12    1    3    3    0    0  0.80524223039E+01  0.30639389222E+02 -0.32136340922E+02  0.45126024473E+02  0.00000000000E+00 0.  1.
</event>
<event>
 7    1  0.3461631E-013  0.5930221E+02  0.7816164E-02  0.1266604E+00
        -11   -1    0    0    0    0  0.00000000000E+00  0.00000000000E+00  0.45593999997E+02  0.45594000000E+02  0.51100000000E-03 0. -1.
         11   -1    0    0    0    0 -0.00000000000E+00 -0.00000000000E+00 -0.45593999997E+02  0.45594000000E+02  0.51100000000E-03 0.  1.
    9900012    2    1    2    0    0  0.26751696778E+02  0.50345256149E+01 -0.16604323888E+02  0.59302214759E+02  0.50000493746E+02 0.  0.
         12    1    1    2    0    0 -0.26751696778E+02 -0.50345256149E+01  0.16604323888E+02  0.31885785241E+02  0.00000000000E+00 0. -1.
         11    1    3    3    0    0 -0.24924001381E+01 -0.23288195643E+01 -0.29960552392E+01  0.45400227168E+01  0.51100000000E-03 0. -1.
        -11    1    3    3    0    0  0.95872057053E+01 -0.13909038504E+02 -0.18867092320E+02  0.25324751494E+02  0.51100000000E-03 0.  1.
        -12    1    3    3    0    0  0.19656891210E+02  0.21272383683E+02  0.52588236711E+01  0.29437440548E+02  0.00000000000E+00 0.  1.
</event>
<event>
 7    1  0.3461631E-013  0.5930194E+02  0.7816164E-02  0.1266605E+00
        -11   -1    0    0    0    0  0.00000000000E+00  0.00000000000E+00  0.45593999997E+02  0.45594000000E+02  0.51100000000E-03 0.  1.
         11   -1    0    0    0    0 -0.00000000000E+00 -0.00000000000E+00 -0.45593999997E+02  0.45594000000E+02  0.51100000000E-03 0. -1.
    9900012    2    1    2    0    0  0.15567486714E+01 -0.13047539179E+02  0.29052697877E+02  0.59301937229E+02  0.49999987601E+02 0.  0.
         12    1    1    2    0    0 -0.15567486714E+01  0.13047539179E+02 -0.29052697877E+02  0.31886062771E+02  0.00000000000E+00 0. -1.
         11    1    3    3    0    0 -0.65030710312E+01 -0.70041075699E+01 -0.33567238253E+00  0.95634790687E+01  0.51100000000E-03 0. -1.
        -11    1    3    3    0    0 -0.77688827880E+01 -0.16287911416E+02  0.46522737381E+01  0.18635859231E+02  0.51100000000E-03 0.  1.
        -12    1    3    3    0    0  0.15828702491E+02  0.10244479807E+02  0.24736096522E+02  0.31102598930E+02  0.00000000000E+00 0.  1.
</event>
<event>
 7    1  0.3461631E-013  0.5930191E+02  0.7816164E-02  0.1266605E+00
        -11   -1    0    0    0    0  0.00000000000E+00  0.00000000000E+00  0.45593999997E+02  0.45594000000E+02  0.51100000000E-03 0.  1.
         11   -1    0    0    0    0 -0.00000000000E+00 -0.00000000000E+00 -0.45593999997E+02  0.45594000000E+02  0.51100000000E-03 0. -1.
    9900012    2    1    2    0    0  0.11678512305E+02 -0.12368618303E+02  0.26969474910E+02  0.59301906710E+02  0.49999931941E+02 0.  0.
         12    1    1    2    0    0 -0.11678512305E+02  0.12368618303E+02 -0.26969474910E+02  0.31886093290E+02  0.00000000000E+00 0. -1.
         11    1    3    3    0    0  0.29821908365E+01  0.93448214317E+01  0.13609138704E+02  0.16775810154E+02  0.51100000000E-03 0. -1.
        -11    1    3    3    0    0  0.93595014321E+01  0.69471934678E+01  0.29235315158E+01  0.12017104515E+02  0.51100000000E-03 0.  1.
        -12    1    3    3    0    0 -0.66317996346E+00 -0.28660633203E+02  0.10436804690E+02  0.30508992041E+02  0.00000000000E+00 0.  1.
</event>
<event>
 7    1  0.3461631E-013  0.5930190E+02  0.7816164E-02  0.1266605E+00
        -11   -1    0    0    0    0  0.00000000000E+00  0.00000000000E+00  0.45593999997E+02  0.45594000000E+02  0.51100000000E-03 0.  1.
         11   -1    0    0    0    0 -0.00000000000E+00 -0.00000000000E+00 -0.45593999997E+02  0.45594000000E+02  0.51100000000E-03 0. -1.
    9900012    2    1    2    0    0  0.20346222012E+01  0.12835581853E+02  0.29117548370E+02  0.59301898449E+02  0.49999916876E+02 0.  0.
         12    1    1    2    0    0 -0.20346222012E+01 -0.12835581853E+02 -0.29117548370E+02  0.31886101551E+02  0.00000000000E+00 0. -1.
         11    1    3    3    0    0  0.39649110845E+01  0.17136657269E+02  0.64575593704E+01  0.18737278766E+02  0.51100000000E-03 0. -1.
        -11    1    3    3    0    0  0.48652576906E+01  0.13316956262E+01  0.29166273817E+02  0.29599251245E+02  0.51100000000E-03 0.  1.
         12    1    3    3    0    0 -0.67955465739E+01 -0.56327710423E+01 -0.65062848176E+01  0.10965368438E+02  0.00000000000E+00 0. -1.
</event>
<event>
 7    1  0.3461631E-013  0.5930194E+02  0.7816164E-02  0.1266605E+00
        -11   -1    0    0    0    0  0.00000000000E+00  0.00000000000E+00  0.45593999997E+02  0.45594000000E+02  0.51100000000E-03 0.  1.
         11   -1    0    0    0    0 -0.00000000000E+00 -0.00000000000E+00 -0.45593999997E+02  0.45594000000E+02  0.51100000000E-03 0. -1.
    9900012    2    1    2    0    0 -0.18425974129E+02 -0.85938232111E+01  0.24563194559E+02  0.59301939614E+02  0.49999991951E+02 0.  0.
         12    1    1    2    0    0  0.18425974129E+02  0.85938232111E+01 -0.24563194559E+02  0.31886060386E+02  0.00000000000E+00 0. -1.
         11    1    3    3    0    0 -0.22919904695E+02 -0.32349024182E+01  0.15778237777E+02  0.28013200683E+02  0.51100000000E-03 0. -1.
        -11    1    3    3    0    0 -0.88287158166E+01 -0.10439036203E+01  0.13798392137E+02  0.16414371251E+02  0.51100000000E-03 0.  1.
        -12    1    3    3    0    0  0.13322646382E+02 -0.43150171726E+01 -0.50134353555E+01  0.14874367680E+02  0.00000000000E+00 0.  1.
</event>
<event>
 7    1  0.3461631E-013  0.5930194E+02  0.7816164E-02  0.1266605E+00
        -11   -1    0    0    0    0  0.00000000000E+00  0.00000000000E+00  0.45593999997E+02  0.45594000000E+02  0.51100000000E-03 0.  1.
         11   -1    0    0    0    0 -0.00000000000E+00 -0.00000000000E+00 -0.45593999997E+02  0.45594000000E+02  0.51100000000E-03 0. -1.
    9900012    2    1    2    0    0  0.11868024790E+02  0.24438355078E+02  0.16692437770E+02  0.59301942075E+02  0.49999996438E+02 0.  0.
         12    1    1    2    0    0 -0.11868024790E+02 -0.24438355078E+02 -0.16692437770E+02  0.31886057925E+02  0.00000000000E+00 0. -1.
         11    1    3    3    0    0  0.64235583945E+01  0.33682161883E+02  0.64272555586E+01  0.34886383388E+02  0.51100000000E-03 0. -1.
        -11    1    3    3    0    0  0.79330819719E+01  0.27729376161E+01  0.86122129320E+01  0.12033003966E+02  0.51100000000E-03 0.  1.
        -12    1    3    3    0    0 -0.24886155766E+01 -0.12016744422E+02  0.16529692792E+01  0.12382554721E+02  0.00000000000E+00 0.  1.
</event>
<event>
 7    1  0.3461631E-013  0.5930194E+02  0.7816164E-02  0.1266605E+00
        -11   -1    0    0    0    0  0.00000000000E+00  0.00000000000E+00  0.45593999997E+02  0.45594000000E+02  0.51100000000E-03 0.  1.
         11   -1    0    0    0    0 -0.00000000000E+00 -0.00000000000E+00 -0.45593999997E+02  0.45594000000E+02  0.51100000000E-03 0. -1.
    9900012    2    1    2    0    0  0.12890606303E+02  0.42846492018E+01  0.28847793395E+02  0.59301935122E+02  0.49999983759E+02 0.  0.
         12    1    1    2    0    0 -0.12890606303E+02 -0.42846492018E+01 -0.28847793395E+02  0.31886064878E+02  0.00000000000E+00 0. -1.
         11    1    3    3    0    0 -0.95824693738E+01  0.23225290668E+01  0.19085134269E+02  0.21481624960E+02  0.51100000000E-03 0. -1.
        -11    1    3    3    0    0  0.25337826825E+01  0.73246692904E+01  0.14675187438E+02  0.16596142971E+02  0.51100000000E-03 0.  1.
         12    1    3    3    0    0  0.19939292994E+02 -0.53625491554E+01 -0.49125283133E+01  0.21224167192E+02  0.00000000000E+00 0. -1.
</event>
<event>
 7    1  0.3461631E-013  0.5930194E+02  0.7816164E-02  0.1266605E+00
        -11   -1    0    0    0    0  0.00000000000E+00  0.00000000000E+00  0.45593999997E+02  0.45594000000E+02  0.51100000000E-03 0.  1.
         11   -1    0    0    0    0 -0.00000000000E+00 -0.00000000000E+00 -0.45593999997E+02  0.45594000000E+02  0.51100000000E-03 0. -1.
    9900012    2    1    2    0    0 -0.29537863012E+02  0.11355285782E+02  0.39106099563E+01  0.59301941342E+02  0.49999995101E+02 0.  0.
         12    1    1    2    0    0  0.29537863012E+02 -0.11355285782E+02 -0.39106099563E+01  0.31886058658E+02  0.00000000000E+00 0. -1.
         11    1    3    3    0    0 -0.10381754234E+02  0.29567138495E+01  0.35376138066E+01  0.11359475757E+02  0.51100000000E-03 0. -1.
        -11    1    3    3    0    0 -0.33121600657E+02  0.64183678108E+01  0.16608871774E+01  0.33778608939E+02  0.51100000000E-03 0.  1.
         12    1    3    3    0    0  0.13965491878E+02  0.19802041219E+01 -0.12878910278E+01  0.14163856645E+02  0.00000000000E+00 0. -1.
</event>
<event>
 7    1  0.3461631E-013  0.5930193E+02  0.7816164E-02  0.1266605E+00
        -11   -1    0    0    0    0  0.00000000000E+00  0.00000000000E+00  0.45593999997E+02  0.45594000000E+02  0.51100000000E-03 0. -1.
         11   -1    0    0    0    0 -0.00000000000E+00 -0.00000000000E+00 -0.45593999997E+02  0.45594000000E+02  0.51100000000E-03 0.  1.
    9900012    2    1    2    0    0 -0.64971440204E+01  0.12179083847E+02 -0.28743315901E+02  0.59301934505E+02  0.49999982632E+02 0.  0.
         12    1    1    2    0    0  0.64971440204E+01 -0.12179083847E+02  0.28743315901E+02  0.31886065495E+02  0.00000000000E+00 0. -1.
         11    1    3    3    0    0 -0.25710569931E+01 -0.33818252539E+01  0.34186760348E+01  0.54529278559E+01  0.51100000000E-03 0. -1.
        -11    1    3    3    0    0 -0.47493278581E+01 -0.13391157697E+02 -0.11302920426E+02  0.18155859385E+02  0.51100000000E-03 0.  1.
        -12    1    3    3    0    0  0.82324083079E+00  0.28952066798E+02 -0.20859071510E+02  0.35693147264E+02  0.00000000000E+00 0.  1.
</event>
<event>
 7    1  0.3461631E-013  0.5930197E+02  0.7816164E-02  0.1266605E+00
        -11   -1    0    0    0    0  0.00000000000E+00  0.00000000000E+00  0.45593999997E+02  0.45594000000E+02  0.51100000000E-03 0.  1.
         11   -1    0    0    0    0 -0.00000000000E+00 -0.00000000000E+00 -0.45593999997E+02  0.45594000000E+02  0.51100000000E-03 0. -1.
    9900012    2    1    2    0    0  0.10498292250E+02  0.15271791206E+02  0.25947579307E+02  0.59301974555E+02  0.50000055674E+02 0.  0.
         12    1    1    2    0    0 -0.10498292250E+02 -0.15271791206E+02 -0.25947579307E+02  0.31886025445E+02  0.00000000000E+00 0. -1.
         11    1    3    3    0    0  0.11121135745E+02  0.12619081764E+02  0.26472925236E+02  0.31364576446E+02  0.51100000000E-03 0. -1.
        -11    1    3    3    0    0  0.64566723039E+01 -0.10219924279E+02 -0.41936220115E+01  0.12795387268E+02  0.51100000000E-03 0.  1.
         12    1    3    3    0    0 -0.70795157994E+01  0.12872633722E+02  0.36682760825E+01  0.15142010841E+02  0.00000000000E+00 0. -1.
</event>
<event>
 7    1  0.3461631E-013  0.5930194E+02  0.7816164E-02  0.1266605E+00
        -11   -1    0    0    0    0  0.00000000000E+00  0.00000000000E+00  0.45593999997E+02  0.45594000000E+02  0.51100000000E-03 0.  1.
         11   -1    0    0    0    0 -0.00000000000E+00 -0.00000000000E+00 -0.45593999997E+02  0.45594000000E+02  0.51100000000E-03 0. -1.
    9900012    2    1    2    0    0  0.14785438685E+02  0.25427390381E+02  0.12310936927E+02  0.59301944322E+02  0.50000000536E+02 0.  0.
         12    1    1    2    0    0 -0.14785438685E+02 -0.25427390381E+02 -0.12310936927E+02  0.31886055678E+02  0.00000000000E+00 0. -1.
         11    1    3    3    0    0  0.89574713983E+01 -0.27223620546E+01  0.10991369215E+02  0.14438065884E+02  0.51100000000E-03 0. -1.
        -11    1    3    3    0    0 -0.19842942877E+01 -0.52241916028E+01 -0.76120939107E+01  0.94431761441E+01  0.51100000000E-03 0.  1.
        -12    1    3    3    0    0  0.78122615743E+01  0.33373944038E+02  0.89316616229E+01  0.35420702293E+02  0.00000000000E+00 0.  1.
</event>
<event>
 7    1  0.3461631E-013  0.5930197E+02  0.7816164E-02  0.1266605E+00
        -11   -1    0    0    0    0  0.00000000000E+00  0.00000000000E+00  0.45593999997E+02  0.45594000000E+02  0.51100000000E-03 0. -1.
         11   -1    0    0    0    0 -0.00000000000E+00 -0.00000000000E+00 -0.45593999997E+02  0.45594000000E+02  0.51100000000E-03 0.  1.
    9900012    2    1    2    0    0 -0.12011437611E+02  0.21219924018E+02 -0.20546514178E+02  0.59301967734E+02  0.50000043235E+02 0.  0.
         12    1    1    2    0    0  0.12011437611E+02 -0.21219924018E+02  0.20546514178E+02  0.31886032266E+02  0.00000000000E+00 0. -1.
         11    1    3    3    0    0 -0.16349562639E+02  0.66580064057E+01 -0.11389584109E+01  0.17689954050E+02  0.51100000000E-03 0. -1.
        -11    1    3    3    0    0 -0.33824168087E+01 -0.93160380112E+01 -0.37948253064E-01  0.99111426196E+01  0.51100000000E-03 0.  1.
         12    1    3    3    0    0  0.77205418368E+01  0.23877955623E+02 -0.19369607514E+02  0.31700871064E+02  0.00000000000E+00 0. -1.
</event>
<event>
 7    1  0.3461631E-013  0.5930197E+02  0.7816164E-02  0.1266605E+00
        -11   -1    0    0    0    0  0.00000000000E+00  0.00000000000E+00  0.45593999997E+02  0.45594000000E+02  0.51100000000E-03 0.  1.
         11   -1    0    0    0    0 -0.00000000000E+00 -0.00000000000E+00 -0.45593999997E+02  0.45594000000E+02  0.51100000000E-03 0. -1.
    9900012    2    1    2    0    0  0.70590337003E+01  0.29892010604E+02  0.85648663489E+01  0.59301965591E+02  0.50000039327E+02 0.  0.
         12    1    1    2    0    0 -0.70590337003E+01 -0.29892010604E+02 -0.85648663489E+01  0.31886034409E+02  0.00000000000E+00 0. -1.
         11    1    3    3    0    0 -0.25972719930E+01  0.46775909734E+01 -0.43642714328E+00  0.53680674392E+01  0.51100000000E-03 0. -1.
        -11    1    3    3    0    0  0.38449556402E+01  0.38492099343E+02  0.65834339825E+01  0.39239864921E+02  0.51100000000E-03 0.  1.
         12    1    3    3    0    0  0.58113500531E+01 -0.13277679713E+02  0.24178595097E+01  0.14694033231E+02  0.00000000000E+00 0. -1.
</event>
<event>
 7    1  0.3461631E-013  0.5930199E+02  0.7816164E-02  0.1266605E+00
        -11   -1    0    0    0    0  0.00000000000E+00  0.00000000000E+00  0.45593999997E+02  0.45594000000E+02  0.51100000000E-03 0.  1.
         11   -1    0    0    0    0 -0.00000000000E+00 -0.00000000000E+00 -0.45593999997E+02  0.45594000000E+02  0.51100000000E-03 0. -1.
    9900012    2    1    2    0    0  0.69186707954E+01 -0.26771501384E+02  0.15878807470E+02  0.59301987101E+02  0.50000078555E+02 0.  0.
         12    1    1    2    0    0 -0.69186707954E+01  0.26771501384E+02 -0.15878807470E+02  0.31886012899E+02  0.00000000000E+00 0. -1.
         11    1    3    3    0    0 -0.12978372136E+01 -0.16184079199E+01  0.22184801470E+00  0.20863466708E+01  0.51100000000E-03 0. -1.
        -11    1    3    3    0    0  0.31627647502E+01 -0.39582868986E+02  0.12194791575E+02  0.41539373369E+02  0.51100000000E-03 0.  1.
         12    1    3    3    0    0  0.50537432588E+01  0.14429775522E+02  0.34621678801E+01  0.15676267061E+02  0.00000000000E+00 0. -1.
</event>
<event>
 7    1  0.3461631E-013  0.5930194E+02  0.7816164E-02  0.1266605E+00
        -11   -1    0    0    0    0  0.00000000000E+00  0.00000000000E+00  0.45593999997E+02  0.45594000000E+02  0.51100000000E-03 0.  1.
         11   -1    0    0    0    0 -0.00000000000E+00 -0.00000000000E+00 -0.45593999997E+02  0.45594000000E+02  0.51100000000E-03 0. -1.
    9900012    2    1    2    0    0 -0.30866326494E+02 -0.57929365681E+01  0.55165721233E+01  0.59301940455E+02  0.49999993485E+02 0.  0.
         12    1    1    2    0    0  0.30866326494E+02  0.57929365681E+01 -0.55165721233E+01  0.31886059545E+02  0.00000000000E+00 0. -1.
         11    1    3    3    0    0 -0.10255050259E+00 -0.23283666650E-01 -0.83707492135E+01  0.83714097613E+01  0.51100000000E-03 0. -1.
        -11    1    3    3    0    0 -0.17502060565E+01  0.94739997631E+01 -0.71392374533E+01  0.11991188616E+02  0.51100000000E-03 0.  1.
        -12    1    3    3    0    0 -0.29013569935E+02 -0.15243652665E+02  0.21026558790E+02  0.38939342078E+02  0.00000000000E+00 0.  1.
</event>
<event>
 7    1  0.3461631E-013  0.5930193E+02  0.7816164E-02  0.1266605E+00
        -11   -1    0    0    0    0  0.00000000000E+00  0.00000000000E+00  0.45593999997E+02  0.45594000000E+02  0.51100000000E-03 0.  1.
         11   -1    0    0    0    0 -0.00000000000E+00 -0.00000000000E+00 -0.45593999997E+02  0.45594000000E+02  0.51100000000E-03 0. -1.
    9900012    2    1    2    0    0 -0.27464840290E+02 -0.15530280626E+02  0.46058781313E+01  0.59301934363E+02  0.49999982373E+02 0.  0.
         12    1    1    2    0    0  0.27464840290E+02  0.15530280626E+02 -0.46058781313E+01  0.31886065637E+02  0.00000000000E+00 0. -1.
         11    1    3    3    0    0 -0.20185397791E+02 -0.16875480636E+02  0.13846092494E+02  0.29731236239E+02  0.51100000000E-03 0. -1.
        -11    1    3    3    0    0 -0.16746028843E+02  0.20460750917E+01 -0.83408788137E+00  0.16891169531E+02  0.51100000000E-03 0.  1.
        -12    1    3    3    0    0  0.94665863443E+01 -0.70087508166E+00 -0.84061264817E+01  0.12679528592E+02  0.00000000000E+00 0.  1.
</event>
<event>
 7    1  0.3461631E-013  0.5930195E+02  0.7816164E-02  0.1266605E+00
        -11   -1    0    0    0    0  0.00000000000E+00  0.00000000000E+00  0.45593999997E+02  0.45594000000E+02  0.51100000000E-03 0.  1.
         11   -1    0    0    0    0 -0.00000000000E+00 -0.00000000000E+00 -0.45593999997E+02  0.45594000000E+02  0.51100000000E-03 0. -1.
    9900012    2    1    2    0    0  0.28505895947E+02  0.14058227387E+02 -0.25495303789E+01  0.59301953426E+02  0.50000017139E+02 0.  0.
         12    1    1    2    0    0 -0.28505895947E+02 -0.14058227387E+02  0.25495303789E+01  0.31886046574E+02  0.00000000000E+00 0. -1.
         11    1    3    3    0    0 -0.50779773745E+00  0.16218800230E+01 -0.12727459145E+02  0.12840427170E+02  0.51100000000E-03 0. -1.
        -11    1    3    3    0    0 -0.60240170182E+01  0.74371833934E+00  0.71814857478E+01  0.94029588859E+01  0.51100000000E-03 0.  1.
        -12    1    3    3    0    0  0.35037710702E+02  0.11692629025E+02  0.29964430182E+01  0.37058567370E+02  0.00000000000E+00 0.  1.
</event>
<event>
 7    1  0.3461631E-013  0.5930196E+02  0.7816164E-02  0.1266605E+00
        -11   -1    0    0    0    0  0.00000000000E+00  0.00000000000E+00  0.45593999997E+02  0.45594000000E+02  0.51100000000E-03 0.  1.
         11   -1    0    0    0    0 -0.00000000000E+00 -0.00000000000E+00 -0.45593999997E+02  0.45594000000E+02  0.51100000000E-03 0. -1.
    9900012    2    1    2    0    0  0.11293139719E+02  0.29477149297E+02  0.45035517288E+01  0.59301963658E+02  0.50000035802E+02 0.  0.
         12    1    1    2    0    0 -0.11293139719E+02 -0.29477149297E+02 -0.45035517288E+01  0.31886036342E+02  0.00000000000E+00 0. -1.
         11    1    3    3    0    0  0.21096708641E+02  0.12611567269E+01 -0.58654644460E+01  0.21933200979E+02  0.51100000000E-03 0. -1.
        -11    1    3    3    0    0  0.45262408403E+01  0.40680864574E+00  0.21244055782E+01  0.50165175909E+01  0.51100000000E-03 0.  1.
        -12    1    3    3    0    0 -0.14329809762E+02  0.27809183924E+02  0.82446105966E+01  0.32352245088E+02  0.00000000000E+00 0.  1.
</event>
<event>
 7    1  0.3461631E-013  0.5930193E+02  0.7816164E-02  0.1266605E+00
        -11   -1    0    0    0    0  0.00000000000E+00  0.00000000000E+00  0.45593999997E+02  0.45594000000E+02  0.51100000000E-03 0.  1.
         11   -1    0    0    0    0 -0.00000000000E+00 -0.00000000000E+00 -0.45593999997E+02  0.45594000000E+02  0.51100000000E-03 0. -1.
    9900012    2    1    2    0    0  0.63787674796E+01  0.27849711223E+02 -0.14157193517E+02  0.59301933795E+02  0.49999981339E+02 0.  0.
         12    1    1    2    0    0 -0.63787674796E+01 -0.27849711223E+02  0.14157193517E+02  0.31886066205E+02  0.00000000000E+00 0. -1.
         11    1    3    3    0    0 -0.99260952617E+01 -0.86853085968E+01 -0.12212858868E+02  0.17975424183E+02  0.51100000000E-03 0. -1.
        -11    1    3    3    0    0  0.61278591994E+01  0.25110788219E+02 -0.28236151570E+01  0.26001445078E+02  0.51100000000E-03 0.  1.
        -12    1    3    3    0    0  0.10177003542E+02  0.11424231601E+02  0.87928050857E+00  0.15325064534E+02  0.00000000000E+00 0.  1.
</event>
<event>
 7    1  0.3461631E-013  0.5930195E+02  0.7816164E-02  0.1266605E+00
        -11   -1    0    0    0    0  0.00000000000E+00  0.00000000000E+00  0.45593999997E+02  0.45594000000E+02  0.51100000000E-03 0.  1.
         11   -1    0    0    0    0 -0.00000000000E+00 -0.00000000000E+00 -0.45593999997E+02  0.45594000000E+02  0.51100000000E-03 0. -1.
    9900012    2    1    2    0    0  0.29060439201E+01 -0.25259768434E+02  0.19241075029E+02  0.59301953509E+02  0.50000017291E+02 0.  0.
         12    1    1    2    0    0 -0.29060439201E+01  0.25259768434E+02 -0.19241075029E+02  0.31886046491E+02  0.00000000000E+00 0. -1.
         11    1    3    3    0    0  0.41233176212E+01  0.55606696580E+00 -0.25126476576E+01  0.48604893980E+01  0.51100000000E-03 0. -1.
        -11    1    3    3    0    0  0.59170406643E+01 -0.28844260839E+02  0.30745115133E+02  0.42570704226E+02  0.51100000000E-03 0.  1.
         12    1    3    3    0    0 -0.71343143654E+01  0.30284254391E+01 -0.89913924462E+01  0.11870759884E+02  0.00000000000E+00 0. -1.
</event>
<event>
 7    1  0.3461631E-013  0.5930198E+02  0.7816164E-02  0.1266605E+00
        -11   -1    0    0    0    0  0.00000000000E+00  0.00000000000E+00  0.45593999997E+02  0.45594000000E+02  0.51100000000E-03 0.  1.
         11   -1    0    0    0    0 -0.00000000000E+00 -0.00000000000E+00 -0.45593999997E+02  0.45594000000E+02  0.51100000000E-03 0. -1.
    9900012    2    1    2    0    0 -0.29402358562E+02 -0.12183792753E+02  0.19429563797E+01  0.59301975250E+02  0.50000056942E+02 0.  0.
         12    1    1    2    0    0  0.29402358562E+02  0.12183792753E+02 -0.19429563797E+01  0.31886024750E+02  0.00000000000E+00 0. -1.
         11    1    3    3    0    0  0.48920005840E+01  0.92044299992E+01  0.35466903864E+01  0.11010550135E+02  0.51100000000E-03 0. -1.
        -11    1    3    3    0    0  0.44699049849E+01 -0.17745839575E+01 -0.47898947245E+00  0.48330766570E+01  0.51100000000E-03 0.  1.
        -12    1    3    3    0    0 -0.38764264131E+02 -0.19613638794E+02 -0.11247445343E+01  0.43458348458E+02  0.00000000000E+00 0.  1.
</event>
<event>
 7    1  0.3461631E-013  0.5930197E+02  0.7816164E-02  0.1266605E+00
        -11   -1    0    0    0    0  0.00000000000E+00  0.00000000000E+00  0.45593999997E+02  0.45594000000E+02  0.51100000000E-03 0. -1.
         11   -1    0    0    0    0 -0.00000000000E+00 -0.00000000000E+00 -0.45593999997E+02  0.45594000000E+02  0.51100000000E-03 0.  1.
    9900012    2    1    2    0    0 -0.11784645388E+02 -0.19568931756E+02 -0.22246303460E+02  0.59301968974E+02  0.50000045495E+02 0.  0.
         12    1    1    2    0    0  0.11784645388E+02  0.19568931756E+02  0.22246303460E+02  0.31886031026E+02  0.00000000000E+00 0. -1.
         11    1    3    3    0    0  0.14209647078E+02  0.21510491130E+01 -0.15971876512E+02  0.21485853996E+02  0.51100000000E-03 0. -1.
        -11    1    3    3    0    0 -0.11723895995E+01 -0.25792760215E+01  0.39365479045E+01  0.48501104971E+01  0.51100000000E-03 0.  1.
        -12    1    3    3    0    0 -0.24821902866E+02 -0.19140704847E+02 -0.10210974852E+02  0.32966004480E+02  0.00000000000E+00 0.  1.
</event>
<event>
 7    1  0.3461631E-013  0.5930194E+02  0.7816164E-02  0.1266605E+00
        -11   -1    0    0    0    0  0.00000000000E+00  0.00000000000E+00  0.45593999997E+02  0.45594000000E+02  0.51100000000E-03 0. -1.
         11   -1    0    0    0    0 -0.00000000000E+00 -0.00000000000E+00 -0.45593999997E+02  0.45594000000E+02  0.51100000000E-03 0.  1.
    9900012    2    1    2    0    0 -0.29540195277E+02 -0.35846002464E+01 -0.11456361035E+02  0.59301941853E+02  0.49999996035E+02 0.  0.
         12    1    1    2    0    0  0.29540195277E+02  0.35846002464E+01  0.11456361035E+02  0.31886058147E+02  0.00000000000E+00 0. -1.
         11    1    3    3    0    0 -0.29667097994E+02  0.97963333175E+00 -0.32286496235E+01  0.29858341607E+02  0.51100000000E-03 0. -1.
        -11    1    3    3    0    0 -0.12807589859E+02 -0.66239890195E+01 -0.92725690059E+00  0.14448923633E+02  0.51100000000E-03 0.  1.
         12    1    3    3    0    0  0.12934492576E+02  0.20597554414E+01 -0.73004545111E+01  0.14994676614E+02  0.00000000000E+00 0. -1.
</event>
<event>
 7    1  0.3461631E-013  0.5930195E+02  0.7816164E-02  0.1266605E+00
        -11   -1    0    0    0    0  0.00000000000E+00  0.00000000000E+00  0.45593999997E+02  0.45594000000E+02  0.51100000000E-03 0. -1.
         11   -1    0    0    0    0 -0.00000000000E+00 -0.00000000000E+00 -0.45593999997E+02  0.45594000000E+02  0.51100000000E-03 0.  1.
    9900012    2    1    2    0    0 -0.23927945231E+01 -0.13531251915E+02 -0.28773251179E+02  0.59301949328E+02  0.50000009667E+02 0.  0.
         12    1    1    2    0    0  0.23927945231E+01  0.13531251915E+02  0.28773251179E+02  0.31886050672E+02  0.00000000000E+00 0. -1.
         11    1    3    3    0    0  0.13772121302E+02 -0.61097557461E+01 -0.23724739413E+01  0.15252182575E+02  0.51100000000E-03 0. -1.
        -11    1    3    3    0    0  0.41543059013E+01  0.10881901617E+01  0.44219339375E+01  0.61640826859E+01  0.51100000000E-03 0.  1.
        -12    1    3    3    0    0 -0.20319221727E+02 -0.85096863310E+01 -0.30822711175E+02  0.37885684067E+02  0.00000000000E+00 0.  1.
</event>
<event>
 7    1  0.3461631E-013  0.5930194E+02  0.7816164E-02  0.1266605E+00
        -11   -1    0    0    0    0  0.00000000000E+00  0.00000000000E+00  0.45593999997E+02  0.45594000000E+02  0.51100000000E-03 0.  1.
         11   -1    0    0    0    0 -0.00000000000E+00 -0.00000000000E+00 -0.45593999997E+02  0.45594000000E+02  0.51100000000E-03 0. -1.
    9900012    2    1    2    0    0 -0.24037934867E+02  0.20556042492E+02 -0.40432135315E+01  0.59301940801E+02  0.49999994114E+02 0.  0.
         12    1    1    2    0    0  0.24037934867E+02 -0.20556042492E+02  0.40432135315E+01  0.31886059199E+02  0.00000000000E+00 0. -1.
         11    1    3    3    0    0  0.32783121292E+01  0.45163176191E+01 -0.43979305850E+01  0.71053676151E+01  0.51100000000E-03 0. -1.
        -11    1    3    3    0    0  0.10867679017E+02  0.70637217511E+01  0.50782817335E+00  0.12971526584E+02  0.51100000000E-03 0.  1.
         12    1    3    3    0    0 -0.38183926014E+02  0.89760031214E+01 -0.15311111978E+00  0.39225046602E+02  0.00000000000E+00 0. -1.
</event>
<event>
 7    1  0.3461631E-013  0.5930194E+02  0.7816164E-02  0.1266605E+00
        -11   -1    0    0    0    0  0.00000000000E+00  0.00000000000E+00  0.45593999997E+02  0.45594000000E+02  0.51100000000E-03 0. -1.
         11   -1    0    0    0    0 -0.00000000000E+00 -0.00000000000E+00 -0.45593999997E+02  0.45594000000E+02  0.51100000000E-03 0.  1.
    9900012    2    1    2    0    0 -0.69382742488E+01 -0.28992102695E+02 -0.11315451884E+02  0.59301935338E+02  0.49999984153E+02 0.  0.
         12    1    1    2    0    0  0.69382742488E+01  0.28992102695E+02  0.11315451884E+02  0.31886064662E+02  0.00000000000E+00 0. -1.
         11    1    3    3    0    0  0.47579609607E+01 -0.22867135320E+02  0.47817845457E+01  0.23841340859E+02  0.51100000000E-03 0. -1.
        -11    1    3    3    0    0 -0.85107811877E+01 -0.23628343898E+01 -0.24319497131E+02  0.25873815408E+02  0.51100000000E-03 0.  1.
         12    1    3    3    0    0 -0.31854540218E+01 -0.37621329859E+01  0.82222607016E+01  0.95867790719E+01  0.00000000000E+00 0. -1.
</event>
<event>
 7    1  0.3461631E-013  0.5930192E+02  0.7816164E-02  0.1266605E+00
        -11   -1    0    0    0    0  0.00000000000E+00  0.00000000000E+00  0.45593999997E+02  0.45594000000E+02  0.51100000000E-03 0.  1.
         11   -1    0    0    0    0 -0.00000000000E+00 -0.00000000000E+00 -0.45593999997E+02  0.45594000000E+02  0.51100000000E-03 0. -1.
    9900012    2    1    2    0    0  0.44740373174E+01 -0.48679774856E+01  0.31193071169E+02  0.59301923044E+02  0.49999961730E+02 0.  0.
         12    1    1    2    0    0 -0.44740373174E+01  0.48679774856E+01 -0.31193071169E+02  0.31886076956E+02  0.00000000000E+00 0. -1.
         11    1    3    3    0    0  0.79573085447E-01  0.97287730572E+01  0.39753292059E+01  0.10509928622E+02  0.51100000000E-03 0. -1.
        -11    1    3    3    0    0  0.14093410937E+02 -0.88790291553E+00 -0.27999853244E+01  0.14396267624E+02  0.51100000000E-03 0.  1.
         12    1    3    3    0    0 -0.96989467052E+01 -0.13708847627E+02  0.30017727287E+02  0.34395726798E+02  0.00000000000E+00 0. -1.
</event>
<event>
 7    1  0.3461631E-013  0.5930196E+02  0.7816164E-02  0.1266605E+00
        -11   -1    0    0    0    0  0.00000000000E+00  0.00000000000E+00  0.45593999997E+02  0.45594000000E+02  0.51100000000E-03 0.  1.
         11   -1    0    0    0    0 -0.00000000000E+00 -0.00000000000E+00 -0.45593999997E+02  0.45594000000E+02  0.51100000000E-03 0. -1.
    9900012    2    1    2    0    0  0.20523002805E+01 -0.22401089581E+02  0.22598644285E+02  0.59301961137E+02  0.50000031203E+02 0.  0.
         12    1    1    2    0    0 -0.20523002805E+01  0.22401089581E+02 -0.22598644285E+02  0.31886038863E+02  0.00000000000E+00 0. -1.
         11    1    3    3    0    0 -0.14111219306E+02  0.27420802312E+01  0.46909963081E+00  0.14382822012E+02  0.51100000000E-03 0. -1.
        -11    1    3    3    0    0  0.12657793437E+02 -0.72528302405E+01  0.22346951689E+02  0.26687254097E+02  0.51100000000E-03 0.  1.
        -12    1    3    3    0    0  0.35057261494E+01 -0.17890339572E+02 -0.21740703510E+00  0.18231885028E+02  0.00000000000E+00 0.  1.
</event>
<event>
 7    1  0.3461631E-013  0.5930194E+02  0.7816164E-02  0.1266605E+00
        -11   -1    0    0    0    0  0.00000000000E+00  0.00000000000E+00  0.45593999997E+02  0.45594000000E+02  0.51100000000E-03 0. -1.
         11   -1    0    0    0    0 -0.00000000000E+00 -0.00000000000E+00 -0.45593999997E+02  0.45594000000E+02  0.51100000000E-03 0.  1.
    9900012    2    1    2    0    0 -0.26904912552E+02 -0.15269775078E+02  0.77253139689E+01  0.59301939938E+02  0.49999992540E+02 0.  0.
         12    1    1    2    0    0  0.26904912552E+02  0.15269775078E+02 -0.77253139689E+01  0.31886060062E+02  0.00000000000E+00 0. -1.
         11    1    3    3    0    0 -0.19552495975E+02  0.11212699708E+02  0.82174480158E+01  0.23990647881E+02  0.51100000000E-03 0. -1.
        -11    1    3    3    0    0 -0.12111665143E+02 -0.20999802726E+02  0.66388394866E+01  0.25134803303E+02  0.51100000000E-03 0.  1.
         12    1    3    3    0    0  0.47592485652E+01 -0.54826720601E+01 -0.71309735334E+01  0.10176488754E+02  0.00000000000E+00 0. -1.
</event>
<event>
 7    1  0.3461631E-013  0.5930194E+02  0.7816164E-02  0.1266605E+00
        -11   -1    0    0    0    0  0.00000000000E+00  0.00000000000E+00  0.45593999997E+02  0.45594000000E+02  0.51100000000E-03 0.  1.
         11   -1    0    0    0    0 -0.00000000000E+00 -0.00000000000E+00 -0.45593999997E+02  0.45594000000E+02  0.51100000000E-03 0. -1.
    9900012    2    1    2    0    0 -0.14756966095E+02  0.26724005819E+02  0.92076108326E+01  0.59301942975E+02  0.49999998081E+02 0.  0.
         12    1    1    2    0    0  0.14756966095E+02 -0.26724005819E+02 -0.92076108326E+01  0.31886057025E+02  0.00000000000E+00 0. -1.
         11    1    3    3    0    0 -0.82498064485E+01  0.31278480217E+01  0.45819151767E+00  0.88347427474E+01  0.51100000000E-03 0. -1.
        -11    1    3    3    0    0 -0.22308363245E+02  0.24267726539E+02  0.13100844833E+01  0.32989421693E+02  0.51100000000E-03 0.  1.
         12    1    3    3    0    0  0.15801203599E+02 -0.67156874127E+00  0.74393348317E+01  0.17477778535E+02  0.00000000000E+00 0. -1.
</event>
<event>
 7    1  0.3461631E-013  0.5930195E+02  0.7816164E-02  0.1266605E+00
        -11   -1    0    0    0    0  0.00000000000E+00  0.00000000000E+00  0.45593999997E+02  0.45594000000E+02  0.51100000000E-03 0. -1.
         11   -1    0    0    0    0 -0.00000000000E+00 -0.00000000000E+00 -0.45593999997E+02  0.45594000000E+02  0.51100000000E-03 0.  1.
    9900012    2    1    2    0    0  0.52182975758E+00 -0.28287727056E+02  0.14705514967E+02  0.59301953228E+02  0.50000016779E+02 0.  0.
         12    1    1    2    0    0 -0.52182975758E+00  0.28287727056E+02 -0.14705514967E+02  0.31886046772E+02  0.00000000000E+00 0. -1.
         11    1    3    3    0    0 -0.11462233747E+01 -0.11722282152E+01 -0.39559085295E+01  0.42821909775E+01  0.51100000000E-03 0. -1.
        -11    1    3    3    0    0  0.12007639744E+02 -0.12790672154E+02 -0.10847620212E+02  0.20626574386E+02  0.51100000000E-03 0.  1.
         12    1    3    3    0    0 -0.10339586612E+02 -0.14324826687E+02  0.29509043708E+02  0.34393187865E+02  0.00000000000E+00 0. -1.
</event>
<event>
 7    1  0.3461631E-013  0.5930214E+02  0.7816164E-02  0.1266604E+00
        -11   -1    0    0    0    0  0.00000000000E+00  0.00000000000E+00  0.45593999997E+02  0.45594000000E+02  0.51100000000E-03 0. -1.
         11   -1    0    0    0    0 -0.00000000000E+00 -0.00000000000E+00 -0.45593999997E+02  0.45594000000E+02  0.51100000000E-03 0.  1.
    9900012    2    1    2    0    0 -0.20034232626E+02 -0.29689814599E+01 -0.24627683800E+02  0.59302138914E+02  0.50000355425E+02 0.  0.
         12    1    1    2    0    0  0.20034232626E+02  0.29689814599E+01  0.24627683800E+02  0.31885861086E+02  0.00000000000E+00 0. -1.
         11    1    3    3    0    0 -0.78719814707E-01 -0.79589452212E+00  0.20698083587E+01  0.22189528617E+01  0.51100000000E-03 0. -1.
        -11    1    3    3    0    0 -0.21102829011E+02  0.19493216561E+02 -0.14228386843E+02  0.32058725436E+02  0.51100000000E-03 0.  1.
         12    1    3    3    0    0  0.11473161996E+01 -0.21666303499E+02 -0.12469105316E+02  0.25024460616E+02  0.00000000000E+00 0. -1.
</event>
<event>
 7    1  0.3461631E-013  0.5930195E+02  0.7816164E-02  0.1266605E+00
        -11   -1    0    0    0    0  0.00000000000E+00  0.00000000000E+00  0.45593999997E+02  0.45594000000E+02  0.51100000000E-03 0.  1.
         11   -1    0    0    0    0 -0.00000000000E+00 -0.00000000000E+00 -0.45593999997E+02  0.45594000000E+02  0.51100000000E-03 0. -1.
    9900012    2    1    2    0    0 -0.94445937004E+01  0.10942765239E+01  0.30435545074E+02  0.59301949833E+02  0.50000010588E+02 0.  0.
         12    1    1    2    0    0  0.94445937004E+01 -0.10942765239E+01 -0.30435545074E+02  0.31886050167E+02  0.00000000000E+00 0. -1.
         11    1    3    3    0    0 -0.95493498988E+01 -0.10450513311E+02  0.20702129636E+02  0.25079503258E+02  0.51100000000E-03 0. -1.
        -11    1    3    3    0    0 -0.50713701584E+01  0.21028605655E+02  0.88838662075E+01  0.23384698632E+02  0.51100000000E-03 0.  1.
         12    1    3    3    0    0  0.51761263568E+01 -0.94838158198E+01  0.84954923062E+00  0.10837747942E+02  0.00000000000E+00 0. -1.
</event>
<event>
 7    1  0.3461631E-013  0.5930185E+02  0.7816164E-02  0.1266605E+00
        -11   -1    0    0    0    0  0.00000000000E+00  0.00000000000E+00  0.45593999997E+02  0.45594000000E+02  0.51100000000E-03 0.  1.
         11   -1    0    0    0    0 -0.00000000000E+00 -0.00000000000E+00 -0.45593999997E+02  0.45594000000E+02  0.51100000000E-03 0. -1.
    9900012    2    1    2    0    0 -0.12151574767E+02  0.29473862983E+02  0.59777086329E+00  0.59301847858E+02  0.49999824609E+02 0.  0.
         12    1    1    2    0    0  0.12151574767E+02 -0.29473862983E+02 -0.59777086329E+00  0.31886152142E+02  0.00000000000E+00 0. -1.
         11    1    3    3    0    0 -0.67476241430E+01 -0.27368941816E+01 -0.86853776843E+01  0.11333878732E+02  0.51100000000E-03 0. -1.
        -11    1    3    3    0    0 -0.18936182649E+02  0.25778851248E+02  0.49196606788E+01  0.32362497531E+02  0.51100000000E-03 0.  1.
         12    1    3    3    0    0  0.13532232025E+02  0.64319059158E+01  0.43634878688E+01  0.15605471594E+02  0.00000000000E+00 0. -1.
</event>
<event>
 7    1  0.3461631E-013  0.5930206E+02  0.7816164E-02  0.1266604E+00
        -11   -1    0    0    0    0  0.00000000000E+00  0.00000000000E+00  0.45593999997E+02  0.45594000000E+02  0.51100000000E-03 0.  1.
         11   -1    0    0    0    0 -0.00000000000E+00 -0.00000000000E+00 -0.45593999997E+02  0.45594000000E+02  0.51100000000E-03 0. -1.
    9900012    2    1    2    0    0 -0.18918334602E+02  0.32900421008E+01  0.25455554049E+02  0.59302062769E+02  0.50000216555E+02 0.  0.
         12    1    1    2    0    0  0.18918334602E+02 -0.32900421008E+01 -0.25455554049E+02  0.31885937231E+02  0.00000000000E+00 0. -1.
         11    1    3    3    0    0 -0.99778863122E+00 -0.29009697841E+01  0.38680848656E+01  0.49369310943E+01  0.51100000000E-03 0. -1.
        -11    1    3    3    0    0  0.90009573594E+01 -0.13685299610E+02  0.82611470455E+01  0.18345332092E+02  0.51100000000E-03 0.  1.
         12    1    3    3    0    0 -0.26921503331E+02  0.19876311495E+02  0.13326322138E+02  0.36019799582E+02  0.00000000000E+00 0. -1.
</event>
<event>
 7    1  0.3461631E-013  0.5930195E+02  0.7816164E-02  0.1266605E+00
        -11   -1    0    0    0    0  0.00000000000E+00  0.00000000000E+00  0.45593999997E+02  0.45594000000E+02  0.51100000000E-03 0.  1.
         11   -1    0    0    0    0 -0.00000000000E+00 -0.00000000000E+00 -0.45593999997E+02  0.45594000000E+02  0.51100000000E-03 0. -1.
    9900012    2    1    2    0    0  0.84481803318E+01 -0.27956469201E+02  0.12797815074E+02  0.59301953024E+02  0.50000016406E+02 0.  0.
         12    1    1    2    0    0 -0.84481803318E+01  0.27956469201E+02 -0.12797815074E+02  0.31886046976E+02  0.00000000000E+00 0. -1.
         11    1    3    3    0    0  0.13489085781E+02  0.44922203890E+01  0.76815337532E+01  0.16159871296E+02  0.51100000000E-03 0. -1.
        -11    1    3    3    0    0  0.58998557905E+01 -0.16555057930E+01  0.82904383465E+01  0.10309236927E+02  0.51100000000E-03 0.  1.
         12    1    3    3    0    0 -0.10940761240E+02 -0.30793183797E+02 -0.31741570260E+01  0.32832844801E+02  0.00000000000E+00 0. -1.
</event>
<event>
 7    1  0.3461631E-013  0.5930197E+02  0.7816164E-02  0.1266605E+00
        -11   -1    0    0    0    0  0.00000000000E+00  0.00000000000E+00  0.45593999997E+02  0.45594000000E+02  0.51100000000E-03 0.  1.
         11   -1    0    0    0    0 -0.00000000000E+00 -0.00000000000E+00 -0.45593999997E+02  0.45594000000E+02  0.51100000000E-03 0. -1.
    9900012    2    1    2    0    0  0.81942234134E+00  0.64412238634E+01  0.31217910544E+02  0.59301972392E+02  0.50000051730E+02 0.  0.
         12    1    1    2    0    0 -0.81942234134E+00 -0.64412238634E+01 -0.31217910544E+02  0.31886027608E+02  0.00000000000E+00 0. -1.
         11    1    3    3    0    0  0.60158199563E+00  0.24034946235E+01  0.14724346762E+02  0.14931345389E+02  0.51100000000E-03 0. -1.
        -11    1    3    3    0    0 -0.16795234887E+02  0.89020407518E+01  0.18546084792E+02  0.26557174282E+02  0.51100000000E-03 0.  1.
         12    1    3    3    0    0  0.17013075233E+02 -0.48643115118E+01 -0.20525210094E+01  0.17813452721E+02  0.00000000000E+00 0. -1.
</event>
<event>
 7    1  0.3461631E-013  0.5930187E+02  0.7816164E-02  0.1266605E+00
        -11   -1    0    0    0    0  0.00000000000E+00  0.00000000000E+00  0.45593999997E+02  0.45594000000E+02  0.51100000000E-03 0.  1.
         11   -1    0    0    0    0 -0.00000000000E+00 -0.00000000000E+00 -0.45593999997E+02  0.45594000000E+02  0.51100000000E-03 0. -1.
    9900012    2    1    2    0    0 -0.15707552102E+02  0.99466873019E+01  0.25904852837E+02  0.59301871639E+02  0.49999867981E+02 0.  0.
         12    1    1    2    0    0  0.15707552102E+02 -0.99466873019E+01 -0.25904852837E+02  0.31886128361E+02  0.00000000000E+00 0. -1.
         11    1    3    3    0    0 -0.55794059056E+00 -0.10522477144E+02  0.16996267337E+02  0.19997673030E+02  0.51100000000E-03 0. -1.
        -11    1    3    3    0    0 -0.38610703496E+01 -0.71809861773E+01  0.38369165499E+01  0.90109020411E+01  0.51100000000E-03 0.  1.
         12    1    3    3    0    0 -0.11288541162E+02  0.27650150623E+02  0.50716689502E+01  0.30293296569E+02  0.00000000000E+00 0. -1.
</event>
<event>
 7    1  0.3461631E-013  0.5930192E+02  0.7816164E-02  0.1266605E+00
        -11   -1    0    0    0    0  0.00000000000E+00  0.00000000000E+00  0.45593999997E+02  0.45594000000E+02  0.51100000000E-03 0. -1.
         11   -1    0    0    0    0 -0.00000000000E+00 -0.00000000000E+00 -0.45593999997E+02  0.45594000000E+02  0.51100000000E-03 0.  1.
    9900012    2    1    2    0    0 -0.12307354609E+02  0.25618964660E+02 -0.14454052107E+02  0.59301922316E+02  0.49999960403E+02 0.  0.
         12    1    1    2    0    0  0.12307354609E+02 -0.25618964660E+02  0.14454052107E+02  0.31886077684E+02  0.00000000000E+00 0. -1.
         11    1    3    3    0    0  0.51422932808E+01  0.17347773748E+02 -0.26502325951E+02  0.32089900518E+02  0.51100000000E-03 0. -1.
        -11    1    3    3    0    0 -0.38477832598E+01  0.84996166313E+01  0.45950997421E+00  0.93413097889E+01  0.51100000000E-03 0.  1.
        -12    1    3    3    0    0 -0.13601864630E+02 -0.22842571833E+00  0.11588763869E+02  0.17870712010E+02  0.00000000000E+00 0.  1.
</event>
<event>
 7    1  0.3461631E-013  0.5930196E+02  0.7816164E-02  0.1266605E+00
        -11   -1    0    0    0    0  0.00000000000E+00  0.00000000000E+00  0.45593999997E+02  0.45594000000E+02  0.51100000000E-03 0.  1.
         11   -1    0    0    0    0 -0.00000000000E+00 -0.00000000000E+00 -0.45593999997E+02  0.45594000000E+02  0.51100000000E-03 0. -1.
    9900012    2    1    2    0    0 -0.85010841263E+00 -0.28049169141E+02 -0.15140704400E+02  0.59301960680E+02  0.50000030369E+02 0.  0.
         12    1    1    2    0    0  0.85010841263E+00  0.28049169141E+02  0.15140704400E+02  0.31886039320E+02  0.00000000000E+00 0. -1.
         11    1    3    3    0    0 -0.29786717562E+01 -0.51250498560E+01 -0.36979343856E+01  0.69866544525E+01  0.51100000000E-03 0. -1.
        -11    1    3    3    0    0  0.14981404503E+02 -0.23797751050E+02  0.77780782354E+01  0.29176599138E+02  0.51100000000E-03 0.  1.
         12    1    3    3    0    0 -0.12852841160E+02  0.87363176552E+00 -0.19220848250E+02  0.23138707090E+02  0.00000000000E+00 0. -1.
</event>
<event>
 7    1  0.3461631E-013  0.5930195E+02  0.7816164E-02  0.1266605E+00
        -11   -1    0    0    0    0  0.00000000000E+00  0.00000000000E+00  0.45593999997E+02  0.45594000000E+02  0.51100000000E-03 0. -1.
         11   -1    0    0    0    0 -0.00000000000E+00 -0.00000000000E+00 -0.45593999997E+02  0.45594000000E+02  0.51100000000E-03 0.  1.
    9900012    2    1    2    0    0  0.23978788248E+02  0.20979334729E+02  0.12670664998E+01  0.59301949303E+02  0.50000009621E+02 0.  0.
         12    1    1    2    0    0 -0.23978788248E+02 -0.20979334729E+02 -0.12670664998E+01  0.31886050697E+02  0.00000000000E+00 0. -1.
         11    1    3    3    0    0  0.51461895173E+01  0.37677378786E+01  0.13965240076E+02  0.15352753692E+02  0.51100000000E-03 0. -1.
        -11    1    3    3    0    0  0.25986648703E+01  0.82376808289E+01  0.10916430576E+02  0.13920520871E+02  0.51100000000E-03 0.  1.
        -12    1    3    3    0    0  0.16233933861E+02  0.89739160215E+01 -0.23614604153E+02  0.30028674740E+02  0.00000000000E+00 0.  1.
</event>
<event>
 7    1  0.3461631E-013  0.5930195E+02  0.7816164E-02  0.1266605E+00
        -11   -1    0    0    0    0  0.00000000000E+00  0.00000000000E+00  0.45593999997E+02  0.45594000000E+02  0.51100000000E-03 0. -1.
         11   -1    0    0    0    0 -0.00000000000E+00 -0.00000000000E+00 -0.45593999997E+02  0.45594000000E+02  0.51100000000E-03 0.  1.
    9900012    2    1    2    0    0 -0.12528803131E+02 -0.29311385664E+02  0.76953532616E+00  0.59301946276E+02  0.50000004101E+02 0.  0.
         12    1    1    2    0    0  0.12528803131E+02  0.29311385664E+02 -0.76953532616E+00  0.31886053724E+02  0.00000000000E+00 0. -1.
         11    1    3    3    0    0  0.23703233820E+01  0.10657296998E+02 -0.40652520599E+01  0.11650008018E+02  0.51100000000E-03 0. -1.
        -11    1    3    3    0    0 -0.16991082418E+02 -0.16255640952E+02  0.96679991671E+00  0.23534601055E+02  0.51100000000E-03 0.  1.
        -12    1    3    3    0    0  0.20919559054E+01 -0.23713041711E+02  0.38679874694E+01  0.24117337203E+02  0.00000000000E+00 0.  1.
</event>
<event>
 7    1  0.3461631E-013  0.5930196E+02  0.7816164E-02  0.1266605E+00
        -11   -1    0    0    0    0  0.00000000000E+00  0.00000000000E+00  0.45593999997E+02  0.45594000000E+02  0.51100000000E-03 0. -1.
         11   -1    0    0    0    0 -0.00000000000E+00 -0.00000000000E+00 -0.45593999997E+02  0.45594000000E+02  0.51100000000E-03 0.  1.
    9900012    2    1    2    0    0 -0.26852594661E+02 -0.16571160643E+02 -0.45884913175E+01  0.59301961399E+02  0.50000031681E+02 0.  0.
         12    1    1    2    0    0  0.26852594661E+02  0.16571160643E+02  0.45884913175E+01  0.31886038601E+02  0.00000000000E+00 0. -1.
         11    1    3    3    0    0 -0.24013313837E+02  0.11617135460E+02 -0.75344294323E+01  0.27719392217E+02  0.51100000000E-03 0. -1.
        -11    1    3    3    0    0 -0.52742779523E+01 -0.91524120126E+01  0.60025244788E+01  0.12149689459E+02  0.51100000000E-03 0.  1.
        -12    1    3    3    0    0  0.24349971283E+01 -0.19035884091E+02 -0.30565863640E+01  0.19432879723E+02  0.00000000000E+00 0.  1.
</event>
<event>
 7    1  0.3461631E-013  0.5930195E+02  0.7816164E-02  0.1266605E+00
        -11   -1    0    0    0    0  0.00000000000E+00  0.00000000000E+00  0.45593999997E+02  0.45594000000E+02  0.51100000000E-03 0.  1.
         11   -1    0    0    0    0 -0.00000000000E+00 -0.00000000000E+00 -0.45593999997E+02  0.45594000000E+02  0.51100000000E-03 0. -1.
    9900012    2    1    2    0    0 -0.79647881652E+01  0.39485820769E+01  0.30621736023E+02  0.59301954964E+02  0.50000019945E+02 0.  0.
         12    1    1    2    0    0  0.79647881652E+01 -0.39485820769E+01 -0.30621736023E+02  0.31886045036E+02  0.00000000000E+00 0. -1.
         11    1    3    3    0    0 -0.12708465234E+02 -0.22716888163E+01 -0.73379098241E+01  0.14849598632E+02  0.51100000000E-03 0. -1.
        -11    1    3    3    0    0 -0.77332156441E+01 -0.88710864448E+00  0.76522659303E+01  0.10915436779E+02  0.51100000000E-03 0.  1.
         12    1    3    3    0    0  0.12476892713E+02  0.71073795376E+01  0.30307379917E+02  0.33536919553E+02  0.00000000000E+00 0. -1.
</event>
<event>
 7    1  0.3461631E-013  0.5930193E+02  0.7816164E-02  0.1266605E+00
        -11   -1    0    0    0    0  0.00000000000E+00  0.00000000000E+00  0.45593999997E+02  0.45594000000E+02  0.51100000000E-03 0. -1.
         11   -1    0    0    0    0 -0.00000000000E+00 -0.00000000000E+00 -0.45593999997E+02  0.45594000000E+02  0.51100000000E-03 0.  1.
    9900012    2    1    2    0    0  0.96278604574E+01  0.22953278970E+01 -0.30311006467E+02  0.59301931879E+02  0.49999977844E+02 0.  0.
         12    1    1    2    0    0 -0.96278604574E+01 -0.22953278970E+01  0.30311006467E+02  0.31886068121E+02  0.00000000000E+00 0. -1.
         11    1    3    3    0    0  0.51031416236E+01 -0.36960215033E+01  0.44186631738E+01  0.76959218998E+01  0.51100000000E-03 0. -1.
        -11    1    3    3    0    0 -0.15878606761E+02 -0.18014632023E+01 -0.18166780366E+02  0.24195192321E+02  0.51100000000E-03 0.  1.
        -12    1    3    3    0    0  0.20403325595E+02  0.77928126027E+01 -0.16562889275E+02  0.27410817659E+02  0.00000000000E+00 0.  1.
</event>
<event>
 7    1  0.3461631E-013  0.5930208E+02  0.7816164E-02  0.1266604E+00
        -11   -1    0    0    0    0  0.00000000000E+00  0.00000000000E+00  0.45593999997E+02  0.45594000000E+02  0.51100000000E-03 0. -1.
         11   -1    0    0    0    0 -0.00000000000E+00 -0.00000000000E+00 -0.45593999997E+02  0.45594000000E+02  0.51100000000E-03 0.  1.
    9900012    2    1    2    0    0 -0.31103034580E+02  0.33194886795E+01  0.61882283163E+01  0.59302079363E+02  0.50000246819E+02 0.  0.
         12    1    1    2    0    0  0.31103034580E+02 -0.33194886795E+01 -0.61882283163E+01  0.31885920637E+02  0.00000000000E+00 0. -1.
         11    1    3    3    0    0 -0.18175173687E+02  0.95098084541E+01  0.95540451618E+01  0.22628591971E+02  0.51100000000E-03 0.  1.
        -11    1    3    3    0    0 -0.12250841430E+02  0.12398070765E+02  0.13572871705E+01  0.17482491332E+02  0.51100000000E-03 0. -1.
         12    1    3    3    0    0 -0.67701946238E+00 -0.18588390540E+02 -0.47231040160E+01  0.19190996060E+02  0.00000000000E+00 0. -1.
</event>
<event>
 7    1  0.3461631E-013  0.5930195E+02  0.7816164E-02  0.1266605E+00
        -11   -1    0    0    0    0  0.00000000000E+00  0.00000000000E+00  0.45593999997E+02  0.45594000000E+02  0.51100000000E-03 0. -1.
         11   -1    0    0    0    0 -0.00000000000E+00 -0.00000000000E+00 -0.45593999997E+02  0.45594000000E+02  0.51100000000E-03 0.  1.
    9900012    2    1    2    0    0 -0.42188966693E+01 -0.20436215428E+02 -0.24109795101E+02  0.59301949603E+02  0.50000010168E+02 0.  0.
         12    1    1    2    0    0  0.42188966693E+01  0.20436215428E+02  0.24109795101E+02  0.31886050397E+02  0.00000000000E+00 0. -1.
         11    1    3    3    0    0  0.22846559382E+01  0.62282956706E+01  0.10293644534E+02  0.12246241782E+02  0.51100000000E-03 0. -1.
        -11    1    3    3    0    0  0.31006324499E+01 -0.12971596987E+02 -0.72920103613E+01  0.15200317936E+02  0.51100000000E-03 0.  1.
        -12    1    3    3    0    0 -0.96041850574E+01 -0.13692914111E+02 -0.27111429274E+02  0.31855389885E+02  0.00000000000E+00 0.  1.
</event>
<event>
 7    1  0.3461631E-013  0.5930193E+02  0.7816164E-02  0.1266605E+00
        -11   -1    0    0    0    0  0.00000000000E+00  0.00000000000E+00  0.45593999997E+02  0.45594000000E+02  0.51100000000E-03 0.  1.
         11   -1    0    0    0    0 -0.00000000000E+00 -0.00000000000E+00 -0.45593999997E+02  0.45594000000E+02  0.51100000000E-03 0. -1.
    9900012    2    1    2    0    0 -0.74165487000E+01 -0.58201005132E+01  0.30460512186E+02  0.59301928319E+02  0.49999971352E+02 0.  0.
         12    1    1    2    0    0  0.74165487000E+01  0.58201005132E+01 -0.30460512186E+02  0.31886071681E+02  0.00000000000E+00 0. -1.
         11    1    3    3    0    0  0.82384127261E+00 -0.15052204216E+02 -0.45047123911E+01  0.15733403960E+02  0.51100000000E-03 0. -1.
        -11    1    3    3    0    0 -0.94392327861E+01 -0.48495431965E+01  0.21837467415E+02  0.24279459799E+02  0.51100000000E-03 0.  1.
        -12    1    3    3    0    0  0.11988428135E+01  0.14081646899E+02  0.13127757162E+02  0.19289064560E+02  0.00000000000E+00 0.  1.
</event>
<event>
 7    1  0.3461631E-013  0.5930196E+02  0.7816164E-02  0.1266605E+00
        -11   -1    0    0    0    0  0.00000000000E+00  0.00000000000E+00  0.45593999997E+02  0.45594000000E+02  0.51100000000E-03 0.  1.
         11   -1    0    0    0    0 -0.00000000000E+00 -0.00000000000E+00 -0.45593999997E+02  0.45594000000E+02  0.51100000000E-03 0. -1.
    9900012    2    1    2    0    0  0.15511299831E+02  0.17761559408E+02  0.21462661392E+02  0.59301964670E+02  0.50000037646E+02 0.  0.
         12    1    1    2    0    0 -0.15511299831E+02 -0.17761559408E+02 -0.21462661392E+02  0.31886035330E+02  0.00000000000E+00 0. -1.
         11    1    3    3    0    0  0.25559554077E+01 -0.65868109553E+01 -0.71231244130E+01  0.10032840489E+02  0.51100000000E-03 0. -1.
        -11    1    3    3    0    0  0.17085851012E+02  0.86096011988E+01  0.26758895261E+02  0.32895136623E+02  0.51100000000E-03 0.  1.
         12    1    3    3    0    0 -0.41305065881E+01  0.15738769164E+02  0.18268905433E+01  0.16373987558E+02  0.00000000000E+00 0. -1.
</event>
<event>
 7    1  0.3461631E-013  0.5930196E+02  0.7816164E-02  0.1266605E+00
        -11   -1    0    0    0    0  0.00000000000E+00  0.00000000000E+00  0.45593999997E+02  0.45594000000E+02  0.51100000000E-03 0. -1.
         11   -1    0    0    0    0 -0.00000000000E+00 -0.00000000000E+00 -0.45593999997E+02  0.45594000000E+02  0.51100000000E-03 0.  1.
    9900012    2    1    2    0    0  0.14937472388E+02  0.25666868806E+02  0.11610494188E+02  0.59301955860E+02  0.50000021579E+02 0.  0.
         12    1    1    2    0    0 -0.14937472388E+02 -0.25666868806E+02 -0.11610494188E+02  0.31886044140E+02  0.00000000000E+00 0. -1.
         11    1    3    3    0    0 -0.98483369537E+01  0.26702942590E+01  0.38755075740E+01  0.10915116646E+02  0.51100000000E-03 0. -1.
        -11    1    3    3    0    0 -0.77906896163E+01  0.32232900365E+01  0.57929450241E+01  0.10229499287E+02  0.51100000000E-03 0.  1.
         12    1    3    3    0    0  0.32576498958E+02  0.19773284510E+02  0.19420415896E+01  0.38157339926E+02  0.00000000000E+00 0. -1.
</event>
<event>
 7    1  0.3461631E-013  0.5930194E+02  0.7816164E-02  0.1266605E+00
        -11   -1    0    0    0    0  0.00000000000E+00  0.00000000000E+00  0.45593999997E+02  0.45594000000E+02  0.51100000000E-03 0.  1.
         11   -1    0    0    0    0 -0.00000000000E+00 -0.00000000000E+00 -0.45593999997E+02  0.45594000000E+02  0.51100000000E-03 0. -1.
    9900012    2    1    2    0    0  0.40365804379E+01 -0.20337657900E+02  0.24224082929E+02  0.59301944988E+02  0.50000001751E+02 0.  0.
         12    1    1    2    0    0 -0.40365804379E+01  0.20337657900E+02 -0.24224082929E+02  0.31886055012E+02  0.00000000000E+00 0. -1.
         11    1    3    3    0    0 -0.51066135425E+01 -0.39988563824E+01  0.99497986135E+01  0.11877156518E+02  0.51100000000E-03 0. -1.
        -11    1    3    3    0    0  0.24896109002E+02 -0.41275453569E+01  0.91659159207E+01  0.26848964395E+02  0.51100000000E-03 0.  1.
         12    1    3    3    0    0 -0.15752915022E+02 -0.12211256161E+02  0.51083683946E+01  0.20575824075E+02  0.00000000000E+00 0. -1.
</event>
<event>
 7    1  0.3461631E-013  0.5930192E+02  0.7816164E-02  0.1266605E+00
        -11   -1    0    0    0    0  0.00000000000E+00  0.00000000000E+00  0.45593999997E+02  0.45594000000E+02  0.51100000000E-03 0.  1.
         11   -1    0    0    0    0 -0.00000000000E+00 -0.00000000000E+00 -0.45593999997E+02  0.45594000000E+02  0.51100000000E-03 0. -1.
    9900012    2    1    2    0    0 -0.30907407251E+01  0.55536973349E+01  0.31246215145E+02  0.59301918504E+02  0.49999953450E+02 0.  0.
         12    1    1    2    0    0  0.30907407251E+01 -0.55536973349E+01 -0.31246215145E+02  0.31886081496E+02  0.00000000000E+00 0. -1.
         11    1    3    3    0    0 -0.15598790439E+02  0.71529155648E+00  0.13589189108E+02  0.20700240725E+02  0.51100000000E-03 0.  1.
        -11    1    3    3    0    0 -0.30891656614E+01 -0.11286198481E+02  0.41497787884E+01  0.12415389035E+02  0.51100000000E-03 0. -1.
        -12    1    3    3    0    0  0.15597215375E+02  0.16124604259E+02  0.13507247248E+02  0.26186288744E+02  0.00000000000E+00 0.  1.
</event>
<event>
 7    1  0.4667529E-013  0.5930199E+02  0.7816164E-02  0.1266605E+00
        -11   -1    0    0    0    0  0.00000000000E+00  0.00000000000E+00  0.45593999997E+02  0.45594000000E+02  0.51100000000E-03 0.  1.
         11   -1    0    0    0    0 -0.00000000000E+00 -0.00000000000E+00 -0.45593999997E+02  0.45594000000E+02  0.51100000000E-03 0. -1.
    9900012    2    1    2    0    0  0.12309030846E+00  0.31883786689E+02  0.35594039189E+00  0.59301988985E+02  0.50000081992E+02 0.  0.
         12    1    1    2    0    0 -0.12309030846E+00 -0.31883786689E+02 -0.35594039189E+00  0.31886011015E+02  0.00000000000E+00 0. -1.
         11    1    3    3    0    0 -0.11964751177E+02  0.81170875867E+01  0.10669469998E+02  0.17968861175E+02  0.51100000000E-03 0. -1.
        -11    1    3    3    0    0 -0.41826556827E+01  0.23008909912E+02 -0.87531380937E+01  0.24970421915E+02  0.51100000000E-03 0.  1.
         12    1    3    3    0    0  0.16270497168E+02  0.75778919105E+00 -0.15603915129E+01  0.16362705895E+02  0.00000000000E+00 0. -1.
</event>
<event>
 7    1  0.3461631E-013  0.5930195E+02  0.7816164E-02  0.1266605E+00
        -11   -1    0    0    0    0  0.00000000000E+00  0.00000000000E+00  0.45593999997E+02  0.45594000000E+02  0.51100000000E-03 0.  1.
         11   -1    0    0    0    0 -0.00000000000E+00 -0.00000000000E+00 -0.45593999997E+02  0.45594000000E+02  0.51100000000E-03 0. -1.
    9900012    2    1    2    0    0  0.29550200063E+02 -0.64471445419E+01  0.10096551711E+02  0.59301947360E+02  0.50000006077E+02 0.  0.
         12    1    1    2    0    0 -0.29550200063E+02  0.64471445419E+01 -0.10096551711E+02  0.31886052640E+02  0.00000000000E+00 0. -1.
         11    1    3    3    0    0  0.54946602850E+01 -0.21123116197E+02 -0.95964803518E+01  0.23842603988E+02  0.51100000000E-03 0. -1.
        -11    1    3    3    0    0 -0.30818073483E+00 -0.80001553483E-01 -0.46540604596E+00  0.56389596790E+00  0.51100000000E-03 0.  1.
        -12    1    3    3    0    0  0.24363720513E+02  0.14755973209E+02  0.20158438109E+02  0.34895447404E+02  0.00000000000E+00 0.  1.
</event>
<event>
 7    1  0.3461631E-013  0.5930194E+02  0.7816164E-02  0.1266605E+00
        -11   -1    0    0    0    0  0.00000000000E+00  0.00000000000E+00  0.45593999997E+02  0.45594000000E+02  0.51100000000E-03 0.  1.
         11   -1    0    0    0    0 -0.00000000000E+00 -0.00000000000E+00 -0.45593999997E+02  0.45594000000E+02  0.51100000000E-03 0. -1.
    9900012    2    1    2    0    0  0.13588513213E+02  0.23498675576E+02  0.16729770462E+02  0.59301942469E+02  0.49999997158E+02 0.  0.
         12    1    1    2    0    0 -0.13588513213E+02 -0.23498675576E+02 -0.16729770462E+02  0.31886057531E+02  0.00000000000E+00 0. -1.
         11    1    3    3    0    0 -0.82219345088E+01 -0.10831771956E+01  0.53269814428E+01  0.98564806832E+01  0.51100000000E-03 0. -1.
        -11    1    3    3    0    0 -0.85322191079E+01  0.98318047295E+01  0.85772957441E+01  0.15589520509E+02  0.51100000000E-03 0.  1.
        -12    1    3    3    0    0  0.30342666829E+02  0.14750048042E+02  0.28254932746E+01  0.33855941278E+02  0.00000000000E+00 0.  1.
</event>
<event>
 7    1  0.3461631E-013  0.5930198E+02  0.7816164E-02  0.1266605E+00
        -11   -1    0    0    0    0  0.00000000000E+00  0.00000000000E+00  0.45593999997E+02  0.45594000000E+02  0.51100000000E-03 0.  1.
         11   -1    0    0    0    0 -0.00000000000E+00 -0.00000000000E+00 -0.45593999997E+02  0.45594000000E+02  0.51100000000E-03 0. -1.
    9900012    2    1    2    0    0  0.12970977704E+02 -0.41256833225E+00  0.29125616620E+02  0.59301983963E+02  0.50000072832E+02 0.  0.
         12    1    1    2    0    0 -0.12970977704E+02  0.41256833225E+00 -0.29125616620E+02  0.31886016037E+02  0.00000000000E+00 0. -1.
         11    1    3    3    0    0 -0.55316611229E+01 -0.11626893730E+02  0.69619305829E+01  0.14637363502E+02  0.51100000000E-03 0. -1.
        -11    1    3    3    0    0 -0.29625764738E+01 -0.87542673230E+01  0.33522550543E+01  0.98311581177E+01  0.51100000000E-03 0.  1.
        -12    1    3    3    0    0  0.21465215300E+02  0.19968592721E+02  0.18811430983E+02  0.34833462343E+02  0.00000000000E+00 0.  1.
</event>
<event>
 7    1  0.3461631E-013  0.5930212E+02  0.7816164E-02  0.1266604E+00
        -11   -1    0    0    0    0  0.00000000000E+00  0.00000000000E+00  0.45593999997E+02  0.45594000000E+02  0.51100000000E-03 0. -1.
         11   -1    0    0    0    0 -0.00000000000E+00 -0.00000000000E+00 -0.45593999997E+02  0.45594000000E+02  0.51100000000E-03 0.  1.
    9900012    2    1    2    0    0  0.78055954024E+01  0.12008145686E+01 -0.30892392432E+02  0.59302122477E+02  0.50000325448E+02 0.  0.
         12    1    1    2    0    0 -0.78055954024E+01 -0.12008145686E+01  0.30892392432E+02  0.31885877523E+02  0.00000000000E+00 0. -1.
         11    1    3    3    0    0  0.13348955912E+02  0.62438424514E+01 -0.32136900431E+01  0.15083368206E+02  0.51100000000E-03 0. -1.
        -11    1    3    3    0    0  0.12768667380E+02  0.26235866047E+01 -0.47111489633E+01  0.13860627624E+02  0.51100000000E-03 0.  1.
        -12    1    3    3    0    0 -0.18312027889E+02 -0.76666144875E+01 -0.22967553426E+02  0.30358126646E+02  0.00000000000E+00 0.  1.
</event>
<event>
 7    1  0.3461631E-013  0.5930196E+02  0.7816164E-02  0.1266605E+00
        -11   -1    0    0    0    0  0.00000000000E+00  0.00000000000E+00  0.45593999997E+02  0.45594000000E+02  0.51100000000E-03 0. -1.
         11   -1    0    0    0    0 -0.00000000000E+00 -0.00000000000E+00 -0.45593999997E+02  0.45594000000E+02  0.51100000000E-03 0.  1.
    9900012    2    1    2    0    0 -0.19182858844E+02  0.91301160674E+00 -0.25453958754E+02  0.59301957915E+02  0.50000025326E+02 0.  0.
         12    1    1    2    0    0  0.19182858844E+02 -0.91301160674E+00  0.25453958754E+02  0.31886042085E+02  0.00000000000E+00 0. -1.
         11    1    3    3    0    0  0.10880979653E+02  0.59751486370E+01 -0.13443540212E+02  0.18298275688E+02  0.51100000000E-03 0. -1.
        -11    1    3    3    0    0  0.17471783570E+01  0.49099012806E+01 -0.43717343053E+01  0.68023395897E+01  0.51100000000E-03 0.  1.
        -12    1    3    3    0    0 -0.31811016854E+02 -0.99720383108E+01 -0.76386842366E+01  0.34201342637E+02  0.00000000000E+00 0.  1.
</event>
<event>
 7    1  0.3461631E-013  0.5930195E+02  0.7816164E-02  0.1266605E+00
        -11   -1    0    0    0    0  0.00000000000E+00  0.00000000000E+00  0.45593999997E+02  0.45594000000E+02  0.51100000000E-03 0. -1.
         11   -1    0    0    0    0 -0.00000000000E+00 -0.00000000000E+00 -0.45593999997E+02  0.45594000000E+02  0.51100000000E-03 0.  1.
    9900012    2    1    2    0    0  0.11531395547E+02  0.25910339929E+02 -0.14573993394E+02  0.59301951610E+02  0.50000013829E+02 0.  0.
         12    1    1    2    0    0 -0.11531395547E+02 -0.25910339929E+02  0.14573993394E+02  0.31886048390E+02  0.00000000000E+00 0. -1.
         11    1    3    3    0    0 -0.42687973069E+01  0.80763860428E+01  0.92547762622E+01  0.13003904255E+02  0.51100000000E-03 0. -1.
        -11    1    3    3    0    0  0.11508821020E+02 -0.43534764245E+01  0.14508917782E+01  0.12389947758E+02  0.51100000000E-03 0.  1.
        -12    1    3    3    0    0  0.42913718337E+01  0.22187430310E+02 -0.25279661435E+02  0.33908099596E+02  0.00000000000E+00 0.  1.
</event>
<event>
 7    1  0.3461631E-013  0.5930195E+02  0.7816164E-02  0.1266605E+00
        -11   -1    0    0    0    0  0.00000000000E+00  0.00000000000E+00  0.45593999997E+02  0.45594000000E+02  0.51100000000E-03 0.  1.
         11   -1    0    0    0    0 -0.00000000000E+00 -0.00000000000E+00 -0.45593999997E+02  0.45594000000E+02  0.51100000000E-03 0. -1.
    9900012    2    1    2    0    0 -0.80103260692E+01  0.71224913592E+01  0.30030399580E+02  0.59301951235E+02  0.50000013145E+02 0.  0.
         12    1    1    2    0    0  0.80103260692E+01 -0.71224913592E+01 -0.30030399580E+02  0.31886048765E+02  0.00000000000E+00 0. -1.
         11    1    3    3    0    0 -0.11844426618E+02  0.11790040374E+02  0.73313824266E+01  0.18249511294E+02  0.51100000000E-03 0. -1.
        -11    1    3    3    0    0 -0.73134954142E+01  0.11938758529E+02  0.71647644829E+01  0.15727524305E+02  0.51100000000E-03 0.  1.
         12    1    3    3    0    0  0.11147595963E+02 -0.16606307544E+02  0.15534252670E+02  0.25324915637E+02  0.00000000000E+00 0. -1.
</event>
<event>
 7    1  0.3461631E-013  0.5930195E+02  0.7816164E-02  0.1266605E+00
        -11   -1    0    0    0    0  0.00000000000E+00  0.00000000000E+00  0.45593999997E+02  0.45594000000E+02  0.51100000000E-03 0. -1.
         11   -1    0    0    0    0 -0.00000000000E+00 -0.00000000000E+00 -0.45593999997E+02  0.45594000000E+02  0.51100000000E-03 0.  1.
    9900012    2    1    2    0    0  0.22634281991E+02  0.16236804927E+02 -0.15516952355E+02  0.59301947158E+02  0.50000005708E+02 0.  0.
         12    1    1    2    0    0 -0.22634281991E+02 -0.16236804927E+02  0.15516952355E+02  0.31886052842E+02  0.00000000000E+00 0. -1.
         11    1    3    3    0    0  0.37824383368E+01  0.58141789806E+00 -0.39422361646E+00  0.38471156812E+01  0.51100000000E-03 0. -1.
        -11    1    3    3    0    0  0.21643888329E+02 -0.76375825799E+01 -0.21174209392E+02  0.31227195092E+02  0.51100000000E-03 0.  1.
         12    1    3    3    0    0 -0.27920446749E+01  0.23292969609E+02  0.60514806541E+01  0.24227636384E+02  0.00000000000E+00 0. -1.
</event>
<event>
 7    1  0.3461631E-013  0.5930198E+02  0.7816164E-02  0.1266605E+00
        -11   -1    0    0    0    0  0.00000000000E+00  0.00000000000E+00  0.45593999997E+02  0.45594000000E+02  0.51100000000E-03 0.  1.
         11   -1    0    0    0    0 -0.00000000000E+00 -0.00000000000E+00 -0.45593999997E+02  0.45594000000E+02  0.51100000000E-03 0. -1.
    9900012    2    1    2    0    0 -0.27392581713E-01  0.22495188440E+02  0.22598323867E+02  0.59301976496E+02  0.50000059215E+02 0.  0.
         12    1    1    2    0    0  0.27392581713E-01 -0.22495188440E+02 -0.22598323867E+02  0.31886023504E+02  0.00000000000E+00 0. -1.
         11    1    3    3    0    0  0.15864250471E+01  0.11151661608E+02 -0.10825409863E+02  0.15622605417E+02  0.51100000000E-03 0. -1.
        -11    1    3    3    0    0 -0.51015822887E+01  0.50917072789E+01 -0.20475101244E+01  0.74929248516E+01  0.51100000000E-03 0.  1.
        -12    1    3    3    0    0  0.34877646599E+01  0.62518195528E+01  0.35471243854E+02  0.36186446228E+02  0.00000000000E+00 0.  1.
</event>
<event>
 7    1  0.3461631E-013  0.5930196E+02  0.7816164E-02  0.1266605E+00
        -11   -1    0    0    0    0  0.00000000000E+00  0.00000000000E+00  0.45593999997E+02  0.45594000000E+02  0.51100000000E-03 0. -1.
         11   -1    0    0    0    0 -0.00000000000E+00 -0.00000000000E+00 -0.45593999997E+02  0.45594000000E+02  0.51100000000E-03 0.  1.
    9900012    2    1    2    0    0  0.31257228820E+02 -0.15779887607E+01 -0.61004281522E+01  0.59301958765E+02  0.50000026877E+02 0.  0.
         12    1    1    2    0    0 -0.31257228820E+02  0.15779887607E+01  0.61004281522E+01  0.31886041235E+02  0.00000000000E+00 0. -1.
         11    1    3    3    0    0 -0.48217351679E+01  0.34327934786E+00  0.34982315366E+01  0.59669585959E+01  0.51100000000E-03 0. -1.
        -11    1    3    3    0    0  0.18567724113E+02  0.44799623548E+01 -0.23350532093E+02  0.30167495599E+02  0.51100000000E-03 0.  1.
         12    1    3    3    0    0  0.17511239875E+02 -0.64012304633E+01  0.13751872404E+02  0.23167504570E+02  0.00000000000E+00 0. -1.
</event>
<event>
 7    1  0.3461631E-013  0.5930189E+02  0.7816164E-02  0.1266605E+00
        -11   -1    0    0    0    0  0.00000000000E+00  0.00000000000E+00  0.45593999997E+02  0.45594000000E+02  0.51100000000E-03 0. -1.
         11   -1    0    0    0    0 -0.00000000000E+00 -0.00000000000E+00 -0.45593999997E+02  0.45594000000E+02  0.51100000000E-03 0.  1.
    9900012    2    1    2    0    0  0.16614249336E+02 -0.21140596589E+02 -0.17139598023E+02  0.59301891339E+02  0.49999903909E+02 0.  0.
         12    1    1    2    0    0 -0.16614249336E+02  0.21140596589E+02  0.17139598023E+02  0.31886108661E+02  0.00000000000E+00 0. -1.
         11    1    3    3    0    0  0.75242758517E+01 -0.13499258250E+02  0.56585146085E+01  0.16457930862E+02  0.51100000000E-03 0. -1.
        -11    1    3    3    0    0  0.16727234357E+02  0.26745485529E+01 -0.24615067525E+02  0.29880681530E+02  0.51100000000E-03 0.  1.
         12    1    3    3    0    0 -0.76372608729E+01 -0.10315886891E+02  0.18169548930E+01  0.12963278948E+02  0.00000000000E+00 0. -1.
</event>
<event>
 7    1  0.3461631E-013  0.5930194E+02  0.7816164E-02  0.1266605E+00
        -11   -1    0    0    0    0  0.00000000000E+00  0.00000000000E+00  0.45593999997E+02  0.45594000000E+02  0.51100000000E-03 0. -1.
         11   -1    0    0    0    0 -0.00000000000E+00 -0.00000000000E+00 -0.45593999997E+02  0.45594000000E+02  0.51100000000E-03 0.  1.
    9900012    2    1    2    0    0 -0.11141372378E+02  0.24120978651E+02 -0.17628651316E+02  0.59301935069E+02  0.49999983662E+02 0.  0.
         12    1    1    2    0    0  0.11141372378E+02 -0.24120978651E+02  0.17628651316E+02  0.31886064931E+02  0.00000000000E+00 0. -1.
         11    1    3    3    0    0 -0.31520328242E+01 -0.99423179054E+00  0.59345221633E+01  0.67928168934E+01  0.51100000000E-03 0. -1.
        -11    1    3    3    0    0 -0.37175814204E+00  0.95907709860E+01  0.10550375484E+02  0.14262942029E+02  0.51100000000E-03 0.  1.
        -12    1    3    3    0    0 -0.76175814114E+01  0.15524439455E+02 -0.34113548963E+02  0.38246176147E+02  0.00000000000E+00 0.  1.
</event>
<event>
 7    1  0.3461631E-013  0.5930193E+02  0.7816164E-02  0.1266605E+00
        -11   -1    0    0    0    0  0.00000000000E+00  0.00000000000E+00  0.45593999997E+02  0.45594000000E+02  0.51100000000E-03 0. -1.
         11   -1    0    0    0    0 -0.00000000000E+00 -0.00000000000E+00 -0.45593999997E+02  0.45594000000E+02  0.51100000000E-03 0.  1.
    9900012    2    1    2    0    0 -0.81414964789E+01  0.26607584369E+02  0.15571565488E+02  0.59301934664E+02  0.49999982923E+02 0.  0.
         12    1    1    2    0    0  0.81414964789E+01 -0.26607584369E+02 -0.15571565488E+02  0.31886065336E+02  0.00000000000E+00 0. -1.
         11    1    3    3    0    0 -0.38300063001E+00 -0.93241634636E+01  0.96295236462E+00  0.93815772286E+01  0.51100000000E-03 0.  1.
        -11    1    3    3    0    0 -0.10691481088E+02  0.66070667957E+01 -0.60313614221E+01  0.13940531567E+02  0.51100000000E-03 0. -1.
        -12    1    3    3    0    0  0.29329852394E+01  0.29324681036E+02  0.20639974545E+02  0.35979825869E+02  0.00000000000E+00 0.  1.
</event>
<event>
 7    1  0.3461631E-013  0.5930193E+02  0.7816164E-02  0.1266605E+00
        -11   -1    0    0    0    0  0.00000000000E+00  0.00000000000E+00  0.45593999997E+02  0.45594000000E+02  0.51100000000E-03 0.  1.
         11   -1    0    0    0    0 -0.00000000000E+00 -0.00000000000E+00 -0.45593999997E+02  0.45594000000E+02  0.51100000000E-03 0. -1.
    9900012    2    1    2    0    0 -0.18374361706E+02 -0.15254050865E+02  0.21128616920E+02  0.59301926412E+02  0.49999967874E+02 0.  0.
         12    1    1    2    0    0  0.18374361706E+02  0.15254050865E+02 -0.21128616920E+02  0.31886073588E+02  0.00000000000E+00 0. -1.
         11    1    3    3    0    0 -0.98273895698E+01 -0.55289767768E+01 -0.20391730011E+01  0.11458856694E+02  0.51100000000E-03 0. -1.
        -11    1    3    3    0    0  0.10291919336E+02 -0.10068245866E+02 -0.38504174517E+01  0.14903653688E+02  0.51100000000E-03 0.  1.
         12    1    3    3    0    0 -0.18838891472E+02  0.34317177776E+00  0.27018207372E+02  0.32939416030E+02  0.00000000000E+00 0. -1.
</event>
<event>
 7    1  0.3461631E-013  0.5930193E+02  0.7816164E-02  0.1266605E+00
        -11   -1    0    0    0    0  0.00000000000E+00  0.00000000000E+00  0.45593999997E+02  0.45594000000E+02  0.51100000000E-03 0. -1.
         11   -1    0    0    0    0 -0.00000000000E+00 -0.00000000000E+00 -0.45593999997E+02  0.45594000000E+02  0.51100000000E-03 0.  1.
    9900012    2    1    2    0    0 -0.46767953234E+01 -0.13900707424E+02 -0.28312879098E+02  0.59301934011E+02  0.49999981733E+02 0.  0.
         12    1    1    2    0    0  0.46767953234E+01  0.13900707424E+02  0.28312879098E+02  0.31886065989E+02  0.00000000000E+00 0. -1.
         11    1    3    3    0    0  0.11256159683E+02 -0.16307442312E+01  0.32122847676E+01  0.11818596839E+02  0.51100000000E-03 0. -1.
        -11    1    3    3    0    0 -0.12949081530E+01 -0.18812766004E+02 -0.12600888932E+02  0.22679932848E+02  0.51100000000E-03 0.  1.
        -12    1    3    3    0    0 -0.14638046853E+02  0.65428028113E+01 -0.18924274934E+02  0.24803404324E+02  0.00000000000E+00 0.  1.
</event>
<event>
 7    1  0.3461631E-013  0.5930191E+02  0.7816164E-02  0.1266605E+00
        -11   -1    0    0    0    0  0.00000000000E+00  0.00000000000E+00  0.45593999997E+02  0.45594000000E+02  0.51100000000E-03 0. -1.
         11   -1    0    0    0    0 -0.00000000000E+00 -0.00000000000E+00 -0.45593999997E+02  0.45594000000E+02  0.51100000000E-03 0.  1.
    9900012    2    1    2    0    0  0.98277142430E+01 -0.19730814250E+02 -0.23039825308E+02  0.59301912933E+02  0.49999943291E+02 0.  0.
         12    1    1    2    0    0 -0.98277142430E+01  0.19730814250E+02  0.23039825308E+02  0.31886087067E+02  0.00000000000E+00 0. -1.
         11    1    3    3    0    0 -0.29989722797E+01  0.90273551453E+00 -0.22732845022E+02  0.22947570878E+02  0.51100000000E-03 0. -1.
        -11    1    3    3    0    0  0.90313925340E+01  0.49901558954E+01 -0.14833194184E+01  0.10424391767E+02  0.51100000000E-03 0.  1.
        -12    1    3    3    0    0  0.37952939887E+01 -0.25623705660E+02  0.11763391319E+01  0.25929950288E+02  0.00000000000E+00 0.  1.
</event>
<event>
 7    1  0.3461631E-013  0.5930162E+02  0.7816164E-02  0.1266606E+00
        -11   -1    0    0    0    0  0.00000000000E+00  0.00000000000E+00  0.45593999997E+02  0.45594000000E+02  0.51100000000E-03 0.  1.
         11   -1    0    0    0    0 -0.00000000000E+00 -0.00000000000E+00 -0.45593999997E+02  0.45594000000E+02  0.51100000000E-03 0. -1.
    9900012    2    1    2    0    0 -0.24090375800E+01  0.27166251246E+02  0.16520663431E+02  0.59301623771E+02  0.49999415926E+02 0.  0.
         12    1    1    2    0    0  0.24090375800E+01 -0.27166251246E+02 -0.16520663431E+02  0.31886376229E+02  0.00000000000E+00 0. -1.
         11    1    3    3    0    0  0.26482646419E+01  0.15481282423E+02  0.58024388158E+00  0.15716872918E+02  0.51100000000E-03 0. -1.
        -11    1    3    3    0    0 -0.18521342712E+01  0.21377477538E+02 -0.33904989033E+01  0.21723775692E+02  0.51100000000E-03 0.  1.
        -12    1    3    3    0    0 -0.32051679506E+01 -0.96925087158E+01  0.19330918453E+02  0.21860975162E+02  0.00000000000E+00 0.  1.
</event>
<event>
 7    1  0.3461631E-013  0.5930197E+02  0.7816164E-02  0.1266605E+00
        -11   -1    0    0    0    0  0.00000000000E+00  0.00000000000E+00  0.45593999997E+02  0.45594000000E+02  0.51100000000E-03 0. -1.
         11   -1    0    0    0    0 -0.00000000000E+00 -0.00000000000E+00 -0.45593999997E+02  0.45594000000E+02  0.51100000000E-03 0.  1.
    9900012    2    1    2    0    0  0.20353307729E+01  0.20108016642E+01 -0.31757404605E+02  0.59301974190E+02  0.50000055009E+02 0.  0.
         12    1    1    2    0    0 -0.20353307729E+01 -0.20108016642E+01  0.31757404605E+02  0.31886025810E+02  0.00000000000E+00 0. -1.
         11    1    3    3    0    0 -0.44457652982E+01 -0.36872828682E+01 -0.19353959963E+02  0.20197441683E+02  0.51100000000E-03 0. -1.
        -11    1    3    3    0    0  0.15623321420E+02  0.60847892579E+01 -0.20778929887E+02  0.26699752059E+02  0.51100000000E-03 0.  1.
         12    1    3    3    0    0 -0.91422253490E+01 -0.38670472555E+00  0.83754852444E+01  0.12404780448E+02  0.00000000000E+00 0. -1.
</event>
<event>
 7    1  0.3461631E-013  0.5930193E+02  0.7816164E-02  0.1266605E+00
        -11   -1    0    0    0    0  0.00000000000E+00  0.00000000000E+00  0.45593999997E+02  0.45594000000E+02  0.51100000000E-03 0. -1.
         11   -1    0    0    0    0 -0.00000000000E+00 -0.00000000000E+00 -0.45593999997E+02  0.45594000000E+02  0.51100000000E-03 0.  1.
    9900012    2    1    2    0    0  0.18347974721E+02 -0.22957168838E+02 -0.12370998706E+02  0.59301931155E+02  0.49999976523E+02 0.  0.
         12    1    1    2    0    0 -0.18347974721E+02  0.22957168838E+02  0.12370998706E+02  0.31886068845E+02  0.00000000000E+00 0. -1.
         11    1    3    3    0    0  0.30186384891E+01  0.12757729709E+02 -0.60992579676E+00  0.13124170655E+02  0.51100000000E-03 0. -1.
        -11    1    3    3    0    0  0.12236088975E+02 -0.45549007686E+01 -0.58701589776E+01  0.14315298149E+02  0.51100000000E-03 0.  1.
        -12    1    3    3    0    0  0.30932472573E+01 -0.31159997778E+02 -0.58909139318E+01  0.31862462351E+02  0.00000000000E+00 0.  1.
</event>
<event>
 7    1  0.3461631E-013  0.5930194E+02  0.7816164E-02  0.1266605E+00
        -11   -1    0    0    0    0  0.00000000000E+00  0.00000000000E+00  0.45593999997E+02  0.45594000000E+02  0.51100000000E-03 0.  1.
         11   -1    0    0    0    0 -0.00000000000E+00 -0.00000000000E+00 -0.45593999997E+02  0.45594000000E+02  0.51100000000E-03 0. -1.
    9900012    2    1    2    0    0  0.24806518031E+02  0.11533194695E+02  0.16381168985E+02  0.59301943267E+02  0.49999998613E+02 0.  0.
         12    1    1    2    0    0 -0.24806518031E+02 -0.11533194695E+02 -0.16381168985E+02  0.31886056733E+02  0.00000000000E+00 0. -1.
         11    1    3    3    0    0  0.34278376413E+01  0.11547837881E+02 -0.89854067039E+01  0.15027979389E+02  0.51100000000E-03 0. -1.
        -11    1    3    3    0    0  0.59727260533E+01 -0.12797895644E+02  0.33461138064E+01  0.14513995566E+02  0.51100000000E-03 0.  1.
        -12    1    3    3    0    0  0.15405954336E+02  0.12783252459E+02  0.22020461882E+02  0.29759968312E+02  0.00000000000E+00 0.  1.
</event>
<event>
 7    1  0.3461631E-013  0.5930196E+02  0.7816164E-02  0.1266605E+00
        -11   -1    0    0    0    0  0.00000000000E+00  0.00000000000E+00  0.45593999997E+02  0.45594000000E+02  0.51100000000E-03 0. -1.
         11   -1    0    0    0    0 -0.00000000000E+00 -0.00000000000E+00 -0.45593999997E+02  0.45594000000E+02  0.51100000000E-03 0.  1.
    9900012    2    1    2    0    0 -0.15961974824E+01 -0.30041371039E+02 -0.10568247279E+02  0.59301958056E+02  0.50000025585E+02 0.  0.
         12    1    1    2    0    0  0.15961974824E+01  0.30041371039E+02  0.10568247279E+02  0.31886041944E+02  0.00000000000E+00 0. -1.
         11    1    3    3    0    0 -0.10622069421E+02  0.27754101440E+01  0.51248461559E+01  0.12115911383E+02  0.51100000000E-03 0. -1.
        -11    1    3    3    0    0 -0.86287641168E+01 -0.19596917768E+02 -0.12786503839E+02  0.24939716054E+02  0.51100000000E-03 0.  1.
        -12    1    3    3    0    0  0.17654636055E+02 -0.13219863415E+02 -0.29065895959E+01  0.22246330620E+02  0.00000000000E+00 0.  1.
</event>
<event>
 7    1  0.3461631E-013  0.5930188E+02  0.7816164E-02  0.1266605E+00
        -11   -1    0    0    0    0  0.00000000000E+00  0.00000000000E+00  0.45593999997E+02  0.45594000000E+02  0.51100000000E-03 0.  1.
         11   -1    0    0    0    0 -0.00000000000E+00 -0.00000000000E+00 -0.45593999997E+02  0.45594000000E+02  0.51100000000E-03 0. -1.
    9900012    2    1    2    0    0  0.33992215003E+01  0.22085227783E+02  0.22746707289E+02  0.59301879422E+02  0.49999882174E+02 0.  0.
         12    1    1    2    0    0 -0.33992215003E+01 -0.22085227783E+02 -0.22746707289E+02  0.31886120578E+02  0.00000000000E+00 0. -1.
         11    1    3    3    0    0 -0.16297599841E+02 -0.16492076119E+01 -0.40313477411E+01  0.16869600209E+02  0.51100000000E-03 0. -1.
        -11    1    3    3    0    0  0.57369644353E+01  0.84175501782E+00  0.71334983911E+01  0.91928293794E+01  0.51100000000E-03 0.  1.
        -12    1    3    3    0    0  0.13959856906E+02  0.22892680377E+02  0.19644556639E+02  0.33239449834E+02  0.00000000000E+00 0.  1.
</event>
<event>
 7    1  0.3461631E-013  0.5930191E+02  0.7816164E-02  0.1266605E+00
        -11   -1    0    0    0    0  0.00000000000E+00  0.00000000000E+00  0.45593999997E+02  0.45594000000E+02  0.51100000000E-03 0.  1.
         11   -1    0    0    0    0 -0.00000000000E+00 -0.00000000000E+00 -0.45593999997E+02  0.45594000000E+02  0.51100000000E-03 0. -1.
    9900012    2    1    2    0    0 -0.92698547927E+01  0.10899208704E+02  0.28495607249E+02  0.59301912269E+02  0.49999942080E+02 0.  0.
         12    1    1    2    0    0  0.92698547927E+01 -0.10899208704E+02 -0.28495607249E+02  0.31886087731E+02  0.00000000000E+00 0. -1.
         11    1    3    3    0    0  0.11898249208E+02  0.21054102556E+01 -0.36862128125E+01  0.12632863956E+02  0.51100000000E-03 0. -1.
        -11    1    3    3    0    0 -0.56150512518E+01 -0.45569728255E+01  0.23180577902E+02  0.24282380320E+02  0.51100000000E-03 0.  1.
         12    1    3    3    0    0 -0.15553052749E+02  0.13350771274E+02  0.90012421602E+01  0.22386667993E+02  0.00000000000E+00 0. -1.
</event>
<event>
 7    1  0.3461631E-013  0.5930194E+02  0.7816164E-02  0.1266605E+00
        -11   -1    0    0    0    0  0.00000000000E+00  0.00000000000E+00  0.45593999997E+02  0.45594000000E+02  0.51100000000E-03 0.  1.
         11   -1    0    0    0    0 -0.00000000000E+00 -0.00000000000E+00 -0.45593999997E+02  0.45594000000E+02  0.51100000000E-03 0. -1.
    9900012    2    1    2    0    0  0.22419975029E+02  0.17931379116E+02  0.13875564277E+02  0.59301938448E+02  0.49999989824E+02 0.  0.
         12    1    1    2    0    0 -0.22419975029E+02 -0.17931379116E+02 -0.13875564277E+02  0.31886061552E+02  0.00000000000E+00 0. -1.
         11    1    3    3    0    0  0.20951175590E+02 -0.96902459742E+01 -0.66864835172E+01  0.24032513138E+02  0.51100000000E-03 0. -1.
        -11    1    3    3    0    0  0.19635268392E+00  0.84166669367E+01  0.22768740680E+01  0.87214100054E+01  0.51100000000E-03 0.  1.
        -12    1    3    3    0    0  0.12724467552E+01  0.19204958153E+02  0.18285173726E+02  0.26548015304E+02  0.00000000000E+00 0.  1.
</event>
<event>
 7    1  0.3461631E-013  0.5930192E+02  0.7816164E-02  0.1266605E+00
        -11   -1    0    0    0    0  0.00000000000E+00  0.00000000000E+00  0.45593999997E+02  0.45594000000E+02  0.51100000000E-03 0.  1.
         11   -1    0    0    0    0 -0.00000000000E+00 -0.00000000000E+00 -0.45593999997E+02  0.45594000000E+02  0.51100000000E-03 0. -1.
    9900012    2    1    2    0    0 -0.13697031766E+02 -0.20625840411E+02  0.20091992648E+02  0.59301919331E+02  0.49999954959E+02 0.  0.
         12    1    1    2    0    0  0.13697031766E+02  0.20625840411E+02 -0.20091992648E+02  0.31886080669E+02  0.00000000000E+00 0. -1.
         11    1    3    3    0    0 -0.10253186211E+02  0.96577939386E+01  0.21528635021E+02  0.25727085676E+02  0.51100000000E-03 0.  1.
        -11    1    3    3    0    0  0.53147048312E+01 -0.12176186420E+02 -0.20943932208E+01  0.13449612872E+02  0.51100000000E-03 0. -1.
        -12    1    3    3    0    0 -0.87585503867E+01 -0.18107447929E+02  0.65775084815E+00  0.20125220783E+02  0.00000000000E+00 0.  1.
</event>
<event>
 7    1  0.3461631E-013  0.5930199E+02  0.7816164E-02  0.1266605E+00
        -11   -1    0    0    0    0  0.00000000000E+00  0.00000000000E+00  0.45593999997E+02  0.45594000000E+02  0.51100000000E-03 0.  1.
         11   -1    0    0    0    0 -0.00000000000E+00 -0.00000000000E+00 -0.45593999997E+02  0.45594000000E+02  0.51100000000E-03 0. -1.
    9900012    2    1    2    0    0  0.29613468213E+02  0.80527925544E+01 -0.86551993307E+01  0.59301992991E+02  0.50000089297E+02 0.  0.
         12    1    1    2    0    0 -0.29613468213E+02 -0.80527925544E+01  0.86551993307E+01  0.31886007009E+02  0.00000000000E+00 0. -1.
         11    1    3    3    0    0  0.96230371486E+01  0.10116403630E+02  0.13829845440E+01  0.14030577781E+02  0.51100000000E-03 0. -1.
        -11    1    3    3    0    0 -0.93176582797E+00  0.15421488741E+02 -0.92218986827E+01  0.17992607319E+02  0.51100000000E-03 0.  1.
        -12    1    3    3    0    0  0.20922196893E+02 -0.17485099817E+02 -0.81628519204E+00  0.27278807891E+02  0.00000000000E+00 0.  1.
</event>
<event>
 7    1  0.3461631E-013  0.5930195E+02  0.7816164E-02  0.1266605E+00
        -11   -1    0    0    0    0  0.00000000000E+00  0.00000000000E+00  0.45593999997E+02  0.45594000000E+02  0.51100000000E-03 0.  1.
         11   -1    0    0    0    0 -0.00000000000E+00 -0.00000000000E+00 -0.45593999997E+02  0.45594000000E+02  0.51100000000E-03 0. -1.
    9900012    2    1    2    0    0 -0.12754579186E+02  0.44626187082E+00  0.29220574530E+02  0.59301946376E+02  0.50000004283E+02 0.  0.
         12    1    1    2    0    0  0.12754579186E+02 -0.44626187082E+00 -0.29220574530E+02  0.31886053624E+02  0.00000000000E+00 0. -1.
         11    1    3    3    0    0 -0.11569983451E+01  0.45198741760E+01  0.56776392996E+01  0.73487070982E+01  0.51100000000E-03 0. -1.
        -11    1    3    3    0    0 -0.69801025057E+01  0.99256827188E+00  0.36564307348E+02  0.37237824787E+02  0.51100000000E-03 0.  1.
         12    1    3    3    0    0 -0.46174783355E+01 -0.50661805771E+01 -0.13021372118E+02  0.14715414491E+02  0.00000000000E+00 0. -1.
</event>
<event>
 7    1  0.3461631E-013  0.5930197E+02  0.7816164E-02  0.1266605E+00
        -11   -1    0    0    0    0  0.00000000000E+00  0.00000000000E+00  0.45593999997E+02  0.45594000000E+02  0.51100000000E-03 0.  1.
         11   -1    0    0    0    0 -0.00000000000E+00 -0.00000000000E+00 -0.45593999997E+02  0.45594000000E+02  0.51100000000E-03 0. -1.
    9900012    2    1    2    0    0 -0.24558878433E+02  0.33468939172E+01 -0.20059384614E+02  0.59301966696E+02  0.50000041341E+02 0.  0.
         12    1    1    2    0    0  0.24558878433E+02 -0.33468939172E+01  0.20059384614E+02  0.31886033304E+02  0.00000000000E+00 0. -1.
         11    1    3    3    0    0 -0.99724504708E+00 -0.12614748434E+01 -0.77230915926E+01  0.78887236277E+01  0.51100000000E-03 0. -1.
        -11    1    3    3    0    0 -0.22963313390E+02  0.13950197220E+02 -0.24296775033E+02  0.36225060961E+02  0.51100000000E-03 0.  1.
        -12    1    3    3    0    0 -0.59831999553E+00 -0.93418284592E+01  0.11960482012E+02  0.15188182108E+02  0.00000000000E+00 0.  1.
</event>
<event>
 7    1  0.3461631E-013  0.5930192E+02  0.7816164E-02  0.1266605E+00
        -11   -1    0    0    0    0  0.00000000000E+00  0.00000000000E+00  0.45593999997E+02  0.45594000000E+02  0.51100000000E-03 0. -1.
         11   -1    0    0    0    0 -0.00000000000E+00 -0.00000000000E+00 -0.45593999997E+02  0.45594000000E+02  0.51100000000E-03 0.  1.
    9900012    2    1    2    0    0 -0.13282519791E+02 -0.24308735344E+02 -0.15791840405E+02  0.59301918877E+02  0.49999954131E+02 0.  0.
         12    1    1    2    0    0  0.13282519791E+02  0.24308735344E+02  0.15791840405E+02  0.31886081123E+02  0.00000000000E+00 0. -1.
         11    1    3    3    0    0  0.54359802079E+01  0.16732835239E+01  0.46658840931E+01  0.73566455130E+01  0.51100000000E-03 0. -1.
        -11    1    3    3    0    0  0.10311534497E+02 -0.50302653725E+01 -0.82066364117E+01  0.14106033987E+02  0.51100000000E-03 0.  1.
         12    1    3    3    0    0 -0.29030034495E+02 -0.20951753495E+02 -0.12251088086E+02  0.37839239377E+02  0.00000000000E+00 0. -1.
</event>
<event>
 7    1  0.4232194E-013  0.5930195E+02  0.7816164E-02  0.1266605E+00
        -11   -1    0    0    0    0  0.00000000000E+00  0.00000000000E+00  0.45593999997E+02  0.45594000000E+02  0.51100000000E-03 0.  1.
         11   -1    0    0    0    0 -0.00000000000E+00 -0.00000000000E+00 -0.45593999997E+02  0.45594000000E+02  0.51100000000E-03 0. -1.
    9900012    2    1    2    0    0  0.18114887031E+02 -0.20998754666E+01  0.26156485588E+02  0.59301947447E+02  0.50000006235E+02 0.  0.
         12    1    1    2    0    0 -0.18114887031E+02  0.20998754666E+01 -0.26156485588E+02  0.31886052553E+02  0.00000000000E+00 0. -1.
         11    1    3    3    0    0  0.84850248819E+01 -0.10646454464E+02  0.72596623090E+01  0.15428717931E+02  0.51100000000E-03 0. -1.
        -11    1    3    3    0    0  0.50449844802E+01 -0.43910553125E+01  0.27079511466E+02  0.27893246076E+02  0.51100000000E-03 0.  1.
         12    1    3    3    0    0  0.45848776685E+01  0.12937634309E+02 -0.81826881870E+01  0.15979983439E+02  0.00000000000E+00 0. -1.
</event>
<event>
 7    1  0.3461631E-013  0.5930193E+02  0.7816164E-02  0.1266605E+00
        -11   -1    0    0    0    0  0.00000000000E+00  0.00000000000E+00  0.45593999997E+02  0.45594000000E+02  0.51100000000E-03 0.  1.
         11   -1    0    0    0    0 -0.00000000000E+00 -0.00000000000E+00 -0.45593999997E+02  0.45594000000E+02  0.51100000000E-03 0. -1.
    9900012    2    1    2    0    0  0.29661061585E+02 -0.11425491980E+02  0.25300842526E+01  0.59301925176E+02  0.49999965620E+02 0.  0.
         12    1    1    2    0    0 -0.29661061585E+02  0.11425491980E+02 -0.25300842526E+01  0.31886074824E+02  0.00000000000E+00 0. -1.
         11    1    3    3    0    0  0.13784131111E+02  0.10361226546E+02 -0.76056216196E+01  0.18846823778E+02  0.51100000000E-03 0. -1.
        -11    1    3    3    0    0 -0.72799541987E+01 -0.53326684495E+01  0.78418086142E+01  0.11955293745E+02  0.51100000000E-03 0.  1.
         12    1    3    3    0    0  0.23156884672E+02 -0.16454050076E+02  0.22938972580E+01  0.28499807653E+02  0.00000000000E+00 0. -1.
</event>
<event>
 7    1  0.3461631E-013  0.5930196E+02  0.7816164E-02  0.1266605E+00
        -11   -1    0    0    0    0  0.00000000000E+00  0.00000000000E+00  0.45593999997E+02  0.45594000000E+02  0.51100000000E-03 0.  1.
         11   -1    0    0    0    0 -0.00000000000E+00 -0.00000000000E+00 -0.45593999997E+02  0.45594000000E+02  0.51100000000E-03 0. -1.
    9900012    2    1    2    0    0 -0.22514883939E+02 -0.15283448564E+02  0.16619747317E+02  0.59301956036E+02  0.50000021900E+02 0.  0.
         12    1    1    2    0    0  0.22514883939E+02  0.15283448564E+02 -0.16619747317E+02  0.31886043964E+02  0.00000000000E+00 0. -1.
         11    1    3    3    0    0  0.31187822867E+01  0.25297456804E+01  0.15102215573E+02  0.15627006483E+02  0.51100000000E-03 0. -1.
        -11    1    3    3    0    0 -0.20699197808E+02 -0.14743700030E+02  0.14636292418E+02  0.29326686421E+02  0.51100000000E-03 0.  1.
        -12    1    3    3    0    0 -0.49344684184E+01 -0.30694942141E+01 -0.13118760673E+02  0.14348263132E+02  0.00000000000E+00 0.  1.
</event>
<event>
 7    1  0.3461631E-013  0.5930197E+02  0.7816164E-02  0.1266605E+00
        -11   -1    0    0    0    0  0.00000000000E+00  0.00000000000E+00  0.45593999997E+02  0.45594000000E+02  0.51100000000E-03 0.  1.
         11   -1    0    0    0    0 -0.00000000000E+00 -0.00000000000E+00 -0.45593999997E+02  0.45594000000E+02  0.51100000000E-03 0. -1.
    9900012    2    1    2    0    0 -0.11651108628E+02 -0.14659194854E+01  0.29644931139E+02  0.59301965527E+02  0.50000039209E+02 0.  0.
         12    1    1    2    0    0  0.11651108628E+02  0.14659194854E+01 -0.29644931139E+02  0.31886034473E+02  0.00000000000E+00 0. -1.
         11    1    3    3    0    0 -0.11002507515E+00  0.11990063313E+02 -0.55295769985E+01  0.13204163957E+02  0.51100000000E-03 0. -1.
        -11    1    3    3    0    0  0.35678131645E+01  0.23796854159E+01 -0.42348974574E+00  0.43094706498E+01  0.51100000000E-03 0.  1.
        -12    1    3    3    0    0 -0.15108896718E+02 -0.15835668214E+02  0.35597997883E+02  0.41788330920E+02  0.00000000000E+00 0.  1.
</event>
<event>
 7    1  0.3461631E-013  0.5930193E+02  0.7816164E-02  0.1266605E+00
        -11   -1    0    0    0    0  0.00000000000E+00  0.00000000000E+00  0.45593999997E+02  0.45594000000E+02  0.51100000000E-03 0. -1.
         11   -1    0    0    0    0 -0.00000000000E+00 -0.00000000000E+00 -0.45593999997E+02  0.45594000000E+02  0.51100000000E-03 0.  1.
    9900012    2    1    2    0    0  0.10810883275E+02  0.27638253164E+02 -0.11660743593E+02  0.59301934450E+02  0.49999982532E+02 0.  0.
         12    1    1    2    0    0 -0.10810883275E+02 -0.27638253164E+02  0.11660743593E+02  0.31886065550E+02  0.00000000000E+00 0. -1.
         11    1    3    3    0    0  0.18099034377E+02 -0.21583188676E+01 -0.10895332508E+02  0.21235386891E+02  0.51100000000E-03 0. -1.
        -11    1    3    3    0    0  0.26536532313E+01  0.16263128870E+02 -0.96216983466E+01  0.19081622453E+02  0.51100000000E-03 0.  1.
        -12    1    3    3    0    0 -0.99418043333E+01  0.13533443162E+02  0.88562872613E+01  0.18984925106E+02  0.00000000000E+00 0.  1.
</event>
<event>
 7    1  0.3461631E-013  0.5930196E+02  0.7816164E-02  0.1266605E+00
        -11   -1    0    0    0    0  0.00000000000E+00  0.00000000000E+00  0.45593999997E+02  0.45594000000E+02  0.51100000000E-03 0.  1.
         11   -1    0    0    0    0 -0.00000000000E+00 -0.00000000000E+00 -0.45593999997E+02  0.45594000000E+02  0.51100000000E-03 0. -1.
    9900012    2    1    2    0    0  0.43057612330E+01  0.57884112590E+01  0.31059206821E+02  0.59301958963E+02  0.50000027238E+02 0.  0.
         12    1    1    2    0    0 -0.43057612330E+01 -0.57884112590E+01 -0.31059206821E+02  0.31886041037E+02  0.00000000000E+00 0. -1.
         11    1    3    3    0    0 -0.94175618931E+01 -0.61338562095E+01  0.18349483762E+02  0.21517858132E+02  0.51100000000E-03 0. -1.
        -11    1    3    3    0    0 -0.77655100927E+01  0.91358149571E+01  0.10615818577E+02  0.16014426816E+02  0.51100000000E-03 0.  1.
        -12    1    3    3    0    0  0.21488833219E+02  0.27864525115E+01  0.20939044815E+01  0.21769674014E+02  0.00000000000E+00 0.  1.
</event>
<event>
 7    1  0.3461631E-013  0.5930221E+02  0.7816164E-02  0.1266604E+00
        -11   -1    0    0    0    0  0.00000000000E+00  0.00000000000E+00  0.45593999997E+02  0.45594000000E+02  0.51100000000E-03 0. -1.
         11   -1    0    0    0    0 -0.00000000000E+00 -0.00000000000E+00 -0.45593999997E+02  0.45594000000E+02  0.51100000000E-03 0.  1.
    9900012    2    1    2    0    0  0.27291268992E+02 -0.16371980346E+02 -0.19617591172E+01  0.59302210023E+02  0.50000485109E+02 0.  0.
         12    1    1    2    0    0 -0.27291268992E+02  0.16371980346E+02  0.19617591172E+01  0.31885789977E+02  0.00000000000E+00 0. -1.
         11    1    3    3    0    0 -0.55889761147E+01  0.64673856892E+01 -0.67188587415E+01  0.10872294823E+02  0.51100000000E-03 0. -1.
        -11    1    3    3    0    0 -0.20945035312E+01  0.11012996474E+01  0.55555853824E+01  0.60385706220E+01  0.51100000000E-03 0.  1.
        -12    1    3    3    0    0  0.34974748638E+02 -0.23940665683E+02 -0.79848575807E+00  0.42391344578E+02  0.00000000000E+00 0.  1.
</event>
<event>
 7    1  0.3461631E-013  0.5930193E+02  0.7816164E-02  0.1266605E+00
        -11   -1    0    0    0    0  0.00000000000E+00  0.00000000000E+00  0.45593999997E+02  0.45594000000E+02  0.51100000000E-03 0.  1.
         11   -1    0    0    0    0 -0.00000000000E+00 -0.00000000000E+00 -0.45593999997E+02  0.45594000000E+02  0.51100000000E-03 0. -1.
    9900012    2    1    2    0    0  0.15483500232E+02  0.69642514193E+01  0.26990398394E+02  0.59301934349E+02  0.49999982348E+02 0.  0.
         12    1    1    2    0    0 -0.15483500232E+02 -0.69642514193E+01 -0.26990398394E+02  0.31886065651E+02  0.00000000000E+00 0. -1.
         11    1    3    3    0    0  0.50307982992E+00  0.14750934200E+02  0.15254875235E+02  0.21226265988E+02  0.51100000000E-03 0. -1.
        -11    1    3    3    0    0  0.33196532239E+00  0.49823998758E+01 -0.86022207875E+01  0.99464924590E+01  0.51100000000E-03 0.  1.
        -12    1    3    3    0    0  0.14648455079E+02 -0.12769082657E+02  0.20337743946E+02  0.28129175902E+02  0.00000000000E+00 0.  1.
</event>
<event>
 7    1  0.3461631E-013  0.5930198E+02  0.7816164E-02  0.1266605E+00
        -11   -1    0    0    0    0  0.00000000000E+00  0.00000000000E+00  0.45593999997E+02  0.45594000000E+02  0.51100000000E-03 0.  1.
         11   -1    0    0    0    0 -0.00000000000E+00 -0.00000000000E+00 -0.45593999997E+02  0.45594000000E+02  0.51100000000E-03 0. -1.
    9900012    2    1    2    0    0 -0.12027348015E+02 -0.24255190830E+02  0.16844780264E+02  0.59301984184E+02  0.50000073236E+02 0.  0.
         12    1    1    2    0    0  0.12027348015E+02  0.24255190830E+02 -0.16844780264E+02  0.31886015816E+02  0.00000000000E+00 0. -1.
         11    1    3    3    0    0 -0.88402052577E+01 -0.64778701255E+01 -0.57534477594E+01  0.12377972037E+02  0.51100000000E-03 0. -1.
        -11    1    3    3    0    0 -0.44618721792E+01 -0.26958788728E+02  0.60970242213E+01  0.27997469486E+02  0.51100000000E-03 0.  1.
        -12    1    3    3    0    0  0.12747294218E+01  0.91814680239E+01  0.16501203802E+02  0.18926542661E+02  0.00000000000E+00 0.  1.
</event>
<event>
 7    1  0.3461631E-013  0.5930204E+02  0.7816164E-02  0.1266604E+00
        -11   -1    0    0    0    0  0.00000000000E+00  0.00000000000E+00  0.45593999997E+02  0.45594000000E+02  0.51100000000E-03 0. -1.
         11   -1    0    0    0    0 -0.00000000000E+00 -0.00000000000E+00 -0.45593999997E+02  0.45594000000E+02  0.51100000000E-03 0.  1.
    9900012    2    1    2    0    0  0.28346314947E+02 -0.15115087363E+01 -0.14522947221E+02  0.59302043440E+02  0.50000181304E+02 0.  0.
         12    1    1    2    0    0 -0.28346314947E+02  0.15115087363E+01  0.14522947221E+02  0.31885956560E+02  0.00000000000E+00 0. -1.
         11    1    3    3    0    0  0.61412653056E+01 -0.43026886622E+01  0.67197079679E+01  0.10068899876E+02  0.51100000000E-03 0. -1.
        -11    1    3    3    0    0  0.68586930277E+01 -0.24486076655E+00  0.11245735547E+02  0.13174528269E+02  0.51100000000E-03 0.  1.
        -12    1    3    3    0    0  0.15346356614E+02  0.30360406925E+01 -0.32488390736E+02  0.36058615296E+02  0.00000000000E+00 0.  1.
</event>
<event>
 7    1  0.3461631E-013  0.5930194E+02  0.7816164E-02  0.1266605E+00
        -11   -1    0    0    0    0  0.00000000000E+00  0.00000000000E+00  0.45593999997E+02  0.45594000000E+02  0.51100000000E-03 0.  1.
         11   -1    0    0    0    0 -0.00000000000E+00 -0.00000000000E+00 -0.45593999997E+02  0.45594000000E+02  0.51100000000E-03 0. -1.
    9900012    2    1    2    0    0  0.28964643968E+01 -0.26051738728E+02  0.18155946039E+02  0.59301937632E+02  0.49999988336E+02 0.  0.
         12    1    1    2    0    0 -0.28964643968E+01  0.26051738728E+02 -0.18155946039E+02  0.31886062368E+02  0.00000000000E+00 0. -1.
         11    1    3    3    0    0 -0.66767490065E+01  0.50467851806E+01  0.40535663993E+01  0.92994848658E+01  0.51100000000E-03 0. -1.
        -11    1    3    3    0    0  0.19166302620E+02 -0.22228943062E+02  0.20153706686E+02  0.35604002011E+02  0.51100000000E-03 0.  1.
         12    1    3    3    0    0 -0.95930892171E+01 -0.88695808466E+01 -0.60513270459E+01  0.14398450755E+02  0.00000000000E+00 0. -1.
</event>
<event>
 7    1  0.3461631E-013  0.5930195E+02  0.7816164E-02  0.1266605E+00
        -11   -1    0    0    0    0  0.00000000000E+00  0.00000000000E+00  0.45593999997E+02  0.45594000000E+02  0.51100000000E-03 0. -1.
         11   -1    0    0    0    0 -0.00000000000E+00 -0.00000000000E+00 -0.45593999997E+02  0.45594000000E+02  0.51100000000E-03 0.  1.
    9900012    2    1    2    0    0 -0.87467605743E+01 -0.46435655611E+01 -0.30309263105E+02  0.59301953653E+02  0.50000017555E+02 0.  0.
         12    1    1    2    0    0  0.87467605743E+01  0.46435655611E+01  0.30309263105E+02  0.31886046347E+02  0.00000000000E+00 0. -1.
         11    1    3    3    0    0  0.92013498120E+01 -0.20540667960E+01 -0.22791064302E+02  0.24664075922E+02  0.51100000000E-03 0.  1.
        -11    1    3    3    0    0  0.54148911261E+01  0.63353646965E+01 -0.44297303718E+01  0.94382415297E+01  0.51100000000E-03 0. -1.
         12    1    3    3    0    0 -0.23363001512E+02 -0.89248634615E+01 -0.30884684306E+01  0.25199636202E+02  0.00000000000E+00 0. -1.
</event>
<event>
 7    1  0.3461631E-013  0.5930192E+02  0.7816164E-02  0.1266605E+00
        -11   -1    0    0    0    0  0.00000000000E+00  0.00000000000E+00  0.45593999997E+02  0.45594000000E+02  0.51100000000E-03 0. -1.
         11   -1    0    0    0    0 -0.00000000000E+00 -0.00000000000E+00 -0.45593999997E+02  0.45594000000E+02  0.51100000000E-03 0.  1.
    9900012    2    1    2    0    0  0.65087555239E+01  0.26967703047E+01 -0.31097998978E+02  0.59301921392E+02  0.49999958719E+02 0.  0.
         12    1    1    2    0    0 -0.65087555239E+01 -0.26967703047E+01  0.31097998978E+02  0.31886078608E+02  0.00000000000E+00 0. -1.
         11    1    3    3    0    0  0.62889102786E+00  0.62585519496E+01 -0.19041788687E+01  0.65719764041E+01  0.51100000000E-03 0. -1.
        -11    1    3    3    0    0 -0.16398846609E+02  0.25087967613E+01 -0.23810213735E+02  0.29019691757E+02  0.51100000000E-03 0.  1.
         12    1    3    3    0    0  0.22278711105E+02 -0.60705784062E+01 -0.53836063741E+01  0.23710253231E+02  0.00000000000E+00 0. -1.
</event>
<event>
 7    1  0.3461631E-013  0.5930194E+02  0.7816164E-02  0.1266605E+00
        -11   -1    0    0    0    0  0.00000000000E+00  0.00000000000E+00  0.45593999997E+02  0.45594000000E+02  0.51100000000E-03 0.  1.
         11   -1    0    0    0    0 -0.00000000000E+00 -0.00000000000E+00 -0.45593999997E+02  0.45594000000E+02  0.51100000000E-03 0. -1.
    9900012    2    1    2    0    0  0.10692181094E+02 -0.77780878510E+01  0.29015500389E+02  0.59301942703E+02  0.49999997583E+02 0.  0.
         12    1    1    2    0    0 -0.10692181094E+02  0.77780878510E+01 -0.29015500389E+02  0.31886057297E+02  0.00000000000E+00 0. -1.
         11    1    3    3    0    0 -0.97360465795E+01 -0.12311360428E+02  0.10659268375E+02  0.18973144208E+02  0.51100000000E-03 0. -1.
        -11    1    3    3    0    0  0.74678864779E-01  0.13561529232E+02  0.82739927031E+01  0.15886459881E+02  0.51100000000E-03 0.  1.
         12    1    3    3    0    0  0.20353548809E+02 -0.90282566549E+01  0.10082239311E+02  0.24442338613E+02  0.00000000000E+00 0. -1.
</event>
<event>
 7    1  0.3461631E-013  0.5930195E+02  0.7816164E-02  0.1266605E+00
        -11   -1    0    0    0    0  0.00000000000E+00  0.00000000000E+00  0.45593999997E+02  0.45594000000E+02  0.51100000000E-03 0.  1.
         11   -1    0    0    0    0 -0.00000000000E+00 -0.00000000000E+00 -0.45593999997E+02  0.45594000000E+02  0.51100000000E-03 0. -1.
    9900012    2    1    2    0    0  0.63720437660E+01 -0.13369682249E+02  0.28237718927E+02  0.59301951085E+02  0.50000012871E+02 0.  0.
         12    1    1    2    0    0 -0.63720437660E+01  0.13369682249E+02 -0.28237718927E+02  0.31886048915E+02  0.00000000000E+00 0. -1.
         11    1    3    3    0    0 -0.11852402670E+02  0.56338141175E+01  0.12144081106E+02  0.17880101139E+02  0.51100000000E-03 0. -1.
        -11    1    3    3    0    0 -0.32482819676E+01  0.56150589469E+00  0.11559979760E+02  0.12020805169E+02  0.51100000000E-03 0.  1.
         12    1    3    3    0    0  0.21472728404E+02 -0.19565002261E+02  0.45336580618E+01  0.29401044777E+02  0.00000000000E+00 0. -1.
</event>
<event>
 7    1  0.3461631E-013  0.5930198E+02  0.7816164E-02  0.1266605E+00
        -11   -1    0    0    0    0  0.00000000000E+00  0.00000000000E+00  0.45593999997E+02  0.45594000000E+02  0.51100000000E-03 0.  1.
         11   -1    0    0    0    0 -0.00000000000E+00 -0.00000000000E+00 -0.45593999997E+02  0.45594000000E+02  0.51100000000E-03 0. -1.
    9900012    2    1    2    0    0 -0.27292171199E+02  0.74869875611E-01  0.16487871567E+02  0.59301982327E+02  0.50000069848E+02 0.  0.
         12    1    1    2    0    0  0.27292171199E+02 -0.74869875611E-01 -0.16487871567E+02  0.31886017673E+02  0.00000000000E+00 0. -1.
         11    1    3    3    0    0 -0.36679631450E+01 -0.15597513437E+01 -0.15141617954E+02  0.15657438246E+02  0.51100000000E-03 0. -1.
        -11    1    3    3    0    0 -0.45164700205E+01  0.50086052197E+01  0.24784092929E+00  0.67487815997E+01  0.51100000000E-03 0.  1.
         12    1    3    3    0    0 -0.19107738034E+02 -0.33739840004E+01  0.31381648591E+02  0.36895762482E+02  0.00000000000E+00 0. -1.
</event>
<event>
 7    1  0.3461631E-013  0.5930197E+02  0.7816164E-02  0.1266605E+00
        -11   -1    0    0    0    0  0.00000000000E+00  0.00000000000E+00  0.45593999997E+02  0.45594000000E+02  0.51100000000E-03 0.  1.
         11   -1    0    0    0    0 -0.00000000000E+00 -0.00000000000E+00 -0.45593999997E+02  0.45594000000E+02  0.51100000000E-03 0. -1.
    9900012    2    1    2    0    0  0.75840412984E+01 -0.30393379375E+02 -0.59534378178E+01  0.59301974627E+02  0.50000055806E+02 0.  0.
         12    1    1    2    0    0 -0.75840412984E+01  0.30393379375E+02  0.59534378178E+01  0.31886025373E+02  0.00000000000E+00 0. -1.
         11    1    3    3    0    0  0.11481538057E+01 -0.14323029188E+02 -0.93862013974E+01  0.17162989227E+02  0.51100000000E-03 0. -1.
        -11    1    3    3    0    0 -0.15602624764E+02 -0.34604082725E+01  0.48699606035E+01  0.16707269121E+02  0.51100000000E-03 0.  1.
        -12    1    3    3    0    0  0.22038512257E+02 -0.12609941915E+02 -0.14371970239E+01  0.25431716279E+02  0.00000000000E+00 0.  1.
</event>
<event>
 7    1  0.3461631E-013  0.5930195E+02  0.7816164E-02  0.1266605E+00
        -11   -1    0    0    0    0  0.00000000000E+00  0.00000000000E+00  0.45593999997E+02  0.45594000000E+02  0.51100000000E-03 0.  1.
         11   -1    0    0    0    0 -0.00000000000E+00 -0.00000000000E+00 -0.45593999997E+02  0.45594000000E+02  0.51100000000E-03 0. -1.
    9900012    2    1    2    0    0 -0.29719264339E+02 -0.77694701217E+01  0.85510628254E+01  0.59301952671E+02  0.50000015763E+02 0.  0.
         12    1    1    2    0    0  0.29719264339E+02  0.77694701217E+01 -0.85510628254E+01  0.31886047329E+02  0.00000000000E+00 0. -1.
         11    1    3    3    0    0 -0.14000183254E+01  0.48633464494E+01 -0.16261877581E+01  0.53157009776E+01  0.51100000000E-03 0. -1.
        -11    1    3    3    0    0 -0.18100596683E+02  0.13167329538E+02 -0.41361355129E+01  0.22762200788E+02  0.51100000000E-03 0.  1.
         12    1    3    3    0    0 -0.10218649330E+02 -0.25800146110E+02  0.14313386096E+02  0.31224050906E+02  0.00000000000E+00 0. -1.
</event>
<event>
 7    1  0.3923257E-013  0.5930196E+02  0.7816164E-02  0.1266605E+00
        -11   -1    0    0    0    0  0.00000000000E+00  0.00000000000E+00  0.45593999997E+02  0.45594000000E+02  0.51100000000E-03 0. -1.
         11   -1    0    0    0    0 -0.00000000000E+00 -0.00000000000E+00 -0.45593999997E+02  0.45594000000E+02  0.51100000000E-03 0.  1.
    9900012    2    1    2    0    0 -0.28008045902E+02 -0.15173967948E+02  0.14212018168E+01  0.59301956766E+02  0.50000023231E+02 0.  0.
         12    1    1    2    0    0  0.28008045902E+02  0.15173967948E+02 -0.14212018168E+01  0.31886043234E+02  0.00000000000E+00 0. -1.
         11    1    3    3    0    0 -0.17799457397E+02 -0.12738331605E+02  0.10798176237E+02  0.24406687322E+02  0.51100000000E-03 0. -1.
        -11    1    3    3    0    0 -0.21691731941E+02 -0.10938494788E+01 -0.84205950075E+01  0.23294509264E+02  0.51100000000E-03 0.  1.
         12    1    3    3    0    0  0.11483143436E+02 -0.13417868639E+01 -0.95637941291E+00  0.11600760180E+02  0.00000000000E+00 0. -1.
</event>
<event>
 7    1  0.3461631E-013  0.5930194E+02  0.7816164E-02  0.1266605E+00
        -11   -1    0    0    0    0  0.00000000000E+00  0.00000000000E+00  0.45593999997E+02  0.45594000000E+02  0.51100000000E-03 0. -1.
         11   -1    0    0    0    0 -0.00000000000E+00 -0.00000000000E+00 -0.45593999997E+02  0.45594000000E+02  0.51100000000E-03 0.  1.
    9900012    2    1    2    0    0 -0.21283590746E+02 -0.21329560811E+02 -0.10429731436E+02  0.59301941961E+02  0.49999996231E+02 0.  0.
         12    1    1    2    0    0  0.21283590746E+02  0.21329560811E+02  0.10429731436E+02  0.31886058039E+02  0.00000000000E+00 0. -1.
         11    1    3    3    0    0  0.12056765970E+01 -0.13011802995E+02  0.71647640023E+01  0.14902835861E+02  0.51100000000E-03 0. -1.
        -11    1    3    3    0    0  0.84321401645E+01 -0.26992320884E+01 -0.68197291432E+01  0.11175667652E+02  0.51100000000E-03 0.  1.
        -12    1    3    3    0    0 -0.30921407508E+02 -0.56185257278E+01 -0.10774766295E+02  0.33223438448E+02  0.00000000000E+00 0.  1.
</event>
<event>
 7    1  0.3461631E-013  0.5930195E+02  0.7816164E-02  0.1266605E+00
        -11   -1    0    0    0    0  0.00000000000E+00  0.00000000000E+00  0.45593999997E+02  0.45594000000E+02  0.51100000000E-03 0. -1.
         11   -1    0    0    0    0 -0.00000000000E+00 -0.00000000000E+00 -0.45593999997E+02  0.45594000000E+02  0.51100000000E-03 0.  1.
    9900012    2    1    2    0    0 -0.88123709534E+01  0.60664782882E+01 -0.30037647162E+02  0.59301948384E+02  0.50000007944E+02 0.  0.
         12    1    1    2    0    0  0.88123709534E+01 -0.60664782882E+01  0.30037647162E+02  0.31886051616E+02  0.00000000000E+00 0. -1.
         11    1    3    3    0    0  0.22458734761E+01 -0.11783852882E+02  0.48912504952E+01  0.12954824124E+02  0.51100000000E-03 0. -1.
        -11    1    3    3    0    0  0.22331720672E+01  0.20868670627E+01  0.22758829781E+01  0.38107368330E+01  0.51100000000E-03 0.  1.
        -12    1    3    3    0    0 -0.13291416497E+02  0.15763464108E+02 -0.37204780635E+02  0.42536387426E+02  0.00000000000E+00 0.  1.
</event>
<event>
 7    1  0.3461631E-013  0.5930196E+02  0.7816164E-02  0.1266605E+00
        -11   -1    0    0    0    0  0.00000000000E+00  0.00000000000E+00  0.45593999997E+02  0.45594000000E+02  0.51100000000E-03 0.  1.
         11   -1    0    0    0    0 -0.00000000000E+00 -0.00000000000E+00 -0.45593999997E+02  0.45594000000E+02  0.51100000000E-03 0. -1.
    9900012    2    1    2    0    0  0.20283722678E+02  0.24383675005E+02 -0.32751744090E+01  0.59301956347E+02  0.50000022467E+02 0.  0.
         12    1    1    2    0    0 -0.20283722678E+02 -0.24383675005E+02  0.32751744090E+01  0.31886043653E+02  0.00000000000E+00 0. -1.
         11    1    3    3    0    0  0.10166219829E+02  0.57772684554E+01 -0.87083696424E+01  0.14579593907E+02  0.51100000000E-03 0. -1.
        -11    1    3    3    0    0  0.14114645573E+02 -0.18676985440E+01 -0.11141356223E+02  0.18078753725E+02  0.51100000000E-03 0.  1.
         12    1    3    3    0    0 -0.39971427243E+01  0.20474105094E+02  0.16574551456E+02  0.26643608715E+02  0.00000000000E+00 0. -1.
</event>
<event>
 7    1  0.3461631E-013  0.5930185E+02  0.7816164E-02  0.1266605E+00
        -11   -1    0    0    0    0  0.00000000000E+00  0.00000000000E+00  0.45593999997E+02  0.45594000000E+02  0.51100000000E-03 0.  1.
         11   -1    0    0    0    0 -0.00000000000E+00 -0.00000000000E+00 -0.45593999997E+02  0.45594000000E+02  0.51100000000E-03 0. -1.
    9900012    2    1    2    0    0 -0.11877322224E+02  0.27220178000E+02  0.11606794218E+02  0.59301850254E+02  0.49999828980E+02 0.  0.
         12    1    1    2    0    0  0.11877322224E+02 -0.27220178000E+02 -0.11606794218E+02  0.31886149746E+02  0.00000000000E+00 0. -1.
         11    1    3    3    0    0 -0.19011148032E+01  0.25596403558E+01 -0.86105035073E+01  0.91818716587E+01  0.51100000000E-03 0. -1.
        -11    1    3    3    0    0 -0.68124286197E+00  0.46090012188E+01 -0.10956839881E+02  0.11906272486E+02  0.51100000000E-03 0.  1.
        -12    1    3    3    0    0 -0.92949645589E+01  0.20051536425E+02  0.31174137606E+02  0.38213706110E+02  0.00000000000E+00 0.  1.
</event>
<event>
 7    1  0.3461631E-013  0.5930194E+02  0.7816164E-02  0.1266605E+00
        -11   -1    0    0    0    0  0.00000000000E+00  0.00000000000E+00  0.45593999997E+02  0.45594000000E+02  0.51100000000E-03 0. -1.
         11   -1    0    0    0    0 -0.00000000000E+00 -0.00000000000E+00 -0.45593999997E+02  0.45594000000E+02  0.51100000000E-03 0.  1.
    9900012    2    1    2    0    0 -0.25976563873E+01  0.31726241212E+02  0.18490354088E+01  0.59301935143E+02  0.49999983796E+02 0.  0.
         12    1    1    2    0    0  0.25976563873E+01 -0.31726241212E+02 -0.18490354088E+01  0.31886064857E+02  0.00000000000E+00 0. -1.
         11    1    3    3    0    0  0.22130575380E+01  0.67828782535E+01 -0.75075268084E+01  0.10357027571E+02  0.51100000000E-03 0. -1.
        -11    1    3    3    0    0  0.51602936484E+01  0.27869726649E+02 -0.73402528287E+01  0.29278483668E+02  0.51100000000E-03 0.  1.
         12    1    3    3    0    0 -0.99710075738E+01 -0.29263636908E+01  0.16696815046E+02  0.19666423904E+02  0.00000000000E+00 0. -1.
</event>
<event>
 7    1  0.3461631E-013  0.5930193E+02  0.7816164E-02  0.1266605E+00
        -11   -1    0    0    0    0  0.00000000000E+00  0.00000000000E+00  0.45593999997E+02  0.45594000000E+02  0.51100000000E-03 0.  1.
         11   -1    0    0    0    0 -0.00000000000E+00 -0.00000000000E+00 -0.45593999997E+02  0.45594000000E+02  0.51100000000E-03 0. -1.
    9900012    2    1    2    0    0  0.29353546042E+02 -0.10824995669E+02  0.61571398516E+01  0.59301928313E+02  0.49999971340E+02 0.  0.
         12    1    1    2    0    0 -0.29353546042E+02  0.10824995669E+02 -0.61571398516E+01  0.31886071687E+02  0.00000000000E+00 0. -1.
         11    1    3    3    0    0  0.10816269727E+02 -0.90793838662E+01 -0.57095217705E+01  0.15232384623E+02  0.51100000000E-03 0. -1.
        -11    1    3    3    0    0  0.19127190485E+02 -0.12208151508E+02 -0.58973447060E+01  0.23444979291E+02  0.51100000000E-03 0.  1.
         12    1    3    3    0    0 -0.58991416998E+00  0.10462539706E+02  0.17764006328E+02  0.20624564399E+02  0.00000000000E+00 0. -1.
</event>
<event>
 7    1  0.3461631E-013  0.5930172E+02  0.7816164E-02  0.1266606E+00
        -11   -1    0    0    0    0  0.00000000000E+00  0.00000000000E+00  0.45593999997E+02  0.45594000000E+02  0.51100000000E-03 0.  1.
         11   -1    0    0    0    0 -0.00000000000E+00 -0.00000000000E+00 -0.45593999997E+02  0.45594000000E+02  0.51100000000E-03 0. -1.
    9900012    2    1    2    0    0 -0.51425294889E+01 -0.22373469192E+02  0.22129554605E+02  0.59301718934E+02  0.49999589481E+02 0.  0.
         12    1    1    2    0    0  0.51425294889E+01  0.22373469192E+02 -0.22129554605E+02  0.31886281066E+02  0.00000000000E+00 0. -1.
         11    1    3    3    0    0  0.22188812801E+01 -0.21569089258E+02 -0.22607261715E+01  0.21800457074E+02  0.51100000000E-03 0. -1.
        -11    1    3    3    0    0  0.72359397015E+01  0.81077318056E+01  0.61069304464E+01  0.12465501921E+02  0.51100000000E-03 0.  1.
         12    1    3    3    0    0 -0.14597350470E+02 -0.89121117398E+01  0.18283350330E+02  0.25035759939E+02  0.00000000000E+00 0. -1.
</event>
<event>
 7    1  0.3510693E-013  0.5930193E+02  0.7816164E-02  0.1266605E+00
        -11   -1    0    0    0    0  0.00000000000E+00  0.00000000000E+00  0.45593999997E+02  0.45594000000E+02  0.51100000000E-03 0.  1.
         11   -1    0    0    0    0 -0.00000000000E+00 -0.00000000000E+00 -0.45593999997E+02  0.45594000000E+02  0.51100000000E-03 0. -1.
    9900012    2    1    2    0    0  0.11649276026E+01  0.20709504489E+02  0.24217368821E+02  0.59301928039E+02  0.49999970841E+02 0.  0.
         12    1    1    2    0    0 -0.11649276026E+01 -0.20709504489E+02 -0.24217368821E+02  0.31886071961E+02  0.00000000000E+00 0. -1.
         11    1    3    3    0    0 -0.11500502705E+02  0.21259489963E+01  0.12986325148E+01  0.11767228572E+02  0.51100000000E-03 0. -1.
        -11    1    3    3    0    0 -0.47107492870E+01  0.20320641439E+02  0.21590996743E+02  0.30021505092E+02  0.51100000000E-03 0.  1.
         12    1    3    3    0    0  0.17376179595E+02 -0.17370859463E+01  0.13277395623E+01  0.17513194376E+02  0.00000000000E+00 0. -1.
</event>
<event>
 7    1  0.3461631E-013  0.5930196E+02  0.7816164E-02  0.1266605E+00
        -11   -1    0    0    0    0  0.00000000000E+00  0.00000000000E+00  0.45593999997E+02  0.45594000000E+02  0.51100000000E-03 0. -1.
         11   -1    0    0    0    0 -0.00000000000E+00 -0.00000000000E+00 -0.45593999997E+02  0.45594000000E+02  0.51100000000E-03 0.  1.
    9900012    2    1    2    0    0 -0.16292664053E+01  0.38307752824E+01 -0.31613137668E+02  0.59301955694E+02  0.50000021277E+02 0.  0.
         12    1    1    2    0    0  0.16292664053E+01 -0.38307752824E+01  0.31613137668E+02  0.31886044306E+02  0.00000000000E+00 0. -1.
         11    1    3    3    0    0 -0.10654469465E+02 -0.33023640808E+01  0.22393104060E+01  0.11377075171E+02  0.51100000000E-03 0. -1.
        -11    1    3    3    0    0  0.52773588444E+01 -0.12692934569E+02 -0.13739415487E+02  0.19435345187E+02  0.51100000000E-03 0.  1.
         12    1    3    3    0    0  0.37478442150E+01  0.19826073932E+02 -0.20113032587E+02  0.28489535336E+02  0.00000000000E+00 0. -1.
</event>
<event>
 7    1  0.3461631E-013  0.5930195E+02  0.7816164E-02  0.1266605E+00
        -11   -1    0    0    0    0  0.00000000000E+00  0.00000000000E+00  0.45593999997E+02  0.45594000000E+02  0.51100000000E-03 0.  1.
         11   -1    0    0    0    0 -0.00000000000E+00 -0.00000000000E+00 -0.45593999997E+02  0.45594000000E+02  0.51100000000E-03 0. -1.
    9900012    2    1    2    0    0 -0.20296206945E+02 -0.11803131950E+02  0.21574760721E+02  0.59301949126E+02  0.50000009298E+02 0.  0.
         12    1    1    2    0    0  0.20296206945E+02  0.11803131950E+02 -0.21574760721E+02  0.31886050874E+02  0.00000000000E+00 0. -1.
         11    1    3    3    0    0 -0.22414177413E+02 -0.17310689991E+01  0.22792937053E+01  0.22596175098E+02  0.51100000000E-03 0. -1.
        -11    1    3    3    0    0  0.76829727665E+01 -0.17104000604E+02  0.43056762570E+01  0.19238340768E+02  0.51100000000E-03 0.  1.
         12    1    3    3    0    0 -0.55650022978E+01  0.70319376527E+01  0.14989790758E+02  0.17467433260E+02  0.00000000000E+00 0. -1.
</event>
<event>
 7    1  0.3461631E-013  0.5930198E+02  0.7816164E-02  0.1266605E+00
        -11   -1    0    0    0    0  0.00000000000E+00  0.00000000000E+00  0.45593999997E+02  0.45594000000E+02  0.51100000000E-03 0.  1.
         11   -1    0    0    0    0 -0.00000000000E+00 -0.00000000000E+00 -0.45593999997E+02  0.45594000000E+02  0.51100000000E-03 0. -1.
    9900012    2    1    2    0    0  0.12826233715E+02 -0.27981757358E+02  0.83203106321E+01  0.59301975080E+02  0.50000056632E+02 0.  0.
         12    1    1    2    0    0 -0.12826233715E+02  0.27981757358E+02 -0.83203106321E+01  0.31886024920E+02  0.00000000000E+00 0. -1.
         11    1    3    3    0    0 -0.71630836141E+00 -0.13305752275E+02  0.86670499857E+01  0.15895719455E+02  0.51100000000E-03 0.  1.
        -11    1    3    3    0    0  0.41538641937E+01 -0.18711442422E+02 -0.15827133085E+02  0.24857007205E+02  0.51100000000E-03 0. -1.
         12    1    3    3    0    0  0.93886778830E+01  0.40354373385E+01  0.15480393731E+02  0.18549248421E+02  0.00000000000E+00 0. -1.
</event>
<event>
 7    1  0.3461631E-013  0.5930188E+02  0.7816164E-02  0.1266605E+00
        -11   -1    0    0    0    0  0.00000000000E+00  0.00000000000E+00  0.45593999997E+02  0.45594000000E+02  0.51100000000E-03 0. -1.
         11   -1    0    0    0    0 -0.00000000000E+00 -0.00000000000E+00 -0.45593999997E+02  0.45594000000E+02  0.51100000000E-03 0.  1.
    9900012    2    1    2    0    0 -0.16431346065E+02  0.24000054299E+02 -0.13066489994E+02  0.59301876049E+02  0.49999876023E+02 0.  0.
         12    1    1    2    0    0  0.16431346065E+02 -0.24000054299E+02  0.13066489994E+02  0.31886123951E+02  0.00000000000E+00 0. -1.
         11    1    3    3    0    0  0.23445224912E+01 -0.33961166074E+01  0.31268671209E+01  0.51776145063E+01  0.51100000000E-03 0. -1.
        -11    1    3    3    0    0  0.88611856950E+01  0.21668123203E+02 -0.78888523882E+01  0.24703484922E+02  0.51100000000E-03 0.  1.
        -12    1    3    3    0    0 -0.27637054251E+02  0.57280477037E+01 -0.83045047267E+01  0.29420776620E+02  0.00000000000E+00 0.  1.
</event>
<event>
 7    1  0.3461631E-013  0.5930195E+02  0.7816164E-02  0.1266605E+00
        -11   -1    0    0    0    0  0.00000000000E+00  0.00000000000E+00  0.45593999997E+02  0.45594000000E+02  0.51100000000E-03 0.  1.
         11   -1    0    0    0    0 -0.00000000000E+00 -0.00000000000E+00 -0.45593999997E+02  0.45594000000E+02  0.51100000000E-03 0. -1.
    9900012    2    1    2    0    0  0.13444049850E+02 -0.53908181379E+01  0.28406285059E+02  0.59301946192E+02  0.50000003948E+02 0.  0.
         12    1    1    2    0    0 -0.13444049850E+02  0.53908181379E+01 -0.28406285059E+02  0.31886053808E+02  0.00000000000E+00 0. -1.
         11    1    3    3    0    0  0.74073627152E+01  0.10597634125E+02 -0.92722756551E+01  0.15910812912E+02  0.51100000000E-03 0. -1.
        -11    1    3    3    0    0 -0.34883037307E+00  0.20826426650E+01  0.20971854731E+01  0.29761166424E+01  0.51100000000E-03 0.  1.
        -12    1    3    3    0    0  0.63855175078E+01 -0.18071094928E+02  0.35581375241E+02  0.40415016637E+02  0.00000000000E+00 0.  1.
</event>
<event>
 7    1  0.3461631E-013  0.5930195E+02  0.7816164E-02  0.1266605E+00
        -11   -1    0    0    0    0  0.00000000000E+00  0.00000000000E+00  0.45593999997E+02  0.45594000000E+02  0.51100000000E-03 0.  1.
         11   -1    0    0    0    0 -0.00000000000E+00 -0.00000000000E+00 -0.45593999997E+02  0.45594000000E+02  0.51100000000E-03 0. -1.
    9900012    2    1    2    0    0 -0.13877950049E+02  0.41658719715E+01  0.28403663451E+02  0.59301951573E+02  0.50000013760E+02 0.  0.
         12    1    1    2    0    0  0.13877950049E+02 -0.41658719715E+01 -0.28403663451E+02  0.31886048427E+02  0.00000000000E+00 0. -1.
         11    1    3    3    0    0 -0.16678652570E+02  0.14116625654E+02  0.30697881896E+02  0.37680452818E+02  0.51100000000E-03 0. -1.
        -11    1    3    3    0    0 -0.19921406434E+01 -0.53477265102E+01  0.77216802611E+01  0.96016222320E+01  0.51100000000E-03 0.  1.
         12    1    3    3    0    0  0.47928431649E+01 -0.46030271726E+01 -0.10015898705E+02  0.12019876523E+02  0.00000000000E+00 0. -1.
</event>
<event>
 7    1  0.3461631E-013  0.5930192E+02  0.7816164E-02  0.1266605E+00
        -11   -1    0    0    0    0  0.00000000000E+00  0.00000000000E+00  0.45593999997E+02  0.45594000000E+02  0.51100000000E-03 0.  1.
         11   -1    0    0    0    0 -0.00000000000E+00 -0.00000000000E+00 -0.45593999997E+02  0.45594000000E+02  0.51100000000E-03 0. -1.
    9900012    2    1    2    0    0  0.95059457037E+01 -0.14748525870E+02  0.26624049493E+02  0.59301921056E+02  0.49999958105E+02 0.  0.
         12    1    1    2    0    0 -0.95059457037E+01  0.14748525870E+02 -0.26624049493E+02  0.31886078944E+02  0.00000000000E+00 0. -1.
         11    1    3    3    0    0 -0.72057226435E+00  0.71906133127E+01  0.20693112416E+01  0.75170601618E+01  0.51100000000E-03 0. -1.
        -11    1    3    3    0    0  0.15430767310E+02 -0.19297075316E+02 -0.18172459565E+01  0.24774746793E+02  0.51100000000E-03 0.  1.
         12    1    3    3    0    0 -0.52042493420E+01 -0.26420638662E+01  0.26371984207E+02  0.27010114101E+02  0.00000000000E+00 0. -1.
</event>
<event>
 7    1  0.3461631E-013  0.5930193E+02  0.7816164E-02  0.1266605E+00
        -11   -1    0    0    0    0  0.00000000000E+00  0.00000000000E+00  0.45593999997E+02  0.45594000000E+02  0.51100000000E-03 0.  1.
         11   -1    0    0    0    0 -0.00000000000E+00 -0.00000000000E+00 -0.45593999997E+02  0.45594000000E+02  0.51100000000E-03 0. -1.
    9900012    2    1    2    0    0  0.89926254965E+01  0.30462541140E+02  0.28085358898E+01  0.59301927807E+02  0.49999970418E+02 0.  0.
         12    1    1    2    0    0 -0.89926254965E+01 -0.30462541140E+02 -0.28085358898E+01  0.31886072193E+02  0.00000000000E+00 0. -1.
         11    1    3    3    0    0  0.19628143002E+01 -0.84407639590E+01 -0.53946072772E+01  0.10207885390E+02  0.51100000000E-03 0. -1.
        -11    1    3    3    0    0 -0.75713186416E+01  0.51652379946E+01  0.82505826226E+01  0.12331936725E+02  0.51100000000E-03 0.  1.
        -12    1    3    3    0    0  0.14601129838E+02  0.33738067104E+02 -0.47439455689E-01  0.36762105693E+02  0.00000000000E+00 0.  1.
</event>
<event>
 7    1  0.3461631E-013  0.5930194E+02  0.7816164E-02  0.1266605E+00
        -11   -1    0    0    0    0  0.00000000000E+00  0.00000000000E+00  0.45593999997E+02  0.45594000000E+02  0.51100000000E-03 0. -1.
         11   -1    0    0    0    0 -0.00000000000E+00 -0.00000000000E+00 -0.45593999997E+02  0.45594000000E+02  0.51100000000E-03 0.  1.
    9900012    2    1    2    0    0 -0.94132421329E+01  0.25233253489E+02 -0.17070288704E+02  0.59301937754E+02  0.49999988558E+02 0.  0.
         12    1    1    2    0    0  0.94132421329E+01 -0.25233253489E+02  0.17070288704E+02  0.31886062246E+02  0.00000000000E+00 0. -1.
         11    1    3    3    0    0 -0.67159519371E+01 -0.77957464430E+01  0.57663578812E+01  0.11795276873E+02  0.51100000000E-03 0. -1.
        -11    1    3    3    0    0  0.95509118462E+01  0.72872027304E+01 -0.19592018941E+01  0.12172169611E+02  0.51100000000E-03 0.  1.
         12    1    3    3    0    0 -0.12248202042E+02  0.25741797202E+02 -0.20877444691E+02  0.35334491270E+02  0.00000000000E+00 0. -1.
</event>
<event>
 7    1  0.3461631E-013  0.5930196E+02  0.7816164E-02  0.1266605E+00
        -11   -1    0    0    0    0  0.00000000000E+00  0.00000000000E+00  0.45593999997E+02  0.45594000000E+02  0.51100000000E-03 0.  1.
         11   -1    0    0    0    0 -0.00000000000E+00 -0.00000000000E+00 -0.45593999997E+02  0.45594000000E+02  0.51100000000E-03 0. -1.
    9900012    2    1    2    0    0 -0.16736439730E+02  0.20119828499E+02  0.18215485248E+02  0.59301955772E+02  0.50000021419E+02 0.  0.
         12    1    1    2    0    0  0.16736439730E+02 -0.20119828499E+02 -0.18215485248E+02  0.31886044228E+02  0.00000000000E+00 0. -1.
         11    1    3    3    0    0  0.81984067810E+01  0.60803861078E+01  0.73857770409E+00  0.10233790415E+02  0.51100000000E-03 0. -1.
        -11    1    3    3    0    0 -0.11546598903E+02  0.13590140345E+01 -0.10430071245E+02  0.15619130955E+02  0.51100000000E-03 0.  1.
        -12    1    3    3    0    0 -0.13388247609E+02  0.12680428357E+02  0.27906978789E+02  0.33449034402E+02  0.00000000000E+00 0.  1.
</event>
<event>
 7    1  0.3461631E-013  0.5930194E+02  0.7816164E-02  0.1266605E+00
        -11   -1    0    0    0    0  0.00000000000E+00  0.00000000000E+00  0.45593999997E+02  0.45594000000E+02  0.51100000000E-03 0.  1.
         11   -1    0    0    0    0 -0.00000000000E+00 -0.00000000000E+00 -0.45593999997E+02  0.45594000000E+02  0.51100000000E-03 0. -1.
    9900012    2    1    2    0    0 -0.11648934588E+01  0.31861022486E+02  0.48910437544E+00  0.59301937940E+02  0.49999988897E+02 0.  0.
         12    1    1    2    0    0  0.11648934588E+01 -0.31861022486E+02 -0.48910437544E+00  0.31886062060E+02  0.00000000000E+00 0. -1.
         11    1    3    3    0    0  0.16621725804E+01 -0.17867314055E+01 -0.60171506107E+01  0.64931755355E+01  0.51100000000E-03 0. -1.
        -11    1    3    3    0    0  0.23552661062E+01  0.36617422238E+02 -0.76161827377E+01  0.37475180181E+02  0.51100000000E-03 0.  1.
         12    1    3    3    0    0 -0.51823321454E+01 -0.29696683471E+01  0.14122437724E+02  0.15333582224E+02  0.00000000000E+00 0. -1.
</event>
<event>
 7    1  0.3461631E-013  0.5930200E+02  0.7816164E-02  0.1266605E+00
        -11   -1    0    0    0    0  0.00000000000E+00  0.00000000000E+00  0.45593999997E+02  0.45594000000E+02  0.51100000000E-03 0. -1.
         11   -1    0    0    0    0 -0.00000000000E+00 -0.00000000000E+00 -0.45593999997E+02  0.45594000000E+02  0.51100000000E-03 0.  1.
    9900012    2    1    2    0    0 -0.14957569294E+02  0.17410589548E+02 -0.22132774651E+02  0.59301996466E+02  0.50000095635E+02 0.  0.
         12    1    1    2    0    0  0.14957569294E+02 -0.17410589548E+02  0.22132774651E+02  0.31886003534E+02  0.00000000000E+00 0. -1.
         11    1    3    3    0    0 -0.22664320709E+01  0.91407093414E+01 -0.59905942651E+01  0.11161384390E+02  0.51100000000E-03 0. -1.
        -11    1    3    3    0    0 -0.17922288082E+01  0.17936414919E+02 -0.25202171659E+02  0.30985101595E+02  0.51100000000E-03 0.  1.
         12    1    3    3    0    0 -0.10898908415E+02 -0.96665347121E+01  0.90599912733E+01  0.17155510481E+02  0.00000000000E+00 0. -1.
</event>
<event>
 7    1  0.3461631E-013  0.5930196E+02  0.7816164E-02  0.1266605E+00
        -11   -1    0    0    0    0  0.00000000000E+00  0.00000000000E+00  0.45593999997E+02  0.45594000000E+02  0.51100000000E-03 0. -1.
         11   -1    0    0    0    0 -0.00000000000E+00 -0.00000000000E+00 -0.45593999997E+02  0.45594000000E+02  0.51100000000E-03 0.  1.
    9900012    2    1    2    0    0  0.11782542161E+02  0.71673256645E+01 -0.28749269331E+02  0.59301963181E+02  0.50000034930E+02 0.  0.
         12    1    1    2    0    0 -0.11782542161E+02 -0.71673256645E+01  0.28749269331E+02  0.31886036819E+02  0.00000000000E+00 0. -1.
         11    1    3    3    0    0 -0.82913743885E+01  0.56119122578E+00 -0.54161530968E+00  0.83279752790E+01  0.51100000000E-03 0. -1.
        -11    1    3    3    0    0  0.21601275008E+01 -0.50936595559E+00 -0.31363673989E+02  0.31442099975E+02  0.51100000000E-03 0.  1.
         12    1    3    3    0    0  0.17913789048E+02  0.71155003943E+01  0.31560199675E+01  0.19531887926E+02  0.00000000000E+00 0. -1.
</event>
<event>
 7    1  0.3461631E-013  0.5930204E+02  0.7816164E-02  0.1266604E+00
        -11   -1    0    0    0    0  0.00000000000E+00  0.00000000000E+00  0.45593999997E+02  0.45594000000E+02  0.51100000000E-03 0. -1.
         11   -1    0    0    0    0 -0.00000000000E+00 -0.00000000000E+00 -0.45593999997E+02  0.45594000000E+02  0.51100000000E-03 0.  1.
    9900012    2    1    2    0    0 -0.16422201629E+02 -0.17255034181E+02 -0.21196449019E+02  0.59302041305E+02  0.50000177410E+02 0.  0.
         12    1    1    2    0    0  0.16422201629E+02  0.17255034181E+02  0.21196449019E+02  0.31885958695E+02  0.00000000000E+00 0. -1.
         11    1    3    3    0    0 -0.66600573944E+01 -0.14152210678E+01 -0.21016243967E+02  0.22091666436E+02  0.51100000000E-03 0. -1.
        -11    1    3    3    0    0  0.19540826584E+00 -0.83534891842E+00 -0.14300709331E+02  0.14326418946E+02  0.51100000000E-03 0.  1.
         12    1    3    3    0    0 -0.99575525002E+01 -0.15004464195E+02  0.14120504279E+02  0.22883955922E+02  0.00000000000E+00 0. -1.
</event>
<event>
 7    1  0.3461631E-013  0.5930195E+02  0.7816164E-02  0.1266605E+00
        -11   -1    0    0    0    0  0.00000000000E+00  0.00000000000E+00  0.45593999997E+02  0.45594000000E+02  0.51100000000E-03 0.  1.
         11   -1    0    0    0    0 -0.00000000000E+00 -0.00000000000E+00 -0.45593999997E+02  0.45594000000E+02  0.51100000000E-03 0. -1.
    9900012    2    1    2    0    0  0.35054009244E+01 -0.16782743660E+02  0.26884413378E+02  0.59301952847E+02  0.50000016084E+02 0.  0.
         12    1    1    2    0    0 -0.35054009244E+01  0.16782743660E+02 -0.26884413378E+02  0.31886047153E+02  0.00000000000E+00 0. -1.
         11    1    3    3    0    0  0.11463436735E+01  0.84006614069E+01 -0.71461483772E+01  0.11088401723E+02  0.51100000000E-03 0. -1.
        -11    1    3    3    0    0 -0.54008328750E+01 -0.11189174297E+02  0.22425749138E+01  0.12625203353E+02  0.51100000000E-03 0.  1.
        -12    1    3    3    0    0  0.77598901260E+01 -0.13994230770E+02  0.31787986841E+02  0.35588347770E+02  0.00000000000E+00 0.  1.
</event>
<event>
 7    1  0.3461631E-013  0.5930194E+02  0.7816164E-02  0.1266605E+00
        -11   -1    0    0    0    0  0.00000000000E+00  0.00000000000E+00  0.45593999997E+02  0.45594000000E+02  0.51100000000E-03 0.  1.
         11   -1    0    0    0    0 -0.00000000000E+00 -0.00000000000E+00 -0.45593999997E+02  0.45594000000E+02  0.51100000000E-03 0. -1.
    9900012    2    1    2    0    0  0.11076300372E+02  0.11758626725E+02  0.27491289947E+02  0.59301941050E+02  0.49999994570E+02 0.  0.
         12    1    1    2    0    0 -0.11076300372E+02 -0.11758626725E+02 -0.27491289947E+02  0.31886058950E+02  0.00000000000E+00 0. -1.
         11    1    3    3    0    0  0.51183734882E+01 -0.31550369435E+01 -0.83983693031E+01  0.10328824352E+02  0.51100000000E-03 0. -1.
        -11    1    3    3    0    0 -0.73714542412E+01 -0.53201414335E+01  0.96562500984E+01  0.13262179637E+02  0.51100000000E-03 0.  1.
        -12    1    3    3    0    0  0.13329381125E+02  0.20233805102E+02  0.26233409152E+02  0.35710937061E+02  0.00000000000E+00 0.  1.
</event>
<event>
 7    1  0.3461631E-013  0.5930196E+02  0.7816164E-02  0.1266605E+00
        -11   -1    0    0    0    0  0.00000000000E+00  0.00000000000E+00  0.45593999997E+02  0.45594000000E+02  0.51100000000E-03 0.  1.
         11   -1    0    0    0    0 -0.00000000000E+00 -0.00000000000E+00 -0.45593999997E+02  0.45594000000E+02  0.51100000000E-03 0. -1.
    9900012    2    1    2    0    0  0.14514245469E+02 -0.25747073530E+02  0.11964302212E+02  0.59301958472E+02  0.50000026342E+02 0.  0.
         12    1    1    2    0    0 -0.14514245469E+02  0.25747073530E+02 -0.11964302212E+02  0.31886041528E+02  0.00000000000E+00 0. -1.
         11    1    3    3    0    0 -0.71893797600E+01 -0.36875003106E+01  0.15897979196E+02  0.17833411974E+02  0.51100000000E-03 0. -1.
        -11    1    3    3    0    0  0.45415061756E+00  0.32650246504E+01  0.60889046899E+01  0.69239728000E+01  0.51100000000E-03 0.  1.
         12    1    3    3    0    0  0.21249474612E+02 -0.25324597870E+02 -0.10022581673E+02  0.34544573698E+02  0.00000000000E+00 0. -1.
</event>
<event>
 7    1  0.3461631E-013  0.5930189E+02  0.7816164E-02  0.1266605E+00
        -11   -1    0    0    0    0  0.00000000000E+00  0.00000000000E+00  0.45593999997E+02  0.45594000000E+02  0.51100000000E-03 0. -1.
         11   -1    0    0    0    0 -0.00000000000E+00 -0.00000000000E+00 -0.45593999997E+02  0.45594000000E+02  0.51100000000E-03 0.  1.
    9900012    2    1    2    0    0 -0.27689897255E+02 -0.28051594546E+01 -0.15560362936E+02  0.59301886655E+02  0.49999895366E+02 0.  0.
         12    1    1    2    0    0  0.27689897255E+02  0.28051594546E+01  0.15560362936E+02  0.31886113345E+02  0.00000000000E+00 0. -1.
         11    1    3    3    0    0 -0.77616412425E+01  0.17357137164E+02  0.69657630038E+01  0.20249324428E+02  0.51100000000E-03 0. -1.
        -11    1    3    3    0    0 -0.17462284158E+01 -0.75625049014E+01 -0.12617807222E+02  0.14813839929E+02  0.51100000000E-03 0.  1.
        -12    1    3    3    0    0 -0.18182027596E+02 -0.12599791718E+02 -0.99083187176E+01  0.24238722298E+02  0.00000000000E+00 0.  1.
</event>
<event>
 7    1  0.3461631E-013  0.5930195E+02  0.7816164E-02  0.1266605E+00
        -11   -1    0    0    0    0  0.00000000000E+00  0.00000000000E+00  0.45593999997E+02  0.45594000000E+02  0.51100000000E-03 0. -1.
         11   -1    0    0    0    0 -0.00000000000E+00 -0.00000000000E+00 -0.45593999997E+02  0.45594000000E+02  0.51100000000E-03 0.  1.
    9900012    2    1    2    0    0 -0.23999742314E+02  0.29521215304E+00 -0.20991556281E+02  0.59301949500E+02  0.50000009981E+02 0.  0.
         12    1    1    2    0    0  0.23999742314E+02 -0.29521215304E+00  0.20991556281E+02  0.31886050500E+02  0.00000000000E+00 0. -1.
         11    1    3    3    0    0  0.65874305033E+01 -0.15226632649E+02 -0.63290414852E+01  0.17756726862E+02  0.51100000000E-03 0. -1.
        -11    1    3    3    0    0 -0.11555546492E+02 -0.15855204969E+01  0.72249071136E+00  0.11686168023E+02  0.51100000000E-03 0.  1.
        -12    1    3    3    0    0 -0.19031626325E+02  0.17107365299E+02 -0.15385005507E+02  0.29859054615E+02  0.00000000000E+00 0.  1.
</event>
<event>
 7    1  0.3461631E-013  0.5930205E+02  0.7816164E-02  0.1266604E+00
        -11   -1    0    0    0    0  0.00000000000E+00  0.00000000000E+00  0.45593999997E+02  0.45594000000E+02  0.51100000000E-03 0.  1.
         11   -1    0    0    0    0 -0.00000000000E+00 -0.00000000000E+00 -0.45593999997E+02  0.45594000000E+02  0.51100000000E-03 0. -1.
    9900012    2    1    2    0    0 -0.24581751678E+02  0.19482861175E+02  0.57331762000E+01  0.59302051614E+02  0.50000196211E+02 0.  0.
         12    1    1    2    0    0  0.24581751678E+02 -0.19482861175E+02 -0.57331762000E+01  0.31885948386E+02  0.00000000000E+00 0. -1.
         11    1    3    3    0    0 -0.74554438820E+00 -0.12055842056E+01  0.51813893123E+01  0.53717841709E+01  0.51100000000E-03 0. -1.
        -11    1    3    3    0    0  0.62548008090E+00 -0.98371659862E+01  0.96221227696E+01  0.13774843260E+02  0.51100000000E-03 0.  1.
         12    1    3    3    0    0 -0.24461687371E+02  0.30525611367E+02 -0.90703358819E+01  0.40155424184E+02  0.00000000000E+00 0. -1.
</event>
<event>
 7    1  0.3461631E-013  0.5930196E+02  0.7816164E-02  0.1266605E+00
        -11   -1    0    0    0    0  0.00000000000E+00  0.00000000000E+00  0.45593999997E+02  0.45594000000E+02  0.51100000000E-03 0. -1.
         11   -1    0    0    0    0 -0.00000000000E+00 -0.00000000000E+00 -0.45593999997E+02  0.45594000000E+02  0.51100000000E-03 0.  1.
    9900012    2    1    2    0    0  0.17707124323E+02  0.25325784908E+02 -0.78601659260E+01  0.59301955382E+02  0.50000020708E+02 0.  0.
         12    1    1    2    0    0 -0.17707124323E+02 -0.25325784908E+02  0.78601659260E+01  0.31886044618E+02  0.00000000000E+00 0. -1.
         11    1    3    3    0    0 -0.68731583518E+01  0.52096109852E+01  0.45065541032E+01  0.97308469565E+01  0.51100000000E-03 0. -1.
        -11    1    3    3    0    0  0.38854481049E+01  0.23605179866E+02  0.22008324401E+01  0.24023839975E+02  0.51100000000E-03 0.  1.
         12    1    3    3    0    0  0.20694834570E+02 -0.34890059428E+01 -0.14567552469E+02  0.25547268450E+02  0.00000000000E+00 0. -1.
</event>
<event>
 7    1  0.3461631E-013  0.5930227E+02  0.7816164E-02  0.1266604E+00
        -11   -1    0    0    0    0  0.00000000000E+00  0.00000000000E+00  0.45593999997E+02  0.45594000000E+02  0.51100000000E-03 0. -1.
         11   -1    0    0    0    0 -0.00000000000E+00 -0.00000000000E+00 -0.45593999997E+02  0.45594000000E+02  0.51100000000E-03 0.  1.
    9900012    2    1    2    0    0 -0.20389211097E+02  0.23921681740E+02 -0.53603262142E+01  0.59302268339E+02  0.50000591463E+02 0.  0.
         12    1    1    2    0    0  0.20389211097E+02 -0.23921681740E+02  0.53603262142E+01  0.31885731661E+02  0.00000000000E+00 0. -1.
         11    1    3    3    0    0 -0.12525337627E+02  0.21028063079E+02  0.86871495675E+01  0.25971717067E+02  0.51100000000E-03 0. -1.
        -11    1    3    3    0    0 -0.12342231155E+02  0.13670776776E+02 -0.70386435731E+01  0.19717081710E+02  0.51100000000E-03 0.  1.
         12    1    3    3    0    0  0.44783576849E+01 -0.10777158115E+02 -0.70088322087E+01  0.13613469562E+02  0.00000000000E+00 0. -1.
</event>
<event>
 7    1  0.3461631E-013  0.5930194E+02  0.7816164E-02  0.1266605E+00
        -11   -1    0    0    0    0  0.00000000000E+00  0.00000000000E+00  0.45593999997E+02  0.45594000000E+02  0.51100000000E-03 0. -1.
         11   -1    0    0    0    0 -0.00000000000E+00 -0.00000000000E+00 -0.45593999997E+02  0.45594000000E+02  0.51100000000E-03 0.  1.
    9900012    2    1    2    0    0  0.60914617276E+01 -0.15709226647E+02 -0.27070931603E+02  0.59301936497E+02  0.49999986267E+02 0.  0.
         12    1    1    2    0    0 -0.60914617276E+01  0.15709226647E+02  0.27070931603E+02  0.31886063503E+02  0.00000000000E+00 0. -1.
         11    1    3    3    0    0  0.21934812736E+02 -0.37227192225E+01 -0.16396327438E+02  0.27637550577E+02  0.51100000000E-03 0. -1.
        -11    1    3    3    0    0  0.54776089915E+01 -0.44686404428E+00 -0.28411012512E+01  0.61867393931E+01  0.51100000000E-03 0.  1.
        -12    1    3    3    0    0 -0.21320960000E+02 -0.11539643380E+02 -0.78335029145E+01  0.25477646528E+02  0.00000000000E+00 0.  1.
</event>
<event>
 7    1  0.3461631E-013  0.5930195E+02  0.7816164E-02  0.1266605E+00
        -11   -1    0    0    0    0  0.00000000000E+00  0.00000000000E+00  0.45593999997E+02  0.45594000000E+02  0.51100000000E-03 0.  1.
         11   -1    0    0    0    0 -0.00000000000E+00 -0.00000000000E+00 -0.45593999997E+02  0.45594000000E+02  0.51100000000E-03 0. -1.
    9900012    2    1    2    0    0  0.28281685144E+02 -0.82895115000E+01 -0.12171708865E+02  0.59301949567E+02  0.50000010103E+02 0.  0.
         12    1    1    2    0    0 -0.28281685144E+02  0.82895115000E+01  0.12171708865E+02  0.31886050433E+02  0.00000000000E+00 0. -1.
         11    1    3    3    0    0  0.35297930082E+00  0.37038166787E+00  0.23935075833E+01  0.24475816185E+01  0.51100000000E-03 0. -1.
        -11    1    3    3    0    0  0.22635599580E+02  0.14859183261E+02  0.26866021630E+01  0.27209989470E+02  0.51100000000E-03 0.  1.
        -12    1    3    3    0    0  0.52931062636E+01 -0.23519076429E+02 -0.17251818612E+02  0.29644378479E+02  0.00000000000E+00 0.  1.
</event>
<event>
 7    1  0.3461631E-013  0.5930172E+02  0.7816164E-02  0.1266606E+00
        -11   -1    0    0    0    0  0.00000000000E+00  0.00000000000E+00  0.45593999997E+02  0.45594000000E+02  0.51100000000E-03 0.  1.
         11   -1    0    0    0    0 -0.00000000000E+00 -0.00000000000E+00 -0.45593999997E+02  0.45594000000E+02  0.51100000000E-03 0. -1.
    9900012    2    1    2    0    0  0.61430848447E+01 -0.29784209360E+02 -0.95863658850E+01  0.59301717221E+02  0.49999586357E+02 0.  0.
         12    1    1    2    0    0 -0.61430848447E+01  0.29784209360E+02  0.95863658850E+01  0.31886282779E+02  0.00000000000E+00 0. -1.
         11    1    3    3    0    0  0.63279772912E+01 -0.22837433366E+02 -0.10141882547E+02  0.25776916829E+02  0.51100000000E-03 0. -1.
        -11    1    3    3    0    0  0.72104337077E+01 -0.15965122826E+02  0.84419108888E+01  0.19445857164E+02  0.51100000000E-03 0.  1.
         12    1    3    3    0    0 -0.73953261542E+01  0.90183468324E+01 -0.78863942273E+01  0.14078943228E+02  0.00000000000E+00 0. -1.
</event>
<event>
 7    1  0.3461631E-013  0.5930192E+02  0.7816164E-02  0.1266605E+00
        -11   -1    0    0    0    0  0.00000000000E+00  0.00000000000E+00  0.45593999997E+02  0.45594000000E+02  0.51100000000E-03 0.  1.
         11   -1    0    0    0    0 -0.00000000000E+00 -0.00000000000E+00 -0.45593999997E+02  0.45594000000E+02  0.51100000000E-03 0. -1.
    9900012    2    1    2    0    0 -0.20344432122E+00  0.19881505523E+02  0.24928025845E+02  0.59301919589E+02  0.49999955430E+02 0.  0.
         12    1    1    2    0    0  0.20344432122E+00 -0.19881505523E+02 -0.24928025845E+02  0.31886080411E+02  0.00000000000E+00 0. -1.
         11    1    3    3    0    0  0.53781508831E+00  0.74472198973E+01 -0.77839021701E+00  0.75070780507E+01  0.51100000000E-03 0. -1.
        -11    1    3    3    0    0  0.17697964288E+02  0.88981472414E+01  0.26401705863E+02  0.33006742296E+02  0.51100000000E-03 0.  1.
         12    1    3    3    0    0 -0.18439223697E+02  0.35361383841E+01 -0.69528980162E+00  0.18788099242E+02  0.00000000000E+00 0. -1.
</event>
<event>
 7    1  0.3461631E-013  0.5930195E+02  0.7816164E-02  0.1266605E+00
        -11   -1    0    0    0    0  0.00000000000E+00  0.00000000000E+00  0.45593999997E+02  0.45594000000E+02  0.51100000000E-03 0.  1.
         11   -1    0    0    0    0 -0.00000000000E+00 -0.00000000000E+00 -0.45593999997E+02  0.45594000000E+02  0.51100000000E-03 0. -1.
    9900012    2    1    2    0    0 -0.21754850147E+02 -0.21439601820E+02  0.91536898707E+01  0.59301951807E+02  0.50000014188E+02 0.  0.
         12    1    1    2    0    0  0.21754850147E+02  0.21439601820E+02 -0.91536898707E+01  0.31886048193E+02  0.00000000000E+00 0. -1.
         11    1    3    3    0    0 -0.20497478385E+01  0.82268286028E+01  0.16996644667E+01  0.86470246109E+01  0.51100000000E-03 0. -1.
        -11    1    3    3    0    0  0.64837912667E+01 -0.39284136533E+01  0.11435811070E+02  0.13720413919E+02  0.51100000000E-03 0.  1.
         12    1    3    3    0    0 -0.26188893575E+02 -0.25738016769E+02 -0.39817856661E+01  0.36934513277E+02  0.00000000000E+00 0. -1.
</event>
<event>
 7    1  0.3461631E-013  0.5930193E+02  0.7816164E-02  0.1266605E+00
        -11   -1    0    0    0    0  0.00000000000E+00  0.00000000000E+00  0.45593999997E+02  0.45594000000E+02  0.51100000000E-03 0. -1.
         11   -1    0    0    0    0 -0.00000000000E+00 -0.00000000000E+00 -0.45593999997E+02  0.45594000000E+02  0.51100000000E-03 0.  1.
    9900012    2    1    2    0    0  0.11411981920E+02 -0.48299139801E+00 -0.29770028625E+02  0.59301933821E+02  0.49999981386E+02 0.  0.
         12    1    1    2    0    0 -0.11411981920E+02  0.48299139801E+00  0.29770028625E+02  0.31886066179E+02  0.00000000000E+00 0. -1.
         11    1    3    3    0    0 -0.11317695147E+01  0.37258045355E+01  0.23036580955E+01  0.45243079640E+01  0.51100000000E-03 0. -1.
        -11    1    3    3    0    0 -0.17983631185E+01 -0.29180021755E+01 -0.38752714022E+02  0.38904006104E+02  0.51100000000E-03 0.  1.
         12    1    3    3    0    0  0.14342114553E+02 -0.12907937580E+01  0.66790273016E+01  0.15873619753E+02  0.00000000000E+00 0. -1.
</event>
<event>
 7    1  0.3461631E-013  0.5930195E+02  0.7816164E-02  0.1266605E+00
        -11   -1    0    0    0    0  0.00000000000E+00  0.00000000000E+00  0.45593999997E+02  0.45594000000E+02  0.51100000000E-03 0.  1.
         11   -1    0    0    0    0 -0.00000000000E+00 -0.00000000000E+00 -0.45593999997E+02  0.45594000000E+02  0.51100000000E-03 0. -1.
    9900012    2    1    2    0    0  0.22080004268E+02 -0.86234740887E+01  0.21326732552E+02  0.59301946385E+02  0.50000004298E+02 0.  0.
         12    1    1    2    0    0 -0.22080004268E+02  0.86234740887E+01 -0.21326732552E+02  0.31886053615E+02  0.00000000000E+00 0. -1.
         11    1    3    3    0    0  0.18486204512E+02 -0.59881093957E+01 -0.34033854655E+01  0.19727651768E+02  0.51100000000E-03 0. -1.
        -11    1    3    3    0    0  0.16716785092E+02  0.21946746599E+01  0.14655417608E+02  0.22339399415E+02  0.51100000000E-03 0.  1.
         12    1    3    3    0    0 -0.13122985336E+02 -0.48300393529E+01  0.10074700409E+02  0.17234895201E+02  0.00000000000E+00 0. -1.
</event>
<event>
 7    1  0.3461631E-013  0.5930194E+02  0.7816164E-02  0.1266605E+00
        -11   -1    0    0    0    0  0.00000000000E+00  0.00000000000E+00  0.45593999997E+02  0.45594000000E+02  0.51100000000E-03 0.  1.
         11   -1    0    0    0    0 -0.00000000000E+00 -0.00000000000E+00 -0.45593999997E+02  0.45594000000E+02  0.51100000000E-03 0. -1.
    9900012    2    1    2    0    0 -0.55271675967E+01 -0.20495682466E+02  0.23792820194E+02  0.59301939187E+02  0.49999991172E+02 0.  0.
         12    1    1    2    0    0  0.55271675967E+01  0.20495682466E+02 -0.23792820194E+02  0.31886060813E+02  0.00000000000E+00 0. -1.
         11    1    3    3    0    0  0.34039572045E+01  0.12515604159E+01 -0.70642519234E+01  0.79408427527E+01  0.51100000000E-03 0. -1.
        -11    1    3    3    0    0  0.10038033043E+02 -0.11335002792E+02  0.19705543863E+01  0.15268512714E+02  0.51100000000E-03 0.  1.
        -12    1    3    3    0    0 -0.18969157844E+02 -0.10412240090E+02  0.28886517731E+02  0.36092583720E+02  0.00000000000E+00 0.  1.
</event>
<event>
 7    1  0.3461631E-013  0.5930195E+02  0.7816164E-02  0.1266605E+00
        -11   -1    0    0    0    0  0.00000000000E+00  0.00000000000E+00  0.45593999997E+02  0.45594000000E+02  0.51100000000E-03 0. -1.
         11   -1    0    0    0    0 -0.00000000000E+00 -0.00000000000E+00 -0.45593999997E+02  0.45594000000E+02  0.51100000000E-03 0.  1.
    9900012    2    1    2    0    0  0.25664928891E+02 -0.92589204542E+00 -0.18899057710E+02  0.59301949235E+02  0.50000009497E+02 0.  0.
         12    1    1    2    0    0 -0.25664928891E+02  0.92589204542E+00  0.18899057710E+02  0.31886050765E+02  0.00000000000E+00 0. -1.
         11    1    3    3    0    0  0.29070212149E+01  0.16993355023E+02 -0.75854044173E+01  0.18835159880E+02  0.51100000000E-03 0. -1.
        -11    1    3    3    0    0  0.23083811759E+02 -0.47277490970E+01 -0.76883512014E+00  0.23575518755E+02  0.51100000000E-03 0.  1.
        -12    1    3    3    0    0 -0.32590408246E+00 -0.13191497971E+02 -0.10544818172E+02  0.16891270600E+02  0.00000000000E+00 0.  1.
</event>
<event>
 7    1  0.3461631E-013  0.5930180E+02  0.7816164E-02  0.1266605E+00
        -11   -1    0    0    0    0  0.00000000000E+00  0.00000000000E+00  0.45593999997E+02  0.45594000000E+02  0.51100000000E-03 0. -1.
         11   -1    0    0    0    0 -0.00000000000E+00 -0.00000000000E+00 -0.45593999997E+02  0.45594000000E+02  0.51100000000E-03 0.  1.
    9900012    2    1    2    0    0  0.31672870410E+02  0.11436574659E+01 -0.35001962064E+01  0.59301795367E+02  0.49999728878E+02 0.  0.
         12    1    1    2    0    0 -0.31672870410E+02 -0.11436574659E+01  0.35001962064E+01  0.31886204633E+02  0.00000000000E+00 0. -1.
         11    1    3    3    0    0  0.33189593718E+02  0.55120185675E+01 -0.13906898474E+00  0.33644476817E+02  0.51100000000E-03 0. -1.
        -11    1    3    3    0    0  0.24986457346E+01  0.10048145957E+02 -0.25849624175E+01  0.10671949149E+02  0.51100000000E-03 0.  1.
        -12    1    3    3    0    0 -0.40153690422E+01 -0.14416507058E+02 -0.77616480413E+00  0.14985369402E+02  0.00000000000E+00 0.  1.
</event>
<event>
 7    1  0.3461631E-013  0.5930193E+02  0.7816164E-02  0.1266605E+00
        -11   -1    0    0    0    0  0.00000000000E+00  0.00000000000E+00  0.45593999997E+02  0.45594000000E+02  0.51100000000E-03 0. -1.
         11   -1    0    0    0    0 -0.00000000000E+00 -0.00000000000E+00 -0.45593999997E+02  0.45594000000E+02  0.51100000000E-03 0.  1.
    9900012    2    1    2    0    0 -0.26942490106E+01  0.30965747952E+02 -0.71122914728E+01  0.59301933859E+02  0.49999981455E+02 0.  0.
         12    1    1    2    0    0  0.26942490106E+01 -0.30965747952E+02  0.71122914728E+01  0.31886066141E+02  0.00000000000E+00 0. -1.
         11    1    3    3    0    0 -0.64177029766E+01  0.45981103409E+01 -0.25508097741E+01  0.82967560509E+01  0.51100000000E-03 0. -1.
        -11    1    3    3    0    0  0.13878621323E+02  0.34754738117E+02 -0.13462146379E+01  0.37447566617E+02  0.51100000000E-03 0.  1.
         12    1    3    3    0    0 -0.10155167357E+02 -0.83871005061E+01 -0.32152670608E+01  0.13557611191E+02  0.00000000000E+00 0. -1.
</event>
<event>
 7    1  0.3461631E-013  0.5930195E+02  0.7816164E-02  0.1266605E+00
        -11   -1    0    0    0    0  0.00000000000E+00  0.00000000000E+00  0.45593999997E+02  0.45594000000E+02  0.51100000000E-03 0.  1.
         11   -1    0    0    0    0 -0.00000000000E+00 -0.00000000000E+00 -0.45593999997E+02  0.45594000000E+02  0.51100000000E-03 0. -1.
    9900012    2    1    2    0    0  0.17390021689E+02  0.65702707245E+01 -0.25906352570E+02  0.59301946384E+02  0.50000004298E+02 0.  0.
         12    1    1    2    0    0 -0.17390021689E+02 -0.65702707245E+01  0.25906352570E+02  0.31886053616E+02  0.00000000000E+00 0. -1.
         11    1    3    3    0    0  0.10735959855E+01 -0.12283951305E+02 -0.17218971285E+02  0.21178787510E+02  0.51100000000E-03 0. -1.
        -11    1    3    3    0    0 -0.70306123529E+01  0.34790164221E+01 -0.63100638618E+01  0.10067272298E+02  0.51100000000E-03 0.  1.
        -12    1    3    3    0    0  0.23347038056E+02  0.15375205608E+02 -0.23773174230E+01  0.28055886576E+02  0.00000000000E+00 0.  1.
</event>
<event>
 7    1  0.3461631E-013  0.5930200E+02  0.7816164E-02  0.1266605E+00
        -11   -1    0    0    0    0  0.00000000000E+00  0.00000000000E+00  0.45593999997E+02  0.45594000000E+02  0.51100000000E-03 0.  1.
         11   -1    0    0    0    0 -0.00000000000E+00 -0.00000000000E+00 -0.45593999997E+02  0.45594000000E+02  0.51100000000E-03 0. -1.
    9900012    2    1    2    0    0  0.14734984752E+02  0.27417543857E+02 -0.69192109200E+01  0.59302000462E+02  0.50000102923E+02 0.  0.
         12    1    1    2    0    0 -0.14734984752E+02 -0.27417543857E+02  0.69192109200E+01  0.31885999538E+02  0.00000000000E+00 0. -1.
         11    1    3    3    0    0  0.38019112139E+01  0.21552597259E+01  0.65430554382E+01  0.78683701040E+01  0.51100000000E-03 0. -1.
        -11    1    3    3    0    0 -0.29479363543E-01  0.34394524458E+02 -0.47629661013E+01  0.34722759511E+02  0.51100000000E-03 0.  1.
         12    1    3    3    0    0  0.10962552901E+02 -0.91322403271E+01 -0.86993002569E+01  0.16710870847E+02  0.00000000000E+00 0. -1.
</event>
<event>
 7    1  0.3461631E-013  0.5930206E+02  0.7816164E-02  0.1266604E+00
        -11   -1    0    0    0    0  0.00000000000E+00  0.00000000000E+00  0.45593999997E+02  0.45594000000E+02  0.51100000000E-03 0. -1.
         11   -1    0    0    0    0 -0.00000000000E+00 -0.00000000000E+00 -0.45593999997E+02  0.45594000000E+02  0.51100000000E-03 0.  1.
    9900012    2    1    2    0    0  0.87378914117E+01 -0.12818317892E+02 -0.27857734907E+02  0.59302056168E+02  0.50000204517E+02 0.  0.
         12    1    1    2    0    0 -0.87378914117E+01  0.12818317892E+02  0.27857734907E+02  0.31885943832E+02  0.00000000000E+00 0. -1.
         11    1    3    3    0    0 -0.10394971169E+02 -0.39757805290E+01 -0.46555264240E+01  0.12063837821E+02  0.51100000000E-03 0. -1.
        -11    1    3    3    0    0  0.57064491730E+01 -0.20657110605E+02 -0.56129520587E+01  0.22153668134E+02  0.51100000000E-03 0.  1.
        -12    1    3    3    0    0  0.13426413408E+02  0.11814573242E+02 -0.17589256424E+02  0.25084550214E+02  0.00000000000E+00 0.  1.
</event>
<event>
 7    1  0.3461631E-013  0.5930193E+02  0.7816164E-02  0.1266605E+00
        -11   -1    0    0    0    0  0.00000000000E+00  0.00000000000E+00  0.45593999997E+02  0.45594000000E+02  0.51100000000E-03 0. -1.
         11   -1    0    0    0    0 -0.00000000000E+00 -0.00000000000E+00 -0.45593999997E+02  0.45594000000E+02  0.51100000000E-03 0.  1.
    9900012    2    1    2    0    0  0.19913364175E+02 -0.23678794057E+02 -0.77132439699E+01  0.59301929478E+02  0.49999973466E+02 0.  0.
         12    1    1    2    0    0 -0.19913364175E+02  0.23678794057E+02  0.77132439699E+01  0.31886070522E+02  0.00000000000E+00 0. -1.
         11    1    3    3    0    0 -0.46699683612E+01 -0.36250130294E+00  0.40280798057E+00  0.47013047358E+01  0.51100000000E-03 0. -1.
        -11    1    3    3    0    0 -0.61035511891E+01 -0.80114600696E+01  0.11345764266E+02  0.15171130367E+02  0.51100000000E-03 0.  1.
        -12    1    3    3    0    0  0.30686883725E+02 -0.15304832685E+02 -0.19461816217E+02  0.39429494376E+02  0.00000000000E+00 0.  1.
</event>
<event>
 7    1  0.3461631E-013  0.5930195E+02  0.7816164E-02  0.1266605E+00
        -11   -1    0    0    0    0  0.00000000000E+00  0.00000000000E+00  0.45593999997E+02  0.45594000000E+02  0.51100000000E-03 0.  1.
         11   -1    0    0    0    0 -0.00000000000E+00 -0.00000000000E+00 -0.45593999997E+02  0.45594000000E+02  0.51100000000E-03 0. -1.
    9900012    2    1    2    0    0 -0.38798360664E+01 -0.16698654991E+02  0.26885352379E+02  0.59301946953E+02  0.50000005335E+02 0.  0.
         12    1    1    2    0    0  0.38798360664E+01  0.16698654991E+02 -0.26885352379E+02  0.31886053047E+02  0.00000000000E+00 0. -1.
         11    1    3    3    0    0 -0.56966168932E+01 -0.96174681431E+01  0.22354969142E+01  0.11399323849E+02  0.51100000000E-03 0. -1.
        -11    1    3    3    0    0 -0.12753156953E+02 -0.12552132046E+02  0.26765616360E+02  0.32196230378E+02  0.51100000000E-03 0.  1.
        -12    1    3    3    0    0  0.14569937780E+02  0.54709451982E+01 -0.21157608952E+01  0.15706392725E+02  0.00000000000E+00 0.  1.
</event>
<event>
 7    1  0.3461631E-013  0.5930189E+02  0.7816164E-02  0.1266605E+00
        -11   -1    0    0    0    0  0.00000000000E+00  0.00000000000E+00  0.45593999997E+02  0.45594000000E+02  0.51100000000E-03 0.  1.
         11   -1    0    0    0    0 -0.00000000000E+00 -0.00000000000E+00 -0.45593999997E+02  0.45594000000E+02  0.51100000000E-03 0. -1.
    9900012    2    1    2    0    0  0.38060166348E+01  0.18409812060E+02  0.25754947573E+02  0.59301885982E+02  0.49999894138E+02 0.  0.
         12    1    1    2    0    0 -0.38060166348E+01 -0.18409812060E+02 -0.25754947573E+02  0.31886114018E+02  0.00000000000E+00 0. -1.
         11    1    3    3    0    0  0.64037184432E+01  0.41182789968E+01  0.12432002117E+02  0.14578151759E+02  0.51100000000E-03 0. -1.
        -11    1    3    3    0    0  0.19405491656E+01  0.74356416207E+01  0.27380435978E+02  0.28438403119E+02  0.51100000000E-03 0.  1.
         12    1    3    3    0    0 -0.45382509741E+01  0.68558914420E+01 -0.14057490522E+02  0.16285331104E+02  0.00000000000E+00 0. -1.
</event>
<event>
 7    1  0.3461631E-013  0.5930193E+02  0.7816164E-02  0.1266605E+00
        -11   -1    0    0    0    0  0.00000000000E+00  0.00000000000E+00  0.45593999997E+02  0.45594000000E+02  0.51100000000E-03 0.  1.
         11   -1    0    0    0    0 -0.00000000000E+00 -0.00000000000E+00 -0.45593999997E+02  0.45594000000E+02  0.51100000000E-03 0. -1.
    9900012    2    1    2    0    0  0.31689506943E+01  0.20767403724E+02  0.23987374080E+02  0.59301930609E+02  0.49999975528E+02 0.  0.
         12    1    1    2    0    0 -0.31689506943E+01 -0.20767403724E+02 -0.23987374080E+02  0.31886069391E+02  0.00000000000E+00 0. -1.
         11    1    3    3    0    0  0.14413783570E+02  0.25345993555E+02  0.14460509911E+02  0.32546626449E+02  0.51100000000E-03 0. -1.
        -11    1    3    3    0    0 -0.45974188828E+01  0.86665594569E+01  0.60744518000E+01  0.11538824816E+02  0.51100000000E-03 0.  1.
         12    1    3    3    0    0 -0.66474139930E+01 -0.13245149288E+02  0.34524123691E+01  0.15216479344E+02  0.00000000000E+00 0. -1.
</event>
<event>
 7    1  0.3461631E-013  0.5930196E+02  0.7816164E-02  0.1266605E+00
        -11   -1    0    0    0    0  0.00000000000E+00  0.00000000000E+00  0.45593999997E+02  0.45594000000E+02  0.51100000000E-03 0. -1.
         11   -1    0    0    0    0 -0.00000000000E+00 -0.00000000000E+00 -0.45593999997E+02  0.45594000000E+02  0.51100000000E-03 0.  1.
    9900012    2    1    2    0    0 -0.64382258612E+01  0.14849524228E+02 -0.27472900775E+02  0.59301962319E+02  0.50000033358E+02 0.  0.
         12    1    1    2    0    0  0.64382258612E+01 -0.14849524228E+02  0.27472900775E+02  0.31886037681E+02  0.00000000000E+00 0. -1.
         11    1    3    3    0    0  0.57570808339E-01 -0.61778933507E+01 -0.18255845748E+02  0.19272923620E+02  0.51100000000E-03 0. -1.
        -11    1    3    3    0    0 -0.18743877311E+02  0.10225584849E+02 -0.10211645319E+02  0.23667978843E+02  0.51100000000E-03 0.  1.
         12    1    3    3    0    0  0.12248080641E+02  0.10801832730E+02  0.99459029234E+00  0.16361059855E+02  0.00000000000E+00 0. -1.
</event>
<event>
 7    1  0.3461631E-013  0.5930196E+02  0.7816164E-02  0.1266605E+00
        -11   -1    0    0    0    0  0.00000000000E+00  0.00000000000E+00  0.45593999997E+02  0.45594000000E+02  0.51100000000E-03 0.  1.
         11   -1    0    0    0    0 -0.00000000000E+00 -0.00000000000E+00 -0.45593999997E+02  0.45594000000E+02  0.51100000000E-03 0. -1.
    9900012    2    1    2    0    0 -0.18102824252E+02 -0.34103773300E+01  0.26026463460E+02  0.59301957291E+02  0.50000024189E+02 0.  0.
         12    1    1    2    0    0  0.18102824252E+02  0.34103773300E+01 -0.26026463460E+02  0.31886042709E+02  0.00000000000E+00 0. -1.
         11    1    3    3    0    0  0.10487782830E+02  0.30861777952E+01  0.11903447586E+02  0.16161996992E+02  0.51100000000E-03 0. -1.
        -11    1    3    3    0    0 -0.37913366163E+01  0.29264577461E+01 -0.75109550280E+01  0.89080207662E+01  0.51100000000E-03 0.  1.
        -12    1    3    3    0    0 -0.24799270466E+02 -0.94230128712E+01  0.21633970901E+02  0.34231939533E+02  0.00000000000E+00 0.  1.
</event>
<event>
 7    1  0.3461631E-013  0.5930193E+02  0.7816164E-02  0.1266605E+00
        -11   -1    0    0    0    0  0.00000000000E+00  0.00000000000E+00  0.45593999997E+02  0.45594000000E+02  0.51100000000E-03 0.  1.
         11   -1    0    0    0    0 -0.00000000000E+00 -0.00000000000E+00 -0.45593999997E+02  0.45594000000E+02  0.51100000000E-03 0. -1.
    9900012    2    1    2    0    0 -0.16519516086E+00 -0.13520492636E+02  0.28877155933E+02  0.59301934935E+02  0.49999983417E+02 0.  0.
         12    1    1    2    0    0  0.16519516086E+00  0.13520492636E+02 -0.28877155933E+02  0.31886065065E+02  0.00000000000E+00 0. -1.
         11    1    3    3    0    0  0.16689066459E+02 -0.11257241244E+02  0.51374652797E+01  0.20776043162E+02  0.51100000000E-03 0. -1.
        -11    1    3    3    0    0 -0.17202937829E+01  0.73945180386E+01 -0.13129927569E+01  0.77046906468E+01  0.51100000000E-03 0.  1.
         12    1    3    3    0    0 -0.15133967837E+02 -0.96577694307E+01  0.25052683410E+02  0.30821201127E+02  0.00000000000E+00 0. -1.
</event>
<event>
 7    1  0.3461631E-013  0.5930193E+02  0.7816164E-02  0.1266605E+00
        -11   -1    0    0    0    0  0.00000000000E+00  0.00000000000E+00  0.45593999997E+02  0.45594000000E+02  0.51100000000E-03 0. -1.
         11   -1    0    0    0    0 -0.00000000000E+00 -0.00000000000E+00 -0.45593999997E+02  0.45594000000E+02  0.51100000000E-03 0.  1.
    9900012    2    1    2    0    0 -0.30071037781E+02 -0.70902364865E+01 -0.78855944869E+01  0.59301931458E+02  0.49999977075E+02 0.  0.
         12    1    1    2    0    0  0.30071037781E+02  0.70902364865E+01  0.78855944869E+01  0.31886068542E+02  0.00000000000E+00 0. -1.
         11    1    3    3    0    0 -0.95310274640E+01  0.89294679375E+00  0.91326834632E+01  0.13230409895E+02  0.51100000000E-03 0. -1.
        -11    1    3    3    0    0 -0.21897171328E+02 -0.18594212930E+02 -0.36619062893E+01  0.28959289090E+02  0.51100000000E-03 0.  1.
        -12    1    3    3    0    0  0.13571610110E+01  0.10611029650E+02 -0.13356371661E+02  0.17112232472E+02  0.00000000000E+00 0.  1.
</event>
<event>
 7    1  0.3461631E-013  0.5930193E+02  0.7816164E-02  0.1266605E+00
        -11   -1    0    0    0    0  0.00000000000E+00  0.00000000000E+00  0.45593999997E+02  0.45594000000E+02  0.51100000000E-03 0.  1.
         11   -1    0    0    0    0 -0.00000000000E+00 -0.00000000000E+00 -0.45593999997E+02  0.45594000000E+02  0.51100000000E-03 0. -1.
    9900012    2    1    2    0    0  0.11003008514E+02 -0.29919918623E+02 -0.67377058948E+00  0.59301926338E+02  0.49999967738E+02 0.  0.
         12    1    1    2    0    0 -0.11003008514E+02  0.29919918623E+02  0.67377058948E+00  0.31886073662E+02  0.00000000000E+00 0. -1.
         11    1    3    3    0    0  0.66288146783E+01  0.36043446570E+01  0.63258398203E+01  0.98462548281E+01  0.51100000000E-03 0. -1.
        -11    1    3    3    0    0  0.12936946150E+02 -0.37320271679E+02 -0.44528105833E+01  0.39749148120E+02  0.51100000000E-03 0.  1.
         12    1    3    3    0    0 -0.85627523150E+01  0.37960083985E+01 -0.25467998265E+01  0.97065233902E+01  0.00000000000E+00 0. -1.
</event>
<event>
 7    1  0.3461631E-013  0.5930190E+02  0.7816164E-02  0.1266605E+00
        -11   -1    0    0    0    0  0.00000000000E+00  0.00000000000E+00  0.45593999997E+02  0.45594000000E+02  0.51100000000E-03 0. -1.
         11   -1    0    0    0    0 -0.00000000000E+00 -0.00000000000E+00 -0.45593999997E+02  0.45594000000E+02  0.51100000000E-03 0.  1.
    9900012    2    1    2    0    0  0.22123569384E+02 -0.95278695007E+01 -0.20892360158E+02  0.59301900639E+02  0.49999920869E+02 0.  0.
         12    1    1    2    0    0 -0.22123569384E+02  0.95278695007E+01  0.20892360158E+02  0.31886099361E+02  0.00000000000E+00 0. -1.
         11    1    3    3    0    0  0.20390362725E+02 -0.58199001203E+01 -0.30722264527E+01  0.21426075355E+02  0.51100000000E-03 0. -1.
        -11    1    3    3    0    0  0.13490505377E+02 -0.33299347281E+01  0.27638952179E+01  0.14167615101E+02  0.51100000000E-03 0.  1.
        -12    1    3    3    0    0 -0.11757298718E+02 -0.37803465228E+00 -0.20584028923E+02  0.23708210183E+02  0.00000000000E+00 0.  1.
</event>
<event>
 7    1  0.3461631E-013  0.5930195E+02  0.7816164E-02  0.1266605E+00
        -11   -1    0    0    0    0  0.00000000000E+00  0.00000000000E+00  0.45593999997E+02  0.45594000000E+02  0.51100000000E-03 0.  1.
         11   -1    0    0    0    0 -0.00000000000E+00 -0.00000000000E+00 -0.45593999997E+02  0.45594000000E+02  0.51100000000E-03 0. -1.
    9900012    2    1    2    0    0  0.30605039745E+02  0.57536005172E+01  0.68518259844E+01  0.59301954525E+02  0.50000019145E+02 0.  0.
         12    1    1    2    0    0 -0.30605039745E+02 -0.57536005172E+01 -0.68518259844E+01  0.31886045475E+02  0.00000000000E+00 0. -1.
         11    1    3    3    0    0  0.18889993752E+02 -0.86007931765E+01 -0.11120964074E+02  0.23547427660E+02  0.51100000000E-03 0. -1.
        -11    1    3    3    0    0  0.11268083719E+02  0.79328266292E+00 -0.21360369564E+01  0.11496158585E+02  0.51100000000E-03 0.  1.
        -12    1    3    3    0    0  0.44696227421E+00  0.13561111031E+02  0.20108827015E+02  0.24258368280E+02  0.00000000000E+00 0.  1.
</event>
<event>
 7    1  0.3461631E-013  0.5930194E+02  0.7816164E-02  0.1266605E+00
        -11   -1    0    0    0    0  0.00000000000E+00  0.00000000000E+00  0.45593999997E+02  0.45594000000E+02  0.51100000000E-03 0.  1.
         11   -1    0    0    0    0 -0.00000000000E+00 -0.00000000000E+00 -0.45593999997E+02  0.45594000000E+02  0.51100000000E-03 0. -1.
    9900012    2    1    2    0    0  0.18423858077E+02 -0.24149309717E+02  0.97001482224E+01  0.59301943772E+02  0.49999999533E+02 0.  0.
         12    1    1    2    0    0 -0.18423858077E+02  0.24149309717E+02 -0.97001482224E+01  0.31886056228E+02  0.00000000000E+00 0. -1.
         11    1    3    3    0    0  0.16762308283E+02 -0.33344195323E+02  0.56341533529E+01  0.37743264630E+02  0.51100000000E-03 0. -1.
        -11    1    3    3    0    0  0.17653489864E+01 -0.47871088210E+01 -0.29722110922E+01  0.59048206531E+01  0.51100000000E-03 0.  1.
        -12    1    3    3    0    0 -0.10379919301E+00  0.13981994426E+02  0.70382059617E+01  0.15653858488E+02  0.00000000000E+00 0.  1.
</event>
<event>
 7    1  0.3461631E-013  0.5930191E+02  0.7816164E-02  0.1266605E+00
        -11   -1    0    0    0    0  0.00000000000E+00  0.00000000000E+00  0.45593999997E+02  0.45594000000E+02  0.51100000000E-03 0.  1.
         11   -1    0    0    0    0 -0.00000000000E+00 -0.00000000000E+00 -0.45593999997E+02  0.45594000000E+02  0.51100000000E-03 0. -1.
    9900012    2    1    2    0    0  0.73753198437E+01 -0.10324024810E+02  0.29253061729E+02  0.59301914451E+02  0.49999946060E+02 0.  0.
         12    1    1    2    0    0 -0.73753198437E+01  0.10324024810E+02 -0.29253061729E+02  0.31886085549E+02  0.00000000000E+00 0. -1.
         11    1    3    3    0    0  0.24488676123E+01  0.17248413594E+02  0.12552044494E+02  0.21472273874E+02  0.51100000000E-03 0. -1.
        -11    1    3    3    0    0  0.75330333196E+01 -0.10465231790E+02  0.15947901921E+02  0.20508613882E+02  0.51100000000E-03 0.  1.
         12    1    3    3    0    0 -0.26065810882E+01 -0.17107206614E+02  0.75311531408E+00  0.17321026695E+02  0.00000000000E+00 0. -1.
</event>
<event>
 7    1  0.3461631E-013  0.5930195E+02  0.7816164E-02  0.1266605E+00
        -11   -1    0    0    0    0  0.00000000000E+00  0.00000000000E+00  0.45593999997E+02  0.45594000000E+02  0.51100000000E-03 0.  1.
         11   -1    0    0    0    0 -0.00000000000E+00 -0.00000000000E+00 -0.45593999997E+02  0.45594000000E+02  0.51100000000E-03 0. -1.
    9900012    2    1    2    0    0  0.20369414961E+02  0.21852834260E+02  0.11147244056E+02  0.59301945351E+02  0.50000002413E+02 0.  0.
         12    1    1    2    0    0 -0.20369414961E+02 -0.21852834260E+02 -0.11147244056E+02  0.31886054649E+02  0.00000000000E+00 0. -1.
         11    1    3    3    0    0  0.82186984295E+01 -0.10183009154E+01  0.65383369993E+01  0.10551482910E+02  0.51100000000E-03 0. -1.
        -11    1    3    3    0    0 -0.53514021770E+01 -0.42822024354E+01  0.13589641768E+02  0.15220155275E+02  0.51100000000E-03 0.  1.
         12    1    3    3    0    0  0.17502118708E+02  0.27153337611E+02 -0.89807347109E+01  0.33530307166E+02  0.00000000000E+00 0. -1.
</event>
<event>
 7    1  0.3461631E-013  0.5930197E+02  0.7816164E-02  0.1266605E+00
        -11   -1    0    0    0    0  0.00000000000E+00  0.00000000000E+00  0.45593999997E+02  0.45594000000E+02  0.51100000000E-03 0.  1.
         11   -1    0    0    0    0 -0.00000000000E+00 -0.00000000000E+00 -0.45593999997E+02  0.45594000000E+02  0.51100000000E-03 0. -1.
    9900012    2    1    2    0    0 -0.65467475218E+01  0.24639802985E+02  0.19150431872E+02  0.59301971161E+02  0.50000049484E+02 0.  0.
         12    1    1    2    0    0  0.65467475218E+01 -0.24639802985E+02 -0.19150431872E+02  0.31886028839E+02  0.00000000000E+00 0. -1.
         11    1    3    3    0    0 -0.10755256113E+02  0.37372859848E+01  0.28475197987E+01  0.11736746135E+02  0.51100000000E-03 0. -1.
        -11    1    3    3    0    0 -0.16072715569E+02  0.80623623217E+01 -0.94611319746E+00  0.18006360054E+02  0.51100000000E-03 0.  1.
         12    1    3    3    0    0  0.20281224160E+02  0.12840154679E+02  0.17249025271E+02  0.29558864971E+02  0.00000000000E+00 0. -1.
</event>
<event>
 7    1  0.3461631E-013  0.5930197E+02  0.7816164E-02  0.1266605E+00
        -11   -1    0    0    0    0  0.00000000000E+00  0.00000000000E+00  0.45593999997E+02  0.45594000000E+02  0.51100000000E-03 0.  1.
         11   -1    0    0    0    0 -0.00000000000E+00 -0.00000000000E+00 -0.45593999997E+02  0.45594000000E+02  0.51100000000E-03 0. -1.
    9900012    2    1    2    0    0 -0.12581811949E+02  0.52797949376E+01  0.28819101388E+02  0.59301971221E+02  0.50000049594E+02 0.  0.
         12    1    1    2    0    0  0.12581811949E+02 -0.52797949376E+01 -0.28819101388E+02  0.31886028779E+02  0.00000000000E+00 0. -1.
         11    1    3    3    0    0  0.38822006390E+01 -0.90621648131E+01 -0.74941448591E+01  0.12383719971E+02  0.51100000000E-03 0. -1.
        -11    1    3    3    0    0 -0.93615442134E+01  0.96123904841E+01  0.47687713159E+01  0.14240004951E+02  0.51100000000E-03 0.  1.
        -12    1    3    3    0    0 -0.71024683749E+01  0.47295692667E+01  0.31544474931E+02  0.32678246298E+02  0.00000000000E+00 0.  1.
</event>
<event>
 7    1  0.3461631E-013  0.5930194E+02  0.7816164E-02  0.1266605E+00
        -11   -1    0    0    0    0  0.00000000000E+00  0.00000000000E+00  0.45593999997E+02  0.45594000000E+02  0.51100000000E-03 0.  1.
         11   -1    0    0    0    0 -0.00000000000E+00 -0.00000000000E+00 -0.45593999997E+02  0.45594000000E+02  0.51100000000E-03 0. -1.
    9900012    2    1    2    0    0 -0.24474000347E+02 -0.17482522477E+02 -0.10587983135E+02  0.59301942357E+02  0.49999996953E+02 0.  0.
         12    1    1    2    0    0  0.24474000347E+02  0.17482522477E+02  0.10587983135E+02  0.31886057643E+02  0.00000000000E+00 0. -1.
         11    1    3    3    0    0  0.87821149615E+01 -0.73798066566E+01  0.24992534473E+01  0.11740245208E+02  0.51100000000E-03 0.  1.
        -11    1    3    3    0    0 -0.11243169574E+02 -0.14021220456E+02 -0.17143750124E+02  0.24837706289E+02  0.51100000000E-03 0. -1.
         12    1    3    3    0    0 -0.22012945734E+02  0.39185046361E+01  0.40565135413E+01  0.22723990860E+02  0.00000000000E+00 0. -1.
</event>
<event>
 7    1  0.3461631E-013  0.5930194E+02  0.7816164E-02  0.1266605E+00
        -11   -1    0    0    0    0  0.00000000000E+00  0.00000000000E+00  0.45593999997E+02  0.45594000000E+02  0.51100000000E-03 0.  1.
         11   -1    0    0    0    0 -0.00000000000E+00 -0.00000000000E+00 -0.45593999997E+02  0.45594000000E+02  0.51100000000E-03 0. -1.
    9900012    2    1    2    0    0 -0.43301182313E+01  0.27992128041E+02  0.14642799197E+02  0.59301941534E+02  0.49999995452E+02 0.  0.
         12    1    1    2    0    0  0.43301182313E+01 -0.27992128041E+02 -0.14642799197E+02  0.31886058466E+02  0.00000000000E+00 0. -1.
         11    1    3    3    0    0  0.44292588895E+01  0.22136423483E+02 -0.60794715886E+01  0.23379468642E+02  0.51100000000E-03 0. -1.
        -11    1    3    3    0    0 -0.14440225306E+02  0.80280167373E+00  0.67087915111E+00  0.14478075719E+02  0.51100000000E-03 0.  1.
        -12    1    3    3    0    0  0.56808481856E+01  0.50529028849E+01  0.20051391634E+02  0.21444397174E+02  0.00000000000E+00 0.  1.
</event>
<event>
 7    1  0.3461631E-013  0.5930201E+02  0.7816164E-02  0.1266605E+00
        -11   -1    0    0    0    0  0.00000000000E+00  0.00000000000E+00  0.45593999997E+02  0.45594000000E+02  0.51100000000E-03 0.  1.
         11   -1    0    0    0    0 -0.00000000000E+00 -0.00000000000E+00 -0.45593999997E+02  0.45594000000E+02  0.51100000000E-03 0. -1.
    9900012    2    1    2    0    0 -0.30455013354E+02 -0.38823359078E+01 -0.86102275640E+01  0.59302009515E+02  0.50000119434E+02 0.  0.
         12    1    1    2    0    0  0.30455013354E+02  0.38823359078E+01  0.86102275640E+01  0.31885990485E+02  0.00000000000E+00 0. -1.
         11    1    3    3    0    0 -0.92102399689E+01 -0.17791209156E+02 -0.14155890082E+02  0.24530488535E+02  0.51100000000E-03 0. -1.
        -11    1    3    3    0    0 -0.13434733791E+02 -0.43224025134E+01  0.48587870321E+01  0.14925918639E+02  0.51100000000E-03 0.  1.
        -12    1    3    3    0    0 -0.78100395940E+01  0.18231275762E+02  0.68687548567E+00  0.19845602341E+02  0.00000000000E+00 0.  1.
</event>
<event>
 7    1  0.3461631E-013  0.5930190E+02  0.7816164E-02  0.1266605E+00
        -11   -1    0    0    0    0  0.00000000000E+00  0.00000000000E+00  0.45593999997E+02  0.45594000000E+02  0.51100000000E-03 0.  1.
         11   -1    0    0    0    0 -0.00000000000E+00 -0.00000000000E+00 -0.45593999997E+02  0.45594000000E+02  0.51100000000E-03 0. -1.
    9900012    2    1    2    0    0 -0.87547720413E+01  0.26356928771E+02  0.15664910232E+02  0.59301903652E+02  0.49999926364E+02 0.  0.
         12    1    1    2    0    0  0.87547720413E+01 -0.26356928771E+02 -0.15664910232E+02  0.31886096348E+02  0.00000000000E+00 0. -1.
         11    1    3    3    0    0  0.10216881003E+02  0.50986494941E+01 -0.21905945230E+01  0.11626675738E+02  0.51100000000E-03 0. -1.
        -11    1    3    3    0    0 -0.12306783588E+02  0.58941705826E+00  0.22328701273E+02  0.25502455480E+02  0.51100000000E-03 0.  1.
         12    1    3    3    0    0 -0.66648694565E+01  0.20668862219E+02 -0.44731965177E+01  0.22172772433E+02  0.00000000000E+00 0. -1.
</event>
<event>
 7    1  0.3461631E-013  0.5930194E+02  0.7816164E-02  0.1266605E+00
        -11   -1    0    0    0    0  0.00000000000E+00  0.00000000000E+00  0.45593999997E+02  0.45594000000E+02  0.51100000000E-03 0.  1.
         11   -1    0    0    0    0 -0.00000000000E+00 -0.00000000000E+00 -0.45593999997E+02  0.45594000000E+02  0.51100000000E-03 0. -1.
    9900012    2    1    2    0    0 -0.24015891056E+02  0.20401281228E+02  0.48729135791E+01  0.59301943711E+02  0.49999999422E+02 0.  0.
         12    1    1    2    0    0  0.24015891056E+02 -0.20401281228E+02 -0.48729135791E+01  0.31886056289E+02  0.00000000000E+00 0. -1.
         11    1    3    3    0    0 -0.47851413679E+01 -0.32853985021E+01  0.30131066756E+01  0.65398955135E+01  0.51100000000E-03 0. -1.
        -11    1    3    3    0    0  0.65379652485E+01 -0.10982025313E+01  0.13600399826E+02  0.15130165699E+02  0.51100000000E-03 0.  1.
         12    1    3    3    0    0 -0.25768714936E+02  0.24784882261E+02 -0.11740592923E+02  0.37631882498E+02  0.00000000000E+00 0. -1.
</event>
<event>
 7    1  0.3461631E-013  0.5930190E+02  0.7816164E-02  0.1266605E+00
        -11   -1    0    0    0    0  0.00000000000E+00  0.00000000000E+00  0.45593999997E+02  0.45594000000E+02  0.51100000000E-03 0.  1.
         11   -1    0    0    0    0 -0.00000000000E+00 -0.00000000000E+00 -0.45593999997E+02  0.45594000000E+02  0.51100000000E-03 0. -1.
    9900012    2    1    2    0    0  0.15038625316E+02 -0.20780504072E+02  0.18940263496E+02  0.59301902996E+02  0.49999925167E+02 0.  0.
         12    1    1    2    0    0 -0.15038625316E+02  0.20780504072E+02 -0.18940263496E+02  0.31886097004E+02  0.00000000000E+00 0. -1.
         11    1    3    3    0    0  0.26747892412E+01 -0.19949970286E+01  0.30090017480E+02  0.30274472132E+02  0.51100000000E-03 0. -1.
        -11    1    3    3    0    0  0.12059873186E+02 -0.10961032697E+02 -0.11648668785E+01  0.16338350411E+02  0.51100000000E-03 0.  1.
        -12    1    3    3    0    0  0.30396288915E+00 -0.78244743465E+01 -0.99848871057E+01  0.12689080453E+02  0.00000000000E+00 0.  1.
</event>
<event>
 7    1  0.3461631E-013  0.5930195E+02  0.7816164E-02  0.1266605E+00
        -11   -1    0    0    0    0  0.00000000000E+00  0.00000000000E+00  0.45593999997E+02  0.45594000000E+02  0.51100000000E-03 0. -1.
         11   -1    0    0    0    0 -0.00000000000E+00 -0.00000000000E+00 -0.45593999997E+02  0.45594000000E+02  0.51100000000E-03 0.  1.
    9900012    2    1    2    0    0 -0.16951445415E+02  0.14795189505E+02 -0.22593607883E+02  0.59301948954E+02  0.50000008983E+02 0.  0.
         12    1    1    2    0    0  0.16951445415E+02 -0.14795189505E+02  0.22593607883E+02  0.31886051046E+02  0.00000000000E+00 0. -1.
         11    1    3    3    0    0 -0.28206002303E+01 -0.14094213856E+02 -0.23443851899E+01  0.14563611917E+02  0.51100000000E-03 0. -1.
        -11    1    3    3    0    0 -0.19838338217E+00 -0.40566269583E+01 -0.13382888966E+01  0.42762829276E+01  0.51100000000E-03 0.  1.
        -12    1    3    3    0    0 -0.13932461803E+02  0.32946030319E+02 -0.18910933797E+02  0.40462054109E+02  0.00000000000E+00 0.  1.
</event>
<event>
 7    1  0.3461631E-013  0.5930189E+02  0.7816164E-02  0.1266605E+00
        -11   -1    0    0    0    0  0.00000000000E+00  0.00000000000E+00  0.45593999997E+02  0.45594000000E+02  0.51100000000E-03 0.  1.
         11   -1    0    0    0    0 -0.00000000000E+00 -0.00000000000E+00 -0.45593999997E+02  0.45594000000E+02  0.51100000000E-03 0. -1.
    9900012    2    1    2    0    0 -0.84871085697E+01  0.22117065694E+02  0.21343118528E+02  0.59301885228E+02  0.49999892763E+02 0.  0.
         12    1    1    2    0    0  0.84871085697E+01 -0.22117065694E+02 -0.21343118528E+02  0.31886114772E+02  0.00000000000E+00 0. -1.
         11    1    3    3    0    0 -0.71726530333E+01  0.71673699673E+01 -0.19613949934E+01  0.10327885280E+02  0.51100000000E-03 0. -1.
        -11    1    3    3    0    0  0.11052582983E+02  0.11595385317E+01 -0.72315739937E+01  0.13258951048E+02  0.51100000000E-03 0.  1.
        -12    1    3    3    0    0 -0.12367038519E+02  0.13790157195E+02  0.30536087515E+02  0.35715048900E+02  0.00000000000E+00 0.  1.
</event>
<event>
 7    1  0.3461631E-013  0.5930192E+02  0.7816164E-02  0.1266605E+00
        -11   -1    0    0    0    0  0.00000000000E+00  0.00000000000E+00  0.45593999997E+02  0.45594000000E+02  0.51100000000E-03 0. -1.
         11   -1    0    0    0    0 -0.00000000000E+00 -0.00000000000E+00 -0.45593999997E+02  0.45594000000E+02  0.51100000000E-03 0.  1.
    9900012    2    1    2    0    0  0.26900925424E+02  0.14348760740E+02 -0.93367673714E+01  0.59301922343E+02  0.49999960452E+02 0.  0.
         12    1    1    2    0    0 -0.26900925424E+02 -0.14348760740E+02  0.93367673714E+01  0.31886077657E+02  0.00000000000E+00 0. -1.
         11    1    3    3    0    0 -0.21560504617E+00 -0.87453239792E+01  0.56545786683E+01  0.10416402316E+02  0.51100000000E-03 0. -1.
        -11    1    3    3    0    0  0.24752396613E+02  0.24284599393E+01 -0.12795036502E+02  0.27969474702E+02  0.51100000000E-03 0.  1.
         12    1    3    3    0    0  0.23641338571E+01  0.20665624780E+02 -0.21963095378E+01  0.20916045324E+02  0.00000000000E+00 0. -1.
</event>
<event>
 7    1  0.3461631E-013  0.5930192E+02  0.7816164E-02  0.1266605E+00
        -11   -1    0    0    0    0  0.00000000000E+00  0.00000000000E+00  0.45593999997E+02  0.45594000000E+02  0.51100000000E-03 0.  1.
         11   -1    0    0    0    0 -0.00000000000E+00 -0.00000000000E+00 -0.45593999997E+02  0.45594000000E+02  0.51100000000E-03 0. -1.
    9900012    2    1    2    0    0  0.17967375089E+02 -0.80149267606E+01  0.25092960688E+02  0.59301916913E+02  0.49999950549E+02 0.  0.
         12    1    1    2    0    0 -0.17967375089E+02  0.80149267606E+01 -0.25092960688E+02  0.31886083087E+02  0.00000000000E+00 0. -1.
         11    1    3    3    0    0  0.59855934032E+01  0.56921112303E+01  0.19286782989E+02  0.20981121442E+02  0.51100000000E-03 0. -1.
        -11    1    3    3    0    0  0.16928636655E+02 -0.17225646661E+02  0.14158215712E+02  0.27995655276E+02  0.51100000000E-03 0.  1.
        -12    1    3    3    0    0 -0.49468549688E+01  0.35186086704E+01 -0.83520380139E+01  0.10325140195E+02  0.00000000000E+00 0.  1.
</event>
<event>
 7    1  0.3461631E-013  0.5930187E+02  0.7816164E-02  0.1266605E+00
        -11   -1    0    0    0    0  0.00000000000E+00  0.00000000000E+00  0.45593999997E+02  0.45594000000E+02  0.51100000000E-03 0.  1.
         11   -1    0    0    0    0 -0.00000000000E+00 -0.00000000000E+00 -0.45593999997E+02  0.45594000000E+02  0.51100000000E-03 0. -1.
    9900012    2    1    2    0    0 -0.54467301144E+01 -0.28644884184E+02  0.12904614105E+02  0.59301869409E+02  0.49999863913E+02 0.  0.
         12    1    1    2    0    0  0.54467301144E+01  0.28644884184E+02 -0.12904614105E+02  0.31886130591E+02  0.00000000000E+00 0. -1.
         11    1    3    3    0    0 -0.79633109372E+01  0.72965446932E+01  0.15243898319E+02  0.18682353218E+02  0.51100000000E-03 0. -1.
        -11    1    3    3    0    0 -0.39609858669E+01 -0.20529280913E+01 -0.41183854587E+01  0.60716572559E+01  0.51100000000E-03 0.  1.
        -12    1    3    3    0    0  0.64775666897E+01 -0.33888500786E+02  0.17791012445E+01  0.34547858935E+02  0.00000000000E+00 0.  1.
</event>
<event>
 7    1  0.3461631E-013  0.5930197E+02  0.7816164E-02  0.1266605E+00
        -11   -1    0    0    0    0  0.00000000000E+00  0.00000000000E+00  0.45593999997E+02  0.45594000000E+02  0.51100000000E-03 0. -1.
         11   -1    0    0    0    0 -0.00000000000E+00 -0.00000000000E+00 -0.45593999997E+02  0.45594000000E+02  0.51100000000E-03 0.  1.
    9900012    2    1    2    0    0  0.22198380594E+02 -0.16849957705E+02 -0.15492885178E+02  0.59301973801E+02  0.50000054299E+02 0.  0.
         12    1    1    2    0    0 -0.22198380594E+02  0.16849957705E+02  0.15492885178E+02  0.31886026199E+02  0.00000000000E+00 0. -1.
         11    1    3    3    0    0 -0.53104530617E+01 -0.19645755319E+01  0.35034464536E+01  0.66584236916E+01  0.51100000000E-03 0. -1.
        -11    1    3    3    0    0 -0.22171586436E+01 -0.12053028727E+02  0.60520825193E+01  0.13668174605E+02  0.51100000000E-03 0.  1.
        -12    1    3    3    0    0  0.29725992299E+02 -0.28323534459E+01 -0.25048414151E+02  0.38975375504E+02  0.00000000000E+00 0.  1.
</event>
<event>
 7    1  0.3461631E-013  0.5930195E+02  0.7816164E-02  0.1266605E+00
        -11   -1    0    0    0    0  0.00000000000E+00  0.00000000000E+00  0.45593999997E+02  0.45594000000E+02  0.51100000000E-03 0.  1.
         11   -1    0    0    0    0 -0.00000000000E+00 -0.00000000000E+00 -0.45593999997E+02  0.45594000000E+02  0.51100000000E-03 0. -1.
    9900012    2    1    2    0    0 -0.31031455663E+01 -0.18969479279E+02  0.25441102762E+02  0.59301947152E+02  0.50000005697E+02 0.  0.
         12    1    1    2    0    0  0.31031455663E+01  0.18969479279E+02 -0.25441102762E+02  0.31886052848E+02  0.00000000000E+00 0. -1.
         11    1    3    3    0    0 -0.79318639370E+01 -0.89568520955E+01 -0.92503202488E+01  0.15123097895E+02  0.51100000000E-03 0. -1.
        -11    1    3    3    0    0 -0.61837565362E+01  0.43834284646E+00 -0.12038578062E+00  0.62004421091E+01  0.51100000000E-03 0.  1.
        -12    1    3    3    0    0  0.11012474907E+02 -0.10450970030E+02  0.34811808791E+02  0.37978407148E+02  0.00000000000E+00 0.  1.
</event>
<event>
 7    1  0.3461631E-013  0.5930204E+02  0.7816164E-02  0.1266604E+00
        -11   -1    0    0    0    0  0.00000000000E+00  0.00000000000E+00  0.45593999997E+02  0.45594000000E+02  0.51100000000E-03 0. -1.
         11   -1    0    0    0    0 -0.00000000000E+00 -0.00000000000E+00 -0.45593999997E+02  0.45594000000E+02  0.51100000000E-03 0.  1.
    9900012    2    1    2    0    0  0.10760044042E+02  0.21154084851E+02 -0.21294143479E+02  0.59302040705E+02  0.50000176316E+02 0.  0.
         12    1    1    2    0    0 -0.10760044042E+02 -0.21154084851E+02  0.21294143479E+02  0.31885959295E+02  0.00000000000E+00 0. -1.
         11    1    3    3    0    0  0.14938811880E+01  0.98132843354E+01 -0.15619488995E+02  0.18506773548E+02  0.51100000000E-03 0. -1.
        -11    1    3    3    0    0  0.17701684135E+02  0.18895800166E+02  0.36215418773E+01  0.26144147548E+02  0.51100000000E-03 0.  1.
         12    1    3    3    0    0 -0.84355212818E+01 -0.75549996510E+01 -0.92961963613E+01  0.14651119609E+02  0.00000000000E+00 0. -1.
</event>
<event>
 7    1  0.3461631E-013  0.5930198E+02  0.7816164E-02  0.1266605E+00
        -11   -1    0    0    0    0  0.00000000000E+00  0.00000000000E+00  0.45593999997E+02  0.45594000000E+02  0.51100000000E-03 0.  1.
         11   -1    0    0    0    0 -0.00000000000E+00 -0.00000000000E+00 -0.45593999997E+02  0.45594000000E+02  0.51100000000E-03 0. -1.
    9900012    2    1    2    0    0  0.27545527774E+02 -0.79851099884E+01  0.13935580078E+02  0.59301976824E+02  0.50000059813E+02 0.  0.
         12    1    1    2    0    0 -0.27545527774E+02  0.79851099884E+01 -0.13935580078E+02  0.31886023176E+02  0.00000000000E+00 0. -1.
         11    1    3    3    0    0 -0.65601837019E+01 -0.10186910449E+02 -0.99649693739E+01  0.15687886077E+02  0.51100000000E-03 0. -1.
        -11    1    3    3    0    0  0.25308152942E-01 -0.17558316374E+01 -0.75016451596E-01  0.17576157061E+01  0.51100000000E-03 0.  1.
        -12    1    3    3    0    0  0.34080403323E+02  0.39576320977E+01  0.23975565903E+02  0.41856475041E+02  0.00000000000E+00 0.  1.
</event>
<event>
 7    1  0.3461631E-013  0.5930192E+02  0.7816164E-02  0.1266605E+00
        -11   -1    0    0    0    0  0.00000000000E+00  0.00000000000E+00  0.45593999997E+02  0.45594000000E+02  0.51100000000E-03 0.  1.
         11   -1    0    0    0    0 -0.00000000000E+00 -0.00000000000E+00 -0.45593999997E+02  0.45594000000E+02  0.51100000000E-03 0. -1.
    9900012    2    1    2    0    0  0.29779414802E+02 -0.88779952575E+01  0.71477079006E+01  0.59301920373E+02  0.49999956859E+02 0.  0.
         12    1    1    2    0    0 -0.29779414802E+02  0.88779952575E+01 -0.71477079006E+01  0.31886079627E+02  0.00000000000E+00 0. -1.
         11    1    3    3    0    0  0.22244977415E+02 -0.10107613048E+02  0.68826447694E+01  0.25384516166E+02  0.51100000000E-03 0. -1.
        -11    1    3    3    0    0  0.13092888703E+02 -0.67535665381E+01  0.11766170216E+02  0.18854101872E+02  0.51100000000E-03 0.  1.
         12    1    3    3    0    0 -0.55584513155E+01  0.79831843291E+01 -0.11501107084E+02  0.15063302335E+02  0.00000000000E+00 0. -1.
</event>
<event>
 7    1  0.3461631E-013  0.5930197E+02  0.7816164E-02  0.1266605E+00
        -11   -1    0    0    0    0  0.00000000000E+00  0.00000000000E+00  0.45593999997E+02  0.45594000000E+02  0.51100000000E-03 0. -1.
         11   -1    0    0    0    0 -0.00000000000E+00 -0.00000000000E+00 -0.45593999997E+02  0.45594000000E+02  0.51100000000E-03 0.  1.
    9900012    2    1    2    0    0 -0.76162415505E+01  0.92636251876E+01 -0.29544826429E+02  0.59301973975E+02  0.50000054616E+02 0.  0.
         12    1    1    2    0    0  0.76162415505E+01 -0.92636251876E+01  0.29544826429E+02  0.31886026025E+02  0.00000000000E+00 0. -1.
         11    1    3    3    0    0 -0.51929836342E+01  0.75472535439E+01  0.51779140034E+01  0.10523255616E+02  0.51100000000E-03 0. -1.
        -11    1    3    3    0    0 -0.17485560800E+02  0.61862814231E+01 -0.18830825067E+02  0.26431323979E+02  0.51100000000E-03 0.  1.
         12    1    3    3    0    0  0.15062302883E+02 -0.44699097794E+01 -0.15891915365E+02  0.22347394380E+02  0.00000000000E+00 0. -1.
</event>
<event>
 7    1  0.3461631E-013  0.5930192E+02  0.7816164E-02  0.1266605E+00
        -11   -1    0    0    0    0  0.00000000000E+00  0.00000000000E+00  0.45593999997E+02  0.45594000000E+02  0.51100000000E-03 0.  1.
         11   -1    0    0    0    0 -0.00000000000E+00 -0.00000000000E+00 -0.45593999997E+02  0.45594000000E+02  0.51100000000E-03 0. -1.
    9900012    2    1    2    0    0 -0.22230369951E+02  0.10905587609E+02  0.20089826723E+02  0.59301916406E+02  0.49999949624E+02 0.  0.
         12    1    1    2    0    0  0.22230369951E+02 -0.10905587609E+02 -0.20089826723E+02  0.31886083594E+02  0.00000000000E+00 0. -1.
         11    1    3    3    0    0 -0.87072530669E+01  0.10485495155E+02 -0.61294792768E+01  0.14944309321E+02  0.51100000000E-03 0. -1.
        -11    1    3    3    0    0 -0.21625688892E+02  0.67650917224E+01  0.25393376578E+02  0.34033225830E+02  0.51100000000E-03 0.  1.
         12    1    3    3    0    0  0.81025720085E+01 -0.63449992692E+01  0.82592942167E+00  0.10324381255E+02  0.00000000000E+00 0. -1.
</event>
<event>
 7    1  0.3461631E-013  0.5930189E+02  0.7816164E-02  0.1266605E+00
        -11   -1    0    0    0    0  0.00000000000E+00  0.00000000000E+00  0.45593999997E+02  0.45594000000E+02  0.51100000000E-03 0. -1.
         11   -1    0    0    0    0 -0.00000000000E+00 -0.00000000000E+00 -0.45593999997E+02  0.45594000000E+02  0.51100000000E-03 0.  1.
    9900012    2    1    2    0    0 -0.26584929951E+02 -0.57351251382E+01 -0.16645533395E+02  0.59301891067E+02  0.49999903413E+02 0.  0.
         12    1    1    2    0    0  0.26584929951E+02  0.57351251382E+01  0.16645533395E+02  0.31886108933E+02  0.00000000000E+00 0. -1.
         11    1    3    3    0    0  0.20457351542E+01 -0.15144769100E+01  0.43688624652E+01  0.50562468425E+01  0.51100000000E-03 0. -1.
        -11    1    3    3    0    0  0.61429407102E+01 -0.30552577708E+01  0.68312399864E+01  0.96817436770E+01  0.51100000000E-03 0.  1.
        -12    1    3    3    0    0 -0.34773605816E+02 -0.11653904574E+01 -0.27845635847E+02  0.44563900548E+02  0.00000000000E+00 0.  1.
</event>
<event>
 7    1  0.3461631E-013  0.5930193E+02  0.7816164E-02  0.1266605E+00
        -11   -1    0    0    0    0  0.00000000000E+00  0.00000000000E+00  0.45593999997E+02  0.45594000000E+02  0.51100000000E-03 0. -1.
         11   -1    0    0    0    0 -0.00000000000E+00 -0.00000000000E+00 -0.45593999997E+02  0.45594000000E+02  0.51100000000E-03 0.  1.
    9900012    2    1    2    0    0 -0.93015781685E+01  0.24400927525E+02 -0.18297452589E+02  0.59301931070E+02  0.49999976369E+02 0.  0.
         12    1    1    2    0    0  0.93015781685E+01 -0.24400927525E+02  0.18297452589E+02  0.31886068930E+02  0.00000000000E+00 0. -1.
         11    1    3    3    0    0  0.93203152895E+01  0.75683270944E+01  0.27888671998E+01  0.12325811642E+02  0.51100000000E-03 0. -1.
        -11    1    3    3    0    0 -0.59607963729E+01  0.34653260553E+01 -0.26820229579E+02  0.27692314692E+02  0.51100000000E-03 0.  1.
        -12    1    3    3    0    0 -0.12661097085E+02  0.13367274376E+02  0.57339097899E+01  0.19283804736E+02  0.00000000000E+00 0.  1.
</event>
<event>
 7    1  0.3461631E-013  0.5930195E+02  0.7816164E-02  0.1266605E+00
        -11   -1    0    0    0    0  0.00000000000E+00  0.00000000000E+00  0.45593999997E+02  0.45594000000E+02  0.51100000000E-03 0.  1.
         11   -1    0    0    0    0 -0.00000000000E+00 -0.00000000000E+00 -0.45593999997E+02  0.45594000000E+02  0.51100000000E-03 0. -1.
    9900012    2    1    2    0    0 -0.83568436154E+00 -0.12160140313E+02  0.29464432001E+02  0.59301950794E+02  0.50000012341E+02 0.  0.
         12    1    1    2    0    0  0.83568436154E+00  0.12160140313E+02 -0.29464432001E+02  0.31886049206E+02  0.00000000000E+00 0. -1.
         11    1    3    3    0    0 -0.92607141268E+01  0.88196404234E+01 -0.22129170418E+01  0.12978593353E+02  0.51100000000E-03 0. -1.
        -11    1    3    3    0    0 -0.86554796208E+01 -0.10342765600E+02  0.10336834848E+02  0.16992359538E+02  0.51100000000E-03 0.  1.
        -12    1    3    3    0    0  0.17080509386E+02 -0.10637015136E+02  0.21340514195E+02  0.29330997904E+02  0.00000000000E+00 0.  1.
</event>
<event>
 7    1  0.3461631E-013  0.5930195E+02  0.7816164E-02  0.1266605E+00
        -11   -1    0    0    0    0  0.00000000000E+00  0.00000000000E+00  0.45593999997E+02  0.45594000000E+02  0.51100000000E-03 0. -1.
         11   -1    0    0    0    0 -0.00000000000E+00 -0.00000000000E+00 -0.45593999997E+02  0.45594000000E+02  0.51100000000E-03 0.  1.
    9900012    2    1    2    0    0  0.34632905029E+01  0.18857333370E+02 -0.25477964576E+02  0.59301951611E+02  0.50000013830E+02 0.  0.
         12    1    1    2    0    0 -0.34632905029E+01 -0.18857333370E+02  0.25477964576E+02  0.31886048389E+02  0.00000000000E+00 0. -1.
         11    1    3    3    0    0  0.10870512817E+02  0.20921963196E+02  0.27267223400E+01  0.23734607809E+02  0.51100000000E-03 0. -1.
        -11    1    3    3    0    0  0.31767878400E+00  0.38724739614E+01  0.16064740712E+01  0.42044896948E+01  0.51100000000E-03 0.  1.
         12    1    3    3    0    0 -0.77249010984E+01 -0.59371037873E+01 -0.29811160987E+02  0.31362854107E+02  0.00000000000E+00 0. -1.
</event>
<event>
 7    1  0.3461631E-013  0.5930188E+02  0.7816164E-02  0.1266605E+00
        -11   -1    0    0    0    0  0.00000000000E+00  0.00000000000E+00  0.45593999997E+02  0.45594000000E+02  0.51100000000E-03 0. -1.
         11   -1    0    0    0    0 -0.00000000000E+00 -0.00000000000E+00 -0.45593999997E+02  0.45594000000E+02  0.51100000000E-03 0.  1.
    9900012    2    1    2    0    0 -0.17294632106E+02  0.11551599458E+02 -0.24169840701E+02  0.59301875287E+02  0.49999874633E+02 0.  0.
         12    1    1    2    0    0  0.17294632106E+02 -0.11551599458E+02  0.24169840701E+02  0.31886124713E+02  0.00000000000E+00 0. -1.
         11    1    3    3    0    0 -0.36051035241E+01  0.50945331158E+01 -0.81044344934E+01  0.10229022329E+02  0.51100000000E-03 0. -1.
        -11    1    3    3    0    0 -0.15583072340E+02  0.57573426263E+01 -0.30375257563E+02  0.34621314388E+02  0.51100000000E-03 0.  1.
         12    1    3    3    0    0  0.18935437582E+01  0.69972371580E+00  0.14309851355E+02  0.14451538571E+02  0.00000000000E+00 0. -1.
</event>
<event>
 7    1  0.3461631E-013  0.5930194E+02  0.7816164E-02  0.1266605E+00
        -11   -1    0    0    0    0  0.00000000000E+00  0.00000000000E+00  0.45593999997E+02  0.45594000000E+02  0.51100000000E-03 0. -1.
         11   -1    0    0    0    0 -0.00000000000E+00 -0.00000000000E+00 -0.45593999997E+02  0.45594000000E+02  0.51100000000E-03 0.  1.
    9900012    2    1    2    0    0 -0.26552837507E+02  0.17509041859E+02  0.22585657036E+01  0.59301939636E+02  0.49999991990E+02 0.  0.
         12    1    1    2    0    0  0.26552837507E+02 -0.17509041859E+02 -0.22585657036E+01  0.31886060364E+02  0.00000000000E+00 0. -1.
         11    1    3    3    0    0  0.17424520157E+01 -0.82191521648E+01  0.95130675144E+01  0.12692086319E+02  0.51100000000E-03 0. -1.
        -11    1    3    3    0    0 -0.25165754728E+02  0.96907256079E+01  0.32838373655E+01  0.27166320361E+02  0.51100000000E-03 0.  1.
         12    1    3    3    0    0 -0.31295347947E+01  0.16037468415E+02 -0.10538339176E+02  0.19443532956E+02  0.00000000000E+00 0. -1.
</event>
<event>
 7    1  0.3461631E-013  0.5930202E+02  0.7816164E-02  0.1266604E+00
        -11   -1    0    0    0    0  0.00000000000E+00  0.00000000000E+00  0.45593999997E+02  0.45594000000E+02  0.51100000000E-03 0.  1.
         11   -1    0    0    0    0 -0.00000000000E+00 -0.00000000000E+00 -0.45593999997E+02  0.45594000000E+02  0.51100000000E-03 0. -1.
    9900012    2    1    2    0    0  0.13326328354E+02  0.83263205594E+01  0.27745216468E+02  0.59302020662E+02  0.50000139763E+02 0.  0.
         12    1    1    2    0    0 -0.13326328354E+02 -0.83263205594E+01 -0.27745216468E+02  0.31885979338E+02  0.00000000000E+00 0. -1.
         11    1    3    3    0    0  0.27324159229E+01  0.59584396015E+01 -0.57256606310E+01  0.87035791019E+01  0.51100000000E-03 0. -1.
        -11    1    3    3    0    0 -0.42394568469E+01  0.16014097805E+02  0.21550293163E+02  0.27181601471E+02  0.51100000000E-03 0.  1.
         12    1    3    3    0    0  0.14833369278E+02 -0.13646216847E+02  0.11920583936E+02  0.23416840089E+02  0.00000000000E+00 0. -1.
</event>
<event>
 7    1  0.3461631E-013  0.5930193E+02  0.7816164E-02  0.1266605E+00
        -11   -1    0    0    0    0  0.00000000000E+00  0.00000000000E+00  0.45593999997E+02  0.45594000000E+02  0.51100000000E-03 0.  1.
         11   -1    0    0    0    0 -0.00000000000E+00 -0.00000000000E+00 -0.45593999997E+02  0.45594000000E+02  0.51100000000E-03 0. -1.
    9900012    2    1    2    0    0 -0.13173969865E+02  0.24856416840E+02  0.15010871884E+02  0.59301933845E+02  0.49999981429E+02 0.  0.
         12    1    1    2    0    0  0.13173969865E+02 -0.24856416840E+02 -0.15010871884E+02  0.31886066155E+02  0.00000000000E+00 0. -1.
         11    1    3    3    0    0  0.92462523140E+01  0.10134293777E+02  0.18837149177E+02  0.23303117422E+02  0.51100000000E-03 0. -1.
        -11    1    3    3    0    0 -0.63061034716E+01  0.67509585927E+01  0.97794345567E+01  0.13452870453E+02  0.51100000000E-03 0.  1.
         12    1    3    3    0    0 -0.16114118707E+02  0.79711644707E+01 -0.13605711850E+02  0.22545945970E+02  0.00000000000E+00 0. -1.
</event>
<event>
 7    1  0.3461631E-013  0.5930195E+02  0.7816164E-02  0.1266605E+00
        -11   -1    0    0    0    0  0.00000000000E+00  0.00000000000E+00  0.45593999997E+02  0.45594000000E+02  0.51100000000E-03 0.  1.
         11   -1    0    0    0    0 -0.00000000000E+00 -0.00000000000E+00 -0.45593999997E+02  0.45594000000E+02  0.51100000000E-03 0. -1.
    9900012    2    1    2    0    0  0.18797808213E+02 -0.22566615244E+01 -0.25656776375E+02  0.59301948366E+02  0.50000007913E+02 0.  0.
         12    1    1    2    0    0 -0.18797808213E+02  0.22566615244E+01  0.25656776375E+02  0.31886051634E+02  0.00000000000E+00 0. -1.
         11    1    3    3    0    0 -0.14413007253E+02  0.45359565445E+01 -0.12976129697E+02  0.19917068610E+02  0.51100000000E-03 0. -1.
        -11    1    3    3    0    0  0.10896114706E+01 -0.34290868827E+01  0.17614656572E+01  0.40060768251E+01  0.51100000000E-03 0.  1.
        -12    1    3    3    0    0  0.32121203995E+02 -0.33635311863E+01 -0.14442112335E+02  0.35378802931E+02  0.00000000000E+00 0.  1.
</event>
<event>
 7    1  0.4891545E-013  0.5930196E+02  0.7816164E-02  0.1266605E+00
        -11   -1    0    0    0    0  0.00000000000E+00  0.00000000000E+00  0.45593999997E+02  0.45594000000E+02  0.51100000000E-03 0. -1.
         11   -1    0    0    0    0 -0.00000000000E+00 -0.00000000000E+00 -0.45593999997E+02  0.45594000000E+02  0.51100000000E-03 0.  1.
    9900012    2    1    2    0    0  0.21817523695E+02  0.23994733935E+01 -0.23129157216E+02  0.59301957187E+02  0.50000024000E+02 0.  0.
         12    1    1    2    0    0 -0.21817523695E+02 -0.23994733935E+01  0.23129157216E+02  0.31886042813E+02  0.00000000000E+00 0. -1.
         11    1    3    3    0    0 -0.12439650778E+01 -0.10165837813E+01 -0.20413279149E+02  0.20476397574E+02  0.51100000000E-03 0. -1.
        -11    1    3    3    0    0  0.22058375432E+02  0.12865546607E+02 -0.93960127427E+01  0.27209911281E+02  0.51100000000E-03 0.  1.
         12    1    3    3    0    0  0.10031133407E+01 -0.94494894320E+01  0.66801346765E+01  0.11615648333E+02  0.00000000000E+00 0. -1.
</event>
<event>
 7    1  0.3461631E-013  0.5930195E+02  0.7816164E-02  0.1266605E+00
        -11   -1    0    0    0    0  0.00000000000E+00  0.00000000000E+00  0.45593999997E+02  0.45594000000E+02  0.51100000000E-03 0.  1.
         11   -1    0    0    0    0 -0.00000000000E+00 -0.00000000000E+00 -0.45593999997E+02  0.45594000000E+02  0.51100000000E-03 0. -1.
    9900012    2    1    2    0    0  0.97698811980E+01  0.27954973118E+02  0.11823253542E+02  0.59301946231E+02  0.50000004018E+02 0.  0.
         12    1    1    2    0    0 -0.97698811980E+01 -0.27954973118E+02 -0.11823253542E+02  0.31886053769E+02  0.00000000000E+00 0. -1.
         11    1    3    3    0    0  0.17073799987E+00  0.29976266025E+01 -0.12361420034E+02  0.12720834180E+02  0.51100000000E-03 0. -1.
        -11    1    3    3    0    0  0.14292249944E+02 -0.11472950688E+00  0.92019364783E+01  0.16998741322E+02  0.51100000000E-03 0.  1.
        -12    1    3    3    0    0 -0.46931067458E+01  0.25072076022E+02  0.14982737098E+02  0.29582370729E+02  0.00000000000E+00 0.  1.
</event>
<event>
 7    1  0.3461631E-013  0.5930189E+02  0.7816164E-02  0.1266605E+00
        -11   -1    0    0    0    0  0.00000000000E+00  0.00000000000E+00  0.45593999997E+02  0.45594000000E+02  0.51100000000E-03 0.  1.
         11   -1    0    0    0    0 -0.00000000000E+00 -0.00000000000E+00 -0.45593999997E+02  0.45594000000E+02  0.51100000000E-03 0. -1.
    9900012    2    1    2    0    0  0.30751612189E+02 -0.76774160402E+01  0.34812964092E+01  0.59301893402E+02  0.49999907670E+02 0.  0.
         12    1    1    2    0    0 -0.30751612189E+02  0.76774160402E+01 -0.34812964092E+01  0.31886106598E+02  0.00000000000E+00 0. -1.
         11    1    3    3    0    0  0.18535454798E+02  0.26496850228E+01 -0.13091548195E+02  0.22846718576E+02  0.51100000000E-03 0. -1.
        -11    1    3    3    0    0  0.16196765594E+02  0.35391391598E+01  0.14212574969E+02  0.21837078770E+02  0.51100000000E-03 0.  1.
        -12    1    3    3    0    0 -0.39806082018E+01 -0.13866240223E+02  0.23602696352E+01  0.14618096057E+02  0.00000000000E+00 0.  1.
</event>
<event>
 7    1  0.3461631E-013  0.5930158E+02  0.7816164E-02  0.1266606E+00
        -11   -1    0    0    0    0  0.00000000000E+00  0.00000000000E+00  0.45593999997E+02  0.45594000000E+02  0.51100000000E-03 0.  1.
         11   -1    0    0    0    0 -0.00000000000E+00 -0.00000000000E+00 -0.45593999997E+02  0.45594000000E+02  0.51100000000E-03 0. -1.
    9900012    2    1    2    0    0 -0.47071470393E+01 -0.29130470175E+02 -0.12083133649E+02  0.59301582129E+02  0.49999339980E+02 0.  0.
         12    1    1    2    0    0  0.47071470393E+01  0.29130470175E+02  0.12083133649E+02  0.31886417871E+02  0.00000000000E+00 0. -1.
         11    1    3    3    0    0  0.10497124513E+02 -0.21214735767E+02 -0.10112788871E+02  0.25739524776E+02  0.51100000000E-03 0. -1.
        -11    1    3    3    0    0  0.15386383075E+01 -0.13986661980E+02 -0.60088325737E+01  0.15300333014E+02  0.51100000000E-03 0.  1.
        -12    1    3    3    0    0 -0.16742909860E+02  0.60709275722E+01  0.40384877961E+01  0.18261724339E+02  0.00000000000E+00 0.  1.
</event>
<event>
 7    1  0.3461631E-013  0.5930197E+02  0.7816164E-02  0.1266605E+00
        -11   -1    0    0    0    0  0.00000000000E+00  0.00000000000E+00  0.45593999997E+02  0.45594000000E+02  0.51100000000E-03 0.  1.
         11   -1    0    0    0    0 -0.00000000000E+00 -0.00000000000E+00 -0.45593999997E+02  0.45594000000E+02  0.51100000000E-03 0. -1.
    9900012    2    1    2    0    0  0.16147140376E+02 -0.16870196405E+02  0.21711404543E+02  0.59301972397E+02  0.50000051739E+02 0.  0.
         12    1    1    2    0    0 -0.16147140376E+02  0.16870196405E+02 -0.21711404543E+02  0.31886027603E+02  0.00000000000E+00 0. -1.
         11    1    3    3    0    0 -0.70333128934E+01 -0.92888503523E+01  0.31563519600E+01  0.12071155250E+02  0.51100000000E-03 0. -1.
        -11    1    3    3    0    0  0.21334888271E+02 -0.20414897139E+02  0.82238557346E+01  0.30652524956E+02  0.51100000000E-03 0.  1.
         12    1    3    3    0    0  0.18455649982E+01  0.12833551087E+02  0.10331196848E+02  0.16578292191E+02  0.00000000000E+00 0. -1.
</event>
<event>
 7    1  0.3461631E-013  0.5930194E+02  0.7816164E-02  0.1266605E+00
        -11   -1    0    0    0    0  0.00000000000E+00  0.00000000000E+00  0.45593999997E+02  0.45594000000E+02  0.51100000000E-03 0.  1.
         11   -1    0    0    0    0 -0.00000000000E+00 -0.00000000000E+00 -0.45593999997E+02  0.45594000000E+02  0.51100000000E-03 0. -1.
    9900012    2    1    2    0    0  0.94626185238E+01 -0.93172462466E+01  0.28989111137E+02  0.59301940484E+02  0.49999993537E+02 0.  0.
         12    1    1    2    0    0 -0.94626185238E+01  0.93172462466E+01 -0.28989111137E+02  0.31886059516E+02  0.00000000000E+00 0. -1.
         11    1    3    3    0    0 -0.67294554992E+01 -0.70282259854E+01  0.30245892888E+01  0.10189684610E+02  0.51100000000E-03 0. -1.
        -11    1    3    3    0    0  0.18371737374E+02 -0.58485239622E+01  0.34550271589E+02  0.39565733076E+02  0.51100000000E-03 0.  1.
         12    1    3    3    0    0 -0.21796633511E+01  0.35595037010E+01 -0.85857497409E+01  0.95465227981E+01  0.00000000000E+00 0. -1.
</event>
<event>
 7    1  0.3461631E-013  0.5930194E+02  0.7816164E-02  0.1266605E+00
        -11   -1    0    0    0    0  0.00000000000E+00  0.00000000000E+00  0.45593999997E+02  0.45594000000E+02  0.51100000000E-03 0.  1.
         11   -1    0    0    0    0 -0.00000000000E+00 -0.00000000000E+00 -0.45593999997E+02  0.45594000000E+02  0.51100000000E-03 0. -1.
    9900012    2    1    2    0    0 -0.12841511154E+02  0.56684011631E+01  0.28630151270E+02  0.59301941256E+02  0.49999994945E+02 0.  0.
         12    1    1    2    0    0  0.12841511154E+02 -0.56684011631E+01 -0.28630151270E+02  0.31886058744E+02  0.00000000000E+00 0. -1.
         11    1    3    3    0    0  0.43444597854E+01 -0.13901790156E+02  0.10517848675E+02  0.17965501423E+02  0.51100000000E-03 0. -1.
        -11    1    3    3    0    0 -0.23111278257E+01  0.21139511682E+02  0.15093458766E+02  0.26077437830E+02  0.51100000000E-03 0.  1.
         12    1    3    3    0    0 -0.14874843114E+02 -0.15693203633E+01  0.30188438293E+01  0.15259002003E+02  0.00000000000E+00 0. -1.
</event>
<event>
 7    1  0.3461631E-013  0.5930186E+02  0.7816164E-02  0.1266605E+00
        -11   -1    0    0    0    0  0.00000000000E+00  0.00000000000E+00  0.45593999997E+02  0.45594000000E+02  0.51100000000E-03 0.  1.
         11   -1    0    0    0    0 -0.00000000000E+00 -0.00000000000E+00 -0.45593999997E+02  0.45594000000E+02  0.51100000000E-03 0. -1.
    9900012    2    1    2    0    0  0.23051204753E+02  0.19264146344E+02 -0.10689277453E+02  0.59301858381E+02  0.49999843800E+02 0.  0.
         12    1    1    2    0    0 -0.23051204753E+02 -0.19264146344E+02  0.10689277453E+02  0.31886141619E+02  0.00000000000E+00 0. -1.
         11    1    3    3    0    0  0.30087527658E+01  0.16874490523E+02  0.19021279090E+01  0.17245843397E+02  0.51100000000E-03 0. -1.
        -11    1    3    3    0    0  0.18431027228E+02 -0.25051169167E+01  0.84231764017E+01  0.20418821621E+02  0.51100000000E-03 0.  1.
         12    1    3    3    0    0  0.16114247594E+01  0.48947727370E+01 -0.21014581764E+02  0.21637193363E+02  0.00000000000E+00 0. -1.
</event>
<event>
 7    1  0.3461631E-013  0.5930193E+02  0.7816164E-02  0.1266605E+00
        -11   -1    0    0    0    0  0.00000000000E+00  0.00000000000E+00  0.45593999997E+02  0.45594000000E+02  0.51100000000E-03 0.  1.
         11   -1    0    0    0    0 -0.00000000000E+00 -0.00000000000E+00 -0.45593999997E+02  0.45594000000E+02  0.51100000000E-03 0. -1.
    9900012    2    1    2    0    0 -0.13823478899E+02  0.17270238846E+02  0.22964570512E+02  0.59301933803E+02  0.49999981353E+02 0.  0.
         12    1    1    2    0    0  0.13823478899E+02 -0.17270238846E+02 -0.22964570512E+02  0.31886066197E+02  0.00000000000E+00 0. -1.
         11    1    3    3    0    0 -0.11729018662E+02  0.12723741775E+02  0.16787749921E+02  0.24109998573E+02  0.51100000000E-03 0. -1.
        -11    1    3    3    0    0 -0.12478195251E+02  0.39401710814E+01  0.16147177864E+02  0.20783687308E+02  0.51100000000E-03 0.  1.
         12    1    3    3    0    0  0.10383735014E+02  0.60632599015E+00 -0.99703572727E+01  0.14408247923E+02  0.00000000000E+00 0. -1.
</event>
<event>
 7    1  0.3461631E-013  0.5930193E+02  0.7816164E-02  0.1266605E+00
        -11   -1    0    0    0    0  0.00000000000E+00  0.00000000000E+00  0.45593999997E+02  0.45594000000E+02  0.51100000000E-03 0. -1.
         11   -1    0    0    0    0 -0.00000000000E+00 -0.00000000000E+00 -0.45593999997E+02  0.45594000000E+02  0.51100000000E-03 0.  1.
    9900012    2    1    2    0    0 -0.19264862123E+02 -0.15038793489E+02 -0.20479781185E+02  0.59301926871E+02  0.49999968710E+02 0.  0.
         12    1    1    2    0    0  0.19264862123E+02  0.15038793489E+02  0.20479781185E+02  0.31886073129E+02  0.00000000000E+00 0. -1.
         11    1    3    3    0    0 -0.71933859837E+01 -0.13861166496E+01  0.14511600997E+02  0.16255850794E+02  0.51100000000E-03 0. -1.
        -11    1    3    3    0    0  0.38819682692E+01  0.25904387898E+00 -0.49341523064E+01  0.62835213549E+01  0.51100000000E-03 0.  1.
        -12    1    3    3    0    0 -0.15953444408E+02 -0.13911720718E+02 -0.30057229876E+02  0.36762554722E+02  0.00000000000E+00 0.  1.
</event>
<event>
 7    1  0.3461631E-013  0.5930196E+02  0.7816164E-02  0.1266605E+00
        -11   -1    0    0    0    0  0.00000000000E+00  0.00000000000E+00  0.45593999997E+02  0.45594000000E+02  0.51100000000E-03 0. -1.
         11   -1    0    0    0    0 -0.00000000000E+00 -0.00000000000E+00 -0.45593999997E+02  0.45594000000E+02  0.51100000000E-03 0.  1.
    9900012    2    1    2    0    0 -0.16256941885E+02 -0.23145674810E+02 -0.14721041402E+02  0.59301961020E+02  0.50000030990E+02 0.  0.
         12    1    1    2    0    0  0.16256941885E+02  0.23145674810E+02  0.14721041402E+02  0.31886038980E+02  0.00000000000E+00 0. -1.
         11    1    3    3    0    0 -0.17132246303E+02 -0.17543589110E+01 -0.86719769918E+01  0.19281981843E+02  0.51100000000E-03 0. -1.
        -11    1    3    3    0    0 -0.12291585305E+02 -0.21962723324E+02  0.77199539868E+00  0.25180156121E+02  0.51100000000E-03 0.  1.
         12    1    3    3    0    0  0.13166889723E+02  0.57140742495E+00 -0.68210598085E+01  0.14839823056E+02  0.00000000000E+00 0. -1.
</event>
<event>
 7    1  0.3461631E-013  0.5930200E+02  0.7816164E-02  0.1266605E+00
        -11   -1    0    0    0    0  0.00000000000E+00  0.00000000000E+00  0.45593999997E+02  0.45594000000E+02  0.51100000000E-03 0.  1.
         11   -1    0    0    0    0 -0.00000000000E+00 -0.00000000000E+00 -0.45593999997E+02  0.45594000000E+02  0.51100000000E-03 0. -1.
    9900012    2    1    2    0    0 -0.14527676908E+02 -0.14840493134E+02  0.24195523810E+02  0.59301999855E+02  0.50000101816E+02 0.  0.
         12    1    1    2    0    0  0.14527676908E+02  0.14840493134E+02 -0.24195523810E+02  0.31886000145E+02  0.00000000000E+00 0. -1.
         11    1    3    3    0    0 -0.42017514705E+01 -0.17453483677E+02  0.11230803505E+02  0.21175687841E+02  0.51100000000E-03 0. -1.
        -11    1    3    3    0    0  0.11172825259E+02 -0.54018883559E+01  0.76368395844E+01  0.14571675990E+02  0.51100000000E-03 0.  1.
        -12    1    3    3    0    0 -0.21498750696E+02  0.80148788988E+01  0.53278807197E+01  0.23554636024E+02  0.00000000000E+00 0.  1.
</event>
<event>
 7    1  0.3461631E-013  0.5930193E+02  0.7816164E-02  0.1266605E+00
        -11   -1    0    0    0    0  0.00000000000E+00  0.00000000000E+00  0.45593999997E+02  0.45594000000E+02  0.51100000000E-03 0.  1.
         11   -1    0    0    0    0 -0.00000000000E+00 -0.00000000000E+00 -0.45593999997E+02  0.45594000000E+02  0.51100000000E-03 0. -1.
    9900012    2    1    2    0    0  0.29251033401E+02 -0.98225168997E+01 -0.80384446593E+01  0.59301931164E+02  0.49999976540E+02 0.  0.
         12    1    1    2    0    0 -0.29251033401E+02  0.98225168997E+01  0.80384446593E+01  0.31886068836E+02  0.00000000000E+00 0. -1.
         11    1    3    3    0    0  0.33151103313E+01  0.37774743855E+00  0.69314729153E+01  0.76927216688E+01  0.51100000000E-03 0. -1.
        -11    1    3    3    0    0 -0.95561806397E+00 -0.13920936917E+02  0.79679994280E+01  0.16068438184E+02  0.51100000000E-03 0.  1.
         12    1    3    3    0    0  0.26891541133E+02  0.37206725790E+01 -0.22937917003E+02  0.35540771311E+02  0.00000000000E+00 0. -1.
</event>
<event>
 7    1  0.3461631E-013  0.5930195E+02  0.7816164E-02  0.1266605E+00
        -11   -1    0    0    0    0  0.00000000000E+00  0.00000000000E+00  0.45593999997E+02  0.45594000000E+02  0.51100000000E-03 0. -1.
         11   -1    0    0    0    0 -0.00000000000E+00 -0.00000000000E+00 -0.45593999997E+02  0.45594000000E+02  0.51100000000E-03 0.  1.
    9900012    2    1    2    0    0  0.31787219973E+02 -0.18641136337E+01  0.16787541994E+01  0.59301945228E+02  0.50000002189E+02 0.  0.
         12    1    1    2    0    0 -0.31787219973E+02  0.18641136337E+01 -0.16787541994E+01  0.31886054772E+02  0.00000000000E+00 0. -1.
         11    1    3    3    0    0 -0.78143927012E+00 -0.13396027664E+02  0.14089857506E+02  0.19457345382E+02  0.51100000000E-03 0. -1.
        -11    1    3    3    0    0  0.14543291534E+02  0.11459846899E+02 -0.11499208770E+02  0.21796036846E+02  0.51100000000E-03 0.  1.
        -12    1    3    3    0    0  0.18025367710E+02  0.72067132027E-01 -0.91189453612E+00  0.18048563001E+02  0.00000000000E+00 0.  1.
</event>
<event>
 7    1  0.3461631E-013  0.5930195E+02  0.7816164E-02  0.1266605E+00
        -11   -1    0    0    0    0  0.00000000000E+00  0.00000000000E+00  0.45593999997E+02  0.45594000000E+02  0.51100000000E-03 0.  1.
         11   -1    0    0    0    0 -0.00000000000E+00 -0.00000000000E+00 -0.45593999997E+02  0.45594000000E+02  0.51100000000E-03 0. -1.
    9900012    2    1    2    0    0  0.22421003471E+02  0.84370819565E+01 -0.21043629386E+02  0.59301951540E+02  0.50000013701E+02 0.  0.
         12    1    1    2    0    0 -0.22421003471E+02 -0.84370819565E+01  0.21043629386E+02  0.31886048460E+02  0.00000000000E+00 0. -1.
         11    1    3    3    0    0  0.86703127425E+01  0.74497657209E+01 -0.44875852340E+01  0.12280543711E+02  0.51100000000E-03 0. -1.
        -11    1    3    3    0    0  0.62017412997E+01  0.44506469503E+01  0.13679866003E+02  0.15665522256E+02  0.51100000000E-03 0.  1.
         12    1    3    3    0    0  0.75489494292E+01 -0.34633307147E+01 -0.30235910156E+02  0.31355885573E+02  0.00000000000E+00 0. -1.
</event>
<event>
 7    1  0.3461631E-013  0.5930195E+02  0.7816164E-02  0.1266605E+00
        -11   -1    0    0    0    0  0.00000000000E+00  0.00000000000E+00  0.45593999997E+02  0.45594000000E+02  0.51100000000E-03 0. -1.
         11   -1    0    0    0    0 -0.00000000000E+00 -0.00000000000E+00 -0.45593999997E+02  0.45594000000E+02  0.51100000000E-03 0.  1.
    9900012    2    1    2    0    0  0.16389712658E+02 -0.22099694117E+02 -0.16115249418E+02  0.59301946233E+02  0.50000004021E+02 0.  0.
         12    1    1    2    0    0 -0.16389712658E+02  0.22099694117E+02  0.16115249418E+02  0.31886053767E+02  0.00000000000E+00 0. -1.
         11    1    3    3    0    0 -0.25946923257E+01 -0.12878459966E+02  0.63563778612E+01  0.14594200874E+02  0.51100000000E-03 0. -1.
        -11    1    3    3    0    0 -0.82286314260E+01 -0.75006641173E+01 -0.88745009486E+01  0.14238226880E+02  0.51100000000E-03 0.  1.
         12    1    3    3    0    0  0.27213036410E+02 -0.17205700330E+01 -0.13597126330E+02  0.30469518479E+02  0.00000000000E+00 0. -1.
</event>
<event>
 7    1  0.3461631E-013  0.5930195E+02  0.7816164E-02  0.1266605E+00
        -11   -1    0    0    0    0  0.00000000000E+00  0.00000000000E+00  0.45593999997E+02  0.45594000000E+02  0.51100000000E-03 0. -1.
         11   -1    0    0    0    0 -0.00000000000E+00 -0.00000000000E+00 -0.45593999997E+02  0.45594000000E+02  0.51100000000E-03 0.  1.
    9900012    2    1    2    0    0 -0.25699023404E+02 -0.28279690007E+01 -0.18662349248E+02  0.59301945179E+02  0.50000002100E+02 0.  0.
         12    1    1    2    0    0  0.25699023404E+02  0.28279690007E+01  0.18662349248E+02  0.31886054821E+02  0.00000000000E+00 0. -1.
         11    1    3    3    0    0 -0.42763752079E+01 -0.36574033140E+01 -0.16900850391E+02  0.17812993238E+02  0.51100000000E-03 0. -1.
        -11    1    3    3    0    0 -0.28062990780E+01  0.12246108303E+02 -0.11996536093E+02  0.17371222224E+02  0.51100000000E-03 0.  1.
         12    1    3    3    0    0 -0.18616349118E+02 -0.11416673990E+02  0.10235037236E+02  0.24117729717E+02  0.00000000000E+00 0. -1.
</event>
<event>
 7    1  0.3461631E-013  0.5930194E+02  0.7816164E-02  0.1266605E+00
        -11   -1    0    0    0    0  0.00000000000E+00  0.00000000000E+00  0.45593999997E+02  0.45594000000E+02  0.51100000000E-03 0. -1.
         11   -1    0    0    0    0 -0.00000000000E+00 -0.00000000000E+00 -0.45593999997E+02  0.45594000000E+02  0.51100000000E-03 0.  1.
    9900012    2    1    2    0    0 -0.16147464652E+02  0.26657237852E+02  0.67358876448E+01  0.59301935223E+02  0.49999983943E+02 0.  0.
         12    1    1    2    0    0  0.16147464652E+02 -0.26657237852E+02 -0.67358876448E+01  0.31886064777E+02  0.00000000000E+00 0. -1.
         11    1    3    3    0    0 -0.13324180559E+02  0.14434710070E+02  0.72797025642E+01  0.20949670930E+02  0.51100000000E-03 0. -1.
        -11    1    3    3    0    0 -0.64758661500E+01  0.62619738176E+01 -0.17681288736E+02  0.19843818436E+02  0.51100000000E-03 0.  1.
         12    1    3    3    0    0  0.36525820563E+01  0.59605539636E+01  0.17137473817E+02  0.18508445857E+02  0.00000000000E+00 0. -1.
</event>
<event>
 7    1  0.3461631E-013  0.5930192E+02  0.7816164E-02  0.1266605E+00
        -11   -1    0    0    0    0  0.00000000000E+00  0.00000000000E+00  0.45593999997E+02  0.45594000000E+02  0.51100000000E-03 0.  1.
         11   -1    0    0    0    0 -0.00000000000E+00 -0.00000000000E+00 -0.45593999997E+02  0.45594000000E+02  0.51100000000E-03 0. -1.
    9900012    2    1    2    0    0 -0.15369915835E+02  0.58565713549E+01  0.27316444457E+02  0.59301923437E+02  0.49999962448E+02 0.  0.
         12    1    1    2    0    0  0.15369915835E+02 -0.58565713549E+01 -0.27316444457E+02  0.31886076563E+02  0.00000000000E+00 0. -1.
         11    1    3    3    0    0  0.69369031706E+01 -0.58689781584E+01 -0.33141154570E+01  0.96720676044E+01  0.51100000000E-03 0. -1.
        -11    1    3    3    0    0 -0.23527702156E+01  0.16159374504E+02  0.22104677128E+02  0.27482315463E+02  0.51100000000E-03 0.  1.
        -12    1    3    3    0    0 -0.19954048790E+02 -0.44338249907E+01  0.85258827859E+01  0.22147540370E+02  0.00000000000E+00 0.  1.
</event>
<event>
 7    1  0.3461631E-013  0.5930194E+02  0.7816164E-02  0.1266605E+00
        -11   -1    0    0    0    0  0.00000000000E+00  0.00000000000E+00  0.45593999997E+02  0.45594000000E+02  0.51100000000E-03 0. -1.
         11   -1    0    0    0    0 -0.00000000000E+00 -0.00000000000E+00 -0.45593999997E+02  0.45594000000E+02  0.51100000000E-03 0.  1.
    9900012    2    1    2    0    0 -0.28532950712E+01 -0.25351930715E+02  0.19127437789E+02  0.59301944112E+02  0.50000000153E+02 0.  0.
         12    1    1    2    0    0  0.28532950712E+01  0.25351930715E+02 -0.19127437789E+02  0.31886055888E+02  0.00000000000E+00 0. -1.
         11    1    3    3    0    0 -0.72542129808E+01 -0.14641815816E+02 -0.35594797687E+01  0.16723524534E+02  0.51100000000E-03 0. -1.
        -11    1    3    3    0    0  0.17287818080E+02 -0.10398114069E+02  0.51634036757E+01  0.20824268725E+02  0.51100000000E-03 0.  1.
        -12    1    3    3    0    0 -0.12886900171E+02 -0.31200082981E+00  0.17523513882E+02  0.21754150852E+02  0.00000000000E+00 0.  1.
</event>
<event>
 7    1  0.3461631E-013  0.5930204E+02  0.7816164E-02  0.1266604E+00
        -11   -1    0    0    0    0  0.00000000000E+00  0.00000000000E+00  0.45593999997E+02  0.45594000000E+02  0.51100000000E-03 0.  1.
         11   -1    0    0    0    0 -0.00000000000E+00 -0.00000000000E+00 -0.45593999997E+02  0.45594000000E+02  0.51100000000E-03 0. -1.
    9900012    2    1    2    0    0  0.23759540231E+02  0.17084487141E+02  0.12661714540E+02  0.59302039642E+02  0.50000174377E+02 0.  0.
         12    1    1    2    0    0 -0.23759540231E+02 -0.17084487141E+02 -0.12661714540E+02  0.31885960358E+02  0.00000000000E+00 0. -1.
         11    1    3    3    0    0  0.28268109718E+02  0.14843695324E+02  0.48308797528E+00  0.31932032384E+02  0.51100000000E-03 0.  1.
        -11    1    3    3    0    0 -0.48405270872E+01 -0.59086486241E+01 -0.44562959827E+01  0.88431558390E+01  0.51100000000E-03 0. -1.
        -12    1    3    3    0    0  0.33195760015E+00  0.81494404412E+01  0.16634922547E+02  0.18526851419E+02  0.00000000000E+00 0.  1.
</event>
<event>
 7    1  0.3461631E-013  0.5930194E+02  0.7816164E-02  0.1266605E+00
        -11   -1    0    0    0    0  0.00000000000E+00  0.00000000000E+00  0.45593999997E+02  0.45594000000E+02  0.51100000000E-03 0.  1.
         11   -1    0    0    0    0 -0.00000000000E+00 -0.00000000000E+00 -0.45593999997E+02  0.45594000000E+02  0.51100000000E-03 0. -1.
    9900012    2    1    2    0    0 -0.13617574090E+02  0.19952296160E+02  0.20813183161E+02  0.59301936595E+02  0.49999986444E+02 0.  0.
         12    1    1    2    0    0  0.13617574090E+02 -0.19952296160E+02 -0.20813183161E+02  0.31886063405E+02  0.00000000000E+00 0. -1.
         11    1    3    3    0    0  0.30739981622E+01  0.11023506879E-01  0.98927012782E+01  0.10359301379E+02  0.51100000000E-03 0. -1.
        -11    1    3    3    0    0 -0.12406740394E+01 -0.40236373745E+01 -0.11771105519E+02  0.12501514116E+02  0.51100000000E-03 0.  1.
        -12    1    3    3    0    0 -0.15450898213E+02  0.23964910028E+02  0.22691587402E+02  0.36441121100E+02  0.00000000000E+00 0.  1.
</event>
<event>
 7    1  0.3461631E-013  0.5930195E+02  0.7816164E-02  0.1266605E+00
        -11   -1    0    0    0    0  0.00000000000E+00  0.00000000000E+00  0.45593999997E+02  0.45594000000E+02  0.51100000000E-03 0. -1.
         11   -1    0    0    0    0 -0.00000000000E+00 -0.00000000000E+00 -0.45593999997E+02  0.45594000000E+02  0.51100000000E-03 0.  1.
    9900012    2    1    2    0    0  0.14988199683E+02  0.12444179990E+01 -0.28116284418E+02  0.59301950459E+02  0.50000011729E+02 0.  0.
         12    1    1    2    0    0 -0.14988199683E+02 -0.12444179990E+01  0.28116284418E+02  0.31886049541E+02  0.00000000000E+00 0. -1.
         11    1    3    3    0    0 -0.12989252488E+01 -0.10052488064E+02 -0.58177526670E+01  0.11687000018E+02  0.51100000000E-03 0. -1.
        -11    1    3    3    0    0  0.15828435068E+00 -0.11733332245E+02 -0.14066222792E+02  0.18318153930E+02  0.51100000000E-03 0.  1.
         12    1    3    3    0    0  0.16128840581E+02  0.23030238308E+02 -0.82323089586E+01  0.29296796510E+02  0.00000000000E+00 0. -1.
</event>
<event>
 7    1  0.3461631E-013  0.5930198E+02  0.7816164E-02  0.1266605E+00
        -11   -1    0    0    0    0  0.00000000000E+00  0.00000000000E+00  0.45593999997E+02  0.45594000000E+02  0.51100000000E-03 0. -1.
         11   -1    0    0    0    0 -0.00000000000E+00 -0.00000000000E+00 -0.45593999997E+02  0.45594000000E+02  0.51100000000E-03 0.  1.
    9900012    2    1    2    0    0  0.13900016956E+02 -0.16028952971E+02 -0.23802955335E+02  0.59301976614E+02  0.50000059429E+02 0.  0.
         12    1    1    2    0    0 -0.13900016956E+02  0.16028952971E+02  0.23802955335E+02  0.31886023386E+02  0.00000000000E+00 0. -1.
         11    1    3    3    0    0  0.10726130315E+01 -0.14010284958E+02 -0.17325576281E+02  0.22307267360E+02  0.51100000000E-03 0. -1.
        -11    1    3    3    0    0  0.35702263390E+01  0.53298380898E+01 -0.18833380236E+02  0.19895977020E+02  0.51100000000E-03 0.  1.
         12    1    3    3    0    0  0.92571775856E+01 -0.73485061023E+01  0.12356001183E+02  0.17098732234E+02  0.00000000000E+00 0. -1.
</event>
<event>
 7    1  0.3461631E-013  0.5930194E+02  0.7816164E-02  0.1266605E+00
        -11   -1    0    0    0    0  0.00000000000E+00  0.00000000000E+00  0.45593999997E+02  0.45594000000E+02  0.51100000000E-03 0.  1.
         11   -1    0    0    0    0 -0.00000000000E+00 -0.00000000000E+00 -0.45593999997E+02  0.45594000000E+02  0.51100000000E-03 0. -1.
    9900012    2    1    2    0    0 -0.31305223755E+02 -0.59950513998E+01  0.87354581163E+00  0.59301941010E+02  0.49999994496E+02 0.  0.
         12    1    1    2    0    0  0.31305223755E+02  0.59950513998E+01 -0.87354581163E+00  0.31886058990E+02  0.00000000000E+00 0. -1.
         11    1    3    3    0    0 -0.80233114324E+01  0.11643428283E+02 -0.28833971145E+01  0.14431109719E+02  0.51100000000E-03 0. -1.
        -11    1    3    3    0    0 -0.98953670569E+00  0.91254331678E+01  0.40622385656E+01  0.10037653900E+02  0.51100000000E-03 0.  1.
        -12    1    3    3    0    0 -0.22292375617E+02 -0.26763912851E+02 -0.30529563945E+00  0.34833177391E+02  0.00000000000E+00 0.  1.
</event>
<event>
 7    1  0.3461631E-013  0.5930195E+02  0.7816164E-02  0.1266605E+00
        -11   -1    0    0    0    0  0.00000000000E+00  0.00000000000E+00  0.45593999997E+02  0.45594000000E+02  0.51100000000E-03 0.  1.
         11   -1    0    0    0    0 -0.00000000000E+00 -0.00000000000E+00 -0.45593999997E+02  0.45594000000E+02  0.51100000000E-03 0. -1.
    9900012    2    1    2    0    0 -0.29180746752E+02  0.64736535261E+01  0.11103885952E+02  0.59301945772E+02  0.50000003181E+02 0.  0.
         12    1    1    2    0    0  0.29180746752E+02 -0.64736535261E+01 -0.11103885952E+02  0.31886054228E+02  0.00000000000E+00 0. -1.
         11    1    3    3    0    0  0.15016393700E+01  0.43408213682E+01 -0.62440456520E+01  0.77515003266E+01  0.51100000000E-03 0. -1.
        -11    1    3    3    0    0 -0.39411128207E+01  0.12104345003E+02  0.19103831473E+02  0.22956565846E+02  0.51100000000E-03 0.  1.
         12    1    3    3    0    0 -0.26741273301E+02 -0.99715128449E+01 -0.17558998694E+01  0.28593879600E+02  0.00000000000E+00 0. -1.
</event>
<event>
 7    1  0.3461631E-013  0.5930194E+02  0.7816164E-02  0.1266605E+00
        -11   -1    0    0    0    0  0.00000000000E+00  0.00000000000E+00  0.45593999997E+02  0.45594000000E+02  0.51100000000E-03 0.  1.
         11   -1    0    0    0    0 -0.00000000000E+00 -0.00000000000E+00 -0.45593999997E+02  0.45594000000E+02  0.51100000000E-03 0. -1.
    9900012    2    1    2    0    0 -0.68550309651E+01  0.76249964730E+01  0.30192530571E+02  0.59301938421E+02  0.49999989774E+02 0.  0.
         12    1    1    2    0    0  0.68550309651E+01 -0.76249964730E+01 -0.30192530571E+02  0.31886061579E+02  0.00000000000E+00 0. -1.
         11    1    3    3    0    0  0.17473451275E+02  0.87971145928E+01  0.65715631381E+01  0.20637251923E+02  0.51100000000E-03 0. -1.
        -11    1    3    3    0    0 -0.36671849815E+01  0.84727668030E+00  0.16179496110E+02  0.16611508604E+02  0.51100000000E-03 0.  1.
         12    1    3    3    0    0 -0.20661297258E+02 -0.20193948001E+01  0.74414713233E+01  0.22053177894E+02  0.00000000000E+00 0. -1.
</event>
<event>
 7    1  0.3461631E-013  0.5930193E+02  0.7816164E-02  0.1266605E+00
        -11   -1    0    0    0    0  0.00000000000E+00  0.00000000000E+00  0.45593999997E+02  0.45594000000E+02  0.51100000000E-03 0. -1.
         11   -1    0    0    0    0 -0.00000000000E+00 -0.00000000000E+00 -0.45593999997E+02  0.45594000000E+02  0.51100000000E-03 0.  1.
    9900012    2    1    2    0    0  0.28847680714E+02  0.10686999029E+02 -0.83857582331E+01  0.59301928245E+02  0.49999971217E+02 0.  0.
         12    1    1    2    0    0 -0.28847680714E+02 -0.10686999029E+02  0.83857582331E+01  0.31886071755E+02  0.00000000000E+00 0. -1.
         11    1    3    3    0    0  0.28953265780E+02  0.78281202934E+01  0.10679829682E+01  0.30011858565E+02  0.51100000000E-03 0. -1.
        -11    1    3    3    0    0  0.13231132189E+02  0.45127884859E+01 -0.69806038816E+01  0.15625522383E+02  0.51100000000E-03 0.  1.
         12    1    3    3    0    0 -0.13336717256E+02 -0.16539097499E+01 -0.24731373197E+01  0.13664547297E+02  0.00000000000E+00 0. -1.
</event>
<event>
 7    1  0.3461631E-013  0.5930192E+02  0.7816164E-02  0.1266605E+00
        -11   -1    0    0    0    0  0.00000000000E+00  0.00000000000E+00  0.45593999997E+02  0.45594000000E+02  0.51100000000E-03 0.  1.
         11   -1    0    0    0    0 -0.00000000000E+00 -0.00000000000E+00 -0.45593999997E+02  0.45594000000E+02  0.51100000000E-03 0. -1.
    9900012    2    1    2    0    0  0.24271061199E+02 -0.14401817673E+02  0.14839992862E+02  0.59301919147E+02  0.49999954624E+02 0.  0.
         12    1    1    2    0    0 -0.24271061199E+02  0.14401817673E+02 -0.14839992862E+02  0.31886080853E+02  0.00000000000E+00 0. -1.
         11    1    3    3    0    0  0.16978995743E+01  0.58464968669E+01  0.82840925633E+01  0.10280592319E+02  0.51100000000E-03 0. -1.
        -11    1    3    3    0    0  0.92847447550E+01 -0.52064903039E+01  0.21504774052E+02  0.23995193972E+02  0.51100000000E-03 0.  1.
         12    1    3    3    0    0  0.13288416869E+02 -0.15041824236E+02 -0.14948873753E+02  0.25026132856E+02  0.00000000000E+00 0. -1.
</event>
<event>
 7    1  0.3461631E-013  0.5930197E+02  0.7816164E-02  0.1266605E+00
        -11   -1    0    0    0    0  0.00000000000E+00  0.00000000000E+00  0.45593999997E+02  0.45594000000E+02  0.51100000000E-03 0. -1.
         11   -1    0    0    0    0 -0.00000000000E+00 -0.00000000000E+00 -0.45593999997E+02  0.45594000000E+02  0.51100000000E-03 0.  1.
    9900012    2    1    2    0    0 -0.24912418472E+02  0.19764809320E+02 -0.23329870966E+01  0.59301966844E+02  0.50000041612E+02 0.  0.
         12    1    1    2    0    0  0.24912418472E+02 -0.19764809320E+02  0.23329870966E+01  0.31886033156E+02  0.00000000000E+00 0. -1.
         11    1    3    3    0    0 -0.70448739610E+01  0.16438850581E+01 -0.45128160409E+01  0.85263190235E+01  0.51100000000E-03 0. -1.
        -11    1    3    3    0    0 -0.13019109307E+02  0.12678244408E+02 -0.20239833416E+02  0.27200844571E+02  0.51100000000E-03 0.  1.
         12    1    3    3    0    0 -0.48484352044E+01  0.54426798547E+01  0.22419662360E+02  0.23574803250E+02  0.00000000000E+00 0. -1.
</event>
<event>
 7    1  0.3461631E-013  0.5930193E+02  0.7816164E-02  0.1266605E+00
        -11   -1    0    0    0    0  0.00000000000E+00  0.00000000000E+00  0.45593999997E+02  0.45594000000E+02  0.51100000000E-03 0.  1.
         11   -1    0    0    0    0 -0.00000000000E+00 -0.00000000000E+00 -0.45593999997E+02  0.45594000000E+02  0.51100000000E-03 0. -1.
    9900012    2    1    2    0    0 -0.15823484907E+02 -0.10524697925E+02  0.25604087704E+02  0.59301933322E+02  0.49999980476E+02 0.  0.
         12    1    1    2    0    0  0.15823484907E+02  0.10524697925E+02 -0.25604087704E+02  0.31886066678E+02  0.00000000000E+00 0. -1.
         11    1    3    3    0    0 -0.84307435318E+01 -0.11511479995E+02 -0.98174581429E+01  0.17319760184E+02  0.51100000000E-03 0. -1.
        -11    1    3    3    0    0 -0.99890982429E+01  0.77786579970E+01  0.11947717498E+02  0.17407973966E+02  0.51100000000E-03 0.  1.
        -12    1    3    3    0    0  0.25963568673E+01 -0.67918759277E+01  0.23473828349E+02  0.24574199172E+02  0.00000000000E+00 0.  1.
</event>
<event>
 7    1  0.3461631E-013  0.5930192E+02  0.7816164E-02  0.1266605E+00
        -11   -1    0    0    0    0  0.00000000000E+00  0.00000000000E+00  0.45593999997E+02  0.45594000000E+02  0.51100000000E-03 0. -1.
         11   -1    0    0    0    0 -0.00000000000E+00 -0.00000000000E+00 -0.45593999997E+02  0.45594000000E+02  0.51100000000E-03 0.  1.
    9900012    2    1    2    0    0 -0.29103292939E+02  0.12209821807E+02 -0.45431690724E+01  0.59301924769E+02  0.49999964876E+02 0.  0.
         12    1    1    2    0    0  0.29103292939E+02 -0.12209821807E+02  0.45431690724E+01  0.31886075231E+02  0.00000000000E+00 0. -1.
         11    1    3    3    0    0 -0.10152811896E+02 -0.10730782338E+02 -0.12581216498E+02  0.19404027618E+02  0.51100000000E-03 0. -1.
        -11    1    3    3    0    0 -0.23530631460E+02  0.12976509971E+02  0.10455252407E+01  0.26891886345E+02  0.51100000000E-03 0.  1.
         12    1    3    3    0    0  0.45801504171E+01  0.99640941741E+01  0.69925221848E+01  0.13006010805E+02  0.00000000000E+00 0. -1.
</event>
<event>
 7    1  0.3461631E-013  0.5930190E+02  0.7816164E-02  0.1266605E+00
        -11   -1    0    0    0    0  0.00000000000E+00  0.00000000000E+00  0.45593999997E+02  0.45594000000E+02  0.51100000000E-03 0. -1.
         11   -1    0    0    0    0 -0.00000000000E+00 -0.00000000000E+00 -0.45593999997E+02  0.45594000000E+02  0.51100000000E-03 0.  1.
    9900012    2    1    2    0    0  0.31079937068E+02  0.57384116008E+01 -0.42227080045E+01  0.59301903990E+02  0.49999926981E+02 0.  0.
         12    1    1    2    0    0 -0.31079937068E+02 -0.57384116008E+01  0.42227080045E+01  0.31886096010E+02  0.00000000000E+00 0. -1.
         11    1    3    3    0    0  0.89809011942E+01  0.68691690445E+01  0.11346702643E+02  0.16018418485E+02  0.51100000000E-03 0. -1.
        -11    1    3    3    0    0  0.11771932088E+02  0.14392509843E+01  0.10047771512E+02  0.15543729961E+02  0.51100000000E-03 0.  1.
        -12    1    3    3    0    0  0.10327103786E+02 -0.25700084280E+01 -0.25617182159E+02  0.27739755545E+02  0.00000000000E+00 0.  1.
</event>
<event>
 7    1  0.3461631E-013  0.5930192E+02  0.7816164E-02  0.1266605E+00
        -11   -1    0    0    0    0  0.00000000000E+00  0.00000000000E+00  0.45593999997E+02  0.45594000000E+02  0.51100000000E-03 0. -1.
         11   -1    0    0    0    0 -0.00000000000E+00 -0.00000000000E+00 -0.45593999997E+02  0.45594000000E+02  0.51100000000E-03 0.  1.
    9900012    2    1    2    0    0 -0.14149303193E+02  0.28487225192E+02  0.22354740337E+01  0.59301919586E+02  0.49999955424E+02 0.  0.
         12    1    1    2    0    0  0.14149303193E+02 -0.28487225192E+02 -0.22354740337E+01  0.31886080414E+02  0.00000000000E+00 0. -1.
         11    1    3    3    0    0  0.36591897625E+01  0.12843257194E+02 -0.12146679342E+01  0.13409487072E+02  0.51100000000E-03 0. -1.
        -11    1    3    3    0    0 -0.13059831546E+01 -0.86159655771E+01 -0.10298091198E+02  0.13490409090E+02  0.51100000000E-03 0.  1.
         12    1    3    3    0    0 -0.16502509801E+02  0.24259933575E+02  0.13748233166E+02  0.32402023424E+02  0.00000000000E+00 0. -1.
</event>
<event>
 7    1  0.3834539E-013  0.5930194E+02  0.7816164E-02  0.1266605E+00
        -11   -1    0    0    0    0  0.00000000000E+00  0.00000000000E+00  0.45593999997E+02  0.45594000000E+02  0.51100000000E-03 0. -1.
         11   -1    0    0    0    0 -0.00000000000E+00 -0.00000000000E+00 -0.45593999997E+02  0.45594000000E+02  0.51100000000E-03 0.  1.
    9900012    2    1    2    0    0 -0.26890856177E+02 -0.18263875115E+01 -0.17037223759E+02  0.59301939868E+02  0.49999992414E+02 0.  0.
         12    1    1    2    0    0  0.26890856177E+02  0.18263875115E+01  0.17037223759E+02  0.31886060132E+02  0.00000000000E+00 0. -1.
         11    1    3    3    0    0 -0.41553296140E+01 -0.99725363904E+01 -0.62603421691E+01  0.12486397823E+02  0.51100000000E-03 0. -1.
        -11    1    3    3    0    0 -0.14701926843E+02 -0.96808198246E+01 -0.18732574948E+02  0.25705530335E+02  0.51100000000E-03 0.  1.
         12    1    3    3    0    0 -0.80335997206E+01  0.17826968703E+02  0.79556933573E+01  0.21110011711E+02  0.00000000000E+00 0. -1.
</event>
<event>
 7    1  0.3461631E-013  0.5930185E+02  0.7816164E-02  0.1266605E+00
        -11   -1    0    0    0    0  0.00000000000E+00  0.00000000000E+00  0.45593999997E+02  0.45594000000E+02  0.51100000000E-03 0. -1.
         11   -1    0    0    0    0 -0.00000000000E+00 -0.00000000000E+00 -0.45593999997E+02  0.45594000000E+02  0.51100000000E-03 0.  1.
    9900012    2    1    2    0    0 -0.17708603022E+02  0.95382161417E+01  0.24741749157E+02  0.59301853486E+02  0.49999834873E+02 0.  0.
         12    1    1    2    0    0  0.17708603022E+02 -0.95382161417E+01 -0.24741749157E+02  0.31886146514E+02  0.00000000000E+00 0. -1.
         11    1    3    3    0    0  0.73314718756E+01 -0.89991000928E+01  0.22372321138E+02  0.25204266220E+02  0.51100000000E-03 0. -1.
        -11    1    3    3    0    0  0.54623697386E+00 -0.13753103454E+01 -0.46754766500E+00  0.15519196042E+01  0.51100000000E-03 0.  1.
        -12    1    3    3    0    0 -0.25586311872E+02  0.19912626580E+02  0.28369756843E+01  0.32545667662E+02  0.00000000000E+00 0.  1.
</event>
<event>
 7    1  0.3461631E-013  0.5930194E+02  0.7816164E-02  0.1266605E+00
        -11   -1    0    0    0    0  0.00000000000E+00  0.00000000000E+00  0.45593999997E+02  0.45594000000E+02  0.51100000000E-03 0.  1.
         11   -1    0    0    0    0 -0.00000000000E+00 -0.00000000000E+00 -0.45593999997E+02  0.45594000000E+02  0.51100000000E-03 0. -1.
    9900012    2    1    2    0    0 -0.25634298535E+02 -0.10445425110E+02  0.15827082747E+02  0.59301941677E+02  0.49999995713E+02 0.  0.
         12    1    1    2    0    0  0.25634298535E+02  0.10445425110E+02 -0.15827082747E+02  0.31886058323E+02  0.00000000000E+00 0. -1.
         11    1    3    3    0    0  0.62655276457E+01 -0.12269959855E+00 -0.34410065750E+01  0.71492949569E+01  0.51100000000E-03 0. -1.
        -11    1    3    3    0    0  0.34365987127E+01  0.77360999542E+01  0.57355525379E+01  0.10225165837E+02  0.51100000000E-03 0.  1.
        -12    1    3    3    0    0 -0.35336424893E+02 -0.18058825465E+02  0.13532536784E+02  0.41927480883E+02  0.00000000000E+00 0.  1.
</event>
<event>
 7    1  0.3461631E-013  0.5930195E+02  0.7816164E-02  0.1266605E+00
        -11   -1    0    0    0    0  0.00000000000E+00  0.00000000000E+00  0.45593999997E+02  0.45594000000E+02  0.51100000000E-03 0. -1.
         11   -1    0    0    0    0 -0.00000000000E+00 -0.00000000000E+00 -0.45593999997E+02  0.45594000000E+02  0.51100000000E-03 0.  1.
    9900012    2    1    2    0    0  0.18731599306E+02 -0.25645662765E+02  0.28543962202E+01  0.59301946481E+02  0.50000004474E+02 0.  0.
         12    1    1    2    0    0 -0.18731599306E+02  0.25645662765E+02 -0.28543962202E+01  0.31886053519E+02  0.00000000000E+00 0. -1.
         11    1    3    3    0    0  0.49672361395E+01 -0.10717500947E+01 -0.11904241474E+01  0.52191180330E+01  0.51100000000E-03 0. -1.
        -11    1    3    3    0    0  0.29331640877E+02 -0.24675457490E+02  0.20140975903E+01  0.38383329040E+02  0.51100000000E-03 0.  1.
         12    1    3    3    0    0 -0.15567277710E+02  0.10154481906E+00  0.20307227773E+01  0.15699499408E+02  0.00000000000E+00 0. -1.
</event>
<event>
 7    1  0.3461631E-013  0.5930194E+02  0.7816164E-02  0.1266605E+00
        -11   -1    0    0    0    0  0.00000000000E+00  0.00000000000E+00  0.45593999997E+02  0.45594000000E+02  0.51100000000E-03 0.  1.
         11   -1    0    0    0    0 -0.00000000000E+00 -0.00000000000E+00 -0.45593999997E+02  0.45594000000E+02  0.51100000000E-03 0. -1.
    9900012    2    1    2    0    0 -0.85403743212E+01 -0.11135517344E+02  0.28631853281E+02  0.59301940940E+02  0.49999994369E+02 0.  0.
         12    1    1    2    0    0  0.85403743212E+01  0.11135517344E+02 -0.28631853281E+02  0.31886059060E+02  0.00000000000E+00 0. -1.
         11    1    3    3    0    0 -0.14232999187E+02  0.75752280425E+00  0.11039758714E+02  0.18028543462E+02  0.51100000000E-03 0. -1.
        -11    1    3    3    0    0  0.87730174726E+01  0.75220653935E+01  0.18253739398E+02  0.21604312200E+02  0.51100000000E-03 0.  1.
         12    1    3    3    0    0 -0.30803926071E+01 -0.19415105541E+02 -0.66164483094E+00  0.19669085278E+02  0.00000000000E+00 0. -1.
</event>
<event>
 7    1  0.3461631E-013  0.5930193E+02  0.7816164E-02  0.1266605E+00
        -11   -1    0    0    0    0  0.00000000000E+00  0.00000000000E+00  0.45593999997E+02  0.45594000000E+02  0.51100000000E-03 0.  1.
         11   -1    0    0    0    0 -0.00000000000E+00 -0.00000000000E+00 -0.45593999997E+02  0.45594000000E+02  0.51100000000E-03 0. -1.
    9900012    2    1    2    0    0  0.12796201439E+02  0.14023817076E+02  0.25618572874E+02  0.59301929487E+02  0.49999973482E+02 0.  0.
         12    1    1    2    0    0 -0.12796201439E+02 -0.14023817076E+02 -0.25618572874E+02  0.31886070513E+02  0.00000000000E+00 0. -1.
         11    1    3    3    0    0  0.32006058308E+01  0.10443072639E+02  0.13948107710E+02  0.17715850327E+02  0.51100000000E-03 0. -1.
        -11    1    3    3    0    0  0.10682716598E+02  0.16510033126E+02  0.18434186102E+02  0.26954050627E+02  0.51100000000E-03 0.  1.
         12    1    3    3    0    0 -0.10871209892E+01 -0.12929288689E+02 -0.67637209388E+01  0.14632028533E+02  0.00000000000E+00 0. -1.
</event>
<event>
 7    1  0.3461631E-013  0.5930194E+02  0.7816164E-02  0.1266605E+00
        -11   -1    0    0    0    0  0.00000000000E+00  0.00000000000E+00  0.45593999997E+02  0.45594000000E+02  0.51100000000E-03 0.  1.
         11   -1    0    0    0    0 -0.00000000000E+00 -0.00000000000E+00 -0.45593999997E+02  0.45594000000E+02  0.51100000000E-03 0. -1.
    9900012    2    1    2    0    0 -0.23535710826E+02 -0.20908655843E+02  0.50615151612E+01  0.59301944913E+02  0.50000001614E+02 0.  0.
         12    1    1    2    0    0  0.23535710826E+02  0.20908655843E+02 -0.50615151612E+01  0.31886055087E+02  0.00000000000E+00 0. -1.
         11    1    3    3    0    0  0.79808988887E+01  0.26528955329E+01  0.36055800976E+01  0.91505633642E+01  0.51100000000E-03 0. -1.
        -11    1    3    3    0    0 -0.79341725340E+01 -0.15100832719E+02  0.14059551795E+02  0.22105592947E+02  0.51100000000E-03 0.  1.
         12    1    3    3    0    0 -0.23582437181E+02 -0.84607186577E+01 -0.12603616731E+02  0.28045788602E+02  0.00000000000E+00 0. -1.
</event>
<event>
 7    1  0.3461631E-013  0.5930191E+02  0.7816164E-02  0.1266605E+00
        -11   -1    0    0    0    0  0.00000000000E+00  0.00000000000E+00  0.45593999997E+02  0.45594000000E+02  0.51100000000E-03 0.  1.
         11   -1    0    0    0    0 -0.00000000000E+00 -0.00000000000E+00 -0.45593999997E+02  0.45594000000E+02  0.51100000000E-03 0. -1.
    9900012    2    1    2    0    0  0.24910726769E+02 -0.12292628398E+02  0.15654697966E+02  0.59301912289E+02  0.49999942116E+02 0.  0.
         12    1    1    2    0    0 -0.24910726769E+02  0.12292628398E+02 -0.15654697966E+02  0.31886087711E+02  0.00000000000E+00 0. -1.
         11    1    3    3    0    0 -0.63550869321E+01 -0.11522174713E+02  0.67665250733E+01  0.14796401653E+02  0.51100000000E-03 0. -1.
        -11    1    3    3    0    0  0.17507520440E+02 -0.34335698610E+01  0.19867931915E+02  0.26702760022E+02  0.51100000000E-03 0.  1.
        -12    1    3    3    0    0  0.13758293262E+02  0.26631161761E+01 -0.10979759022E+02  0.17802750614E+02  0.00000000000E+00 0.  1.
</event>
<event>
 7    1  0.3461631E-013  0.5930192E+02  0.7816164E-02  0.1266605E+00
        -11   -1    0    0    0    0  0.00000000000E+00  0.00000000000E+00  0.45593999997E+02  0.45594000000E+02  0.51100000000E-03 0.  1.
         11   -1    0    0    0    0 -0.00000000000E+00 -0.00000000000E+00 -0.45593999997E+02  0.45594000000E+02  0.51100000000E-03 0. -1.
    9900012    2    1    2    0    0  0.21404246124E+00 -0.32344615428E+01  0.31720882292E+02  0.59301922646E+02  0.49999961004E+02 0.  0.
         12    1    1    2    0    0 -0.21404246124E+00  0.32344615428E+01 -0.31720882292E+02  0.31886077354E+02  0.00000000000E+00 0. -1.
         11    1    3    3    0    0  0.37219272856E+01  0.12400430430E+01 -0.16513172862E+01  0.42564420011E+01  0.51100000000E-03 0. -1.
        -11    1    3    3    0    0  0.15313543881E+02 -0.41434238073E+00 -0.13120540162E+01  0.15375233065E+02  0.51100000000E-03 0.  1.
        -12    1    3    3    0    0 -0.18821428705E+02 -0.40601622050E+01  0.34684253595E+02  0.39670247580E+02  0.00000000000E+00 0.  1.
</event>
<event>
 7    1  0.3461631E-013  0.5930194E+02  0.7816164E-02  0.1266605E+00
        -11   -1    0    0    0    0  0.00000000000E+00  0.00000000000E+00  0.45593999997E+02  0.45594000000E+02  0.51100000000E-03 0.  1.
         11   -1    0    0    0    0 -0.00000000000E+00 -0.00000000000E+00 -0.45593999997E+02  0.45594000000E+02  0.51100000000E-03 0. -1.
    9900012    2    1    2    0    0 -0.14765128795E+02  0.11061181821E+02  0.26006962580E+02  0.59301939186E+02  0.49999991170E+02 0.  0.
         12    1    1    2    0    0  0.14765128795E+02 -0.11061181821E+02 -0.26006962580E+02  0.31886060814E+02  0.00000000000E+00 0. -1.
         11    1    3    3    0    0  0.84089004420E+01  0.11144574548E+02 -0.96997401923E+00  0.13994713229E+02  0.51100000000E-03 0.  1.
        -11    1    3    3    0    0 -0.56192539127E+01 -0.12243018905E+02  0.42590335040E+01  0.14128230359E+02  0.51100000000E-03 0. -1.
        -12    1    3    3    0    0 -0.17554775324E+02  0.12159626178E+02  0.22717903095E+02  0.31178995598E+02  0.00000000000E+00 0.  1.
</event>
<event>
 7    1  0.3461631E-013  0.5930195E+02  0.7816164E-02  0.1266605E+00
        -11   -1    0    0    0    0  0.00000000000E+00  0.00000000000E+00  0.45593999997E+02  0.45594000000E+02  0.51100000000E-03 0. -1.
         11   -1    0    0    0    0 -0.00000000000E+00 -0.00000000000E+00 -0.45593999997E+02  0.45594000000E+02  0.51100000000E-03 0.  1.
    9900012    2    1    2    0    0 -0.24173388357E+02  0.19752562134E+02  0.64964506127E+01  0.59301948409E+02  0.50000007990E+02 0.  0.
         12    1    1    2    0    0  0.24173388357E+02 -0.19752562134E+02 -0.64964506127E+01  0.31886051591E+02  0.00000000000E+00 0. -1.
         11    1    3    3    0    0  0.12206608077E+01  0.17961863758E+02 -0.51677440281E+00  0.18010708440E+02  0.51100000000E-03 0. -1.
        -11    1    3    3    0    0 -0.71763268490E+01  0.15979002239E+02  0.17153963444E+01  0.17600305806E+02  0.51100000000E-03 0.  1.
         12    1    3    3    0    0 -0.18217722315E+02 -0.14188303863E+02  0.52978286711E+01  0.23690934162E+02  0.00000000000E+00 0. -1.
</event>
<event>
 7    1  0.3461631E-013  0.5930198E+02  0.7816164E-02  0.1266605E+00
        -11   -1    0    0    0    0  0.00000000000E+00  0.00000000000E+00  0.45593999997E+02  0.45594000000E+02  0.51100000000E-03 0.  1.
         11   -1    0    0    0    0 -0.00000000000E+00 -0.00000000000E+00 -0.45593999997E+02  0.45594000000E+02  0.51100000000E-03 0. -1.
    9900012    2    1    2    0    0  0.13136480354E+02 -0.56177217451E+00  0.29048843111E+02  0.59301984411E+02  0.50000073649E+02 0.  0.
         12    1    1    2    0    0 -0.13136480354E+02  0.56177217451E+00 -0.29048843111E+02  0.31886015589E+02  0.00000000000E+00 0. -1.
         11    1    3    3    0    0 -0.94822191752E+01 -0.92275544888E+01  0.22619527574E+02  0.26205023760E+02  0.51100000000E-03 0. -1.
        -11    1    3    3    0    0  0.74367225396E+01 -0.29903334428E+01  0.10814028400E+02  0.13460688940E+02  0.51100000000E-03 0.  1.
         12    1    3    3    0    0  0.15181976989E+02  0.11656115757E+02 -0.43847128624E+01  0.19636271712E+02  0.00000000000E+00 0. -1.
</event>
<event>
 7    1  0.3461631E-013  0.5930191E+02  0.7816164E-02  0.1266605E+00
        -11   -1    0    0    0    0  0.00000000000E+00  0.00000000000E+00  0.45593999997E+02  0.45594000000E+02  0.51100000000E-03 0. -1.
         11   -1    0    0    0    0 -0.00000000000E+00 -0.00000000000E+00 -0.45593999997E+02  0.45594000000E+02  0.51100000000E-03 0.  1.
    9900012    2    1    2    0    0 -0.10411068919E+02  0.27636346073E+02 -0.12023507940E+02  0.59301910188E+02  0.49999938285E+02 0.  0.
         12    1    1    2    0    0  0.10411068919E+02 -0.27636346073E+02  0.12023507940E+02  0.31886089812E+02  0.00000000000E+00 0. -1.
         11    1    3    3    0    0 -0.54022054416E+00  0.10775604292E+02 -0.17624704919E+02  0.20664842362E+02  0.51100000000E-03 0.  1.
        -11    1    3    3    0    0 -0.21222206608E+02  0.66734984658E+01 -0.39023586435E+00  0.22250166727E+02  0.51100000000E-03 0. -1.
         12    1    3    3    0    0  0.11351358234E+02  0.10187243315E+02  0.59914328439E+01  0.16386901099E+02  0.00000000000E+00 0. -1.
</event>
<event>
 7    1  0.3461631E-013  0.5930196E+02  0.7816164E-02  0.1266605E+00
        -11   -1    0    0    0    0  0.00000000000E+00  0.00000000000E+00  0.45593999997E+02  0.45594000000E+02  0.51100000000E-03 0. -1.
         11   -1    0    0    0    0 -0.00000000000E+00 -0.00000000000E+00 -0.45593999997E+02  0.45594000000E+02  0.51100000000E-03 0.  1.
    9900012    2    1    2    0    0 -0.24351738890E+02  0.18483989983E+02  0.90584058937E+01  0.59301956188E+02  0.50000022177E+02 0.  0.
         12    1    1    2    0    0  0.24351738890E+02 -0.18483989983E+02 -0.90584058937E+01  0.31886043812E+02  0.00000000000E+00 0. -1.
         11    1    3    3    0    0 -0.17016897245E+01 -0.13369437638E+02  0.40040146883E+01  0.14059507266E+02  0.51100000000E-03 0. -1.
        -11    1    3    3    0    0 -0.96208203946E+01 -0.19577424121E+00 -0.22522691770E+01  0.98828755595E+01  0.51100000000E-03 0.  1.
         12    1    3    3    0    0 -0.13029228771E+02  0.32049201863E+02  0.73066603825E+01  0.35359573362E+02  0.00000000000E+00 0. -1.
</event>
<event>
 7    1  0.3461631E-013  0.5930196E+02  0.7816164E-02  0.1266605E+00
        -11   -1    0    0    0    0  0.00000000000E+00  0.00000000000E+00  0.45593999997E+02  0.45594000000E+02  0.51100000000E-03 0.  1.
         11   -1    0    0    0    0 -0.00000000000E+00 -0.00000000000E+00 -0.45593999997E+02  0.45594000000E+02  0.51100000000E-03 0. -1.
    9900012    2    1    2    0    0 -0.29167971140E+02 -0.12418633520E+02 -0.34244087632E+01  0.59301959570E+02  0.50000028345E+02 0.  0.
         12    1    1    2    0    0  0.29167971140E+02  0.12418633520E+02  0.34244087632E+01  0.31886040430E+02  0.00000000000E+00 0. -1.
         11    1    3    3    0    0 -0.75525401664E+01  0.78441413063E+01 -0.89026550409E+01  0.14065158472E+02  0.51100000000E-03 0. -1.
        -11    1    3    3    0    0 -0.11422184259E+02  0.85502203828E+01  0.54480385122E+00  0.14278283277E+02  0.51100000000E-03 0.  1.
        -12    1    3    3    0    0 -0.10193246715E+02 -0.28812995209E+02  0.49334424265E+01  0.30958517821E+02  0.00000000000E+00 0.  1.
</event>
<event>
 7    1  0.3461631E-013  0.5930195E+02  0.7816164E-02  0.1266605E+00
        -11   -1    0    0    0    0  0.00000000000E+00  0.00000000000E+00  0.45593999997E+02  0.45594000000E+02  0.51100000000E-03 0.  1.
         11   -1    0    0    0    0 -0.00000000000E+00 -0.00000000000E+00 -0.45593999997E+02  0.45594000000E+02  0.51100000000E-03 0. -1.
    9900012    2    1    2    0    0  0.20049335086E+02  0.11776688414E+02  0.21818659976E+02  0.59301950534E+02  0.50000011866E+02 0.  0.
         12    1    1    2    0    0 -0.20049335086E+02 -0.11776688414E+02 -0.21818659976E+02  0.31886049466E+02  0.00000000000E+00 0. -1.
         11    1    3    3    0    0  0.66286466456E+00 -0.17046503979E+02  0.46915715375E+01  0.17692753636E+02  0.51100000000E-03 0. -1.
        -11    1    3    3    0    0  0.13853003212E+01  0.11095182301E+02  0.10840671177E+02  0.15573768944E+02  0.51100000000E-03 0.  1.
        -12    1    3    3    0    0  0.18001170100E+02  0.17728010092E+02  0.62864172610E+01  0.26035427954E+02  0.00000000000E+00 0.  1.
</event>
<event>
 7    1  0.3461631E-013  0.5930206E+02  0.7816164E-02  0.1266604E+00
        -11   -1    0    0    0    0  0.00000000000E+00  0.00000000000E+00  0.45593999997E+02  0.45594000000E+02  0.51100000000E-03 0.  1.
         11   -1    0    0    0    0 -0.00000000000E+00 -0.00000000000E+00 -0.45593999997E+02  0.45594000000E+02  0.51100000000E-03 0. -1.
    9900012    2    1    2    0    0  0.25241167645E+02 -0.39678233133E+01  0.19074928188E+02  0.59302061856E+02  0.50000214891E+02 0.  0.
         12    1    1    2    0    0 -0.25241167645E+02  0.39678233133E+01 -0.19074928188E+02  0.31885938144E+02  0.00000000000E+00 0. -1.
         11    1    3    3    0    0  0.53048079799E+01 -0.14859996872E+02 -0.70233383887E+01  0.17271009730E+02  0.51100000000E-03 0. -1.
        -11    1    3    3    0    0  0.17779939750E+02  0.35221941130E+01  0.28681889479E+02  0.33929086243E+02  0.51100000000E-03 0.  1.
        -12    1    3    3    0    0  0.21564199149E+01  0.73699794452E+01 -0.25836229027E+01  0.81019658834E+01  0.00000000000E+00 0.  1.
</event>
<event>
 7    1  0.3461631E-013  0.5930197E+02  0.7816164E-02  0.1266605E+00
        -11   -1    0    0    0    0  0.00000000000E+00  0.00000000000E+00  0.45593999997E+02  0.45594000000E+02  0.51100000000E-03 0.  1.
         11   -1    0    0    0    0 -0.00000000000E+00 -0.00000000000E+00 -0.45593999997E+02  0.45594000000E+02  0.51100000000E-03 0. -1.
    9900012    2    1    2    0    0  0.25736110699E+02  0.18637545270E+02  0.26482511486E+01  0.59301972939E+02  0.50000052727E+02 0.  0.
         12    1    1    2    0    0 -0.25736110699E+02 -0.18637545270E+02 -0.26482511486E+01  0.31886027061E+02  0.00000000000E+00 0. -1.
         11    1    3    3    0    0 -0.75848261174E+00 -0.57837179740E+01 -0.36733694702E+01  0.68934993291E+01  0.51100000000E-03 0. -1.
        -11    1    3    3    0    0  0.92153742077E+01  0.30974175082E+02 -0.14783296573E+01  0.32349777474E+02  0.51100000000E-03 0.  1.
         12    1    3    3    0    0  0.17279219103E+02 -0.65529118374E+01  0.77999502761E+01  0.20058696136E+02  0.00000000000E+00 0. -1.
</event>
<event>
 7    1  0.3461631E-013  0.5930194E+02  0.7816164E-02  0.1266605E+00
        -11   -1    0    0    0    0  0.00000000000E+00  0.00000000000E+00  0.45593999997E+02  0.45594000000E+02  0.51100000000E-03 0. -1.
         11   -1    0    0    0    0 -0.00000000000E+00 -0.00000000000E+00 -0.45593999997E+02  0.45594000000E+02  0.51100000000E-03 0.  1.
    9900012    2    1    2    0    0  0.19330530180E+02 -0.16826684497E+02 -0.18971404649E+02  0.59301938741E+02  0.49999990359E+02 0.  0.
         12    1    1    2    0    0 -0.19330530180E+02  0.16826684497E+02  0.18971404649E+02  0.31886061259E+02  0.00000000000E+00 0. -1.
         11    1    3    3    0    0  0.25754297339E+02 -0.41163111849E+01 -0.14920489892E+02  0.30047443619E+02  0.51100000000E-03 0. -1.
        -11    1    3    3    0    0 -0.96748949132E+00  0.71124416633E+01 -0.48767597113E+01  0.86778826837E+01  0.51100000000E-03 0.  1.
        -12    1    3    3    0    0 -0.54562776672E+01 -0.19822814976E+02  0.82584495418E+00  0.20576612438E+02  0.00000000000E+00 0.  1.
</event>
<event>
 7    1  0.3461631E-013  0.5930162E+02  0.7816164E-02  0.1266606E+00
        -11   -1    0    0    0    0  0.00000000000E+00  0.00000000000E+00  0.45593999997E+02  0.45594000000E+02  0.51100000000E-03 0.  1.
         11   -1    0    0    0    0 -0.00000000000E+00 -0.00000000000E+00 -0.45593999997E+02  0.45594000000E+02  0.51100000000E-03 0. -1.
    9900012    2    1    2    0    0 -0.26797468101E+01 -0.70799149935E+01  0.30974751051E+02  0.59301616668E+02  0.49999402971E+02 0.  0.
         12    1    1    2    0    0  0.26797468101E+01  0.70799149935E+01 -0.30974751051E+02  0.31886383332E+02  0.00000000000E+00 0. -1.
         11    1    3    3    0    0  0.30853103625E+01  0.14250554239E+02  0.18077543399E+02  0.23224879154E+02  0.51100000000E-03 0. -1.
        -11    1    3    3    0    0  0.42751387809E+01  0.35922087772E+00  0.11340974826E+02  0.12125327274E+02  0.51100000000E-03 0.  1.
        -12    1    3    3    0    0 -0.10040195954E+02 -0.21689690110E+02  0.15562328263E+01  0.23951410239E+02  0.00000000000E+00 0.  1.
</event>
<event>
 7    1  0.3461631E-013  0.5930196E+02  0.7816164E-02  0.1266605E+00
        -11   -1    0    0    0    0  0.00000000000E+00  0.00000000000E+00  0.45593999997E+02  0.45594000000E+02  0.51100000000E-03 0. -1.
         11   -1    0    0    0    0 -0.00000000000E+00 -0.00000000000E+00 -0.45593999997E+02  0.45594000000E+02  0.51100000000E-03 0.  1.
    9900012    2    1    2    0    0 -0.16263136838E+01  0.12673532947E+02 -0.29213975312E+02  0.59301957801E+02  0.50000025120E+02 0.  0.
         12    1    1    2    0    0  0.16263136838E+01 -0.12673532947E+02  0.29213975312E+02  0.31886042199E+02  0.00000000000E+00 0. -1.
         11    1    3    3    0    0  0.20409558963E+02  0.55757135560E+01 -0.63374898091E+01  0.22086250385E+02  0.51100000000E-03 0. -1.
        -11    1    3    3    0    0 -0.45759395509E+01 -0.45840019457E+01 -0.45879523103E+00  0.64932880682E+01  0.51100000000E-03 0.  1.
        -12    1    3    3    0    0 -0.17459933096E+02  0.11681821336E+02 -0.22417690272E+02  0.30722419348E+02  0.00000000000E+00 0.  1.
</event>
<event>
 7    1  0.3461631E-013  0.5930191E+02  0.7816164E-02  0.1266605E+00
        -11   -1    0    0    0    0  0.00000000000E+00  0.00000000000E+00  0.45593999997E+02  0.45594000000E+02  0.51100000000E-03 0.  1.
         11   -1    0    0    0    0 -0.00000000000E+00 -0.00000000000E+00 -0.45593999997E+02  0.45594000000E+02  0.51100000000E-03 0. -1.
    9900012    2    1    2    0    0 -0.11076665108E+02 -0.17205387066E+02  0.24454135002E+02  0.59301912553E+02  0.49999942597E+02 0.  0.
         12    1    1    2    0    0  0.11076665108E+02  0.17205387066E+02 -0.24454135002E+02  0.31886087447E+02  0.00000000000E+00 0. -1.
         11    1    3    3    0    0  0.11323556280E+02 -0.80591026961E+00 -0.18257533132E+01  0.11498077822E+02  0.51100000000E-03 0. -1.
        -11    1    3    3    0    0 -0.12931140365E+02  0.68982814522E+01  0.11539794057E+02  0.18653887671E+02  0.51100000000E-03 0.  1.
         12    1    3    3    0    0 -0.94690810230E+01 -0.23297758248E+02  0.14740094259E+02  0.29149947059E+02  0.00000000000E+00 0. -1.
</event>
<event>
 7    1  0.3461631E-013  0.5930194E+02  0.7816164E-02  0.1266605E+00
        -11   -1    0    0    0    0  0.00000000000E+00  0.00000000000E+00  0.45593999997E+02  0.45594000000E+02  0.51100000000E-03 0. -1.
         11   -1    0    0    0    0 -0.00000000000E+00 -0.00000000000E+00 -0.45593999997E+02  0.45594000000E+02  0.51100000000E-03 0.  1.
    9900012    2    1    2    0    0  0.24995847535E+02 -0.91348479132E+01 -0.17563687811E+02  0.59301937686E+02  0.49999988434E+02 0.  0.
         12    1    1    2    0    0 -0.24995847535E+02  0.91348479132E+01  0.17563687811E+02  0.31886062314E+02  0.00000000000E+00 0. -1.
         11    1    3    3    0    0  0.11813184194E+02 -0.47593955504E+01 -0.22027017762E+02  0.25443912407E+02  0.51100000000E-03 0. -1.
        -11    1    3    3    0    0  0.30002063449E+01 -0.15131550103E+02 -0.50769065580E+01  0.16240074725E+02  0.51100000000E-03 0.  1.
         12    1    3    3    0    0  0.10182456996E+02  0.10756097740E+02  0.95402365094E+01  0.17617950554E+02  0.00000000000E+00 0. -1.
</event>
<event>
 7    1  0.3461631E-013  0.5930192E+02  0.7816164E-02  0.1266605E+00
        -11   -1    0    0    0    0  0.00000000000E+00  0.00000000000E+00  0.45593999997E+02  0.45594000000E+02  0.51100000000E-03 0.  1.
         11   -1    0    0    0    0 -0.00000000000E+00 -0.00000000000E+00 -0.45593999997E+02  0.45594000000E+02  0.51100000000E-03 0. -1.
    9900012    2    1    2    0    0  0.28319924508E+02 -0.92895095092E+01  0.11331771312E+02  0.59301919148E+02  0.49999954625E+02 0.  0.
         12    1    1    2    0    0 -0.28319924508E+02  0.92895095092E+01 -0.11331771312E+02  0.31886080852E+02  0.00000000000E+00 0. -1.
         11    1    3    3    0    0  0.98693021953E+01 -0.17115755964E+02  0.41846305637E+01  0.20195627280E+02  0.51100000000E-03 0. -1.
        -11    1    3    3    0    0 -0.52451794611E+01 -0.56576475798E+01  0.89096907898E+01  0.11785731795E+02  0.51100000000E-03 0.  1.
         12    1    3    3    0    0  0.23695801773E+02  0.13483894035E+02 -0.17625500415E+01  0.27320560072E+02  0.00000000000E+00 0. -1.
</event>
<event>
 7    1  0.3461631E-013  0.5930195E+02  0.7816164E-02  0.1266605E+00
        -11   -1    0    0    0    0  0.00000000000E+00  0.00000000000E+00  0.45593999997E+02  0.45594000000E+02  0.51100000000E-03 0.  1.
         11   -1    0    0    0    0 -0.00000000000E+00 -0.00000000000E+00 -0.45593999997E+02  0.45594000000E+02  0.51100000000E-03 0. -1.
    9900012    2    1    2    0    0 -0.70432305927E+01  0.25585993183E+02 -0.17676815370E+02  0.59301953742E+02  0.50000017717E+02 0.  0.
         12    1    1    2    0    0  0.70432305927E+01 -0.25585993183E+02  0.17676815370E+02  0.31886046258E+02  0.00000000000E+00 0. -1.
         11    1    3    3    0    0  0.50664279920E+00  0.14679564797E+02 -0.95972845855E+01  0.17545773885E+02  0.51100000000E-03 0.  1.
        -11    1    3    3    0    0 -0.83630359610E+01 -0.11209499974E+02 -0.12989507842E+02  0.19087183511E+02  0.51100000000E-03 0. -1.
         12    1    3    3    0    0  0.81316256917E+00  0.22115928360E+02  0.49099770580E+01  0.22668996345E+02  0.00000000000E+00 0. -1.
</event>
<event>
 7    1  0.3461631E-013  0.5930196E+02  0.7816164E-02  0.1266605E+00
        -11   -1    0    0    0    0  0.00000000000E+00  0.00000000000E+00  0.45593999997E+02  0.45594000000E+02  0.51100000000E-03 0.  1.
         11   -1    0    0    0    0 -0.00000000000E+00 -0.00000000000E+00 -0.45593999997E+02  0.45594000000E+02  0.51100000000E-03 0. -1.
    9900012    2    1    2    0    0 -0.20870406589E+01 -0.21167964129E+02  0.23754595395E+02  0.59301964711E+02  0.50000037721E+02 0.  0.
         12    1    1    2    0    0  0.20870406589E+01  0.21167964129E+02 -0.23754595395E+02  0.31886035289E+02  0.00000000000E+00 0. -1.
         11    1    3    3    0    0 -0.20297670250E+02 -0.20998105317E+02  0.14326339382E+02  0.32529368959E+02  0.51100000000E-03 0. -1.
        -11    1    3    3    0    0 -0.15318908279E+01 -0.22242533041E+01  0.60668891343E+01  0.66408686403E+01  0.51100000000E-03 0.  1.
        -12    1    3    3    0    0  0.19742520419E+02  0.20543944920E+01  0.33613668782E+01  0.20131727112E+02  0.00000000000E+00 0.  1.
</event>
<event>
 7    1  0.3461631E-013  0.5930195E+02  0.7816164E-02  0.1266605E+00
        -11   -1    0    0    0    0  0.00000000000E+00  0.00000000000E+00  0.45593999997E+02  0.45594000000E+02  0.51100000000E-03 0. -1.
         11   -1    0    0    0    0 -0.00000000000E+00 -0.00000000000E+00 -0.45593999997E+02  0.45594000000E+02  0.51100000000E-03 0.  1.
    9900012    2    1    2    0    0  0.30081442264E+02 -0.86735127797E+01 -0.60495668668E+01  0.59301948944E+02  0.50000008967E+02 0.  0.
         12    1    1    2    0    0 -0.30081442264E+02  0.86735127797E+01  0.60495668668E+01  0.31886051056E+02  0.00000000000E+00 0. -1.
         11    1    3    3    0    0  0.19789524661E+02 -0.80864316718E+01 -0.26356451351E+02  0.33936384480E+02  0.51100000000E-03 0.  1.
        -11    1    3    3    0    0  0.25442284477E+00 -0.42663965119E+01  0.79497180691E+01  0.90257901493E+01  0.51100000000E-03 0. -1.
        -12    1    3    3    0    0  0.10037494759E+02  0.36793154040E+01  0.12357166415E+02  0.16339774315E+02  0.00000000000E+00 0.  1.
</event>
<event>
 7    1  0.3461631E-013  0.5930191E+02  0.7816164E-02  0.1266605E+00
        -11   -1    0    0    0    0  0.00000000000E+00  0.00000000000E+00  0.45593999997E+02  0.45594000000E+02  0.51100000000E-03 0. -1.
         11   -1    0    0    0    0 -0.00000000000E+00 -0.00000000000E+00 -0.45593999997E+02  0.45594000000E+02  0.51100000000E-03 0.  1.
    9900012    2    1    2    0    0  0.79558790842E-01 -0.16833616733E+02 -0.27080357220E+02  0.59301910100E+02  0.49999938124E+02 0.  0.
         12    1    1    2    0    0 -0.79558790842E-01  0.16833616733E+02  0.27080357220E+02  0.31886089900E+02  0.00000000000E+00 0. -1.
         11    1    3    3    0    0  0.24719526034E+01 -0.53003057497E+00 -0.10229328908E+01  0.27272466049E+01  0.51100000000E-03 0. -1.
        -11    1    3    3    0    0  0.15301836433E+02 -0.25273731135E+02 -0.10469783877E+02  0.31345239804E+02  0.51100000000E-03 0.  1.
         12    1    3    3    0    0 -0.17694230246E+02  0.89701449766E+01 -0.15587640453E+02  0.25229423691E+02  0.00000000000E+00 0. -1.
</event>
<event>
 7    1  0.3461631E-013  0.5930194E+02  0.7816164E-02  0.1266605E+00
        -11   -1    0    0    0    0  0.00000000000E+00  0.00000000000E+00  0.45593999997E+02  0.45594000000E+02  0.51100000000E-03 0.  1.
         11   -1    0    0    0    0 -0.00000000000E+00 -0.00000000000E+00 -0.45593999997E+02  0.45594000000E+02  0.51100000000E-03 0. -1.
    9900012    2    1    2    0    0  0.23538781557E+02 -0.96846772053E+01  0.19205554754E+02  0.59301944377E+02  0.50000000638E+02 0.  0.
         12    1    1    2    0    0 -0.23538781557E+02  0.96846772053E+01 -0.19205554754E+02  0.31886055623E+02  0.00000000000E+00 0. -1.
         11    1    3    3    0    0 -0.32849668875E+01 -0.11748583555E+02  0.17826775388E+02  0.21601253297E+02  0.51100000000E-03 0. -1.
        -11    1    3    3    0    0  0.42116387478E+00 -0.31256018477E+01 -0.84770399081E+01  0.90447206582E+01  0.51100000000E-03 0.  1.
        -12    1    3    3    0    0  0.26402584569E+02  0.51895081974E+01  0.98558192740E+01  0.28655970422E+02  0.00000000000E+00 0.  1.
</event>
<event>
 7    1  0.3461631E-013  0.5930195E+02  0.7816164E-02  0.1266605E+00
        -11   -1    0    0    0    0  0.00000000000E+00  0.00000000000E+00  0.45593999997E+02  0.45594000000E+02  0.51100000000E-03 0.  1.
         11   -1    0    0    0    0 -0.00000000000E+00 -0.00000000000E+00 -0.45593999997E+02  0.45594000000E+02  0.51100000000E-03 0. -1.
    9900012    2    1    2    0    0 -0.13781820339E+02  0.15876186371E+02  0.23973489904E+02  0.59301951582E+02  0.50000013778E+02 0.  0.
         12    1    1    2    0    0  0.13781820339E+02 -0.15876186371E+02 -0.23973489904E+02  0.31886048418E+02  0.00000000000E+00 0. -1.
         11    1    3    3    0    0  0.36268248765E+00  0.15353820097E+02  0.33638145626E+02  0.36978320292E+02  0.51100000000E-03 0. -1.
        -11    1    3    3    0    0 -0.23960655039E+01  0.40251675769E+01  0.22778051627E+01  0.52087906986E+01  0.51100000000E-03 0.  1.
        -12    1    3    3    0    0 -0.11748437323E+02 -0.35028013030E+01 -0.11942460885E+02  0.17114840592E+02  0.00000000000E+00 0.  1.
</event>
<event>
 7    1  0.3461631E-013  0.5930193E+02  0.7816164E-02  0.1266605E+00
        -11   -1    0    0    0    0  0.00000000000E+00  0.00000000000E+00  0.45593999997E+02  0.45594000000E+02  0.51100000000E-03 0. -1.
         11   -1    0    0    0    0 -0.00000000000E+00 -0.00000000000E+00 -0.45593999997E+02  0.45594000000E+02  0.51100000000E-03 0.  1.
    9900012    2    1    2    0    0  0.14924292544E+02  0.24224508653E+02 -0.14393049397E+02  0.59301934103E+02  0.49999981900E+02 0.  0.
         12    1    1    2    0    0 -0.14924292544E+02 -0.24224508653E+02  0.14393049397E+02  0.31886065897E+02  0.00000000000E+00 0. -1.
         11    1    3    3    0    0 -0.54737917094E+01 -0.59373836929E+01  0.10947668312E+01  0.81494438749E+01  0.51100000000E-03 0. -1.
        -11    1    3    3    0    0 -0.11562960802E+01 -0.40224737496E+01  0.44332857461E+01  0.60968301976E+01  0.51100000000E-03 0.  1.
        -12    1    3    3    0    0  0.21554380334E+02  0.34184366095E+02 -0.19921101974E+02  0.45055660031E+02  0.00000000000E+00 0.  1.
</event>
<event>
 7    1  0.3978664E-013  0.5930193E+02  0.7816164E-02  0.1266605E+00
        -11   -1    0    0    0    0  0.00000000000E+00  0.00000000000E+00  0.45593999997E+02  0.45594000000E+02  0.51100000000E-03 0. -1.
         11   -1    0    0    0    0 -0.00000000000E+00 -0.00000000000E+00 -0.45593999997E+02  0.45594000000E+02  0.51100000000E-03 0.  1.
    9900012    2    1    2    0    0 -0.79528245930E+01 -0.17857554110E+02 -0.25190902210E+02  0.59301933890E+02  0.49999981512E+02 0.  0.
         12    1    1    2    0    0  0.79528245930E+01  0.17857554110E+02  0.25190902210E+02  0.31886066110E+02  0.00000000000E+00 0. -1.
         11    1    3    3    0    0  0.47789484231E+01  0.89304290713E+01 -0.32303838599E+00  0.10133867252E+02  0.51100000000E-03 0. -1.
        -11    1    3    3    0    0  0.24261919764E+01 -0.27101291492E+02 -0.14879294360E+02  0.31012252562E+02  0.51100000000E-03 0.  1.
         12    1    3    3    0    0 -0.15157964993E+02  0.31330831098E+00 -0.99885694638E+01  0.18155814076E+02  0.00000000000E+00 0. -1.
</event>
<event>
 7    1  0.3461631E-013  0.5930194E+02  0.7816164E-02  0.1266605E+00
        -11   -1    0    0    0    0  0.00000000000E+00  0.00000000000E+00  0.45593999997E+02  0.45594000000E+02  0.51100000000E-03 0.  1.
         11   -1    0    0    0    0 -0.00000000000E+00 -0.00000000000E+00 -0.45593999997E+02  0.45594000000E+02  0.51100000000E-03 0. -1.
    9900012    2    1    2    0    0 -0.27842651645E+02  0.88291907152E+01  0.12788774865E+02  0.59301943143E+02  0.49999998387E+02 0.  0.
         12    1    1    2    0    0  0.27842651645E+02 -0.88291907152E+01 -0.12788774865E+02  0.31886056857E+02  0.00000000000E+00 0. -1.
         11    1    3    3    0    0 -0.50830571645E+01  0.42079074763E+01  0.47678206151E+01  0.81410115554E+01  0.51100000000E-03 0. -1.
        -11    1    3    3    0    0 -0.90380859024E+01  0.24556431200E+02  0.62008274425E+01  0.26891552043E+02  0.51100000000E-03 0.  1.
         12    1    3    3    0    0 -0.13721508578E+02 -0.19935147961E+02  0.18201268075E+01  0.24269379545E+02  0.00000000000E+00 0. -1.
</event>
<event>
 7    1  0.3461631E-013  0.5930195E+02  0.7816164E-02  0.1266605E+00
        -11   -1    0    0    0    0  0.00000000000E+00  0.00000000000E+00  0.45593999997E+02  0.45594000000E+02  0.51100000000E-03 0.  1.
         11   -1    0    0    0    0 -0.00000000000E+00 -0.00000000000E+00 -0.45593999997E+02  0.45594000000E+02  0.51100000000E-03 0. -1.
    9900012    2    1    2    0    0 -0.88707258885E+01 -0.30493871964E+02 -0.28555885472E+01  0.59301946762E+02  0.50000004987E+02 0.  0.
         12    1    1    2    0    0  0.88707258885E+01  0.30493871964E+02  0.28555885472E+01  0.31886053238E+02  0.00000000000E+00 0. -1.
         11    1    3    3    0    0 -0.71136029051E+01  0.29946286046E+01 -0.11019531138E+02  0.13453669147E+02  0.51100000000E-03 0. -1.
        -11    1    3    3    0    0  0.16437158062E+01  0.35946898142E+01 -0.49798993146E+01  0.63579079858E+01  0.51100000000E-03 0.  1.
        -12    1    3    3    0    0 -0.34008387895E+01 -0.37083190383E+02  0.13143841905E+02  0.39490369629E+02  0.00000000000E+00 0.  1.
</event>
<event>
 7    1  0.3461631E-013  0.5930181E+02  0.7816164E-02  0.1266605E+00
        -11   -1    0    0    0    0  0.00000000000E+00  0.00000000000E+00  0.45593999997E+02  0.45594000000E+02  0.51100000000E-03 0. -1.
         11   -1    0    0    0    0 -0.00000000000E+00 -0.00000000000E+00 -0.45593999997E+02  0.45594000000E+02  0.51100000000E-03 0.  1.
    9900012    2    1    2    0    0  0.17985251117E+02  0.17663024907E+02 -0.19526326219E+02  0.59301809851E+02  0.49999755294E+02 0.  0.
         12    1    1    2    0    0 -0.17985251117E+02 -0.17663024907E+02  0.19526326219E+02  0.31886190149E+02  0.00000000000E+00 0. -1.
         11    1    3    3    0    0  0.22306783140E+02 -0.13708064920E+01  0.67860634060E+01  0.23356419702E+02  0.51100000000E-03 0. -1.
        -11    1    3    3    0    0  0.38041385537E+01  0.48585712737E+00 -0.68978064419E+01  0.78922279018E+01  0.51100000000E-03 0.  1.
        -12    1    3    3    0    0 -0.81256705769E+01  0.18547974271E+02 -0.19414583183E+02  0.28053162247E+02  0.00000000000E+00 0.  1.
</event>
<event>
 7    1  0.3461631E-013  0.5930195E+02  0.7816164E-02  0.1266605E+00
        -11   -1    0    0    0    0  0.00000000000E+00  0.00000000000E+00  0.45593999997E+02  0.45594000000E+02  0.51100000000E-03 0. -1.
         11   -1    0    0    0    0 -0.00000000000E+00 -0.00000000000E+00 -0.45593999997E+02  0.45594000000E+02  0.51100000000E-03 0.  1.
    9900012    2    1    2    0    0 -0.30623786867E+01 -0.24843703565E+02 -0.19751767815E+02  0.59301951297E+02  0.50000013258E+02 0.  0.
         12    1    1    2    0    0  0.30623786867E+01  0.24843703565E+02  0.19751767815E+02  0.31886048703E+02  0.00000000000E+00 0. -1.
         11    1    3    3    0    0 -0.58192148303E+00  0.52201477271E+01 -0.14617186618E+02  0.15532247738E+02  0.51100000000E-03 0. -1.
        -11    1    3    3    0    0 -0.11188431605E+02 -0.26836052478E+02 -0.12761492849E+02  0.31752329275E+02  0.51100000000E-03 0.  1.
         12    1    3    3    0    0  0.87079744012E+01 -0.32277988147E+01  0.76269116519E+01  0.12017374285E+02  0.00000000000E+00 0. -1.
</event>
<event>
 7    1  0.3461631E-013  0.5930194E+02  0.7816164E-02  0.1266605E+00
        -11   -1    0    0    0    0  0.00000000000E+00  0.00000000000E+00  0.45593999997E+02  0.45594000000E+02  0.51100000000E-03 0.  1.
         11   -1    0    0    0    0 -0.00000000000E+00 -0.00000000000E+00 -0.45593999997E+02  0.45594000000E+02  0.51100000000E-03 0. -1.
    9900012    2    1    2    0    0  0.31482968346E+02 -0.12673953335E+01  0.48925660037E+01  0.59301940524E+02  0.49999993610E+02 0.  0.
         12    1    1    2    0    0 -0.31482968346E+02  0.12673953335E+01 -0.48925660037E+01  0.31886059476E+02  0.00000000000E+00 0. -1.
         11    1    3    3    0    0 -0.12051522572E+01 -0.12091540716E+02  0.82032430071E+01  0.14661205440E+02  0.51100000000E-03 0.  1.
        -11    1    3    3    0    0  0.18804893062E+02 -0.64286831571E+01 -0.89395925010E+01  0.21791472749E+02  0.51100000000E-03 0. -1.
         12    1    3    3    0    0  0.13883227541E+02  0.17252828540E+02  0.56289154975E+01  0.22849262335E+02  0.00000000000E+00 0. -1.
</event>
<event>
 7    1  0.3461631E-013  0.5930199E+02  0.7816164E-02  0.1266605E+00
        -11   -1    0    0    0    0  0.00000000000E+00  0.00000000000E+00  0.45593999997E+02  0.45594000000E+02  0.51100000000E-03 0.  1.
         11   -1    0    0    0    0 -0.00000000000E+00 -0.00000000000E+00 -0.45593999997E+02  0.45594000000E+02  0.51100000000E-03 0. -1.
    9900012    2    1    2    0    0  0.70985946255E+01  0.11575526310E+02  0.28850210531E+02  0.59301992055E+02  0.50000087590E+02 0.  0.
         12    1    1    2    0    0 -0.70985946255E+01 -0.11575526310E+02 -0.28850210531E+02  0.31886007945E+02  0.00000000000E+00 0. -1.
         11    1    3    3    0    0  0.36806549703E+01 -0.10284938907E+02  0.16120429954E+02  0.19472941522E+02  0.51100000000E-03 0. -1.
        -11    1    3    3    0    0 -0.48229124834E+00  0.22268731792E+01  0.18779795404E+02  0.18917512646E+02  0.51100000000E-03 0.  1.
         12    1    3    3    0    0  0.39002309035E+01  0.19633592038E+02 -0.60500148282E+01  0.20911537887E+02  0.00000000000E+00 0. -1.
</event>
<event>
 7    1  0.3461631E-013  0.5930193E+02  0.7816164E-02  0.1266605E+00
        -11   -1    0    0    0    0  0.00000000000E+00  0.00000000000E+00  0.45593999997E+02  0.45594000000E+02  0.51100000000E-03 0.  1.
         11   -1    0    0    0    0 -0.00000000000E+00 -0.00000000000E+00 -0.45593999997E+02  0.45594000000E+02  0.51100000000E-03 0. -1.
    9900012    2    1    2    0    0  0.39380716401E+01  0.13827842700E+02  0.28460561605E+02  0.59301933939E+02  0.49999981600E+02 0.  0.
         12    1    1    2    0    0 -0.39380716401E+01 -0.13827842700E+02 -0.28460561605E+02  0.31886066061E+02  0.00000000000E+00 0. -1.
         11    1    3    3    0    0 -0.88407301850E+01  0.14725479112E+01 -0.89646791614E+01  0.12676449830E+02  0.51100000000E-03 0. -1.
        -11    1    3    3    0    0 -0.39511164855E+01  0.59587190017E+01  0.28700979750E+01  0.77042271689E+01  0.51100000000E-03 0.  1.
        -12    1    3    3    0    0  0.16729918311E+02  0.63965757872E+01  0.34555142791E+02  0.38921256940E+02  0.00000000000E+00 0.  1.
</event>
<event>
 7    1  0.3461631E-013  0.5930196E+02  0.7816164E-02  0.1266605E+00
        -11   -1    0    0    0    0  0.00000000000E+00  0.00000000000E+00  0.45593999997E+02  0.45594000000E+02  0.51100000000E-03 0.  1.
         11   -1    0    0    0    0 -0.00000000000E+00 -0.00000000000E+00 -0.45593999997E+02  0.45594000000E+02  0.51100000000E-03 0. -1.
    9900012    2    1    2    0    0 -0.22422936421E+01 -0.32813598579E+01  0.31637388459E+02  0.59301959923E+02  0.50000028989E+02 0.  0.
         12    1    1    2    0    0  0.22422936421E+01  0.32813598579E+01 -0.31637388459E+02  0.31886040077E+02  0.00000000000E+00 0. -1.
         11    1    3    3    0    0 -0.16138152171E+01 -0.37068370936E+01  0.24377590433E+02  0.24710563660E+02  0.51100000000E-03 0. -1.
        -11    1    3    3    0    0  0.94964651643E+01 -0.89281180122E+01  0.14101407690E+02  0.19202704001E+02  0.51100000000E-03 0.  1.
         12    1    3    3    0    0 -0.10124943589E+02  0.93535952478E+01 -0.68416096642E+01  0.15388692262E+02  0.00000000000E+00 0. -1.
</event>
<event>
 7    1  0.3461631E-013  0.5930195E+02  0.7816164E-02  0.1266605E+00
        -11   -1    0    0    0    0  0.00000000000E+00  0.00000000000E+00  0.45593999997E+02  0.45594000000E+02  0.51100000000E-03 0.  1.
         11   -1    0    0    0    0 -0.00000000000E+00 -0.00000000000E+00 -0.45593999997E+02  0.45594000000E+02  0.51100000000E-03 0. -1.
    9900012    2    1    2    0    0  0.23348223508E+02  0.10814732414E+02  0.18831412819E+02  0.59301951532E+02  0.50000013685E+02 0.  0.
         12    1    1    2    0    0 -0.23348223508E+02 -0.10814732414E+02 -0.18831412819E+02  0.31886048468E+02  0.00000000000E+00 0. -1.
         11    1    3    3    0    0  0.14214891639E+02 -0.10687372416E+02 -0.93058887906E+01  0.20071936626E+02  0.51100000000E-03 0.  1.
        -11    1    3    3    0    0 -0.97889660528E-01  0.10666696293E+02  0.43730447988E+01  0.11528725570E+02  0.51100000000E-03 0. -1.
        -12    1    3    3    0    0  0.92312215297E+01  0.10835408537E+02  0.23764256811E+02  0.27701289336E+02  0.00000000000E+00 0.  1.
</event>
<event>
 7    1  0.3461631E-013  0.5930194E+02  0.7816164E-02  0.1266605E+00
        -11   -1    0    0    0    0  0.00000000000E+00  0.00000000000E+00  0.45593999997E+02  0.45594000000E+02  0.51100000000E-03 0. -1.
         11   -1    0    0    0    0 -0.00000000000E+00 -0.00000000000E+00 -0.45593999997E+02  0.45594000000E+02  0.51100000000E-03 0.  1.
    9900012    2    1    2    0    0  0.76027518132E+01  0.24965990608E+02 -0.18319881685E+02  0.59301943689E+02  0.49999999381E+02 0.  0.
         12    1    1    2    0    0 -0.76027518132E+01 -0.24965990608E+02  0.18319881685E+02  0.31886056311E+02  0.00000000000E+00 0. -1.
         11    1    3    3    0    0  0.25280050572E+01  0.27366688694E+01 -0.16238856710E+02  0.16660751291E+02  0.51100000000E-03 0. -1.
        -11    1    3    3    0    0  0.19888270150E+02  0.11663971885E+02 -0.64246719493E+01  0.23934659797E+02  0.51100000000E-03 0.  1.
         12    1    3    3    0    0 -0.14813523394E+02  0.10565349853E+02  0.43436469748E+01  0.18706532600E+02  0.00000000000E+00 0. -1.
</event>
<event>
 7    1  0.3461631E-013  0.5930192E+02  0.7816164E-02  0.1266605E+00
        -11   -1    0    0    0    0  0.00000000000E+00  0.00000000000E+00  0.45593999997E+02  0.45594000000E+02  0.51100000000E-03 0.  1.
         11   -1    0    0    0    0 -0.00000000000E+00 -0.00000000000E+00 -0.45593999997E+02  0.45594000000E+02  0.51100000000E-03 0. -1.
    9900012    2    1    2    0    0  0.25069462277E+02  0.39909755040E+01  0.19295496798E+02  0.59301921203E+02  0.49999958374E+02 0.  0.
         12    1    1    2    0    0 -0.25069462277E+02 -0.39909755040E+01 -0.19295496798E+02  0.31886078797E+02  0.00000000000E+00 0. -1.
         11    1    3    3    0    0 -0.77901425359E+00 -0.11930206254E+02  0.61786685690E+01  0.13457809257E+02  0.51100000000E-03 0. -1.
        -11    1    3    3    0    0 -0.77441779741E+00  0.15925260795E+02  0.10504395074E+02  0.19093348853E+02  0.51100000000E-03 0.  1.
         12    1    3    3    0    0  0.26622894328E+02 -0.40790370843E-02  0.26124331554E+01  0.26750763093E+02  0.00000000000E+00 0. -1.
</event>
<event>
 7    1  0.3461631E-013  0.5930198E+02  0.7816164E-02  0.1266605E+00
        -11   -1    0    0    0    0  0.00000000000E+00  0.00000000000E+00  0.45593999997E+02  0.45594000000E+02  0.51100000000E-03 0. -1.
         11   -1    0    0    0    0 -0.00000000000E+00 -0.00000000000E+00 -0.45593999997E+02  0.45594000000E+02  0.51100000000E-03 0.  1.
    9900012    2    1    2    0    0  0.18399120047E+02  0.22502265738E+02  0.13108730173E+02  0.59301978163E+02  0.50000062255E+02 0.  0.
         12    1    1    2    0    0 -0.18399120047E+02 -0.22502265738E+02 -0.13108730173E+02  0.31886021837E+02  0.00000000000E+00 0. -1.
         11    1    3    3    0    0  0.33947462544E+01  0.29651281195E+01  0.34692892119E+01  0.56879042532E+01  0.51100000000E-03 0. -1.
        -11    1    3    3    0    0  0.21920035849E+02 -0.31927571853E+01  0.17879765547E+02  0.28466957799E+02  0.51100000000E-03 0.  1.
        -12    1    3    3    0    0 -0.69156620564E+01  0.22729894803E+02 -0.82403245853E+01  0.25147116111E+02  0.00000000000E+00 0.  1.
</event>
<event>
 7    1  0.3461631E-013  0.5930194E+02  0.7816164E-02  0.1266605E+00
        -11   -1    0    0    0    0  0.00000000000E+00  0.00000000000E+00  0.45593999997E+02  0.45594000000E+02  0.51100000000E-03 0. -1.
         11   -1    0    0    0    0 -0.00000000000E+00 -0.00000000000E+00 -0.45593999997E+02  0.45594000000E+02  0.51100000000E-03 0.  1.
    9900012    2    1    2    0    0 -0.27026901030E+02 -0.16717756575E+02 -0.26046270726E+01  0.59301939623E+02  0.49999991967E+02 0.  0.
         12    1    1    2    0    0  0.27026901030E+02  0.16717756575E+02  0.26046270726E+01  0.31886060377E+02  0.00000000000E+00 0. -1.
         11    1    3    3    0    0 -0.32304243876E+02 -0.22222929164E+02 -0.22294580780E+01  0.39273314561E+02  0.51100000000E-03 0. -1.
        -11    1    3    3    0    0 -0.66573262454E+01 -0.47721794504E+00 -0.52167696169E-01  0.66746124557E+01  0.51100000000E-03 0.  1.
         12    1    3    3    0    0  0.11934669092E+02  0.59823905343E+01 -0.32300129842E+00  0.13354012606E+02  0.00000000000E+00 0. -1.
</event>
<event>
 7    1  0.3461631E-013  0.5930194E+02  0.7816164E-02  0.1266605E+00
        -11   -1    0    0    0    0  0.00000000000E+00  0.00000000000E+00  0.45593999997E+02  0.45594000000E+02  0.51100000000E-03 0.  1.
         11   -1    0    0    0    0 -0.00000000000E+00 -0.00000000000E+00 -0.45593999997E+02  0.45594000000E+02  0.51100000000E-03 0. -1.
    9900012    2    1    2    0    0  0.10851675379E+01  0.79961263217E+01  0.30848097412E+02  0.59301941312E+02  0.49999995046E+02 0.  0.
         12    1    1    2    0    0 -0.10851675379E+01 -0.79961263217E+01 -0.30848097412E+02  0.31886058688E+02  0.00000000000E+00 0. -1.
         11    1    3    3    0    0  0.10533594373E+02 -0.30974142976E+01  0.11227683928E+02  0.15703868071E+02  0.51100000000E-03 0. -1.
        -11    1    3    3    0    0  0.10815842932E+02 -0.44059769036E+01  0.12508485267E+02  0.17113073796E+02  0.51100000000E-03 0.  1.
         12    1    3    3    0    0 -0.20264269767E+02  0.15499517523E+02  0.71119282170E+01  0.26484999445E+02  0.00000000000E+00 0. -1.
</event>
<event>
 7    1  0.3461631E-013  0.5930204E+02  0.7816164E-02  0.1266604E+00
        -11   -1    0    0    0    0  0.00000000000E+00  0.00000000000E+00  0.45593999997E+02  0.45594000000E+02  0.51100000000E-03 0.  1.
         11   -1    0    0    0    0 -0.00000000000E+00 -0.00000000000E+00 -0.45593999997E+02  0.45594000000E+02  0.51100000000E-03 0. -1.
    9900012    2    1    2    0    0  0.64527986815E+01  0.31214123294E+02  0.86853005550E+00  0.59302039951E+02  0.50000174940E+02 0.  0.
         12    1    1    2    0    0 -0.64527986815E+01 -0.31214123294E+02 -0.86853005550E+00  0.31885960049E+02  0.00000000000E+00 0. -1.
         11    1    3    3    0    0  0.15017907507E+02  0.50350239849E+01 -0.26441521019E+01  0.16058659751E+02  0.51100000000E-03 0. -1.
        -11    1    3    3    0    0  0.12377225235E+02  0.10457160640E+02 -0.24461690785E+01  0.16386935546E+02  0.51100000000E-03 0.  1.
        -12    1    3    3    0    0 -0.20942334060E+02  0.15721938668E+02  0.59588512359E+01  0.26856444653E+02  0.00000000000E+00 0.  1.
</event>
<event>
 7    1  0.3461631E-013  0.5930194E+02  0.7816164E-02  0.1266605E+00
        -11   -1    0    0    0    0  0.00000000000E+00  0.00000000000E+00  0.45593999997E+02  0.45594000000E+02  0.51100000000E-03 0.  1.
         11   -1    0    0    0    0 -0.00000000000E+00 -0.00000000000E+00 -0.45593999997E+02  0.45594000000E+02  0.51100000000E-03 0. -1.
    9900012    2    1    2    0    0 -0.22453417832E+01  0.23328090649E+02  0.21621275515E+02  0.59301938344E+02  0.49999989635E+02 0.  0.
         12    1    1    2    0    0  0.22453417832E+01 -0.23328090649E+02 -0.21621275515E+02  0.31886061656E+02  0.00000000000E+00 0. -1.
         11    1    3    3    0    0 -0.64960041326E+01 -0.14588396010E+00  0.10149559517E+02  0.12051261779E+02  0.51100000000E-03 0. -1.
        -11    1    3    3    0    0  0.15193491252E+02 -0.43230272794E+01  0.58984325411E+01  0.16861857785E+02  0.51100000000E-03 0.  1.
        -12    1    3    3    0    0 -0.10942828902E+02  0.27797001888E+02  0.55732834570E+01  0.30388818780E+02  0.00000000000E+00 0.  1.
</event>
<event>
 7    1  0.3461631E-013  0.5930194E+02  0.7816164E-02  0.1266605E+00
        -11   -1    0    0    0    0  0.00000000000E+00  0.00000000000E+00  0.45593999997E+02  0.45594000000E+02  0.51100000000E-03 0.  1.
         11   -1    0    0    0    0 -0.00000000000E+00 -0.00000000000E+00 -0.45593999997E+02  0.45594000000E+02  0.51100000000E-03 0. -1.
    9900012    2    1    2    0    0  0.73124200753E+01 -0.18953496580E+02  0.24576705449E+02  0.59301937674E+02  0.49999988412E+02 0.  0.
         12    1    1    2    0    0 -0.73124200753E+01  0.18953496580E+02 -0.24576705449E+02  0.31886062326E+02  0.00000000000E+00 0. -1.
         11    1    3    3    0    0  0.70083241357E+01 -0.49926005095E+01  0.11743640194E+02  0.14558700227E+02  0.51100000000E-03 0. -1.
        -11    1    3    3    0    0  0.50379199838E+01 -0.20919589220E+02  0.23032372212E+02  0.31519835356E+02  0.51100000000E-03 0.  1.
         12    1    3    3    0    0 -0.47338240442E+01  0.69586931495E+01 -0.10199306957E+02  0.13223402090E+02  0.00000000000E+00 0. -1.
</event>
<event>
 7    1  0.3461631E-013  0.5930193E+02  0.7816164E-02  0.1266605E+00
        -11   -1    0    0    0    0  0.00000000000E+00  0.00000000000E+00  0.45593999997E+02  0.45594000000E+02  0.51100000000E-03 0. -1.
         11   -1    0    0    0    0 -0.00000000000E+00 -0.00000000000E+00 -0.45593999997E+02  0.45594000000E+02  0.51100000000E-03 0.  1.
    9900012    2    1    2    0    0 -0.21527019327E+02  0.96948492346E+01 -0.21431721603E+02  0.59301931668E+02  0.49999977459E+02 0.  0.
         12    1    1    2    0    0  0.21527019327E+02 -0.96948492346E+01  0.21431721603E+02  0.31886068332E+02  0.00000000000E+00 0. -1.
         11    1    3    3    0    0 -0.10736533126E+02  0.46479728987E+01 -0.33693053167E+02  0.35666491664E+02  0.51100000000E-03 0. -1.
        -11    1    3    3    0    0  0.51041096696E+00  0.16605538627E+01 -0.35238829611E+01  0.39288305984E+01  0.51100000000E-03 0.  1.
         12    1    3    3    0    0 -0.11300897167E+02  0.33863224732E+01  0.15785214525E+02  0.19706609406E+02  0.00000000000E+00 0. -1.
</event>
<event>
 7    1  0.3461631E-013  0.5930197E+02  0.7816164E-02  0.1266605E+00
        -11   -1    0    0    0    0  0.00000000000E+00  0.00000000000E+00  0.45593999997E+02  0.45594000000E+02  0.51100000000E-03 0. -1.
         11   -1    0    0    0    0 -0.00000000000E+00 -0.00000000000E+00 -0.45593999997E+02  0.45594000000E+02  0.51100000000E-03 0.  1.
    9900012    2    1    2    0    0  0.74622577674E+01  0.29155478681E+02 -0.10535273391E+02  0.59301965227E+02  0.50000038663E+02 0.  0.
         12    1    1    2    0    0 -0.74622577674E+01 -0.29155478681E+02  0.10535273391E+02  0.31886034773E+02  0.00000000000E+00 0. -1.
         11    1    3    3    0    0 -0.39248571895E+01  0.16602577986E+02 -0.12276935259E+02  0.21018402398E+02  0.51100000000E-03 0.  1.
        -11    1    3    3    0    0  0.57384304041E+01 -0.99221672923E+01 -0.70968227390E+01  0.13481241802E+02  0.51100000000E-03 0. -1.
        -12    1    3    3    0    0  0.56486845529E+01  0.22475067987E+02  0.88384846068E+01  0.24802321028E+02  0.00000000000E+00 0.  1.
</event>
<event>
 7    1  0.3461631E-013  0.5930191E+02  0.7816164E-02  0.1266605E+00
        -11   -1    0    0    0    0  0.00000000000E+00  0.00000000000E+00  0.45593999997E+02  0.45594000000E+02  0.51100000000E-03 0.  1.
         11   -1    0    0    0    0 -0.00000000000E+00 -0.00000000000E+00 -0.45593999997E+02  0.45594000000E+02  0.51100000000E-03 0. -1.
    9900012    2    1    2    0    0 -0.44221187365E+01 -0.52511849990E+01  0.31138281468E+02  0.59301911328E+02  0.49999940363E+02 0.  0.
         12    1    1    2    0    0  0.44221187365E+01  0.52511849990E+01 -0.31138281468E+02  0.31886088672E+02  0.00000000000E+00 0. -1.
         11    1    3    3    0    0 -0.94311952964E+01  0.27594662447E+01  0.20407410242E+01  0.10036270366E+02  0.51100000000E-03 0. -1.
        -11    1    3    3    0    0 -0.15881997231E+02  0.29438074055E+01  0.12453322700E+02  0.20395810468E+02  0.51100000000E-03 0.  1.
        -12    1    3    3    0    0  0.20891073791E+02 -0.10954458649E+02  0.16644217744E+02  0.28869830494E+02  0.00000000000E+00 0.  1.
</event>
<event>
 7    1  0.3461631E-013  0.5930195E+02  0.7816164E-02  0.1266605E+00
        -11   -1    0    0    0    0  0.00000000000E+00  0.00000000000E+00  0.45593999997E+02  0.45594000000E+02  0.51100000000E-03 0.  1.
         11   -1    0    0    0    0 -0.00000000000E+00 -0.00000000000E+00 -0.45593999997E+02  0.45594000000E+02  0.51100000000E-03 0. -1.
    9900012    2    1    2    0    0 -0.33111144115E+01 -0.17701747515E+02  0.26313589825E+02  0.59301947356E+02  0.50000006070E+02 0.  0.
         12    1    1    2    0    0  0.33111144115E+01  0.17701747515E+02 -0.26313589825E+02  0.31886052644E+02  0.00000000000E+00 0. -1.
         11    1    3    3    0    0 -0.10567476079E+01 -0.26255766984E+02  0.34033717087E+01  0.26496508349E+02  0.51100000000E-03 0. -1.
        -11    1    3    3    0    0 -0.27029993619E+01 -0.66210907546E+01  0.12487187641E+02  0.14390097421E+02  0.51100000000E-03 0.  1.
        -12    1    3    3    0    0  0.44863255838E+00  0.15175110223E+02  0.10423030475E+02  0.18415341587E+02  0.00000000000E+00 0.  1.
</event>
<event>
 7    1  0.3461631E-013  0.5930193E+02  0.7816164E-02  0.1266605E+00
        -11   -1    0    0    0    0  0.00000000000E+00  0.00000000000E+00  0.45593999997E+02  0.45594000000E+02  0.51100000000E-03 0. -1.
         11   -1    0    0    0    0 -0.00000000000E+00 -0.00000000000E+00 -0.45593999997E+02  0.45594000000E+02  0.51100000000E-03 0.  1.
    9900012    2    1    2    0    0 -0.14978818241E+02 -0.24676653848E+02 -0.13543242365E+02  0.59301926947E+02  0.49999968848E+02 0.  0.
         12    1    1    2    0    0  0.14978818241E+02  0.24676653848E+02  0.13543242365E+02  0.31886073053E+02  0.00000000000E+00 0. -1.
         11    1    3    3    0    0  0.38011696527E+01 -0.26529101492E+02 -0.42395614877E+01  0.27133300547E+02  0.51100000000E-03 0. -1.
        -11    1    3    3    0    0  0.13318534503E+01 -0.69829600661E+01  0.21073215735E+01  0.74146051394E+01  0.51100000000E-03 0.  1.
         12    1    3    3    0    0 -0.20111841344E+02  0.88354077101E+01 -0.11411002450E+02  0.24754021261E+02  0.00000000000E+00 0. -1.
</event>
<event>
 7    1  0.3461631E-013  0.5930195E+02  0.7816164E-02  0.1266605E+00
        -11   -1    0    0    0    0  0.00000000000E+00  0.00000000000E+00  0.45593999997E+02  0.45594000000E+02  0.51100000000E-03 0.  1.
         11   -1    0    0    0    0 -0.00000000000E+00 -0.00000000000E+00 -0.45593999997E+02  0.45594000000E+02  0.51100000000E-03 0. -1.
    9900012    2    1    2    0    0  0.11224850259E+02  0.28625831076E+02  0.84430117347E+01  0.59301954223E+02  0.50000018594E+02 0.  0.
         12    1    1    2    0    0 -0.11224850259E+02 -0.28625831076E+02 -0.84430117347E+01  0.31886045777E+02  0.00000000000E+00 0. -1.
         11    1    3    3    0    0  0.14703552067E+01 -0.52182022541E+01  0.77286276102E+00  0.54762118574E+01  0.51100000000E-03 0. -1.
        -11    1    3    3    0    0  0.17002302120E+02  0.10626349251E+02 -0.11268407130E+02  0.22999447283E+02  0.51100000000E-03 0.  1.
        -12    1    3    3    0    0 -0.72478070681E+01  0.23217684078E+02  0.18938556104E+02  0.30826295083E+02  0.00000000000E+00 0.  1.
</event>
<event>
 7    1  0.3461631E-013  0.5930195E+02  0.7816164E-02  0.1266605E+00
        -11   -1    0    0    0    0  0.00000000000E+00  0.00000000000E+00  0.45593999997E+02  0.45594000000E+02  0.51100000000E-03 0.  1.
         11   -1    0    0    0    0 -0.00000000000E+00 -0.00000000000E+00 -0.45593999997E+02  0.45594000000E+02  0.51100000000E-03 0. -1.
    9900012    2    1    2    0    0  0.18381678255E+02 -0.13219445743E+02  0.22451730667E+02  0.59301952093E+02  0.50000014708E+02 0.  0.
         12    1    1    2    0    0 -0.18381678255E+02  0.13219445743E+02 -0.22451730667E+02  0.31886047907E+02  0.00000000000E+00 0. -1.
         11    1    3    3    0    0  0.15326259979E+02  0.78853053295E+01 -0.41536354953E+01  0.17729212424E+02  0.51100000000E-03 0. -1.
        -11    1    3    3    0    0  0.22361674867E+01 -0.19595738793E+02  0.56072043954E+01  0.20504491344E+02  0.51100000000E-03 0.  1.
         12    1    3    3    0    0  0.81925078920E+00 -0.15090122801E+01  0.20998161767E+02  0.21068248325E+02  0.00000000000E+00 0. -1.
</event>
<event>
 7    1  0.3461631E-013  0.5930192E+02  0.7816164E-02  0.1266605E+00
        -11   -1    0    0    0    0  0.00000000000E+00  0.00000000000E+00  0.45593999997E+02  0.45594000000E+02  0.51100000000E-03 0.  1.
         11   -1    0    0    0    0 -0.00000000000E+00 -0.00000000000E+00 -0.45593999997E+02  0.45594000000E+02  0.51100000000E-03 0. -1.
    9900012    2    1    2    0    0 -0.14326916183E+02 -0.54653916878E+00  0.28480925197E+02  0.59301916320E+02  0.49999949468E+02 0.  0.
         12    1    1    2    0    0  0.14326916183E+02  0.54653916878E+00 -0.28480925197E+02  0.31886083680E+02  0.00000000000E+00 0. -1.
         11    1    3    3    0    0 -0.49373809667E+01 -0.36304534203E+01 -0.56948031686E+01  0.83659253067E+01  0.51100000000E-03 0. -1.
        -11    1    3    3    0    0 -0.39441705424E+01 -0.21088223108E+01 -0.74207964055E+01  0.86644002885E+01  0.51100000000E-03 0.  1.
        -12    1    3    3    0    0 -0.54453646735E+01  0.51927365623E+01  0.41596524771E+02  0.42271590725E+02  0.00000000000E+00 0.  1.
</event>
<event>
 7    1  0.3461631E-013  0.5930194E+02  0.7816164E-02  0.1266605E+00
        -11   -1    0    0    0    0  0.00000000000E+00  0.00000000000E+00  0.45593999997E+02  0.45594000000E+02  0.51100000000E-03 0.  1.
         11   -1    0    0    0    0 -0.00000000000E+00 -0.00000000000E+00 -0.45593999997E+02  0.45594000000E+02  0.51100000000E-03 0. -1.
    9900012    2    1    2    0    0 -0.20375739840E+02 -0.21718981090E+02  0.11394558312E+02  0.59301939210E+02  0.49999991213E+02 0.  0.
         12    1    1    2    0    0  0.20375739840E+02  0.21718981090E+02 -0.11394558312E+02  0.31886060790E+02  0.00000000000E+00 0. -1.
         11    1    3    3    0    0 -0.32077610674E+02 -0.25648209366E+02  0.18006596490E+02  0.44844634770E+02  0.51100000000E-03 0.  1.
        -11    1    3    3    0    0  0.24244014568E+01  0.22741980730E+01 -0.25762599835E+01  0.42055695289E+01  0.51100000000E-03 0. -1.
        -12    1    3    3    0    0  0.92774693780E+01  0.16550302030E+01 -0.40357781952E+01  0.10251734910E+02  0.00000000000E+00 0.  1.
</event>
<event>
 7    1  0.3461631E-013  0.5930195E+02  0.7816164E-02  0.1266605E+00
        -11   -1    0    0    0    0  0.00000000000E+00  0.00000000000E+00  0.45593999997E+02  0.45594000000E+02  0.51100000000E-03 0.  1.
         11   -1    0    0    0    0 -0.00000000000E+00 -0.00000000000E+00 -0.45593999997E+02  0.45594000000E+02  0.51100000000E-03 0. -1.
    9900012    2    1    2    0    0 -0.30824695960E+01 -0.29435484333E-01  0.31736693339E+02  0.59301949925E+02  0.50000010756E+02 0.  0.
         12    1    1    2    0    0  0.30824695960E+01  0.29435484333E-01 -0.31736693339E+02  0.31886050075E+02  0.00000000000E+00 0. -1.
         11    1    3    3    0    0 -0.74972171777E+01 -0.91222765937E+01  0.26254888641E+00  0.11810720886E+02  0.51100000000E-03 0. -1.
        -11    1    3    3    0    0 -0.31127185494E+01 -0.11621825145E+02  0.18025980482E+02  0.21672374329E+02  0.51100000000E-03 0.  1.
         12    1    3    3    0    0  0.75274661310E+01  0.20714666254E+02  0.13448163971E+02  0.25818854710E+02  0.00000000000E+00 0. -1.
</event>
<event>
 7    1  0.3461631E-013  0.5930193E+02  0.7816164E-02  0.1266605E+00
        -11   -1    0    0    0    0  0.00000000000E+00  0.00000000000E+00  0.45593999997E+02  0.45594000000E+02  0.51100000000E-03 0. -1.
         11   -1    0    0    0    0 -0.00000000000E+00 -0.00000000000E+00 -0.45593999997E+02  0.45594000000E+02  0.51100000000E-03 0.  1.
    9900012    2    1    2    0    0  0.20351735608E+02 -0.40185819356E+01 -0.24215267256E+02  0.59301932332E+02  0.49999978670E+02 0.  0.
         12    1    1    2    0    0 -0.20351735608E+02  0.40185819356E+01  0.24215267256E+02  0.31886067668E+02  0.00000000000E+00 0. -1.
         11    1    3    3    0    0 -0.46911462468E+01  0.28892264037E+01  0.35650249319E+01  0.65623079284E+01  0.51100000000E-03 0. -1.
        -11    1    3    3    0    0  0.28446555239E+02 -0.22247464020E+01 -0.46673106305E+01  0.28912623373E+02  0.51100000000E-03 0.  1.
         12    1    3    3    0    0 -0.34036733846E+01 -0.46830619373E+01 -0.23112981558E+02  0.23827001031E+02  0.00000000000E+00 0. -1.
</event>
<event>
 7    1  0.3461631E-013  0.5930192E+02  0.7816164E-02  0.1266605E+00
        -11   -1    0    0    0    0  0.00000000000E+00  0.00000000000E+00  0.45593999997E+02  0.45594000000E+02  0.51100000000E-03 0.  1.
         11   -1    0    0    0    0 -0.00000000000E+00 -0.00000000000E+00 -0.45593999997E+02  0.45594000000E+02  0.51100000000E-03 0. -1.
    9900012    2    1    2    0    0 -0.22768077203E+02  0.17782716870E+02  0.13494884182E+02  0.59301917490E+02  0.49999951601E+02 0.  0.
         12    1    1    2    0    0  0.22768077203E+02 -0.17782716870E+02 -0.13494884182E+02  0.31886082510E+02  0.00000000000E+00 0. -1.
         11    1    3    3    0    0 -0.29607881987E+02  0.25603414454E+01  0.10756626681E+02  0.31605174289E+02  0.51100000000E-03 0. -1.
        -11    1    3    3    0    0 -0.16253611506E+01  0.20054277466E+01  0.10053986244E+02  0.10380085692E+02  0.51100000000E-03 0.  1.
        -12    1    3    3    0    0  0.84651659344E+01  0.13216947678E+02 -0.73157287433E+01  0.17316657508E+02  0.00000000000E+00 0.  1.
</event>
<event>
 7    1  0.3461631E-013  0.5930205E+02  0.7816164E-02  0.1266604E+00
        -11   -1    0    0    0    0  0.00000000000E+00  0.00000000000E+00  0.45593999997E+02  0.45594000000E+02  0.51100000000E-03 0.  1.
         11   -1    0    0    0    0 -0.00000000000E+00 -0.00000000000E+00 -0.45593999997E+02  0.45594000000E+02  0.51100000000E-03 0. -1.
    9900012    2    1    2    0    0  0.17169143447E+02  0.10459055894E+02  0.24749600619E+02  0.59302045919E+02  0.50000185824E+02 0.  0.
         12    1    1    2    0    0 -0.17169143447E+02 -0.10459055894E+02 -0.24749600619E+02  0.31885954081E+02  0.00000000000E+00 0. -1.
         11    1    3    3    0    0  0.97283557343E+01  0.20135396206E+02  0.25306162198E+02  0.33770948034E+02  0.51100000000E-03 0. -1.
        -11    1    3    3    0    0 -0.58877007980E+01  0.13704824238E+01 -0.47863618339E+01  0.77105448982E+01  0.51100000000E-03 0.  1.
        -12    1    3    3    0    0  0.13328488510E+02 -0.11046822736E+02  0.42298002551E+01  0.17820552986E+02  0.00000000000E+00 0.  1.
</event>
<event>
 7    1  0.3461631E-013  0.5930194E+02  0.7816164E-02  0.1266605E+00
        -11   -1    0    0    0    0  0.00000000000E+00  0.00000000000E+00  0.45593999997E+02  0.45594000000E+02  0.51100000000E-03 0.  1.
         11   -1    0    0    0    0 -0.00000000000E+00 -0.00000000000E+00 -0.45593999997E+02  0.45594000000E+02  0.51100000000E-03 0. -1.
    9900012    2    1    2    0    0  0.21387421602E+02 -0.21429829161E+02 -0.10003072170E+02  0.59301939825E+02  0.49999992335E+02 0.  0.
         12    1    1    2    0    0 -0.21387421602E+02  0.21429829161E+02  0.10003072170E+02  0.31886060175E+02  0.00000000000E+00 0. -1.
         11    1    3    3    0    0  0.24774348117E+01  0.18320459273E+01  0.58800582409E+01  0.66384607180E+01  0.51100000000E-03 0. -1.
        -11    1    3    3    0    0  0.27072739500E+02 -0.19642822142E+02 -0.23539872067E+02  0.40901091219E+02  0.51100000000E-03 0.  1.
         12    1    3    3    0    0 -0.81627527096E+01 -0.36190529469E+01  0.76567416561E+01  0.11762387888E+02  0.00000000000E+00 0. -1.
</event>
<event>
 7    1  0.3461631E-013  0.5930195E+02  0.7816164E-02  0.1266605E+00
        -11   -1    0    0    0    0  0.00000000000E+00  0.00000000000E+00  0.45593999997E+02  0.45594000000E+02  0.51100000000E-03 0.  1.
         11   -1    0    0    0    0 -0.00000000000E+00 -0.00000000000E+00 -0.45593999997E+02  0.45594000000E+02  0.51100000000E-03 0. -1.
    9900012    2    1    2    0    0  0.88495373904E+01 -0.12258932347E+02  0.28073550292E+02  0.59301953517E+02  0.50000017307E+02 0.  0.
         12    1    1    2    0    0 -0.88495373904E+01  0.12258932347E+02 -0.28073550292E+02  0.31886046483E+02  0.00000000000E+00 0. -1.
         11    1    3    3    0    0  0.66660942806E+01 -0.48328771081E+01 -0.77158569146E+00  0.82697556699E+01  0.51100000000E-03 0. -1.
        -11    1    3    3    0    0  0.13768449029E+02  0.87160409833E+01  0.26384996336E+02  0.31011410658E+02  0.51100000000E-03 0.  1.
         12    1    3    3    0    0 -0.11585005919E+02 -0.16142096223E+02  0.24601396472E+01  0.20020787190E+02  0.00000000000E+00 0. -1.
</event>
<event>
 7    1  0.3461631E-013  0.5930195E+02  0.7816164E-02  0.1266605E+00
        -11   -1    0    0    0    0  0.00000000000E+00  0.00000000000E+00  0.45593999997E+02  0.45594000000E+02  0.51100000000E-03 0.  1.
         11   -1    0    0    0    0 -0.00000000000E+00 -0.00000000000E+00 -0.45593999997E+02  0.45594000000E+02  0.51100000000E-03 0. -1.
    9900012    2    1    2    0    0 -0.18920219448E+02 -0.14427362811E+02  0.21227267595E+02  0.59301946761E+02  0.50000004984E+02 0.  0.
         12    1    1    2    0    0  0.18920219448E+02  0.14427362811E+02 -0.21227267595E+02  0.31886053239E+02  0.00000000000E+00 0. -1.
         11    1    3    3    0    0 -0.19725804867E+02  0.48327751551E-01 -0.48601778354E+01  0.20315783078E+02  0.51100000000E-03 0. -1.
        -11    1    3    3    0    0 -0.12048835102E+02 -0.53529137391E+01  0.12686719491E+02  0.18297020645E+02  0.51100000000E-03 0.  1.
        -12    1    3    3    0    0  0.12854420521E+02 -0.91227768239E+01  0.13400725939E+02  0.20689143037E+02  0.00000000000E+00 0.  1.
</event>
<event>
 7    1  0.3461631E-013  0.5930195E+02  0.7816164E-02  0.1266605E+00
        -11   -1    0    0    0    0  0.00000000000E+00  0.00000000000E+00  0.45593999997E+02  0.45594000000E+02  0.51100000000E-03 0. -1.
         11   -1    0    0    0    0 -0.00000000000E+00 -0.00000000000E+00 -0.45593999997E+02  0.45594000000E+02  0.51100000000E-03 0.  1.
    9900012    2    1    2    0    0  0.30653486951E+02  0.74720183983E+01 -0.46100618080E+01  0.59301953035E+02  0.50000016427E+02 0.  0.
         12    1    1    2    0    0 -0.30653486951E+02 -0.74720183983E+01  0.46100618080E+01  0.31886046965E+02  0.00000000000E+00 0. -1.
         11    1    3    3    0    0  0.59958678099E+01  0.85374647027E+00  0.30295337463E+00  0.60639174498E+01  0.51100000000E-03 0. -1.
        -11    1    3    3    0    0  0.35451745238E+02 -0.31565697406E+01  0.45343312565E+01  0.35879664619E+02  0.51100000000E-03 0.  1.
         12    1    3    3    0    0 -0.10794126098E+02  0.97748416686E+01 -0.94473464391E+01  0.17358370966E+02  0.00000000000E+00 0. -1.
</event>
<event>
 7    1  0.3461631E-013  0.5930195E+02  0.7816164E-02  0.1266605E+00
        -11   -1    0    0    0    0  0.00000000000E+00  0.00000000000E+00  0.45593999997E+02  0.45594000000E+02  0.51100000000E-03 0.  1.
         11   -1    0    0    0    0 -0.00000000000E+00 -0.00000000000E+00 -0.45593999997E+02  0.45594000000E+02  0.51100000000E-03 0. -1.
    9900012    2    1    2    0    0 -0.16957593919E+01 -0.25158894460E+02  0.19516001956E+02  0.59301954421E+02  0.50000018954E+02 0.  0.
         12    1    1    2    0    0  0.16957593919E+01  0.25158894460E+02 -0.19516001956E+02  0.31886045579E+02  0.00000000000E+00 0. -1.
         11    1    3    3    0    0 -0.38017464687E+01 -0.98818134988E+01  0.14827238289E+02  0.18219509043E+02  0.51100000000E-03 0. -1.
        -11    1    3    3    0    0  0.65700761453E+01  0.10396707401E+02  0.82091416600E+01  0.14786731633E+02  0.51100000000E-03 0.  1.
         12    1    3    3    0    0 -0.44640890684E+01 -0.25673788362E+02 -0.35203779933E+01  0.26295713744E+02  0.00000000000E+00 0. -1.
</event>
<event>
 7    1  0.3461631E-013  0.5930194E+02  0.7816164E-02  0.1266605E+00
        -11   -1    0    0    0    0  0.00000000000E+00  0.00000000000E+00  0.45593999997E+02  0.45594000000E+02  0.51100000000E-03 0. -1.
         11   -1    0    0    0    0 -0.00000000000E+00 -0.00000000000E+00 -0.45593999997E+02  0.45594000000E+02  0.51100000000E-03 0.  1.
    9900012    2    1    2    0    0 -0.20731098081E+02  0.23775015373E+02 -0.46573806448E+01  0.59301937558E+02  0.49999988201E+02 0.  0.
         12    1    1    2    0    0  0.20731098081E+02 -0.23775015373E+02  0.46573806448E+01  0.31886062442E+02  0.00000000000E+00 0. -1.
         11    1    3    3    0    0 -0.26651339329E+02  0.12693959521E+02  0.11051375445E+02  0.31520840659E+02  0.51100000000E-03 0. -1.
        -11    1    3    3    0    0 -0.70207546466E+01  0.49714314253E+01 -0.59029834262E+01  0.10433184548E+02  0.51100000000E-03 0.  1.
         12    1    3    3    0    0  0.12940995895E+02  0.61096244264E+01 -0.98057726639E+01  0.17347912351E+02  0.00000000000E+00 0. -1.
</event>
<event>
 7    1  0.3461631E-013  0.5930195E+02  0.7816164E-02  0.1266605E+00
        -11   -1    0    0    0    0  0.00000000000E+00  0.00000000000E+00  0.45593999997E+02  0.45594000000E+02  0.51100000000E-03 0.  1.
         11   -1    0    0    0    0 -0.00000000000E+00 -0.00000000000E+00 -0.45593999997E+02  0.45594000000E+02  0.51100000000E-03 0. -1.
    9900012    2    1    2    0    0 -0.25670127201E+02 -0.13222234951E+02  0.13525425249E+02  0.59301952020E+02  0.50000014575E+02 0.  0.
         12    1    1    2    0    0  0.25670127201E+02  0.13222234951E+02 -0.13525425249E+02  0.31886047980E+02  0.00000000000E+00 0. -1.
         11    1    3    3    0    0 -0.18242825563E+02 -0.14859831376E+00 -0.11917659991E+02  0.21791130901E+02  0.51100000000E-03 0. -1.
        -11    1    3    3    0    0 -0.51133905669E+01 -0.36527791762E+01 -0.33543870132E+01  0.71233048015E+01  0.51100000000E-03 0.  1.
         12    1    3    3    0    0 -0.23139110708E+01 -0.94208574612E+01  0.28797472254E+02  0.30387516318E+02  0.00000000000E+00 0. -1.
</event>
<event>
 7    1  0.3461631E-013  0.5930195E+02  0.7816164E-02  0.1266605E+00
        -11   -1    0    0    0    0  0.00000000000E+00  0.00000000000E+00  0.45593999997E+02  0.45594000000E+02  0.51100000000E-03 0. -1.
         11   -1    0    0    0    0 -0.00000000000E+00 -0.00000000000E+00 -0.45593999997E+02  0.45594000000E+02  0.51100000000E-03 0.  1.
    9900012    2    1    2    0    0 -0.12129510034E+01 -0.14034506058E+02 -0.28605619583E+02  0.59301951607E+02  0.50000013822E+02 0.  0.
         12    1    1    2    0    0  0.12129510034E+01  0.14034506058E+02  0.28605619583E+02  0.31886048393E+02  0.00000000000E+00 0. -1.
         11    1    3    3    0    0 -0.89707193060E+01  0.24886231598E+01 -0.13779719786E+01  0.94109434773E+01  0.51100000000E-03 0. -1.
        -11    1    3    3    0    0 -0.15247233187E+02 -0.54594884243E+01 -0.12121722946E+02  0.20229194279E+02  0.51100000000E-03 0.  1.
        -12    1    3    3    0    0  0.23005001490E+02 -0.11063640793E+02 -0.15105924658E+02  0.29661813851E+02  0.00000000000E+00 0.  1.
</event>
<event>
 7    1  0.3461631E-013  0.5930195E+02  0.7816164E-02  0.1266605E+00
        -11   -1    0    0    0    0  0.00000000000E+00  0.00000000000E+00  0.45593999997E+02  0.45594000000E+02  0.51100000000E-03 0.  1.
         11   -1    0    0    0    0 -0.00000000000E+00 -0.00000000000E+00 -0.45593999997E+02  0.45594000000E+02  0.51100000000E-03 0. -1.
    9900012    2    1    2    0    0 -0.22297373807E+01  0.31493366074E+02 -0.44627920868E+01  0.59301947428E+02  0.50000006201E+02 0.  0.
         12    1    1    2    0    0  0.22297373807E+01 -0.31493366074E+02  0.44627920868E+01  0.31886052572E+02  0.00000000000E+00 0. -1.
         11    1    3    3    0    0  0.59093110726E+01 -0.54628457992E+01  0.35197441031E-02  0.80475247268E+01  0.51100000000E-03 0. -1.
        -11    1    3    3    0    0 -0.19355899468E+02  0.13868708035E+02 -0.84757295805E+01  0.25275084549E+02  0.51100000000E-03 0.  1.
         12    1    3    3    0    0  0.11216851014E+02  0.23087503837E+02  0.40094177496E+01  0.25979338152E+02  0.00000000000E+00 0. -1.
</event>
<event>
 7    1  0.3461631E-013  0.5930200E+02  0.7816164E-02  0.1266605E+00
        -11   -1    0    0    0    0  0.00000000000E+00  0.00000000000E+00  0.45593999997E+02  0.45594000000E+02  0.51100000000E-03 0. -1.
         11   -1    0    0    0    0 -0.00000000000E+00 -0.00000000000E+00 -0.45593999997E+02  0.45594000000E+02  0.51100000000E-03 0.  1.
    9900012    2    1    2    0    0 -0.26735824905E+02  0.17239762048E+02 -0.21686492508E+01  0.59302003569E+02  0.50000108589E+02 0.  0.
         12    1    1    2    0    0  0.26735824905E+02 -0.17239762048E+02  0.21686492508E+01  0.31885996431E+02  0.00000000000E+00 0. -1.
         11    1    3    3    0    0 -0.22024264732E+02  0.23918588522E+01  0.74986499084E+01  0.23388436811E+02  0.51100000000E-03 0. -1.
        -11    1    3    3    0    0 -0.16700460229E+02  0.29150142913E+01 -0.84828828583E+01  0.18956845256E+02  0.51100000000E-03 0.  1.
         12    1    3    3    0    0  0.11988900056E+02  0.11932888904E+02 -0.11844163009E+01  0.16956721503E+02  0.00000000000E+00 0. -1.
</event>
<event>
 7    1  0.3461631E-013  0.5930183E+02  0.7816164E-02  0.1266605E+00
        -11   -1    0    0    0    0  0.00000000000E+00  0.00000000000E+00  0.45593999997E+02  0.45594000000E+02  0.51100000000E-03 0.  1.
         11   -1    0    0    0    0 -0.00000000000E+00 -0.00000000000E+00 -0.45593999997E+02  0.45594000000E+02  0.51100000000E-03 0. -1.
    9900012    2    1    2    0    0 -0.44221530588E+01 -0.30979667221E+01  0.31425701200E+02  0.59301834796E+02  0.49999800787E+02 0.  0.
         12    1    1    2    0    0  0.44221530588E+01  0.30979667221E+01 -0.31425701200E+02  0.31886165204E+02  0.00000000000E+00 0. -1.
         11    1    3    3    0    0  0.16373468943E+02 -0.14625474339E+02  0.14296279460E+02  0.26198828056E+02  0.51100000000E-03 0. -1.
        -11    1    3    3    0    0  0.22523749055E+00  0.26042072003E+01  0.81597371886E+01  0.85681934104E+01  0.51100000000E-03 0.  1.
         12    1    3    3    0    0 -0.21020859493E+02  0.89233004163E+01  0.89696845518E+01  0.24534813329E+02  0.00000000000E+00 0. -1.
</event>
<event>
 7    1  0.3461631E-013  0.5930199E+02  0.7816164E-02  0.1266605E+00
        -11   -1    0    0    0    0  0.00000000000E+00  0.00000000000E+00  0.45593999997E+02  0.45594000000E+02  0.51100000000E-03 0.  1.
         11   -1    0    0    0    0 -0.00000000000E+00 -0.00000000000E+00 -0.45593999997E+02  0.45594000000E+02  0.51100000000E-03 0. -1.
    9900012    2    1    2    0    0  0.26519457946E+02  0.17699108274E+02 -0.42124787319E+00  0.59301991576E+02  0.50000086717E+02 0.  0.
         12    1    1    2    0    0 -0.26519457946E+02 -0.17699108274E+02  0.42124787319E+00  0.31886008424E+02  0.00000000000E+00 0. -1.
         11    1    3    3    0    0 -0.74186487030E+00  0.89526738013E+01  0.31504230048E+01  0.95197634975E+01  0.51100000000E-03 0.  1.
        -11    1    3    3    0    0 -0.70683179795E+01  0.57896624329E+01  0.92646959960E+01  0.13012144416E+02  0.51100000000E-03 0. -1.
         12    1    3    3    0    0  0.34329640795E+02  0.29567720398E+01 -0.12836366874E+02  0.36770083663E+02  0.00000000000E+00 0. -1.
</event>
<event>
 7    1  0.3461631E-013  0.5930191E+02  0.7816164E-02  0.1266605E+00
        -11   -1    0    0    0    0  0.00000000000E+00  0.00000000000E+00  0.45593999997E+02  0.45594000000E+02  0.51100000000E-03 0.  1.
         11   -1    0    0    0    0 -0.00000000000E+00 -0.00000000000E+00 -0.45593999997E+02  0.45594000000E+02  0.51100000000E-03 0. -1.
    9900012    2    1    2    0    0  0.21056717250E+01  0.91148248593E+01  0.30482922821E+02  0.59301914173E+02  0.49999945553E+02 0.  0.
         12    1    1    2    0    0 -0.21056717250E+01 -0.91148248593E+01 -0.30482922821E+02  0.31886085827E+02  0.00000000000E+00 0. -1.
         11    1    3    3    0    0  0.10403870692E+01  0.38955569775E+01  0.85600838870E+01  0.94621776475E+01  0.51100000000E-03 0.  1.
        -11    1    3    3    0    0  0.22329844552E+02  0.62805486420E+01  0.86849329210E+01  0.24768837459E+02  0.51100000000E-03 0. -1.
         12    1    3    3    0    0 -0.21264559896E+02 -0.10612807601E+01  0.13237906013E+02  0.25070899067E+02  0.00000000000E+00 0. -1.
</event>
<event>
 7    1  0.3461631E-013  0.5930192E+02  0.7816164E-02  0.1266605E+00
        -11   -1    0    0    0    0  0.00000000000E+00  0.00000000000E+00  0.45593999997E+02  0.45594000000E+02  0.51100000000E-03 0.  1.
         11   -1    0    0    0    0 -0.00000000000E+00 -0.00000000000E+00 -0.45593999997E+02  0.45594000000E+02  0.51100000000E-03 0. -1.
    9900012    2    1    2    0    0 -0.74275345608E+01  0.17760018810E+02  0.25419201718E+02  0.59301915986E+02  0.49999948859E+02 0.  0.
         12    1    1    2    0    0  0.74275345608E+01 -0.17760018810E+02 -0.25419201718E+02  0.31886084014E+02  0.00000000000E+00 0. -1.
         11    1    3    3    0    0  0.13967764234E+00  0.15189103255E+02  0.16046526002E+02  0.22095686560E+02  0.51100000000E-03 0. -1.
        -11    1    3    3    0    0  0.94430002861E+01  0.98448670570E+01 -0.41861281123E+01  0.14269384381E+02  0.51100000000E-03 0.  1.
         12    1    3    3    0    0 -0.17010212489E+02 -0.72739515027E+01  0.13558803828E+02  0.22936845046E+02  0.00000000000E+00 0. -1.
</event>
<event>
 7    1  0.3461631E-013  0.5930182E+02  0.7816164E-02  0.1266605E+00
        -11   -1    0    0    0    0  0.00000000000E+00  0.00000000000E+00  0.45593999997E+02  0.45594000000E+02  0.51100000000E-03 0.  1.
         11   -1    0    0    0    0 -0.00000000000E+00 -0.00000000000E+00 -0.45593999997E+02  0.45594000000E+02  0.51100000000E-03 0. -1.
    9900012    2    1    2    0    0  0.14446162540E+02 -0.14624163170E+02  0.24375614433E+02  0.59301822124E+02  0.49999777677E+02 0.  0.
         12    1    1    2    0    0 -0.14446162540E+02  0.14624163170E+02 -0.24375614433E+02  0.31886177876E+02  0.00000000000E+00 0. -1.
         11    1    3    3    0    0  0.12042638510E+02 -0.66597174813E+01 -0.71656419879E+01  0.15515263600E+02  0.51100000000E-03 0. -1.
        -11    1    3    3    0    0 -0.53211980508E+01  0.96682163301E+01  0.99421527252E+01  0.14853819602E+02  0.51100000000E-03 0.  1.
        -12    1    3    3    0    0  0.77247220808E+01 -0.17632662019E+02  0.21599103695E+02  0.28932738922E+02  0.00000000000E+00 0.  1.
</event>
<event>
 7    1  0.3461631E-013  0.5930196E+02  0.7816164E-02  0.1266605E+00
        -11   -1    0    0    0    0  0.00000000000E+00  0.00000000000E+00  0.45593999997E+02  0.45594000000E+02  0.51100000000E-03 0.  1.
         11   -1    0    0    0    0 -0.00000000000E+00 -0.00000000000E+00 -0.45593999997E+02  0.45594000000E+02  0.51100000000E-03 0. -1.
    9900012    2    1    2    0    0  0.41046506593E+01 -0.13162820813E+02  0.28750851517E+02  0.59301961178E+02  0.50000031279E+02 0.  0.
         12    1    1    2    0    0 -0.41046506593E+01  0.13162820813E+02 -0.28750851517E+02  0.31886038822E+02  0.00000000000E+00 0. -1.
         11    1    3    3    0    0 -0.73912956879E+01  0.16188328367E+01  0.11025820482E+00  0.75672999698E+01  0.51100000000E-03 0.  1.
        -11    1    3    3    0    0 -0.81967922723E+01  0.56769817686E+01 -0.17708652993E+01  0.10126770943E+02  0.51100000000E-03 0. -1.
        -12    1    3    3    0    0  0.19692738620E+02 -0.20458635419E+02  0.30411458611E+02  0.41607890266E+02  0.00000000000E+00 0.  1.
</event>
<event>
 7    1  0.3461631E-013  0.5930192E+02  0.7816164E-02  0.1266605E+00
        -11   -1    0    0    0    0  0.00000000000E+00  0.00000000000E+00  0.45593999997E+02  0.45594000000E+02  0.51100000000E-03 0.  1.
         11   -1    0    0    0    0 -0.00000000000E+00 -0.00000000000E+00 -0.45593999997E+02  0.45594000000E+02  0.51100000000E-03 0. -1.
    9900012    2    1    2    0    0  0.92945141505E+01 -0.26111595952E+02  0.15764475780E+02  0.59301919446E+02  0.49999955169E+02 0.  0.
         12    1    1    2    0    0 -0.92945141505E+01  0.26111595952E+02 -0.15764475780E+02  0.31886080554E+02  0.00000000000E+00 0. -1.
         11    1    3    3    0    0  0.72433435119E+01 -0.23626307183E+02  0.27329587635E+01  0.24862370768E+02  0.51100000000E-03 0. -1.
        -11    1    3    3    0    0  0.11479732081E+01 -0.17098866090E+02  0.56653183294E+01  0.18049512351E+02  0.51100000000E-03 0.  1.
         12    1    3    3    0    0  0.90319743053E+00  0.14613577321E+02  0.73661986873E+01  0.16390036327E+02  0.00000000000E+00 0. -1.
</event>
<event>
 7    1  0.3461631E-013  0.5930209E+02  0.7816164E-02  0.1266604E+00
        -11   -1    0    0    0    0  0.00000000000E+00  0.00000000000E+00  0.45593999997E+02  0.45594000000E+02  0.51100000000E-03 0.  1.
         11   -1    0    0    0    0 -0.00000000000E+00 -0.00000000000E+00 -0.45593999997E+02  0.45594000000E+02  0.51100000000E-03 0. -1.
    9900012    2    1    2    0    0  0.27014694674E+02  0.40662773049E+01  0.16443325177E+02  0.59302089596E+02  0.50000265480E+02 0.  0.
         12    1    1    2    0    0 -0.27014694674E+02 -0.40662773049E+01 -0.16443325177E+02  0.31885910404E+02  0.00000000000E+00 0. -1.
         11    1    3    3    0    0  0.36471529207E+02 -0.55883351278E+01  0.14137802930E+02  0.39513028284E+02  0.51100000000E-03 0.  1.
        -11    1    3    3    0    0 -0.86464154220E+01  0.46184603846E+00 -0.29763465749E+01  0.91560057126E+01  0.51100000000E-03 0. -1.
        -12    1    3    3    0    0 -0.81041911165E+00  0.91927663942E+01  0.52818688226E+01  0.10633055599E+02  0.00000000000E+00 0.  1.
</event>
<event>
 7    1  0.3461631E-013  0.5930195E+02  0.7816164E-02  0.1266605E+00
        -11   -1    0    0    0    0  0.00000000000E+00  0.00000000000E+00  0.45593999997E+02  0.45594000000E+02  0.51100000000E-03 0.  1.
         11   -1    0    0    0    0 -0.00000000000E+00 -0.00000000000E+00 -0.45593999997E+02  0.45594000000E+02  0.51100000000E-03 0. -1.
    9900012    2    1    2    0    0 -0.30411409811E+02 -0.33846516536E+01  0.89671755903E+01  0.59301953654E+02  0.50000017557E+02 0.  0.
         12    1    1    2    0    0  0.30411409811E+02  0.33846516536E+01 -0.89671755903E+01  0.31886046346E+02  0.00000000000E+00 0. -1.
         11    1    3    3    0    0  0.34451081615E+01 -0.98124793680E+01 -0.71747295582E+01  0.12634487171E+02  0.51100000000E-03 0. -1.
        -11    1    3    3    0    0 -0.28994190539E+02 -0.86088601611E-01  0.45299922841E+00  0.28997856900E+02  0.51100000000E-03 0.  1.
         12    1    3    3    0    0 -0.48623274333E+01  0.65139163159E+01  0.15688905920E+02  0.17669609583E+02  0.00000000000E+00 0. -1.
</event>
<event>
 7    1  0.3461631E-013  0.5930197E+02  0.7816164E-02  0.1266605E+00
        -11   -1    0    0    0    0  0.00000000000E+00  0.00000000000E+00  0.45593999997E+02  0.45594000000E+02  0.51100000000E-03 0. -1.
         11   -1    0    0    0    0 -0.00000000000E+00 -0.00000000000E+00 -0.45593999997E+02  0.45594000000E+02  0.51100000000E-03 0.  1.
    9900012    2    1    2    0    0  0.29749389659E+02  0.23044271329E+01  0.11241987876E+02  0.59301970757E+02  0.50000048748E+02 0.  0.
         12    1    1    2    0    0 -0.29749389659E+02 -0.23044271329E+01 -0.11241987876E+02  0.31886029243E+02  0.00000000000E+00 0. -1.
         11    1    3    3    0    0  0.26438259691E+02  0.31983827677E+00  0.18463693703E+02  0.32248904748E+02  0.51100000000E-03 0. -1.
        -11    1    3    3    0    0 -0.41012693092E+01  0.99757878845E+01  0.39108294816E+01  0.11473070267E+02  0.51100000000E-03 0.  1.
         12    1    3    3    0    0  0.74123992766E+01 -0.79911990283E+01 -0.11132535308E+02  0.15579995742E+02  0.00000000000E+00 0. -1.
</event>
<event>
 7    1  0.4741840E-013  0.5930199E+02  0.7816164E-02  0.1266605E+00
        -11   -1    0    0    0    0  0.00000000000E+00  0.00000000000E+00  0.45593999997E+02  0.45594000000E+02  0.51100000000E-03 0. -1.
         11   -1    0    0    0    0 -0.00000000000E+00 -0.00000000000E+00 -0.45593999997E+02  0.45594000000E+02  0.51100000000E-03 0.  1.
    9900012    2    1    2    0    0  0.87895366083E+00  0.19476838057E+02 -0.25230886612E+02  0.59301993360E+02  0.50000089970E+02 0.  0.
         12    1    1    2    0    0 -0.87895366083E+00 -0.19476838057E+02  0.25230886612E+02  0.31886006640E+02  0.00000000000E+00 0. -1.
         11    1    3    3    0    0 -0.59280565918E+01  0.62912513787E+01 -0.17448810299E+01  0.88185207906E+01  0.51100000000E-03 0. -1.
        -11    1    3    3    0    0 -0.13045234834E+02  0.18630307970E+02 -0.18462938283E+02  0.29294139640E+02  0.51100000000E-03 0.  1.
         12    1    3    3    0    0  0.19852245086E+02 -0.54447212924E+01 -0.50230672995E+01  0.21189332930E+02  0.00000000000E+00 0. -1.
</event>
<event>
 7    1  0.3461631E-013  0.5930195E+02  0.7816164E-02  0.1266605E+00
        -11   -1    0    0    0    0  0.00000000000E+00  0.00000000000E+00  0.45593999997E+02  0.45594000000E+02  0.51100000000E-03 0. -1.
         11   -1    0    0    0    0 -0.00000000000E+00 -0.00000000000E+00 -0.45593999997E+02  0.45594000000E+02  0.51100000000E-03 0.  1.
    9900012    2    1    2    0    0 -0.26367192674E+02  0.15021072912E+02  0.97907482009E+01  0.59301949268E+02  0.50000009557E+02 0.  0.
         12    1    1    2    0    0  0.26367192674E+02 -0.15021072912E+02 -0.97907482009E+01  0.31886050732E+02  0.00000000000E+00 0. -1.
         11    1    3    3    0    0  0.70034459088E+00  0.21911920880E+02  0.18259764553E+02  0.28531417087E+02  0.51100000000E-03 0. -1.
        -11    1    3    3    0    0 -0.10468535952E+02 -0.88664362839E+00  0.13162436852E+01  0.10588148073E+02  0.51100000000E-03 0.  1.
        -12    1    3    3    0    0 -0.16599001312E+02 -0.60042043387E+01 -0.97852600375E+01  0.20182384109E+02  0.00000000000E+00 0.  1.
</event>
<event>
 7    1  0.3461631E-013  0.5930194E+02  0.7816164E-02  0.1266605E+00
        -11   -1    0    0    0    0  0.00000000000E+00  0.00000000000E+00  0.45593999997E+02  0.45594000000E+02  0.51100000000E-03 0.  1.
         11   -1    0    0    0    0 -0.00000000000E+00 -0.00000000000E+00 -0.45593999997E+02  0.45594000000E+02  0.51100000000E-03 0. -1.
    9900012    2    1    2    0    0  0.64221532705E+01 -0.20161268321E+02  0.23853717322E+02  0.59301943125E+02  0.49999998354E+02 0.  0.
         12    1    1    2    0    0 -0.64221532705E+01  0.20161268321E+02 -0.23853717322E+02  0.31886056875E+02  0.00000000000E+00 0. -1.
         11    1    3    3    0    0  0.17687972697E+02 -0.65374396177E+01  0.16486201051E+02  0.25047900515E+02  0.51100000000E-03 0. -1.
        -11    1    3    3    0    0  0.75251996373E+01 -0.12363480410E+02  0.16235352590E+01  0.14564344971E+02  0.51100000000E-03 0.  1.
         12    1    3    3    0    0 -0.18791019064E+02 -0.12603482937E+01  0.57439810119E+01  0.19689697640E+02  0.00000000000E+00 0. -1.
</event>
<event>
 7    1  0.3461631E-013  0.5930193E+02  0.7816164E-02  0.1266605E+00
        -11   -1    0    0    0    0  0.00000000000E+00  0.00000000000E+00  0.45593999997E+02  0.45594000000E+02  0.51100000000E-03 0.  1.
         11   -1    0    0    0    0 -0.00000000000E+00 -0.00000000000E+00 -0.45593999997E+02  0.45594000000E+02  0.51100000000E-03 0. -1.
    9900012    2    1    2    0    0  0.85133364704E+01  0.15944900507E+01  0.30687169522E+02  0.59301926713E+02  0.49999968422E+02 0.  0.
         12    1    1    2    0    0 -0.85133364704E+01 -0.15944900507E+01 -0.30687169522E+02  0.31886073287E+02  0.00000000000E+00 0. -1.
         11    1    3    3    0    0  0.12293172153E+02  0.11317151956E+02  0.13769077265E+02  0.21651501078E+02  0.51100000000E-03 0. -1.
        -11    1    3    3    0    0 -0.12214549982E+02 -0.25648152672E+01  0.22141362661E+02  0.25416794632E+02  0.51100000000E-03 0.  1.
         12    1    3    3    0    0  0.84347142995E+01 -0.71578466380E+01 -0.52232704030E+01  0.12233631003E+02  0.00000000000E+00 0. -1.
</event>
<event>
 7    1  0.3461631E-013  0.5930170E+02  0.7816164E-02  0.1266606E+00
        -11   -1    0    0    0    0  0.00000000000E+00  0.00000000000E+00  0.45593999997E+02  0.45594000000E+02  0.51100000000E-03 0. -1.
         11   -1    0    0    0    0 -0.00000000000E+00 -0.00000000000E+00 -0.45593999997E+02  0.45594000000E+02  0.51100000000E-03 0.  1.
    9900012    2    1    2    0    0  0.10330902343E+02  0.26854082104E+02 -0.13742883635E+02  0.59301700129E+02  0.49999555185E+02 0.  0.
         12    1    1    2    0    0 -0.10330902343E+02 -0.26854082104E+02  0.13742883635E+02  0.31886299871E+02  0.00000000000E+00 0. -1.
         11    1    3    3    0    0 -0.67522007643E+01  0.10787913038E+02 -0.27452038896E+01  0.13019501816E+02  0.51100000000E-03 0. -1.
        -11    1    3    3    0    0 -0.99205640642E+01 -0.37082322574E+01  0.12007075448E+01  0.10658812162E+02  0.51100000000E-03 0.  1.
        -12    1    3    3    0    0  0.27003667171E+02  0.19774401323E+02 -0.12198387291E+02  0.35623386151E+02  0.00000000000E+00 0.  1.
</event>
<event>
 7    1  0.3461631E-013  0.5930167E+02  0.7816164E-02  0.1266606E+00
        -11   -1    0    0    0    0  0.00000000000E+00  0.00000000000E+00  0.45593999997E+02  0.45594000000E+02  0.51100000000E-03 0. -1.
         11   -1    0    0    0    0 -0.00000000000E+00 -0.00000000000E+00 -0.45593999997E+02  0.45594000000E+02  0.51100000000E-03 0.  1.
    9900012    2    1    2    0    0  0.52594924333E+01 -0.30433232776E+02 -0.79305664460E+01  0.59301673746E+02  0.49999507068E+02 0.  0.
         12    1    1    2    0    0 -0.52594924333E+01  0.30433232776E+02  0.79305664460E+01  0.31886326254E+02  0.00000000000E+00 0. -1.
         11    1    3    3    0    0  0.41948097573E+01  0.98677081894E+01  0.36593119102E+01  0.11329547993E+02  0.51100000000E-03 0. -1.
        -11    1    3    3    0    0  0.11291870511E+02 -0.15267015449E+02 -0.12841827233E+01  0.19032530727E+02  0.51100000000E-03 0.  1.
        -12    1    3    3    0    0 -0.10227187835E+02 -0.25033925516E+02 -0.10305695633E+02  0.28939595025E+02  0.00000000000E+00 0.  1.
</event>
<event>
 7    1  0.3461631E-013  0.5930195E+02  0.7816164E-02  0.1266605E+00
        -11   -1    0    0    0    0  0.00000000000E+00  0.00000000000E+00  0.45593999997E+02  0.45594000000E+02  0.51100000000E-03 0.  1.
         11   -1    0    0    0    0 -0.00000000000E+00 -0.00000000000E+00 -0.45593999997E+02  0.45594000000E+02  0.51100000000E-03 0. -1.
    9900012    2    1    2    0    0  0.27821458885E+01  0.72505541260E+01  0.30925871434E+02  0.59301946704E+02  0.50000004880E+02 0.  0.
         12    1    1    2    0    0 -0.27821458885E+01 -0.72505541260E+01 -0.30925871434E+02  0.31886053296E+02  0.00000000000E+00 0. -1.
         11    1    3    3    0    0  0.16037006669E+02  0.83374690769E+01  0.46044703076E+01  0.18652080864E+02  0.51100000000E-03 0. -1.
        -11    1    3    3    0    0 -0.83722832625E+01 -0.80422989462E+01 -0.13644785246E+01  0.11689118926E+02  0.51100000000E-03 0.  1.
        -12    1    3    3    0    0 -0.48825775175E+01  0.69553839953E+01  0.27685879651E+02  0.28960746913E+02  0.00000000000E+00 0.  1.
</event>
<event>
 7    1  0.3461631E-013  0.5930190E+02  0.7816164E-02  0.1266605E+00
        -11   -1    0    0    0    0  0.00000000000E+00  0.00000000000E+00  0.45593999997E+02  0.45594000000E+02  0.51100000000E-03 0.  1.
         11   -1    0    0    0    0 -0.00000000000E+00 -0.00000000000E+00 -0.45593999997E+02  0.45594000000E+02  0.51100000000E-03 0. -1.
    9900012    2    1    2    0    0  0.18024846743E+00  0.20823473016E+02  0.24146924663E+02  0.59301898190E+02  0.49999916403E+02 0.  0.
         12    1    1    2    0    0 -0.18024846743E+00 -0.20823473016E+02 -0.24146924663E+02  0.31886101810E+02  0.00000000000E+00 0. -1.
         11    1    3    3    0    0 -0.25972908805E+01  0.28991843399E+00 -0.10594977420E+02  0.10912539549E+02  0.51100000000E-03 0. -1.
        -11    1    3    3    0    0  0.84905309840E-01  0.13427723048E+02  0.63154567825E+00  0.13442834723E+02  0.51100000000E-03 0.  1.
         12    1    3    3    0    0  0.26926340381E+01  0.71058315332E+01  0.34110356405E+02  0.34946523918E+02  0.00000000000E+00 0. -1.
</event>
<event>
 7    1  0.3461631E-013  0.5930195E+02  0.7816164E-02  0.1266605E+00
        -11   -1    0    0    0    0  0.00000000000E+00  0.00000000000E+00  0.45593999997E+02  0.45594000000E+02  0.51100000000E-03 0. -1.
         11   -1    0    0    0    0 -0.00000000000E+00 -0.00000000000E+00 -0.45593999997E+02  0.45594000000E+02  0.51100000000E-03 0.  1.
    9900012    2    1    2    0    0 -0.94481381519E+00 -0.14411118426E+02 -0.28427928681E+02  0.59301950753E+02  0.50000012266E+02 0.  0.
         12    1    1    2    0    0  0.94481381519E+00  0.14411118426E+02  0.28427928681E+02  0.31886049247E+02  0.00000000000E+00 0. -1.
         11    1    3    3    0    0 -0.53444188428E+01 -0.43966035623E+00 -0.89122020965E+01  0.10401127846E+02  0.51100000000E-03 0. -1.
        -11    1    3    3    0    0 -0.11369731070E+02 -0.19156664809E+02 -0.22912712211E+02  0.31956861115E+02  0.51100000000E-03 0.  1.
         12    1    3    3    0    0  0.15769336098E+02  0.51852067384E+01  0.33969856263E+01  0.16943961793E+02  0.00000000000E+00 0. -1.
</event>
<event>
 7    1  0.3461631E-013  0.5930193E+02  0.7816164E-02  0.1266605E+00
        -11   -1    0    0    0    0  0.00000000000E+00  0.00000000000E+00  0.45593999997E+02  0.45594000000E+02  0.51100000000E-03 0.  1.
         11   -1    0    0    0    0 -0.00000000000E+00 -0.00000000000E+00 -0.45593999997E+02  0.45594000000E+02  0.51100000000E-03 0. -1.
    9900012    2    1    2    0    0  0.80002956058E+01 -0.76144348726E+01  0.29912154219E+02  0.59301932224E+02  0.49999978473E+02 0.  0.
         12    1    1    2    0    0 -0.80002956058E+01  0.76144348726E+01 -0.29912154219E+02  0.31886067776E+02  0.00000000000E+00 0. -1.
         11    1    3    3    0    0  0.10892926254E+02  0.26010515654E+01  0.75055827754E+01  0.13481657342E+02  0.51100000000E-03 0. -1.
        -11    1    3    3    0    0  0.13469986004E+02  0.59055301034E+01  0.15411140969E+01  0.14788199406E+02  0.51100000000E-03 0.  1.
        -12    1    3    3    0    0 -0.16362616653E+02 -0.16121016541E+02  0.20865457347E+02  0.31032075476E+02  0.00000000000E+00 0.  1.
</event>
<event>
 7    1  0.3461631E-013  0.5930188E+02  0.7816164E-02  0.1266605E+00
        -11   -1    0    0    0    0  0.00000000000E+00  0.00000000000E+00  0.45593999997E+02  0.45594000000E+02  0.51100000000E-03 0. -1.
         11   -1    0    0    0    0 -0.00000000000E+00 -0.00000000000E+00 -0.45593999997E+02  0.45594000000E+02  0.51100000000E-03 0.  1.
    9900012    2    1    2    0    0  0.42508260339E+01 -0.31065365358E+02 -0.57963820488E+01  0.59301882462E+02  0.49999887719E+02 0.  0.
         12    1    1    2    0    0 -0.42508260339E+01  0.31065365358E+02  0.57963820488E+01  0.31886117538E+02  0.00000000000E+00 0. -1.
         11    1    3    3    0    0  0.10568426294E+02 -0.22003943691E+02  0.53187351633E+01  0.24983076597E+02  0.51100000000E-03 0. -1.
        -11    1    3    3    0    0 -0.10305262399E+02 -0.19065346432E+02 -0.80853554819E+01  0.23131338941E+02  0.51100000000E-03 0.  1.
         12    1    3    3    0    0  0.39876621389E+01  0.10003924765E+02 -0.30297617302E+01  0.11187466924E+02  0.00000000000E+00 0. -1.
</event>
<event>
 7    1  0.3461631E-013  0.5930193E+02  0.7816164E-02  0.1266605E+00
        -11   -1    0    0    0    0  0.00000000000E+00  0.00000000000E+00  0.45593999997E+02  0.45594000000E+02  0.51100000000E-03 0.  1.
         11   -1    0    0    0    0 -0.00000000000E+00 -0.00000000000E+00 -0.45593999997E+02  0.45594000000E+02  0.51100000000E-03 0. -1.
    9900012    2    1    2    0    0 -0.11549988100E+02 -0.11128543324E+02  0.27558573793E+02  0.59301926377E+02  0.49999967809E+02 0.  0.
         12    1    1    2    0    0  0.11549988100E+02  0.11128543324E+02 -0.27558573793E+02  0.31886073623E+02  0.00000000000E+00 0. -1.
         11    1    3    3    0    0 -0.12872159775E+01 -0.47136300684E+01 -0.78465012310E+01  0.92435282886E+01  0.51100000000E-03 0. -1.
        -11    1    3    3    0    0 -0.20186041893E+02  0.35142354322E+01  0.26246289965E+02  0.33297055053E+02  0.51100000000E-03 0.  1.
         12    1    3    3    0    0  0.99232697709E+01 -0.99291486878E+01  0.91587850584E+01  0.16761343036E+02  0.00000000000E+00 0. -1.
</event>
<event>
 7    1  0.3461631E-013  0.5930196E+02  0.7816164E-02  0.1266605E+00
        -11   -1    0    0    0    0  0.00000000000E+00  0.00000000000E+00  0.45593999997E+02  0.45594000000E+02  0.51100000000E-03 0.  1.
         11   -1    0    0    0    0 -0.00000000000E+00 -0.00000000000E+00 -0.45593999997E+02  0.45594000000E+02  0.51100000000E-03 0. -1.
    9900012    2    1    2    0    0  0.12651828768E+02  0.28771904416E+02 -0.53691957953E+01  0.59301960447E+02  0.50000029945E+02 0.  0.
         12    1    1    2    0    0 -0.12651828768E+02 -0.28771904416E+02  0.53691957953E+01  0.31886039553E+02  0.00000000000E+00 0. -1.
         11    1    3    3    0    0  0.82730542839E+01 -0.74069282021E+01  0.30543549495E+01  0.11516731177E+02  0.51100000000E-03 0. -1.
        -11    1    3    3    0    0 -0.61381009392E+01  0.10307683514E+02  0.88855517515E+01  0.14929087472E+02  0.51100000000E-03 0.  1.
        -12    1    3    3    0    0  0.10516875423E+02  0.25871149104E+02 -0.17309102496E+02  0.32856141798E+02  0.00000000000E+00 0.  1.
</event>
<event>
 7    1  0.3461631E-013  0.5930195E+02  0.7816164E-02  0.1266605E+00
        -11   -1    0    0    0    0  0.00000000000E+00  0.00000000000E+00  0.45593999997E+02  0.45594000000E+02  0.51100000000E-03 0.  1.
         11   -1    0    0    0    0 -0.00000000000E+00 -0.00000000000E+00 -0.45593999997E+02  0.45594000000E+02  0.51100000000E-03 0. -1.
    9900012    2    1    2    0    0  0.30694763633E+02 -0.43725490948E+01  0.74452812671E+01  0.59301954255E+02  0.50000018652E+02 0.  0.
         12    1    1    2    0    0 -0.30694763633E+02  0.43725490948E+01 -0.74452812671E+01  0.31886045745E+02  0.00000000000E+00 0. -1.
         11    1    3    3    0    0  0.83198709308E+01 -0.19063463172E+01  0.16920773947E+02  0.18951701766E+02  0.51100000000E-03 0. -1.
        -11    1    3    3    0    0  0.11949287464E+02 -0.35444881966E+01  0.11463813210E+02  0.16934222186E+02  0.51100000000E-03 0.  1.
         12    1    3    3    0    0  0.10425605238E+02  0.10782854189E+01 -0.20939305890E+02  0.23416030303E+02  0.00000000000E+00 0. -1.
</event>
<event>
 7    1  0.3461631E-013  0.5930181E+02  0.7816164E-02  0.1266605E+00
        -11   -1    0    0    0    0  0.00000000000E+00  0.00000000000E+00  0.45593999997E+02  0.45594000000E+02  0.51100000000E-03 0.  1.
         11   -1    0    0    0    0 -0.00000000000E+00 -0.00000000000E+00 -0.45593999997E+02  0.45594000000E+02  0.51100000000E-03 0. -1.
    9900012    2    1    2    0    0  0.29135103137E+02 -0.26940515167E+00 -0.12953852308E+02  0.59301810144E+02  0.49999755828E+02 0.  0.
         12    1    1    2    0    0 -0.29135103137E+02  0.26940515167E+00  0.12953852308E+02  0.31886189856E+02  0.00000000000E+00 0. -1.
         11    1    3    3    0    0 -0.10002907555E+02  0.51949829009E+01  0.11050598426E+01  0.11325509455E+02  0.51100000000E-03 0. -1.
        -11    1    3    3    0    0  0.88727873700E+01 -0.46845479012E+01 -0.14577314425E+02  0.17696594047E+02  0.51100000000E-03 0.  1.
        -12    1    3    3    0    0  0.30265223322E+02 -0.77984015146E+00  0.51840227522E+00  0.30279706642E+02  0.00000000000E+00 0.  1.
</event>
<event>
 7    1  0.3461631E-013  0.5930194E+02  0.7816164E-02  0.1266605E+00
        -11   -1    0    0    0    0  0.00000000000E+00  0.00000000000E+00  0.45593999997E+02  0.45594000000E+02  0.51100000000E-03 0.  1.
         11   -1    0    0    0    0 -0.00000000000E+00 -0.00000000000E+00 -0.45593999997E+02  0.45594000000E+02  0.51100000000E-03 0. -1.
    9900012    2    1    2    0    0 -0.10265592742E+02 -0.29092240306E+02 -0.80610342263E+01  0.59301935439E+02  0.49999984337E+02 0.  0.
         12    1    1    2    0    0  0.10265592742E+02  0.29092240306E+02  0.80610342263E+01  0.31886064561E+02  0.00000000000E+00 0. -1.
         11    1    3    3    0    0  0.12601197725E+02 -0.86841863106E+01 -0.24538643208E+01  0.15499249218E+02  0.51100000000E-03 0. -1.
        -11    1    3    3    0    0 -0.30327313728E+00 -0.20434311321E+02  0.44558292135E+00  0.20441418693E+02  0.51100000000E-03 0.  1.
         12    1    3    3    0    0 -0.22563517330E+02  0.26257325963E-01 -0.60527528269E+01  0.23361267528E+02  0.00000000000E+00 0. -1.
</event>
<event>
 7    1  0.3461631E-013  0.5930195E+02  0.7816164E-02  0.1266605E+00
        -11   -1    0    0    0    0  0.00000000000E+00  0.00000000000E+00  0.45593999997E+02  0.45594000000E+02  0.51100000000E-03 0. -1.
         11   -1    0    0    0    0 -0.00000000000E+00 -0.00000000000E+00 -0.45593999997E+02  0.45594000000E+02  0.51100000000E-03 0.  1.
    9900012    2    1    2    0    0 -0.19651560103E+02 -0.20582883594E+02  0.14383373682E+02  0.59301947406E+02  0.50000006162E+02 0.  0.
         12    1    1    2    0    0  0.19651560103E+02  0.20582883594E+02 -0.14383373682E+02  0.31886052594E+02  0.00000000000E+00 0. -1.
         11    1    3    3    0    0  0.11404895896E+02 -0.89149771488E+01  0.78873447702E+01  0.16485104663E+02  0.51100000000E-03 0. -1.
        -11    1    3    3    0    0 -0.10949781491E+02  0.80365861990E+01 -0.11893491127E+01  0.13634477768E+02  0.51100000000E-03 0.  1.
        -12    1    3    3    0    0 -0.20106674509E+02 -0.19704492645E+02  0.76853780241E+01  0.29182364975E+02  0.00000000000E+00 0.  1.
</event>
<event>
 7    1  0.3461631E-013  0.5930197E+02  0.7816164E-02  0.1266605E+00
        -11   -1    0    0    0    0  0.00000000000E+00  0.00000000000E+00  0.45593999997E+02  0.45594000000E+02  0.51100000000E-03 0. -1.
         11   -1    0    0    0    0 -0.00000000000E+00 -0.00000000000E+00 -0.45593999997E+02  0.45594000000E+02  0.51100000000E-03 0.  1.
    9900012    2    1    2    0    0 -0.22273700986E+02 -0.75638126526E+01 -0.21526499820E+02  0.59301965252E+02  0.50000038708E+02 0.  0.
         12    1    1    2    0    0  0.22273700986E+02  0.75638126526E+01  0.21526499820E+02  0.31886034748E+02  0.00000000000E+00 0. -1.
         11    1    3    3    0    0 -0.23952043801E+02  0.45109440939E+01 -0.19167109692E+02  0.31006888155E+02  0.51100000000E-03 0. -1.
        -11    1    3    3    0    0  0.10825096916E+02 -0.72306199119E+01 -0.91537038051E+01  0.15913983825E+02  0.51100000000E-03 0.  1.
        -12    1    3    3    0    0 -0.91467541016E+01 -0.48441368346E+01  0.67943136774E+01  0.12381093272E+02  0.00000000000E+00 0.  1.
</event>
<event>
 7    1  0.3461631E-013  0.5930195E+02  0.7816164E-02  0.1266605E+00
        -11   -1    0    0    0    0  0.00000000000E+00  0.00000000000E+00  0.45593999997E+02  0.45594000000E+02  0.51100000000E-03 0.  1.
         11   -1    0    0    0    0 -0.00000000000E+00 -0.00000000000E+00 -0.45593999997E+02  0.45594000000E+02  0.51100000000E-03 0. -1.
    9900012    2    1    2    0    0  0.26948780716E+02 -0.72674664074E+01  0.15416467651E+02  0.59301947800E+02  0.50000006880E+02 0.  0.
         12    1    1    2    0    0 -0.26948780716E+02  0.72674664074E+01 -0.15416467651E+02  0.31886052200E+02  0.00000000000E+00 0. -1.
         11    1    3    3    0    0 -0.78144378851E+01 -0.57453544923E+01  0.22296178710E+01  0.99521723164E+01  0.51100000000E-03 0. -1.
        -11    1    3    3    0    0  0.21314399375E+02 -0.14344011389E+02  0.16418024723E+02  0.30489437835E+02  0.51100000000E-03 0.  1.
        -12    1    3    3    0    0  0.13448819226E+02  0.12821899474E+02 -0.32311749435E+01  0.18860337649E+02  0.00000000000E+00 0.  1.
</event>
<event>
 7    1  0.3461631E-013  0.5930198E+02  0.7816164E-02  0.1266605E+00
        -11   -1    0    0    0    0  0.00000000000E+00  0.00000000000E+00  0.45593999997E+02  0.45594000000E+02  0.51100000000E-03 0.  1.
         11   -1    0    0    0    0 -0.00000000000E+00 -0.00000000000E+00 -0.45593999997E+02  0.45594000000E+02  0.51100000000E-03 0. -1.
    9900012    2    1    2    0    0 -0.20021052735E+02 -0.14398280792E+02  0.20212997053E+02  0.59301979674E+02  0.50000065010E+02 0.  0.
         12    1    1    2    0    0  0.20021052735E+02  0.14398280792E+02 -0.20212997053E+02  0.31886020326E+02  0.00000000000E+00 0. -1.
         11    1    3    3    0    0 -0.31848897944E+01  0.73298797080E+01 -0.33335149820E+01  0.86592714435E+01  0.51100000000E-03 0. -1.
        -11    1    3    3    0    0 -0.16563275329E+02  0.15410178132E+01  0.21638814461E+02  0.27293865924E+02  0.51100000000E-03 0.  1.
        -12    1    3    3    0    0 -0.27288761137E+00 -0.23269178313E+02  0.19076975739E+01  0.23348842307E+02  0.00000000000E+00 0.  1.
</event>
<event>
 7    1  0.3461631E-013  0.5930196E+02  0.7816164E-02  0.1266605E+00
        -11   -1    0    0    0    0  0.00000000000E+00  0.00000000000E+00  0.45593999997E+02  0.45594000000E+02  0.51100000000E-03 0.  1.
         11   -1    0    0    0    0 -0.00000000000E+00 -0.00000000000E+00 -0.45593999997E+02  0.45594000000E+02  0.51100000000E-03 0. -1.
    9900012    2    1    2    0    0  0.31267836331E+02  0.51661216431E+01  0.35147475875E+01  0.59301955211E+02  0.50000020396E+02 0.  0.
         12    1    1    2    0    0 -0.31267836331E+02 -0.51661216431E+01 -0.35147475875E+01  0.31886044789E+02  0.00000000000E+00 0. -1.
         11    1    3    3    0    0  0.85654896248E+01  0.50423685386E+01 -0.43202812738E+00  0.99488562938E+01  0.51100000000E-03 0. -1.
        -11    1    3    3    0    0  0.23095591737E+02 -0.77848420482E+01 -0.15137937554E+02  0.28690891884E+02  0.51100000000E-03 0.  1.
         12    1    3    3    0    0 -0.39324503078E+00  0.79085951527E+01  0.19084713269E+02  0.20662207034E+02  0.00000000000E+00 0. -1.
</event>
<event>
 7    1  0.3461631E-013  0.5930175E+02  0.7816164E-02  0.1266605E+00
        -11   -1    0    0    0    0  0.00000000000E+00  0.00000000000E+00  0.45593999997E+02  0.45594000000E+02  0.51100000000E-03 0. -1.
         11   -1    0    0    0    0 -0.00000000000E+00 -0.00000000000E+00 -0.45593999997E+02  0.45594000000E+02  0.51100000000E-03 0.  1.
    9900012    2    1    2    0    0 -0.46323918608E+01  0.30346247993E+02 -0.86243209362E+01  0.59301753227E+02  0.49999652025E+02 0.  0.
         12    1    1    2    0    0  0.46323918608E+01 -0.30346247993E+02  0.86243209362E+01  0.31886246773E+02  0.00000000000E+00 0. -1.
         11    1    3    3    0    0  0.10499486625E+02  0.55681715640E+01 -0.69750388659E+01  0.13780236623E+02  0.51100000000E-03 0. -1.
        -11    1    3    3    0    0  0.79777054714E+01 -0.37045952913E+00 -0.73988374702E+01  0.10886864609E+02  0.51100000000E-03 0.  1.
         12    1    3    3    0    0 -0.23109583957E+02  0.25148535959E+02  0.57495553999E+01  0.34634651995E+02  0.00000000000E+00 0. -1.
</event>
<event>
 7    1  0.3461631E-013  0.5930194E+02  0.7816164E-02  0.1266605E+00
        -11   -1    0    0    0    0  0.00000000000E+00  0.00000000000E+00  0.45593999997E+02  0.45594000000E+02  0.51100000000E-03 0.  1.
         11   -1    0    0    0    0 -0.00000000000E+00 -0.00000000000E+00 -0.45593999997E+02  0.45594000000E+02  0.51100000000E-03 0. -1.
    9900012    2    1    2    0    0 -0.59005409117E+01 -0.28833988013E+02  0.12268079231E+02  0.59301936966E+02  0.49999987121E+02 0.  0.
         12    1    1    2    0    0  0.59005409117E+01  0.28833988013E+02 -0.12268079231E+02  0.31886063034E+02  0.00000000000E+00 0. -1.
         11    1    3    3    0    0 -0.33236547477E+01  0.27659267024E+01  0.29771457645E+01  0.52498027172E+01  0.51100000000E-03 0. -1.
        -11    1    3    3    0    0 -0.92302013086E+01  0.85301248311E+01  0.23714396273E+01  0.12789971540E+02  0.51100000000E-03 0.  1.
        -12    1    3    3    0    0  0.66533151447E+01 -0.40130039546E+02  0.69194938395E+01  0.41262162709E+02  0.00000000000E+00 0.  1.
</event>
<event>
 7    1  0.3461631E-013  0.5930192E+02  0.7816164E-02  0.1266605E+00
        -11   -1    0    0    0    0  0.00000000000E+00  0.00000000000E+00  0.45593999997E+02  0.45594000000E+02  0.51100000000E-03 0.  1.
         11   -1    0    0    0    0 -0.00000000000E+00 -0.00000000000E+00 -0.45593999997E+02  0.45594000000E+02  0.51100000000E-03 0. -1.
    9900012    2    1    2    0    0  0.26784966223E+02 -0.15947615349E+02 -0.67053042981E+01  0.59301922213E+02  0.49999960216E+02 0.  0.
         12    1    1    2    0    0 -0.26784966223E+02  0.15947615349E+02  0.67053042981E+01  0.31886077787E+02  0.00000000000E+00 0. -1.
         11    1    3    3    0    0  0.23063274338E+02 -0.19900258440E+01  0.94152982187E+01  0.24990451514E+02  0.51100000000E-03 0. -1.
        -11    1    3    3    0    0  0.11859606529E+02 -0.11346633519E+01  0.33518984950E+00  0.11918476431E+02  0.51100000000E-03 0.  1.
        -12    1    3    3    0    0 -0.81379146442E+01 -0.12822926153E+02 -0.16455792366E+02  0.22392994268E+02  0.00000000000E+00 0.  1.
</event>
<event>
 7    1  0.3461631E-013  0.5930196E+02  0.7816164E-02  0.1266605E+00
        -11   -1    0    0    0    0  0.00000000000E+00  0.00000000000E+00  0.45593999997E+02  0.45594000000E+02  0.51100000000E-03 0.  1.
         11   -1    0    0    0    0 -0.00000000000E+00 -0.00000000000E+00 -0.45593999997E+02  0.45594000000E+02  0.51100000000E-03 0. -1.
    9900012    2    1    2    0    0  0.24054407284E+02  0.17688335787E+02  0.11190531408E+02  0.59301957193E+02  0.50000024011E+02 0.  0.
         12    1    1    2    0    0 -0.24054407284E+02 -0.17688335787E+02 -0.11190531408E+02  0.31886042807E+02  0.00000000000E+00 0. -1.
         11    1    3    3    0    0  0.26437634415E+02  0.22068449120E+02  0.14552095741E+01  0.34468574024E+02  0.51100000000E-03 0. -1.
        -11    1    3    3    0    0  0.51599463848E+01  0.72614426366E+01  0.28940944514E+01  0.93663962555E+01  0.51100000000E-03 0.  1.
         12    1    3    3    0    0 -0.75431735166E+01 -0.11641555970E+02  0.68412273821E+01  0.15466986914E+02  0.00000000000E+00 0. -1.
</event>
<event>
 7    1  0.3461631E-013  0.5930201E+02  0.7816164E-02  0.1266605E+00
        -11   -1    0    0    0    0  0.00000000000E+00  0.00000000000E+00  0.45593999997E+02  0.45594000000E+02  0.51100000000E-03 0.  1.
         11   -1    0    0    0    0 -0.00000000000E+00 -0.00000000000E+00 -0.45593999997E+02  0.45594000000E+02  0.51100000000E-03 0. -1.
    9900012    2    1    2    0    0 -0.25947295191E+02 -0.17960967925E+02  0.45670141736E+01  0.59302013815E+02  0.50000127274E+02 0.  0.
         12    1    1    2    0    0  0.25947295191E+02  0.17960967925E+02 -0.45670141736E+01  0.31885986185E+02  0.00000000000E+00 0. -1.
         11    1    3    3    0    0 -0.24128834148E+02  0.90691506912E+01  0.24006941201E+01  0.25888481302E+02  0.51100000000E-03 0.  1.
        -11    1    3    3    0    0 -0.10462173534E+02 -0.18123151802E+02  0.16513866145E+01  0.20991254948E+02  0.51100000000E-03 0. -1.
        -12    1    3    3    0    0  0.86437124903E+01 -0.89069668146E+01  0.51493343901E+00  0.12422277565E+02  0.00000000000E+00 0.  1.
</event>
<event>
 7    1  0.3461631E-013  0.5930194E+02  0.7816164E-02  0.1266605E+00
        -11   -1    0    0    0    0  0.00000000000E+00  0.00000000000E+00  0.45593999997E+02  0.45594000000E+02  0.51100000000E-03 0.  1.
         11   -1    0    0    0    0 -0.00000000000E+00 -0.00000000000E+00 -0.45593999997E+02  0.45594000000E+02  0.51100000000E-03 0. -1.
    9900012    2    1    2    0    0  0.53485145773E+01  0.14207941815E+01  0.31402154845E+02  0.59301943592E+02  0.49999999206E+02 0.  0.
         12    1    1    2    0    0 -0.53485145773E+01 -0.14207941815E+01 -0.31402154845E+02  0.31886056408E+02  0.00000000000E+00 0. -1.
         11    1    3    3    0    0 -0.85593534037E+01  0.10895076563E+02  0.53462435458E+01  0.14850843219E+02  0.51100000000E-03 0. -1.
        -11    1    3    3    0    0  0.30269000514E+01 -0.10161865082E+02  0.30790323061E+02  0.32564852531E+02  0.51100000000E-03 0.  1.
         12    1    3    3    0    0  0.10880967930E+02  0.68758270078E+00 -0.47344117613E+01  0.11886247843E+02  0.00000000000E+00 0. -1.
</event>
<event>
 7    1  0.3461631E-013  0.5930192E+02  0.7816164E-02  0.1266605E+00
        -11   -1    0    0    0    0  0.00000000000E+00  0.00000000000E+00  0.45593999997E+02  0.45594000000E+02  0.51100000000E-03 0. -1.
         11   -1    0    0    0    0 -0.00000000000E+00 -0.00000000000E+00 -0.45593999997E+02  0.45594000000E+02  0.51100000000E-03 0.  1.
    9900012    2    1    2    0    0  0.38618027492E+01 -0.13446443407E+02 -0.28653122971E+02  0.59301924406E+02  0.49999964215E+02 0.  0.
         12    1    1    2    0    0 -0.38618027492E+01  0.13446443407E+02  0.28653122971E+02  0.31886075594E+02  0.00000000000E+00 0. -1.
         11    1    3    3    0    0  0.11386484017E+02 -0.18829767515E+02 -0.11049062366E+02  0.24623036823E+02  0.51100000000E-03 0. -1.
        -11    1    3    3    0    0  0.32747789419E+01 -0.79333978059E+01  0.18165386198E+01  0.87728439336E+01  0.51100000000E-03 0.  1.
        -12    1    3    3    0    0 -0.10799460210E+02  0.13316721914E+02 -0.19420599225E+02  0.25906043650E+02  0.00000000000E+00 0.  1.
</event>
<event>
 7    1  0.3461631E-013  0.5930196E+02  0.7816164E-02  0.1266605E+00
        -11   -1    0    0    0    0  0.00000000000E+00  0.00000000000E+00  0.45593999997E+02  0.45594000000E+02  0.51100000000E-03 0.  1.
         11   -1    0    0    0    0 -0.00000000000E+00 -0.00000000000E+00 -0.45593999997E+02  0.45594000000E+02  0.51100000000E-03 0. -1.
    9900012    2    1    2    0    0 -0.76209472359E+01  0.97880229853E+01  0.29374063465E+02  0.59301955479E+02  0.50000020884E+02 0.  0.
         12    1    1    2    0    0  0.76209472359E+01 -0.97880229853E+01 -0.29374063465E+02  0.31886044521E+02  0.00000000000E+00 0. -1.
         11    1    3    3    0    0 -0.69223531344E+01  0.79237143583E+01  0.19812930517E+02  0.22433377768E+02  0.51100000000E-03 0. -1.
        -11    1    3    3    0    0 -0.17380425811E+02 -0.19868026980E+01  0.91522500359E+01  0.19743106831E+02  0.51100000000E-03 0.  1.
         12    1    3    3    0    0  0.16681831710E+02  0.38511113250E+01  0.40888291220E+00  0.17125470880E+02  0.00000000000E+00 0. -1.
</event>
<event>
 7    1  0.3461631E-013  0.5930195E+02  0.7816164E-02  0.1266605E+00
        -11   -1    0    0    0    0  0.00000000000E+00  0.00000000000E+00  0.45593999997E+02  0.45594000000E+02  0.51100000000E-03 0.  1.
         11   -1    0    0    0    0 -0.00000000000E+00 -0.00000000000E+00 -0.45593999997E+02  0.45594000000E+02  0.51100000000E-03 0. -1.
    9900012    2    1    2    0    0  0.30368849766E+01  0.10098258200E+02  0.30091903977E+02  0.59301950167E+02  0.50000011196E+02 0.  0.
         12    1    1    2    0    0 -0.30368849766E+01 -0.10098258200E+02 -0.30091903977E+02  0.31886049833E+02  0.00000000000E+00 0. -1.
         11    1    3    3    0    0  0.71688147748E+01  0.14577898783E+02 -0.27149969101E+01  0.16470526606E+02  0.51100000000E-03 0. -1.
        -11    1    3    3    0    0 -0.44941778021E+01  0.11075415270E+02  0.15149296957E+02  0.19296726563E+02  0.51100000000E-03 0.  1.
         12    1    3    3    0    0  0.36224800394E+00 -0.15555055853E+02  0.17657603930E+02  0.23534696997E+02  0.00000000000E+00 0. -1.
</event>
<event>
 7    1  0.3461631E-013  0.5930185E+02  0.7816164E-02  0.1266605E+00
        -11   -1    0    0    0    0  0.00000000000E+00  0.00000000000E+00  0.45593999997E+02  0.45594000000E+02  0.51100000000E-03 0.  1.
         11   -1    0    0    0    0 -0.00000000000E+00 -0.00000000000E+00 -0.45593999997E+02  0.45594000000E+02  0.51100000000E-03 0. -1.
    9900012    2    1    2    0    0 -0.11252156093E+02  0.41934540071E+01  0.29538625446E+02  0.59301851495E+02  0.49999831241E+02 0.  0.
         12    1    1    2    0    0  0.11252156093E+02 -0.41934540071E+01 -0.29538625446E+02  0.31886148505E+02  0.00000000000E+00 0. -1.
         11    1    3    3    0    0  0.23306261244E+01 -0.13202255300E+01  0.43775289016E+01  0.51320145291E+01  0.51100000000E-03 0. -1.
        -11    1    3    3    0    0  0.77943519181E+01 -0.13287866607E+02  0.19986438934E+02  0.25234441985E+02  0.51100000000E-03 0.  1.
         12    1    3    3    0    0 -0.21377134136E+02  0.18801546144E+02  0.51746576104E+01  0.28935394980E+02  0.00000000000E+00 0. -1.
</event>
<event>
 7    1  0.3461631E-013  0.5930193E+02  0.7816164E-02  0.1266605E+00
        -11   -1    0    0    0    0  0.00000000000E+00  0.00000000000E+00  0.45593999997E+02  0.45594000000E+02  0.51100000000E-03 0. -1.
         11   -1    0    0    0    0 -0.00000000000E+00 -0.00000000000E+00 -0.45593999997E+02  0.45594000000E+02  0.51100000000E-03 0.  1.
    9900012    2    1    2    0    0  0.59866632704E+00 -0.30764526843E+02 -0.83610419843E+01  0.59301928805E+02  0.49999972237E+02 0.  0.
         12    1    1    2    0    0 -0.59866632704E+00  0.30764526843E+02  0.83610419843E+01  0.31886071195E+02  0.00000000000E+00 0. -1.
         11    1    3    3    0    0 -0.35117196476E+01 -0.53089154436E+01 -0.13087751009E+02  0.14553555744E+02  0.51100000000E-03 0. -1.
        -11    1    3    3    0    0 -0.30666097492E+01 -0.23543549308E+02 -0.11885605130E+02  0.26551279045E+02  0.51100000000E-03 0.  1.
         12    1    3    3    0    0  0.71769957238E+01 -0.19120620905E+01  0.16612314154E+02  0.18197094015E+02  0.00000000000E+00 0. -1.
</event>
<event>
 7    1  0.3461631E-013  0.5930194E+02  0.7816164E-02  0.1266605E+00
        -11   -1    0    0    0    0  0.00000000000E+00  0.00000000000E+00  0.45593999997E+02  0.45594000000E+02  0.51100000000E-03 0.  1.
         11   -1    0    0    0    0 -0.00000000000E+00 -0.00000000000E+00 -0.45593999997E+02  0.45594000000E+02  0.51100000000E-03 0. -1.
    9900012    2    1    2    0    0 -0.10141458651E+02 -0.14977181634E+02  0.26259397196E+02  0.59301935734E+02  0.49999984874E+02 0.  0.
         12    1    1    2    0    0  0.10141458651E+02  0.14977181634E+02 -0.26259397196E+02  0.31886064266E+02  0.00000000000E+00 0. -1.
         11    1    3    3    0    0 -0.28844651118E+00  0.39468485644E+01 -0.29424527874E+01  0.49314139602E+01  0.51100000000E-03 0. -1.
        -11    1    3    3    0    0 -0.64283479179E+01  0.11918060653E+02  0.32706773955E+01  0.13930583533E+02  0.51100000000E-03 0.  1.
        -12    1    3    3    0    0 -0.34246642220E+01 -0.30842090851E+02  0.25931172588E+02  0.40439938241E+02  0.00000000000E+00 0.  1.
</event>
<event>
 7    1  0.3461631E-013  0.5930194E+02  0.7816164E-02  0.1266605E+00
        -11   -1    0    0    0    0  0.00000000000E+00  0.00000000000E+00  0.45593999997E+02  0.45594000000E+02  0.51100000000E-03 0.  1.
         11   -1    0    0    0    0 -0.00000000000E+00 -0.00000000000E+00 -0.45593999997E+02  0.45594000000E+02  0.51100000000E-03 0. -1.
    9900012    2    1    2    0    0  0.24787189796E+02  0.19702311467E+02  0.37596454283E+01  0.59301940524E+02  0.49999993611E+02 0.  0.
         12    1    1    2    0    0 -0.24787189796E+02 -0.19702311467E+02 -0.37596454283E+01  0.31886059476E+02  0.00000000000E+00 0. -1.
         11    1    3    3    0    0 -0.61887782988E+01  0.39519984498E+01  0.16663128389E+02  0.18209314005E+02  0.51100000000E-03 0. -1.
        -11    1    3    3    0    0 -0.60123806109E+00 -0.12733616809E+01  0.18317891743E+01  0.23104954051E+01  0.51100000000E-03 0.  1.
        -12    1    3    3    0    0  0.31577206156E+02  0.17023674698E+02 -0.14735272135E+02  0.38782131114E+02  0.00000000000E+00 0.  1.
</event>
<event>
 7    1  0.3461631E-013  0.5930192E+02  0.7816164E-02  0.1266605E+00
        -11   -1    0    0    0    0  0.00000000000E+00  0.00000000000E+00  0.45593999997E+02  0.45594000000E+02  0.51100000000E-03 0. -1.
         11   -1    0    0    0    0 -0.00000000000E+00 -0.00000000000E+00 -0.45593999997E+02  0.45594000000E+02  0.51100000000E-03 0.  1.
    9900012    2    1    2    0    0 -0.26284766363E+02 -0.53367707389E+00 -0.18042959906E+02  0.59301919085E+02  0.49999954510E+02 0.  0.
         12    1    1    2    0    0  0.26284766363E+02  0.53367707389E+00  0.18042959906E+02  0.31886080915E+02  0.00000000000E+00 0. -1.
         11    1    3    3    0    0  0.78098857523E+01  0.42407614063E+01  0.27209790568E+01  0.92941971175E+01  0.51100000000E-03 0. -1.
        -11    1    3    3    0    0  0.53691792669E+01 -0.21353201817E+01 -0.41189507290E+01  0.70960153359E+01  0.51100000000E-03 0.  1.
        -12    1    3    3    0    0 -0.39463831382E+02 -0.26391182984E+01 -0.16644988234E+02  0.42911706632E+02  0.00000000000E+00 0.  1.
</event>
<event>
 7    1  0.3461631E-013  0.5930195E+02  0.7816164E-02  0.1266605E+00
        -11   -1    0    0    0    0  0.00000000000E+00  0.00000000000E+00  0.45593999997E+02  0.45594000000E+02  0.51100000000E-03 0.  1.
         11   -1    0    0    0    0 -0.00000000000E+00 -0.00000000000E+00 -0.45593999997E+02  0.45594000000E+02  0.51100000000E-03 0. -1.
    9900012    2    1    2    0    0  0.16263421657E+02  0.21142947967E+02  0.17469887352E+02  0.59301951376E+02  0.50000013402E+02 0.  0.
         12    1    1    2    0    0 -0.16263421657E+02 -0.21142947967E+02 -0.17469887352E+02  0.31886048624E+02  0.00000000000E+00 0. -1.
         11    1    3    3    0    0  0.31940280559E+01  0.28640831386E+02  0.63758470915E+01  0.29515258157E+02  0.51100000000E-03 0. -1.
        -11    1    3    3    0    0  0.72261871694E+01  0.76222560992E+01  0.81895577600E+01  0.13318612000E+02  0.51100000000E-03 0.  1.
         12    1    3    3    0    0  0.58432064314E+01 -0.15120139518E+02  0.29044825004E+01  0.16468081219E+02  0.00000000000E+00 0. -1.
</event>
<event>
 7    1  0.3461631E-013  0.5930186E+02  0.7816164E-02  0.1266605E+00
        -11   -1    0    0    0    0  0.00000000000E+00  0.00000000000E+00  0.45593999997E+02  0.45594000000E+02  0.51100000000E-03 0.  1.
         11   -1    0    0    0    0 -0.00000000000E+00 -0.00000000000E+00 -0.45593999997E+02  0.45594000000E+02  0.51100000000E-03 0. -1.
    9900012    2    1    2    0    0  0.13340456781E+02 -0.79040002734E+01  0.27861885900E+02  0.59301863618E+02  0.49999853352E+02 0.  0.
         12    1    1    2    0    0 -0.13340456781E+02  0.79040002734E+01 -0.27861885900E+02  0.31886136382E+02  0.00000000000E+00 0. -1.
         11    1    3    3    0    0  0.16519650123E+02  0.20269345519E+01 -0.26606250921E+01  0.16854857757E+02  0.51100000000E-03 0. -1.
        -11    1    3    3    0    0 -0.14224852075E+01  0.61173726292E+01  0.24376390143E+02  0.25172487138E+02  0.51100000000E-03 0.  1.
         12    1    3    3    0    0 -0.17567081344E+01 -0.16048307454E+02  0.61461208493E+01  0.17274518723E+02  0.00000000000E+00 0. -1.
</event>
<event>
 7    1  0.3461631E-013  0.5930196E+02  0.7816164E-02  0.1266605E+00
        -11   -1    0    0    0    0  0.00000000000E+00  0.00000000000E+00  0.45593999997E+02  0.45594000000E+02  0.51100000000E-03 0.  1.
         11   -1    0    0    0    0 -0.00000000000E+00 -0.00000000000E+00 -0.45593999997E+02  0.45594000000E+02  0.51100000000E-03 0. -1.
    9900012    2    1    2    0    0  0.24663717963E+01  0.28387958968E+02  0.14309452139E+02  0.59301958780E+02  0.50000026904E+02 0.  0.
         12    1    1    2    0    0 -0.24663717963E+01 -0.28387958968E+02 -0.14309452139E+02  0.31886041220E+02  0.00000000000E+00 0. -1.
         11    1    3    3    0    0  0.11322616679E+02  0.47687827164E+01  0.18268690351E+02  0.22015630458E+02  0.51100000000E-03 0.  1.
        -11    1    3    3    0    0  0.79114782394E+01  0.68608029376E+01 -0.80768144518E+01  0.13224864341E+02  0.51100000000E-03 0. -1.
        -12    1    3    3    0    0 -0.16767723122E+02  0.16758373314E+02  0.41175762403E+01  0.24061463981E+02  0.00000000000E+00 0.  1.
</event>
<event>
 7    1  0.3461631E-013  0.5930194E+02  0.7816164E-02  0.1266605E+00
        -11   -1    0    0    0    0  0.00000000000E+00  0.00000000000E+00  0.45593999997E+02  0.45594000000E+02  0.51100000000E-03 0.  1.
         11   -1    0    0    0    0 -0.00000000000E+00 -0.00000000000E+00 -0.45593999997E+02  0.45594000000E+02  0.51100000000E-03 0. -1.
    9900012    2    1    2    0    0  0.15129009564E+02 -0.24449319102E+02  0.13786386493E+02  0.59301943683E+02  0.49999999371E+02 0.  0.
         12    1    1    2    0    0 -0.15129009564E+02  0.24449319102E+02 -0.13786386493E+02  0.31886056317E+02  0.00000000000E+00 0. -1.
         11    1    3    3    0    0  0.11139376633E+02 -0.14187214780E+02  0.47646962887E+01  0.18656503047E+02  0.51100000000E-03 0. -1.
        -11    1    3    3    0    0 -0.94627749336E+01 -0.81105963572E+01 -0.10868966416E+02  0.16536635508E+02  0.51100000000E-03 0.  1.
         12    1    3    3    0    0  0.13452407865E+02 -0.21515079656E+01  0.19890656620E+02  0.24108805127E+02  0.00000000000E+00 0. -1.
</event>
<event>
 7    1  0.3461631E-013  0.5930200E+02  0.7816164E-02  0.1266605E+00
        -11   -1    0    0    0    0  0.00000000000E+00  0.00000000000E+00  0.45593999997E+02  0.45594000000E+02  0.51100000000E-03 0.  1.
         11   -1    0    0    0    0 -0.00000000000E+00 -0.00000000000E+00 -0.45593999997E+02  0.45594000000E+02  0.51100000000E-03 0. -1.
    9900012    2    1    2    0    0 -0.30126359743E+02  0.25907805406E+01  0.10119664664E+02  0.59301995107E+02  0.50000093156E+02 0.  0.
         12    1    1    2    0    0  0.30126359743E+02 -0.25907805406E+01 -0.10119664664E+02  0.31886004893E+02  0.00000000000E+00 0. -1.
         11    1    3    3    0    0 -0.18582690008E+01 -0.52339989706E+01 -0.57299314027E+01  0.79799763812E+01  0.51100000000E-03 0. -1.
        -11    1    3    3    0    0  0.69797188931E+01 -0.62050202725E+01  0.86052509616E+01  0.12699177012E+02  0.51100000000E-03 0.  1.
        -12    1    3    3    0    0 -0.35247809635E+02  0.14029799784E+02  0.72443451052E+01  0.38622841713E+02  0.00000000000E+00 0.  1.
</event>
<event>
 7    1  0.3461631E-013  0.5930193E+02  0.7816164E-02  0.1266605E+00
        -11   -1    0    0    0    0  0.00000000000E+00  0.00000000000E+00  0.45593999997E+02  0.45594000000E+02  0.51100000000E-03 0. -1.
         11   -1    0    0    0    0 -0.00000000000E+00 -0.00000000000E+00 -0.45593999997E+02  0.45594000000E+02  0.51100000000E-03 0.  1.
    9900012    2    1    2    0    0  0.11052929063E+01 -0.28109564448E+02 -0.15011740228E+02  0.59301927327E+02  0.49999969542E+02 0.  0.
         12    1    1    2    0    0 -0.11052929063E+01  0.28109564448E+02  0.15011740228E+02  0.31886072673E+02  0.00000000000E+00 0. -1.
         11    1    3    3    0    0  0.61979527435E+01  0.50081966521E+01 -0.12079105417E+02  0.14470709722E+02  0.51100000000E-03 0. -1.
        -11    1    3    3    0    0 -0.85515032727E+01  0.21902455898E+01 -0.30933512392E+01  0.93538337657E+01  0.51100000000E-03 0.  1.
        -12    1    3    3    0    0  0.34588434355E+01 -0.35308006690E+02  0.16071642852E+00  0.35477383839E+02  0.00000000000E+00 0.  1.
</event>
<event>
 7    1  0.3461631E-013  0.5930194E+02  0.7816164E-02  0.1266605E+00
        -11   -1    0    0    0    0  0.00000000000E+00  0.00000000000E+00  0.45593999997E+02  0.45594000000E+02  0.51100000000E-03 0. -1.
         11   -1    0    0    0    0 -0.00000000000E+00 -0.00000000000E+00 -0.45593999997E+02  0.45594000000E+02  0.51100000000E-03 0.  1.
    9900012    2    1    2    0    0  0.30168407176E+01  0.71860819075E+01 -0.30918917794E+02  0.59301943821E+02  0.49999999623E+02 0.  0.
         12    1    1    2    0    0 -0.30168407176E+01 -0.71860819075E+01  0.30918917794E+02  0.31886056179E+02  0.00000000000E+00 0. -1.
         11    1    3    3    0    0 -0.49307953078E+00  0.42324060304E+00  0.18172528724E+01  0.19299399719E+01  0.51100000000E-03 0. -1.
        -11    1    3    3    0    0 -0.19836829453E+02  0.32490169343E+01 -0.45601851776E+01  0.20611918952E+02  0.51100000000E-03 0.  1.
         12    1    3    3    0    0  0.23346749701E+02  0.35138243702E+01 -0.28175985489E+02  0.36760084897E+02  0.00000000000E+00 0. -1.
</event>
<event>
 7    1  0.3461631E-013  0.5930203E+02  0.7816164E-02  0.1266604E+00
        -11   -1    0    0    0    0  0.00000000000E+00  0.00000000000E+00  0.45593999997E+02  0.45594000000E+02  0.51100000000E-03 0. -1.
         11   -1    0    0    0    0 -0.00000000000E+00 -0.00000000000E+00 -0.45593999997E+02  0.45594000000E+02  0.51100000000E-03 0.  1.
    9900012    2    1    2    0    0  0.25185450322E+02  0.14730130903E+02 -0.12862015143E+02  0.59302029764E+02  0.50000156362E+02 0.  0.
         12    1    1    2    0    0 -0.25185450322E+02 -0.14730130903E+02  0.12862015143E+02  0.31885970236E+02  0.00000000000E+00 0. -1.
         11    1    3    3    0    0 -0.49924151220E+01 -0.72394365351E+01  0.63201732238E+01  0.10829507834E+02  0.51100000000E-03 0. -1.
        -11    1    3    3    0    0  0.33866883029E+01 -0.50107271856E+01 -0.39207426669E+00  0.60605913145E+01  0.51100000000E-03 0.  1.
        -12    1    3    3    0    0  0.26791177141E+02  0.26980294624E+02 -0.18790114100E+02  0.42411930615E+02  0.00000000000E+00 0.  1.
</event>
<event>
 7    1  0.3461631E-013  0.5930195E+02  0.7816164E-02  0.1266605E+00
        -11   -1    0    0    0    0  0.00000000000E+00  0.00000000000E+00  0.45593999997E+02  0.45594000000E+02  0.51100000000E-03 0. -1.
         11   -1    0    0    0    0 -0.00000000000E+00 -0.00000000000E+00 -0.45593999997E+02  0.45594000000E+02  0.51100000000E-03 0.  1.
    9900012    2    1    2    0    0  0.19439505173E+02 -0.10484874151E+02 -0.22997681773E+02  0.59301947967E+02  0.50000007184E+02 0.  0.
         12    1    1    2    0    0 -0.19439505173E+02  0.10484874151E+02  0.22997681773E+02  0.31886052033E+02  0.00000000000E+00 0. -1.
         11    1    3    3    0    0  0.76007367288E+01 -0.61452404565E+01  0.53178470046E+01  0.11127204326E+02  0.51100000000E-03 0. -1.
        -11    1    3    3    0    0  0.24508314934E+02  0.16624253631E+01 -0.21225734058E+02  0.32464641466E+02  0.51100000000E-03 0.  1.
        -12    1    3    3    0    0 -0.12669546489E+02 -0.60020590579E+01 -0.70897947197E+01  0.15710102175E+02  0.00000000000E+00 0.  1.
</event>
<event>
 7    1  0.3461631E-013  0.5930191E+02  0.7816164E-02  0.1266605E+00
        -11   -1    0    0    0    0  0.00000000000E+00  0.00000000000E+00  0.45593999997E+02  0.45594000000E+02  0.51100000000E-03 0.  1.
         11   -1    0    0    0    0 -0.00000000000E+00 -0.00000000000E+00 -0.45593999997E+02  0.45594000000E+02  0.51100000000E-03 0. -1.
    9900012    2    1    2    0    0  0.31862088847E+01  0.30942842465E+02  0.70079321482E+01  0.59301913068E+02  0.49999943536E+02 0.  0.
         12    1    1    2    0    0 -0.31862088847E+01 -0.30942842465E+02 -0.70079321482E+01  0.31886086932E+02  0.00000000000E+00 0. -1.
         11    1    3    3    0    0 -0.79059120297E+01 -0.17746978946E+01  0.10454705609E+02  0.13227012787E+02  0.51100000000E-03 0. -1.
        -11    1    3    3    0    0  0.46510367036E+00  0.29468587706E+01  0.10943579544E+02  0.11342937518E+02  0.51100000000E-03 0.  1.
        -12    1    3    3    0    0  0.10627017244E+02  0.29770681589E+02 -0.14390353005E+02  0.34731962763E+02  0.00000000000E+00 0.  1.
</event>
<event>
 7    1  0.3461631E-013  0.5930227E+02  0.7816164E-02  0.1266604E+00
        -11   -1    0    0    0    0  0.00000000000E+00  0.00000000000E+00  0.45593999997E+02  0.45594000000E+02  0.51100000000E-03 0. -1.
         11   -1    0    0    0    0 -0.00000000000E+00 -0.00000000000E+00 -0.45593999997E+02  0.45594000000E+02  0.51100000000E-03 0.  1.
    9900012    2    1    2    0    0  0.16545619608E+01 -0.11861591728E+02 -0.29551055961E+02  0.59302268990E+02  0.50000592650E+02 0.  0.
         12    1    1    2    0    0 -0.16545619608E+01  0.11861591728E+02  0.29551055961E+02  0.31885731010E+02  0.00000000000E+00 0. -1.
         11    1    3    3    0    0  0.46566930079E+01 -0.58027781175E+01 -0.20039304883E+01  0.77053722371E+01  0.51100000000E-03 0. -1.
        -11    1    3    3    0    0  0.18251762325E+02 -0.90136647896E+01 -0.20798425790E+02  0.29102362387E+02  0.51100000000E-03 0.  1.
         12    1    3    3    0    0 -0.21253893372E+02  0.29548511794E+01 -0.67486996835E+01  0.22494534366E+02  0.00000000000E+00 0. -1.
</event>
<event>
 7    1  0.3461631E-013  0.5930199E+02  0.7816164E-02  0.1266605E+00
        -11   -1    0    0    0    0  0.00000000000E+00  0.00000000000E+00  0.45593999997E+02  0.45594000000E+02  0.51100000000E-03 0.  1.
         11   -1    0    0    0    0 -0.00000000000E+00 -0.00000000000E+00 -0.45593999997E+02  0.45594000000E+02  0.51100000000E-03 0. -1.
    9900012    2    1    2    0    0 -0.23431606225E+02  0.75655801053E+01  0.20259311723E+02  0.59301986073E+02  0.50000076681E+02 0.  0.
         12    1    1    2    0    0  0.23431606225E+02 -0.75655801053E+01 -0.20259311723E+02  0.31886013927E+02  0.00000000000E+00 0. -1.
         11    1    3    3    0    0 -0.14264534679E+02 -0.86813500179E+01 -0.85585448219E+01  0.18764100764E+02  0.51100000000E-03 0. -1.
        -11    1    3    3    0    0 -0.69213930400E+01 -0.31504679092E+00 -0.33193800492E+00  0.69365062672E+01  0.51100000000E-03 0.  1.
        -12    1    3    3    0    0 -0.22456785064E+01  0.16561976914E+02  0.29149794550E+02  0.33601379043E+02  0.00000000000E+00 0.  1.
</event>
<event>
 7    1  0.3461631E-013  0.5930192E+02  0.7816164E-02  0.1266605E+00
        -11   -1    0    0    0    0  0.00000000000E+00  0.00000000000E+00  0.45593999997E+02  0.45594000000E+02  0.51100000000E-03 0.  1.
         11   -1    0    0    0    0 -0.00000000000E+00 -0.00000000000E+00 -0.45593999997E+02  0.45594000000E+02  0.51100000000E-03 0. -1.
    9900012    2    1    2    0    0 -0.29521523499E+02  0.93469355987E+01  0.76050406183E+01  0.59301918434E+02  0.49999953324E+02 0.  0.
         12    1    1    2    0    0  0.29521523499E+02 -0.93469355987E+01 -0.76050406183E+01  0.31886081566E+02  0.00000000000E+00 0. -1.
         11    1    3    3    0    0 -0.24849045007E+02 -0.72842280762E+01  0.10716068790E+02  0.28024438388E+02  0.51100000000E-03 0. -1.
        -11    1    3    3    0    0 -0.51908058345E+01  0.11912051055E+02  0.10599196431E+02  0.16768553628E+02  0.51100000000E-03 0.  1.
        -12    1    3    3    0    0  0.51832734192E+00  0.47191126200E+01 -0.13710224602E+02  0.14508926418E+02  0.00000000000E+00 0.  1.
</event>
<event>
 7    1  0.3461631E-013  0.5930195E+02  0.7816164E-02  0.1266605E+00
        -11   -1    0    0    0    0  0.00000000000E+00  0.00000000000E+00  0.45593999997E+02  0.45594000000E+02  0.51100000000E-03 0.  1.
         11   -1    0    0    0    0 -0.00000000000E+00 -0.00000000000E+00 -0.45593999997E+02  0.45594000000E+02  0.51100000000E-03 0. -1.
    9900012    2    1    2    0    0  0.19135054064E+02 -0.20284973472E+02  0.15462520107E+02  0.59301953352E+02  0.50000017006E+02 0.  0.
         12    1    1    2    0    0 -0.19135054064E+02  0.20284973472E+02 -0.15462520107E+02  0.31886046648E+02  0.00000000000E+00 0. -1.
         11    1    3    3    0    0  0.12764439648E+02 -0.15362127825E+01  0.50746866557E+01  0.13821841924E+02  0.51100000000E-03 0. -1.
        -11    1    3    3    0    0  0.18109359794E+02 -0.24670008382E+02  0.10432086168E+02  0.32332439558E+02  0.51100000000E-03 0.  1.
         12    1    3    3    0    0 -0.11738745378E+02  0.59212476932E+01 -0.44252716653E-01  0.13147671870E+02  0.00000000000E+00 0. -1.
</event>
<event>
 7    1  0.3461631E-013  0.5930190E+02  0.7816164E-02  0.1266605E+00
        -11   -1    0    0    0    0  0.00000000000E+00  0.00000000000E+00  0.45593999997E+02  0.45594000000E+02  0.51100000000E-03 0.  1.
         11   -1    0    0    0    0 -0.00000000000E+00 -0.00000000000E+00 -0.45593999997E+02  0.45594000000E+02  0.51100000000E-03 0. -1.
    9900012    2    1    2    0    0  0.17727579116E+02  0.13879612202E+02  0.22579034198E+02  0.59301898301E+02  0.49999916606E+02 0.  0.
         12    1    1    2    0    0 -0.17727579116E+02 -0.13879612202E+02 -0.22579034198E+02  0.31886101699E+02  0.00000000000E+00 0. -1.
         11    1    3    3    0    0  0.10537378406E+02  0.10265245314E+02  0.22218485398E+02  0.26647189320E+02  0.51100000000E-03 0. -1.
        -11    1    3    3    0    0 -0.69770885282E+01  0.12367548987E+02  0.54979336990E+01  0.15227058399E+02  0.51100000000E-03 0.  1.
         12    1    3    3    0    0  0.14167289238E+02 -0.87531820986E+01 -0.51373848987E+01  0.17427650582E+02  0.00000000000E+00 0. -1.
</event>
<event>
 7    1  0.3461631E-013  0.5930196E+02  0.7816164E-02  0.1266605E+00
        -11   -1    0    0    0    0  0.00000000000E+00  0.00000000000E+00  0.45593999997E+02  0.45594000000E+02  0.51100000000E-03 0.  1.
         11   -1    0    0    0    0 -0.00000000000E+00 -0.00000000000E+00 -0.45593999997E+02  0.45594000000E+02  0.51100000000E-03 0. -1.
    9900012    2    1    2    0    0  0.46680674801E+01 -0.18268470642E+02  0.25713652584E+02  0.59301955987E+02  0.50000021810E+02 0.  0.
         12    1    1    2    0    0 -0.46680674801E+01  0.18268470642E+02 -0.25713652584E+02  0.31886044013E+02  0.00000000000E+00 0. -1.
         11    1    3    3    0    0 -0.42105915726E+00 -0.82269745827E+01  0.58047186161E+01  0.10077458016E+02  0.51100000000E-03 0.  1.
        -11    1    3    3    0    0 -0.24213582396E+00 -0.13261101192E+01 -0.13869470071E+02  0.13934826806E+02  0.51100000000E-03 0. -1.
         12    1    3    3    0    0  0.53312624613E+01 -0.87153859403E+01  0.33778404039E+02  0.35289671165E+02  0.00000000000E+00 0. -1.
</event>
<event>
 7    1  0.3461631E-013  0.5930202E+02  0.7816164E-02  0.1266605E+00
        -11   -1    0    0    0    0  0.00000000000E+00  0.00000000000E+00  0.45593999997E+02  0.45594000000E+02  0.51100000000E-03 0.  1.
         11   -1    0    0    0    0 -0.00000000000E+00 -0.00000000000E+00 -0.45593999997E+02  0.45594000000E+02  0.51100000000E-03 0. -1.
    9900012    2    1    2    0    0  0.10568250139E+02 -0.12319254880E+02  0.27445654526E+02  0.59302017121E+02  0.50000133305E+02 0.  0.
         12    1    1    2    0    0 -0.10568250139E+02  0.12319254880E+02 -0.27445654526E+02  0.31885982879E+02  0.00000000000E+00 0. -1.
         11    1    3    3    0    0  0.66089560344E+01 -0.40295591001E+01  0.25110979325E+02  0.26276927699E+02  0.51100000000E-03 0.  1.
        -11    1    3    3    0    0  0.48080682930E+01 -0.10272017662E+01  0.16427962990E+02  0.17147904608E+02  0.51100000000E-03 0. -1.
         12    1    3    3    0    0 -0.84877418801E+00 -0.72624940138E+01 -0.14093287789E+02  0.15877184814E+02  0.00000000000E+00 0. -1.
</event>
<event>
 7    1  0.3461631E-013  0.5930197E+02  0.7816164E-02  0.1266605E+00
        -11   -1    0    0    0    0  0.00000000000E+00  0.00000000000E+00  0.45593999997E+02  0.45594000000E+02  0.51100000000E-03 0.  1.
         11   -1    0    0    0    0 -0.00000000000E+00 -0.00000000000E+00 -0.45593999997E+02  0.45594000000E+02  0.51100000000E-03 0. -1.
    9900012    2    1    2    0    0 -0.20820924398E+02 -0.96054419218E+01  0.22157246666E+02  0.59301968778E+02  0.50000045138E+02 0.  0.
         12    1    1    2    0    0  0.20820924398E+02  0.96054419218E+01 -0.22157246666E+02  0.31886031222E+02  0.00000000000E+00 0. -1.
         11    1    3    3    0    0 -0.10696007707E+02 -0.18020958374E+02  0.15116878309E+02  0.25839495576E+02  0.51100000000E-03 0. -1.
        -11    1    3    3    0    0 -0.19818763169E+02  0.35977879510E+01  0.96385598286E+01  0.22330008677E+02  0.51100000000E-03 0.  1.
         12    1    3    3    0    0  0.96938464786E+01  0.48177285008E+01 -0.25981914713E+01  0.11132464524E+02  0.00000000000E+00 0. -1.
</event>
<event>
 7    1  0.3461631E-013  0.5930194E+02  0.7816164E-02  0.1266605E+00
        -11   -1    0    0    0    0  0.00000000000E+00  0.00000000000E+00  0.45593999997E+02  0.45594000000E+02  0.51100000000E-03 0.  1.
         11   -1    0    0    0    0 -0.00000000000E+00 -0.00000000000E+00 -0.45593999997E+02  0.45594000000E+02  0.51100000000E-03 0. -1.
    9900012    2    1    2    0    0  0.29785749998E+01 -0.28996210371E+02  0.12925501902E+02  0.59301941536E+02  0.49999995456E+02 0.  0.
         12    1    1    2    0    0 -0.29785749998E+01  0.28996210371E+02 -0.12925501902E+02  0.31886058464E+02  0.00000000000E+00 0. -1.
         11    1    3    3    0    0  0.57973406460E+01 -0.25629733183E+02  0.27243233216E+01  0.26418068049E+02  0.51100000000E-03 0. -1.
        -11    1    3    3    0    0 -0.72171388111E+01 -0.15879790419E+02  0.27140311854E+01  0.17652784537E+02  0.51100000000E-03 0.  1.
         12    1    3    3    0    0  0.43983731648E+01  0.12513313231E+02  0.74871473953E+01  0.15231088951E+02  0.00000000000E+00 0. -1.
</event>
<event>
 7    1  0.3461631E-013  0.5930195E+02  0.7816164E-02  0.1266605E+00
        -11   -1    0    0    0    0  0.00000000000E+00  0.00000000000E+00  0.45593999997E+02  0.45594000000E+02  0.51100000000E-03 0.  1.
         11   -1    0    0    0    0 -0.00000000000E+00 -0.00000000000E+00 -0.45593999997E+02  0.45594000000E+02  0.51100000000E-03 0. -1.
    9900012    2    1    2    0    0  0.23723075474E+02 -0.21133672074E+02 -0.27025833683E+01  0.59301947216E+02  0.50000005815E+02 0.  0.
         12    1    1    2    0    0 -0.23723075474E+02  0.21133672074E+02  0.27025833683E+01  0.31886052784E+02  0.00000000000E+00 0. -1.
         11    1    3    3    0    0  0.56169875967E+00 -0.23268439959E+02  0.62574358304E-01  0.23275302778E+02  0.51100000000E-03 0. -1.
        -11    1    3    3    0    0  0.23791373084E+02 -0.66863101594E+01  0.38120979352E+01  0.25005364779E+02  0.51100000000E-03 0.  1.
         12    1    3    3    0    0 -0.62999637002E+00  0.88210780444E+01 -0.65772556618E+01  0.11021279659E+02  0.00000000000E+00 0. -1.
</event>
<event>
 7    1  0.3461631E-013  0.5930193E+02  0.7816164E-02  0.1266605E+00
        -11   -1    0    0    0    0  0.00000000000E+00  0.00000000000E+00  0.45593999997E+02  0.45594000000E+02  0.51100000000E-03 0.  1.
         11   -1    0    0    0    0 -0.00000000000E+00 -0.00000000000E+00 -0.45593999997E+02  0.45594000000E+02  0.51100000000E-03 0. -1.
    9900012    2    1    2    0    0  0.28070743433E+02  0.13679903935E+02 -0.64509834042E+01  0.59301927877E+02  0.49999970545E+02 0.  0.
         12    1    1    2    0    0 -0.28070743433E+02 -0.13679903935E+02  0.64509834042E+01  0.31886072123E+02  0.00000000000E+00 0. -1.
         11    1    3    3    0    0  0.45105119992E+01  0.65773712097E+01 -0.62476828716E+01  0.10131143669E+02  0.51100000000E-03 0. -1.
        -11    1    3    3    0    0  0.23174934852E+02 -0.13628993672E+02 -0.61898071564E+01  0.27588780089E+02  0.51100000000E-03 0.  1.
         12    1    3    3    0    0  0.38529658153E+00  0.20731526397E+02  0.59865066238E+01  0.21582004118E+02  0.00000000000E+00 0. -1.
</event>
<event>
 7    1  0.3461631E-013  0.5930194E+02  0.7816164E-02  0.1266605E+00
        -11   -1    0    0    0    0  0.00000000000E+00  0.00000000000E+00  0.45593999997E+02  0.45594000000E+02  0.51100000000E-03 0.  1.
         11   -1    0    0    0    0 -0.00000000000E+00 -0.00000000000E+00 -0.45593999997E+02  0.45594000000E+02  0.51100000000E-03 0. -1.
    9900012    2    1    2    0    0 -0.77153738434E+00  0.10346322450E+02  0.30150937532E+02  0.59301942040E+02  0.49999996375E+02 0.  0.
         12    1    1    2    0    0  0.77153738434E+00 -0.10346322450E+02 -0.30150937532E+02  0.31886057960E+02  0.00000000000E+00 0. -1.
         11    1    3    3    0    0  0.15322601467E+01 -0.86232145830E+01 -0.18304347794E+01  0.89475215923E+01  0.51100000000E-03 0. -1.
        -11    1    3    3    0    0  0.13086838615E+02  0.13402584892E+02  0.60403759289E+01  0.19681990965E+02  0.51100000000E-03 0.  1.
         12    1    3    3    0    0 -0.15390636146E+02  0.55669521407E+01  0.25940996382E+02  0.30672429483E+02  0.00000000000E+00 0. -1.
</event>
<event>
 7    1  0.3461631E-013  0.5930192E+02  0.7816164E-02  0.1266605E+00
        -11   -1    0    0    0    0  0.00000000000E+00  0.00000000000E+00  0.45593999997E+02  0.45594000000E+02  0.51100000000E-03 0.  1.
         11   -1    0    0    0    0 -0.00000000000E+00 -0.00000000000E+00 -0.45593999997E+02  0.45594000000E+02  0.51100000000E-03 0. -1.
    9900012    2    1    2    0    0  0.14151578537E+02 -0.16589980322E+02  0.23264295326E+02  0.59301920605E+02  0.49999957283E+02 0.  0.
         12    1    1    2    0    0 -0.14151578537E+02  0.16589980322E+02 -0.23264295326E+02  0.31886079395E+02  0.00000000000E+00 0. -1.
         11    1    3    3    0    0  0.15930522520E+01 -0.23459793436E+02  0.11825901575E+02  0.26320176137E+02  0.51100000000E-03 0. -1.
        -11    1    3    3    0    0 -0.26012277955E+00 -0.35475640971E+01  0.15556735947E+02  0.15958223851E+02  0.51100000000E-03 0.  1.
         12    1    3    3    0    0  0.12818649064E+02  0.10417377211E+02 -0.41183421959E+01  0.17023520618E+02  0.00000000000E+00 0. -1.
</event>
<event>
 7    1  0.3461631E-013  0.5930195E+02  0.7816164E-02  0.1266605E+00
        -11   -1    0    0    0    0  0.00000000000E+00  0.00000000000E+00  0.45593999997E+02  0.45594000000E+02  0.51100000000E-03 0.  1.
         11   -1    0    0    0    0 -0.00000000000E+00 -0.00000000000E+00 -0.45593999997E+02  0.45594000000E+02  0.51100000000E-03 0. -1.
    9900012    2    1    2    0    0 -0.10276857028E+02 -0.18307061567E+02  0.23999123280E+02  0.59301949574E+02  0.50000010115E+02 0.  0.
         12    1    1    2    0    0  0.10276857028E+02  0.18307061567E+02 -0.23999123280E+02  0.31886050426E+02  0.00000000000E+00 0. -1.
         11    1    3    3    0    0  0.15433162916E+01  0.31661190008E+01 -0.11702002753E+02  0.12220597506E+02  0.51100000000E-03 0. -1.
        -11    1    3    3    0    0 -0.10235150475E+02 -0.12031992408E+01  0.13372220087E+02  0.16882602405E+02  0.51100000000E-03 0.  1.
        -12    1    3    3    0    0 -0.15850228440E+01 -0.20269981327E+02  0.22328905947E+02  0.30198749663E+02  0.00000000000E+00 0.  1.
</event>
<event>
 7    1  0.3461631E-013  0.5930194E+02  0.7816164E-02  0.1266605E+00
        -11   -1    0    0    0    0  0.00000000000E+00  0.00000000000E+00  0.45593999997E+02  0.45594000000E+02  0.51100000000E-03 0.  1.
         11   -1    0    0    0    0 -0.00000000000E+00 -0.00000000000E+00 -0.45593999997E+02  0.45594000000E+02  0.51100000000E-03 0. -1.
    9900012    2    1    2    0    0  0.25337481160E+02 -0.13326098853E+02 -0.14040947061E+02  0.59301936327E+02  0.49999985956E+02 0.  0.
         12    1    1    2    0    0 -0.25337481160E+02  0.13326098853E+02  0.14040947061E+02  0.31886063673E+02  0.00000000000E+00 0. -1.
         11    1    3    3    0    0 -0.76788276198E+01  0.72589812778E+01 -0.20847387205E+01  0.10770484604E+02  0.51100000000E-03 0. -1.
        -11    1    3    3    0    0  0.62635007207E+01 -0.12166402861E+02 -0.15019595164E+02  0.20318490077E+02  0.51100000000E-03 0.  1.
         12    1    3    3    0    0  0.26752808059E+02 -0.84186772702E+01  0.30633868236E+01  0.28212961646E+02  0.00000000000E+00 0. -1.
</event>
<event>
 7    1  0.3461631E-013  0.5930194E+02  0.7816164E-02  0.1266605E+00
        -11   -1    0    0    0    0  0.00000000000E+00  0.00000000000E+00  0.45593999997E+02  0.45594000000E+02  0.51100000000E-03 0.  1.
         11   -1    0    0    0    0 -0.00000000000E+00 -0.00000000000E+00 -0.45593999997E+02  0.45594000000E+02  0.51100000000E-03 0. -1.
    9900012    2    1    2    0    0  0.14843133529E+02 -0.15616605673E+02  0.23505831824E+02  0.59301935404E+02  0.49999984273E+02 0.  0.
         12    1    1    2    0    0 -0.14843133529E+02  0.15616605673E+02 -0.23505831824E+02  0.31886064596E+02  0.00000000000E+00 0. -1.
         11    1    3    3    0    0 -0.18424931646E+01 -0.15764724890E+01 -0.67917052976E+01  0.72116092296E+01  0.51100000000E-03 0. -1.
        -11    1    3    3    0    0  0.15710893739E+02 -0.11780614226E+02 -0.19640188898E+01  0.19735055715E+02  0.51100000000E-03 0.  1.
        -12    1    3    3    0    0  0.97473295490E+00 -0.22595189575E+01  0.32261556011E+02  0.32355270460E+02  0.00000000000E+00 0.  1.
</event>
<event>
 7    1  0.3461631E-013  0.5930195E+02  0.7816164E-02  0.1266605E+00
        -11   -1    0    0    0    0  0.00000000000E+00  0.00000000000E+00  0.45593999997E+02  0.45594000000E+02  0.51100000000E-03 0. -1.
         11   -1    0    0    0    0 -0.00000000000E+00 -0.00000000000E+00 -0.45593999997E+02  0.45594000000E+02  0.51100000000E-03 0.  1.
    9900012    2    1    2    0    0 -0.25855243939E+02  0.15749918061E+02 -0.10008330000E+02  0.59301949327E+02  0.50000009665E+02 0.  0.
         12    1    1    2    0    0  0.25855243939E+02 -0.15749918061E+02  0.10008330000E+02  0.31886050673E+02  0.00000000000E+00 0. -1.
         11    1    3    3    0    0 -0.19243471563E+01  0.93822360146E+01 -0.98138108880E+01  0.13712780499E+02  0.51100000000E-03 0. -1.
        -11    1    3    3    0    0 -0.25266121850E+02 -0.78612379591E+01 -0.99672738240E+01  0.28275829313E+02  0.51100000000E-03 0.  1.
         12    1    3    3    0    0  0.13352250673E+01  0.14228920006E+02  0.97727547115E+01  0.17313339515E+02  0.00000000000E+00 0. -1.
</event>
<event>
 7    1  0.3461631E-013  0.5930179E+02  0.7816164E-02  0.1266605E+00
        -11   -1    0    0    0    0  0.00000000000E+00  0.00000000000E+00  0.45593999997E+02  0.45594000000E+02  0.51100000000E-03 0.  1.
         11   -1    0    0    0    0 -0.00000000000E+00 -0.00000000000E+00 -0.45593999997E+02  0.45594000000E+02  0.51100000000E-03 0. -1.
    9900012    2    1    2    0    0 -0.58607971191E+01 -0.20586551682E+02  0.23634197139E+02  0.59301790952E+02  0.49999720826E+02 0.  0.
         12    1    1    2    0    0  0.58607971191E+01  0.20586551682E+02 -0.23634197139E+02  0.31886209048E+02  0.00000000000E+00 0. -1.
         11    1    3    3    0    0 -0.12195513388E+02 -0.16428536733E+01  0.19332398233E+02  0.22916612679E+02  0.51100000000E-03 0. -1.
        -11    1    3    3    0    0 -0.52721921840E+01  0.19636601265E+00  0.11679876206E+02  0.12816164734E+02  0.51100000000E-03 0.  1.
         12    1    3    3    0    0  0.11606908453E+02 -0.19140064021E+02 -0.73780772995E+01  0.23569013539E+02  0.00000000000E+00 0. -1.
</event>
<event>
 7    1  0.3461631E-013  0.5930196E+02  0.7816164E-02  0.1266605E+00
        -11   -1    0    0    0    0  0.00000000000E+00  0.00000000000E+00  0.45593999997E+02  0.45594000000E+02  0.51100000000E-03 0.  1.
         11   -1    0    0    0    0 -0.00000000000E+00 -0.00000000000E+00 -0.45593999997E+02  0.45594000000E+02  0.51100000000E-03 0. -1.
    9900012    2    1    2    0    0  0.80682939427E+01 -0.29363167201E+02  0.94565724110E+01  0.59301957332E+02  0.50000024264E+02 0.  0.
         12    1    1    2    0    0 -0.80682939427E+01  0.29363167201E+02 -0.94565724110E+01  0.31886042668E+02  0.00000000000E+00 0. -1.
         11    1    3    3    0    0  0.13755175155E+02  0.61885070122E+01 -0.65791689176E+01  0.16455635099E+02  0.51100000000E-03 0. -1.
        -11    1    3    3    0    0  0.26325380343E+01 -0.65498048232E+01  0.97332281739E+01  0.12023557322E+02  0.51100000000E-03 0.  1.
        -12    1    3    3    0    0 -0.83194192470E+01 -0.29001869390E+02  0.63025131547E+01  0.30822764912E+02  0.00000000000E+00 0.  1.
</event>
<event>
 7    1  0.3461631E-013  0.5930199E+02  0.7816164E-02  0.1266605E+00
        -11   -1    0    0    0    0  0.00000000000E+00  0.00000000000E+00  0.45593999997E+02  0.45594000000E+02  0.51100000000E-03 0.  1.
         11   -1    0    0    0    0 -0.00000000000E+00 -0.00000000000E+00 -0.45593999997E+02  0.45594000000E+02  0.51100000000E-03 0. -1.
    9900012    2    1    2    0    0 -0.11825030164E+02  0.40449502894E+01  0.29334697850E+02  0.59301992737E+02  0.50000088835E+02 0.  0.
         12    1    1    2    0    0  0.11825030164E+02 -0.40449502894E+01 -0.29334697850E+02  0.31886007263E+02  0.00000000000E+00 0. -1.
         11    1    3    3    0    0 -0.14852056057E+02  0.43583773581E+01 -0.48862143043E+01  0.16231269599E+02  0.51100000000E-03 0. -1.
        -11    1    3    3    0    0 -0.10954246389E+02 -0.16072119733E+01  0.21222025765E+02  0.23936437122E+02  0.51100000000E-03 0.  1.
        -12    1    3    3    0    0  0.13981272282E+02  0.12937849046E+01  0.12998886389E+02  0.19134286016E+02  0.00000000000E+00 0.  1.
</event>
<event>
 7    1  0.3461631E-013  0.5930195E+02  0.7816164E-02  0.1266605E+00
        -11   -1    0    0    0    0  0.00000000000E+00  0.00000000000E+00  0.45593999997E+02  0.45594000000E+02  0.51100000000E-03 0. -1.
         11   -1    0    0    0    0 -0.00000000000E+00 -0.00000000000E+00 -0.45593999997E+02  0.45594000000E+02  0.51100000000E-03 0.  1.
    9900012    2    1    2    0    0  0.11686160207E+02 -0.52801828152E+01 -0.29193729314E+02  0.59301945020E+02  0.50000001809E+02 0.  0.
         12    1    1    2    0    0 -0.11686160207E+02  0.52801828152E+01  0.29193729314E+02  0.31886054980E+02  0.00000000000E+00 0. -1.
         11    1    3    3    0    0 -0.10683930856E+02  0.29294059776E+01  0.84102329084E+00  0.11110135839E+02  0.51100000000E-03 0. -1.
        -11    1    3    3    0    0 -0.10627814290E+01  0.74703637501E+01 -0.81911462673E+00  0.75899135672E+01  0.51100000000E-03 0.  1.
        -12    1    3    3    0    0  0.23432872492E+02 -0.15679952543E+02 -0.29215637978E+02  0.40601895614E+02  0.00000000000E+00 0.  1.
</event>
<event>
 7    1  0.3461631E-013  0.5930196E+02  0.7816164E-02  0.1266605E+00
        -11   -1    0    0    0    0  0.00000000000E+00  0.00000000000E+00  0.45593999997E+02  0.45594000000E+02  0.51100000000E-03 0.  1.
         11   -1    0    0    0    0 -0.00000000000E+00 -0.00000000000E+00 -0.45593999997E+02  0.45594000000E+02  0.51100000000E-03 0. -1.
    9900012    2    1    2    0    0 -0.33516345912E+01  0.77736552795E+00  0.31699870236E+02  0.59301960350E+02  0.50000029767E+02 0.  0.
         12    1    1    2    0    0  0.33516345912E+01 -0.77736552795E+00 -0.31699870236E+02  0.31886039650E+02  0.00000000000E+00 0. -1.
         11    1    3    3    0    0  0.46942825224E+01 -0.10029759512E+02 -0.13677682271E+01  0.11158098156E+02  0.51100000000E-03 0. -1.
        -11    1    3    3    0    0 -0.31412559250E+01  0.72586222694E+01 -0.51575917246E+01  0.94422369539E+01  0.51100000000E-03 0.  1.
        -12    1    3    3    0    0 -0.49046611886E+01  0.35485027710E+01  0.38225230188E+02  0.38701625240E+02  0.00000000000E+00 0.  1.
</event>
<event>
 7    1  0.3461631E-013  0.5930196E+02  0.7816164E-02  0.1266605E+00
        -11   -1    0    0    0    0  0.00000000000E+00  0.00000000000E+00  0.45593999997E+02  0.45594000000E+02  0.51100000000E-03 0. -1.
         11   -1    0    0    0    0 -0.00000000000E+00 -0.00000000000E+00 -0.45593999997E+02  0.45594000000E+02  0.51100000000E-03 0.  1.
    9900012    2    1    2    0    0 -0.15525027474E+02 -0.17801933058E+02 -0.21419253721E+02  0.59301957150E+02  0.50000023932E+02 0.  0.
         12    1    1    2    0    0  0.15525027474E+02  0.17801933058E+02  0.21419253721E+02  0.31886042850E+02  0.00000000000E+00 0. -1.
         11    1    3    3    0    0 -0.64850327753E+01 -0.72720380975E+00  0.49743161790E+01  0.82053822085E+01  0.51100000000E-03 0. -1.
        -11    1    3    3    0    0  0.47001962911E+01  0.16233676165E+01 -0.27422854523E+02  0.27870057733E+02  0.51100000000E-03 0.  1.
         12    1    3    3    0    0 -0.13740190989E+02 -0.18698096865E+02  0.10292846233E+01  0.23226517209E+02  0.00000000000E+00 0. -1.
</event>
<event>
 7    1  0.3461631E-013  0.5930195E+02  0.7816164E-02  0.1266605E+00
        -11   -1    0    0    0    0  0.00000000000E+00  0.00000000000E+00  0.45593999997E+02  0.45594000000E+02  0.51100000000E-03 0.  1.
         11   -1    0    0    0    0 -0.00000000000E+00 -0.00000000000E+00 -0.45593999997E+02  0.45594000000E+02  0.51100000000E-03 0. -1.
    9900012    2    1    2    0    0  0.45763537162E+01  0.26036366320E+02  0.17829329599E+02  0.59301946960E+02  0.50000005348E+02 0.  0.
         12    1    1    2    0    0 -0.45763537162E+01 -0.26036366320E+02 -0.17829329599E+02  0.31886053040E+02  0.00000000000E+00 0. -1.
         11    1    3    3    0    0  0.88703983206E+01  0.19285822593E+02 -0.14222409754E+02  0.25551983464E+02  0.51100000000E-03 0. -1.
        -11    1    3    3    0    0 -0.35668757601E+01  0.44136890741E+01  0.95003336880E+01  0.11066146320E+02  0.51100000000E-03 0.  1.
        -12    1    3    3    0    0 -0.72716884434E+00  0.23368546532E+01  0.22551405666E+02  0.22683817177E+02  0.00000000000E+00 0.  1.
</event>
<event>
 7    1  0.3461631E-013  0.5930195E+02  0.7816164E-02  0.1266605E+00
        -11   -1    0    0    0    0  0.00000000000E+00  0.00000000000E+00  0.45593999997E+02  0.45594000000E+02  0.51100000000E-03 0. -1.
         11   -1    0    0    0    0 -0.00000000000E+00 -0.00000000000E+00 -0.45593999997E+02  0.45594000000E+02  0.51100000000E-03 0.  1.
    9900012    2    1    2    0    0  0.28367206884E+01  0.17757669497E+02 -0.26331316093E+02  0.59301952621E+02  0.50000015673E+02 0.  0.
         12    1    1    2    0    0 -0.28367206884E+01 -0.17757669497E+02  0.26331316093E+02  0.31886047379E+02  0.00000000000E+00 0. -1.
         11    1    3    3    0    0 -0.14006515363E+02  0.76058870760E+01 -0.41806686911E+00  0.15943863114E+02  0.51100000000E-03 0. -1.
        -11    1    3    3    0    0  0.10268107927E+02 -0.40991784772E+01  0.20944563420E+01  0.11252735321E+02  0.51100000000E-03 0.  1.
        -12    1    3    3    0    0  0.65751281245E+01  0.14250960898E+02 -0.28007705566E+02  0.32105354187E+02  0.00000000000E+00 0.  1.
</event>
<event>
 7    1  0.3461631E-013  0.5930195E+02  0.7816164E-02  0.1266605E+00
        -11   -1    0    0    0    0  0.00000000000E+00  0.00000000000E+00  0.45593999997E+02  0.45594000000E+02  0.51100000000E-03 0. -1.
         11   -1    0    0    0    0 -0.00000000000E+00 -0.00000000000E+00 -0.45593999997E+02  0.45594000000E+02  0.51100000000E-03 0.  1.
    9900012    2    1    2    0    0 -0.11424674195E+02  0.24266182529E+02 -0.17243825424E+02  0.59301948030E+02  0.50000007298E+02 0.  0.
         12    1    1    2    0    0  0.11424674195E+02 -0.24266182529E+02  0.17243825424E+02  0.31886051970E+02  0.00000000000E+00 0. -1.
         11    1    3    3    0    0  0.84576029642E+01  0.10241696597E+02 -0.34896586039E+01  0.13733212097E+02  0.51100000000E-03 0. -1.
        -11    1    3    3    0    0  0.82324827465E+01  0.62344699429E+01 -0.12709493334E+02  0.16376007105E+02  0.51100000000E-03 0.  1.
         12    1    3    3    0    0 -0.28114759906E+02  0.77900159895E+01 -0.10446734865E+01  0.29192728827E+02  0.00000000000E+00 0. -1.
</event>
<event>
 7    1  0.3461631E-013  0.5930191E+02  0.7816164E-02  0.1266605E+00
        -11   -1    0    0    0    0  0.00000000000E+00  0.00000000000E+00  0.45593999997E+02  0.45594000000E+02  0.51100000000E-03 0.  1.
         11   -1    0    0    0    0 -0.00000000000E+00 -0.00000000000E+00 -0.45593999997E+02  0.45594000000E+02  0.51100000000E-03 0. -1.
    9900012    2    1    2    0    0  0.20759782274E+02 -0.18676911645E+02  0.15392441820E+02  0.59301908144E+02  0.49999934557E+02 0.  0.
         12    1    1    2    0    0 -0.20759782274E+02  0.18676911645E+02 -0.15392441820E+02  0.31886091856E+02  0.00000000000E+00 0. -1.
         11    1    3    3    0    0  0.24140033637E+02 -0.81073290680E+01 -0.10361215226E+02  0.27492267819E+02  0.51100000000E-03 0. -1.
        -11    1    3    3    0    0 -0.39607209543E+01  0.26875159872E+01  0.10824141495E+02  0.11835205618E+02  0.51100000000E-03 0.  1.
        -12    1    3    3    0    0  0.58046959122E+00 -0.13257098564E+02  0.14929515550E+02  0.19974434707E+02  0.00000000000E+00 0.  1.
</event>
<event>
 7    1  0.3461631E-013  0.5930195E+02  0.7816164E-02  0.1266605E+00
        -11   -1    0    0    0    0  0.00000000000E+00  0.00000000000E+00  0.45593999997E+02  0.45594000000E+02  0.51100000000E-03 0.  1.
         11   -1    0    0    0    0 -0.00000000000E+00 -0.00000000000E+00 -0.45593999997E+02  0.45594000000E+02  0.51100000000E-03 0. -1.
    9900012    2    1    2    0    0 -0.19936157953E+02  0.17253742010E+02  0.17932608961E+02  0.59301945502E+02  0.50000002689E+02 0.  0.
         12    1    1    2    0    0  0.19936157953E+02 -0.17253742010E+02 -0.17932608961E+02  0.31886054498E+02  0.00000000000E+00 0. -1.
         11    1    3    3    0    0  0.11000873133E+01  0.92445751267E+01  0.61824519262E+01  0.11175646444E+02  0.51100000000E-03 0.  1.
        -11    1    3    3    0    0  0.15331198548E+01 -0.12244140286E+02 -0.51948244602E+01  0.13388638066E+02  0.51100000000E-03 0. -1.
         12    1    3    3    0    0 -0.22569365122E+02  0.20253307170E+02  0.16944981495E+02  0.34737660991E+02  0.00000000000E+00 0. -1.
</event>
<event>
 7    1  0.3461631E-013  0.5930194E+02  0.7816164E-02  0.1266605E+00
        -11   -1    0    0    0    0  0.00000000000E+00  0.00000000000E+00  0.45593999997E+02  0.45594000000E+02  0.51100000000E-03 0. -1.
         11   -1    0    0    0    0 -0.00000000000E+00 -0.00000000000E+00 -0.45593999997E+02  0.45594000000E+02  0.51100000000E-03 0.  1.
    9900012    2    1    2    0    0 -0.23572269939E+02  0.10261934083E+01 -0.21447973357E+02  0.59301944363E+02  0.50000000611E+02 0.  0.
         12    1    1    2    0    0  0.23572269939E+02 -0.10261934083E+01  0.21447973357E+02  0.31886055637E+02  0.00000000000E+00 0. -1.
         11    1    3    3    0    0  0.36522090971E+01 -0.57291327798E+00  0.38257141899E+01  0.53200517138E+01  0.51100000000E-03 0. -1.
        -11    1    3    3    0    0 -0.17029154907E+02 -0.91416818508E+01  0.52735094879E+01  0.20034279785E+02  0.51100000000E-03 0.  1.
        -12    1    3    3    0    0 -0.10195324129E+02  0.10740788537E+02 -0.30547197035E+02  0.33947612864E+02  0.00000000000E+00 0.  1.
</event>
<event>
 7    1  0.3461631E-013  0.5930196E+02  0.7816164E-02  0.1266605E+00
        -11   -1    0    0    0    0  0.00000000000E+00  0.00000000000E+00  0.45593999997E+02  0.45594000000E+02  0.51100000000E-03 0. -1.
         11   -1    0    0    0    0 -0.00000000000E+00 -0.00000000000E+00 -0.45593999997E+02  0.45594000000E+02  0.51100000000E-03 0.  1.
    9900012    2    1    2    0    0 -0.30678757335E+02 -0.58513266496E+01  0.64261596416E+01  0.59301957553E+02  0.50000024666E+02 0.  0.
         12    1    1    2    0    0  0.30678757335E+02  0.58513266496E+01 -0.64261596416E+01  0.31886042447E+02  0.00000000000E+00 0. -1.
         11    1    3    3    0    0 -0.14981200270E+01 -0.23921841397E+01 -0.34810584919E+01  0.44815931384E+01  0.51100000000E-03 0. -1.
        -11    1    3    3    0    0 -0.13460296931E+02  0.20924387185E+02  0.54226043508E+01  0.25463978691E+02  0.51100000000E-03 0.  1.
         12    1    3    3    0    0 -0.15720340377E+02 -0.24383529695E+02  0.44846137828E+01  0.29356385724E+02  0.00000000000E+00 0. -1.
</event>
<event>
 7    1  0.3461631E-013  0.5930192E+02  0.7816164E-02  0.1266605E+00
        -11   -1    0    0    0    0  0.00000000000E+00  0.00000000000E+00  0.45593999997E+02  0.45594000000E+02  0.51100000000E-03 0.  1.
         11   -1    0    0    0    0 -0.00000000000E+00 -0.00000000000E+00 -0.45593999997E+02  0.45594000000E+02  0.51100000000E-03 0. -1.
    9900012    2    1    2    0    0 -0.58290718359E+01 -0.30892668191E+02  0.53279668733E+01  0.59301917496E+02  0.49999951613E+02 0.  0.
         12    1    1    2    0    0  0.58290718359E+01  0.30892668191E+02 -0.53279668733E+01  0.31886082504E+02  0.00000000000E+00 0. -1.
         11    1    3    3    0    0 -0.11406556606E+02 -0.96314575239E+01  0.66572912501E+01  0.16346070925E+02  0.51100000000E-03 0. -1.
        -11    1    3    3    0    0 -0.24894759159E+01 -0.23772948343E+02  0.12329191676E+02  0.26895344038E+02  0.51100000000E-03 0.  1.
         12    1    3    3    0    0  0.80669606856E+01  0.25117376757E+01 -0.13658516053E+02  0.16060502534E+02  0.00000000000E+00 0. -1.
</event>
<event>
 7    1  0.3461631E-013  0.5930193E+02  0.7816164E-02  0.1266605E+00
        -11   -1    0    0    0    0  0.00000000000E+00  0.00000000000E+00  0.45593999997E+02  0.45594000000E+02  0.51100000000E-03 0. -1.
         11   -1    0    0    0    0 -0.00000000000E+00 -0.00000000000E+00 -0.45593999997E+02  0.45594000000E+02  0.51100000000E-03 0.  1.
    9900012    2    1    2    0    0 -0.23879041260E+02 -0.19209053326E+02 -0.88048301234E+01  0.59301931339E+02  0.49999976858E+02 0.  0.
         12    1    1    2    0    0  0.23879041260E+02  0.19209053326E+02  0.88048301234E+01  0.31886068661E+02  0.00000000000E+00 0. -1.
         11    1    3    3    0    0 -0.19248447518E+02 -0.26242647309E+02  0.10985191149E+01  0.32563568817E+02  0.51100000000E-03 0. -1.
        -11    1    3    3    0    0  0.82295857154E+00  0.11446466471E+01 -0.16370346930E+02  0.16430938367E+02  0.51100000000E-03 0.  1.
        -12    1    3    3    0    0 -0.54535523139E+01  0.58889473358E+01  0.64669976913E+01  0.10307424155E+02  0.00000000000E+00 0.  1.
</event>
<event>
 7    1  0.3461631E-013  0.5930193E+02  0.7816164E-02  0.1266605E+00
        -11   -1    0    0    0    0  0.00000000000E+00  0.00000000000E+00  0.45593999997E+02  0.45594000000E+02  0.51100000000E-03 0.  1.
         11   -1    0    0    0    0 -0.00000000000E+00 -0.00000000000E+00 -0.45593999997E+02  0.45594000000E+02  0.51100000000E-03 0. -1.
    9900012    2    1    2    0    0 -0.30692366251E+02 -0.39979235276E+01  0.76626828645E+01  0.59301930200E+02  0.49999974781E+02 0.  0.
         12    1    1    2    0    0  0.30692366251E+02  0.39979235276E+01 -0.76626828645E+01  0.31886069800E+02  0.00000000000E+00 0. -1.
         11    1    3    3    0    0  0.52552350217E+01 -0.35560312478E+01  0.40985121775E+01  0.75538503890E+01  0.51100000000E-03 0.  1.
        -11    1    3    3    0    0 -0.44806785367E+01  0.15432774222E+02 -0.15073340873E+01  0.16140602735E+02  0.51100000000E-03 0. -1.
         12    1    3    3    0    0 -0.31466922736E+02 -0.15874666502E+02  0.50715047742E+01  0.35607477076E+02  0.00000000000E+00 0. -1.
</event>
<event>
 7    1  0.3461631E-013  0.5930195E+02  0.7816164E-02  0.1266605E+00
        -11   -1    0    0    0    0  0.00000000000E+00  0.00000000000E+00  0.45593999997E+02  0.45594000000E+02  0.51100000000E-03 0. -1.
         11   -1    0    0    0    0 -0.00000000000E+00 -0.00000000000E+00 -0.45593999997E+02  0.45594000000E+02  0.51100000000E-03 0.  1.
    9900012    2    1    2    0    0  0.26496467179E+02  0.57630381182E+00 -0.17729229190E+02  0.59301945576E+02  0.50000002824E+02 0.  0.
         12    1    1    2    0    0 -0.26496467179E+02 -0.57630381182E+00  0.17729229190E+02  0.31886054424E+02  0.00000000000E+00 0. -1.
         11    1    3    3    0    0  0.25165592463E+02  0.52212846325E+01 -0.80478490501E+01  0.26932076263E+02  0.51100000000E-03 0. -1.
        -11    1    3    3    0    0  0.11400314290E+02 -0.56698214494E+01  0.57056470436E+01  0.13952363586E+02  0.51100000000E-03 0.  1.
        -12    1    3    3    0    0 -0.10069439575E+02  0.10248406286E+01 -0.15387027184E+02  0.18417505727E+02  0.00000000000E+00 0.  1.
</event>
<event>
 7    1  0.3461631E-013  0.5930194E+02  0.7816164E-02  0.1266605E+00
        -11   -1    0    0    0    0  0.00000000000E+00  0.00000000000E+00  0.45593999997E+02  0.45594000000E+02  0.51100000000E-03 0.  1.
         11   -1    0    0    0    0 -0.00000000000E+00 -0.00000000000E+00 -0.45593999997E+02  0.45594000000E+02  0.51100000000E-03 0. -1.
    9900012    2    1    2    0    0 -0.31441423884E+02 -0.29903344923E+01  0.43835345741E+01  0.59301943305E+02  0.49999998681E+02 0.  0.
         12    1    1    2    0    0  0.31441423884E+02  0.29903344923E+01 -0.43835345741E+01  0.31886056695E+02  0.00000000000E+00 0. -1.
         11    1    3    3    0    0 -0.13117478781E+02  0.20223463480E+01 -0.57283043537E+00  0.13284813483E+02  0.51100000000E-03 0. -1.
        -11    1    3    3    0    0 -0.24399758488E+02  0.11327897795E+02  0.85298802775E+01  0.28221062003E+02  0.51100000000E-03 0.  1.
        -12    1    3    3    0    0  0.60758133851E+01 -0.16340578636E+02 -0.35735152680E+01  0.17796067819E+02  0.00000000000E+00 0.  1.
</event>
<event>
 7    1  0.3461631E-013  0.5930195E+02  0.7816164E-02  0.1266605E+00
        -11   -1    0    0    0    0  0.00000000000E+00  0.00000000000E+00  0.45593999997E+02  0.45594000000E+02  0.51100000000E-03 0.  1.
         11   -1    0    0    0    0 -0.00000000000E+00 -0.00000000000E+00 -0.45593999997E+02  0.45594000000E+02  0.51100000000E-03 0. -1.
    9900012    2    1    2    0    0 -0.31479743720E+02  0.63906427817E+00  0.50336537777E+01  0.59301947592E+02  0.50000006500E+02 0.  0.
         12    1    1    2    0    0  0.31479743720E+02 -0.63906427817E+00 -0.50336537777E+01  0.31886052408E+02  0.00000000000E+00 0. -1.
         11    1    3    3    0    0 -0.24847095474E-01  0.53146618549E+01  0.15959728074E+01  0.55491780899E+01  0.51100000000E-03 0. -1.
        -11    1    3    3    0    0 -0.13097621882E+02 -0.11317833480E+01  0.23126146134E+02  0.26601640322E+02  0.51100000000E-03 0.  1.
         12    1    3    3    0    0 -0.18357274742E+02 -0.35438142287E+01 -0.19688465164E+02  0.27151129180E+02  0.00000000000E+00 0. -1.
</event>
<event>
 7    1  0.3461631E-013  0.5930203E+02  0.7816164E-02  0.1266604E+00
        -11   -1    0    0    0    0  0.00000000000E+00  0.00000000000E+00  0.45593999997E+02  0.45594000000E+02  0.51100000000E-03 0.  1.
         11   -1    0    0    0    0 -0.00000000000E+00 -0.00000000000E+00 -0.45593999997E+02  0.45594000000E+02  0.51100000000E-03 0. -1.
    9900012    2    1    2    0    0  0.13745194526E+02 -0.13683015593E+02  0.25309280745E+02  0.59302031611E+02  0.50000159731E+02 0.  0.
         12    1    1    2    0    0 -0.13745194526E+02  0.13683015593E+02 -0.25309280745E+02  0.31885968389E+02  0.00000000000E+00 0. -1.
         11    1    3    3    0    0  0.97910592365E+01 -0.66424114432E+00 -0.13964507026E+02  0.17067908894E+02  0.51100000000E-03 0. -1.
        -11    1    3    3    0    0 -0.13374923919E+00 -0.15300275647E+01  0.54304100164E+00  0.16290386731E+01  0.51100000000E-03 0.  1.
        -12    1    3    3    0    0  0.40878845283E+01 -0.11488746884E+02  0.38730746770E+02  0.40605084044E+02  0.00000000000E+00 0.  1.
</event>
<event>
 7    1  0.3461631E-013  0.5930193E+02  0.7816164E-02  0.1266605E+00
        -11   -1    0    0    0    0  0.00000000000E+00  0.00000000000E+00  0.45593999997E+02  0.45594000000E+02  0.51100000000E-03 0.  1.
         11   -1    0    0    0    0 -0.00000000000E+00 -0.00000000000E+00 -0.45593999997E+02  0.45594000000E+02  0.51100000000E-03 0. -1.
    9900012    2    1    2    0    0  0.25679120408E+02 -0.28670993627E+01  0.18683783160E+02  0.59301933500E+02  0.49999980800E+02 0.  0.
         12    1    1    2    0    0 -0.25679120408E+02  0.28670993627E+01 -0.18683783160E+02  0.31886066500E+02  0.00000000000E+00 0. -1.
         11    1    3    3    0    0  0.23985742707E+01 -0.24987612983E+01 -0.10656218629E+02  0.11204997202E+02  0.51100000000E-03 0. -1.
        -11    1    3    3    0    0  0.89797968708E+01  0.14547353773E+02  0.10062604369E+02  0.19837294689E+02  0.51100000000E-03 0.  1.
        -12    1    3    3    0    0  0.14300749266E+02 -0.14915691837E+02  0.19277397420E+02  0.28259641609E+02  0.00000000000E+00 0.  1.
</event>
<event>
 7    1  0.3461631E-013  0.5930196E+02  0.7816164E-02  0.1266605E+00
        -11   -1    0    0    0    0  0.00000000000E+00  0.00000000000E+00  0.45593999997E+02  0.45594000000E+02  0.51100000000E-03 0.  1.
         11   -1    0    0    0    0 -0.00000000000E+00 -0.00000000000E+00 -0.45593999997E+02  0.45594000000E+02  0.51100000000E-03 0. -1.
    9900012    2    1    2    0    0  0.12641317241E+01 -0.43724721582E+00  0.31857967459E+02  0.59301963797E+02  0.50000036054E+02 0.  0.
         12    1    1    2    0    0 -0.12641317241E+01  0.43724721582E+00 -0.31857967459E+02  0.31886036203E+02  0.00000000000E+00 0. -1.
         11    1    3    3    0    0 -0.14769020940E+02 -0.53877839898E+01 -0.16490230934E+01  0.15807323406E+02  0.51100000000E-03 0. -1.
        -11    1    3    3    0    0  0.18889845722E+01 -0.81993737325E+01  0.97818738316E+01  0.12902831016E+02  0.51100000000E-03 0.  1.
         12    1    3    3    0    0  0.14144168092E+02  0.13149910507E+02  0.23725116721E+02  0.30591809374E+02  0.00000000000E+00 0. -1.
</event>
<event>
 7    1  0.3461631E-013  0.5930195E+02  0.7816164E-02  0.1266605E+00
        -11   -1    0    0    0    0  0.00000000000E+00  0.00000000000E+00  0.45593999997E+02  0.45594000000E+02  0.51100000000E-03 0. -1.
         11   -1    0    0    0    0 -0.00000000000E+00 -0.00000000000E+00 -0.45593999997E+02  0.45594000000E+02  0.51100000000E-03 0.  1.
    9900012    2    1    2    0    0 -0.29114950277E+02  0.27183583702E+01  0.12714187450E+02  0.59301947181E+02  0.50000005751E+02 0.  0.
         12    1    1    2    0    0  0.29114950277E+02 -0.27183583702E+01 -0.12714187450E+02  0.31886052819E+02  0.00000000000E+00 0. -1.
         11    1    3    3    0    0 -0.19358066541E+02  0.55648717107E+01  0.19139915392E+01  0.20232792720E+02  0.51100000000E-03 0. -1.
        -11    1    3    3    0    0 -0.18628503671E+02 -0.13888068302E+02  0.50247450717E+01  0.23772834360E+02  0.51100000000E-03 0.  1.
         12    1    3    3    0    0  0.88716199359E+01  0.11041554961E+02  0.57754508393E+01  0.15296320101E+02  0.00000000000E+00 0. -1.
</event>
<event>
 7    1  0.3461631E-013  0.5930195E+02  0.7816164E-02  0.1266605E+00
        -11   -1    0    0    0    0  0.00000000000E+00  0.00000000000E+00  0.45593999997E+02  0.45594000000E+02  0.51100000000E-03 0.  1.
         11   -1    0    0    0    0 -0.00000000000E+00 -0.00000000000E+00 -0.45593999997E+02  0.45594000000E+02  0.51100000000E-03 0. -1.
    9900012    2    1    2    0    0 -0.22688244007E+02  0.20137164098E+02  0.98213260298E+01  0.59301949146E+02  0.50000009335E+02 0.  0.
         12    1    1    2    0    0  0.22688244007E+02 -0.20137164098E+02 -0.98213260298E+01  0.31886050854E+02  0.00000000000E+00 0. -1.
         11    1    3    3    0    0  0.34149184115E+01 -0.56941963718E+01  0.99100752615E+01  0.11928752325E+02  0.51100000000E-03 0. -1.
        -11    1    3    3    0    0  0.17722326017E+01 -0.38516883773E+01 -0.47735052614E+01  0.63845645499E+01  0.51100000000E-03 0.  1.
        -12    1    3    3    0    0 -0.27875395020E+02  0.29683048848E+02  0.46847560298E+01  0.40988632272E+02  0.00000000000E+00 0.  1.
</event>
<event>
 7    1  0.3461631E-013  0.5930193E+02  0.7816164E-02  0.1266605E+00
        -11   -1    0    0    0    0  0.00000000000E+00  0.00000000000E+00  0.45593999997E+02  0.45594000000E+02  0.51100000000E-03 0.  1.
         11   -1    0    0    0    0 -0.00000000000E+00 -0.00000000000E+00 -0.45593999997E+02  0.45594000000E+02  0.51100000000E-03 0. -1.
    9900012    2    1    2    0    0  0.29680486678E+02 -0.40770001644E+01  0.10916418482E+02  0.59301930750E+02  0.49999975784E+02 0.  0.
         12    1    1    2    0    0 -0.29680486678E+02  0.40770001644E+01 -0.10916418482E+02  0.31886069250E+02  0.00000000000E+00 0. -1.
         11    1    3    3    0    0  0.11087255883E+02 -0.11871548340E+02 -0.70134259148E+01  0.17693192090E+02  0.51100000000E-03 0. -1.
        -11    1    3    3    0    0  0.22016823156E+02 -0.63490956942E+00  0.59808292101E+00  0.22034094388E+02  0.51100000000E-03 0.  1.
         12    1    3    3    0    0 -0.34235923610E+01  0.84294577455E+01  0.17331761476E+02  0.19574644272E+02  0.00000000000E+00 0. -1.
</event>
<event>
 7    1  0.3461631E-013  0.5930192E+02  0.7816164E-02  0.1266605E+00
        -11   -1    0    0    0    0  0.00000000000E+00  0.00000000000E+00  0.45593999997E+02  0.45594000000E+02  0.51100000000E-03 0.  1.
         11   -1    0    0    0    0 -0.00000000000E+00 -0.00000000000E+00 -0.45593999997E+02  0.45594000000E+02  0.51100000000E-03 0. -1.
    9900012    2    1    2    0    0 -0.14918330933E+02 -0.11866627461E+02  0.25560685490E+02  0.59301920156E+02  0.49999956463E+02 0.  0.
         12    1    1    2    0    0  0.14918330933E+02  0.11866627461E+02 -0.25560685490E+02  0.31886079844E+02  0.00000000000E+00 0. -1.
         11    1    3    3    0    0 -0.61230408675E+01  0.45729303294E+01 -0.67730524234E+01  0.10211638490E+02  0.51100000000E-03 0. -1.
        -11    1    3    3    0    0 -0.12475582125E+02 -0.75773541174E+01 -0.77692503311E+00  0.14617115226E+02  0.51100000000E-03 0.  1.
        -12    1    3    3    0    0  0.36802920595E+01 -0.88622036728E+01  0.33110662947E+02  0.34473166439E+02  0.00000000000E+00 0.  1.
</event>
<event>
 7    1  0.3461631E-013  0.5930206E+02  0.7816164E-02  0.1266604E+00
        -11   -1    0    0    0    0  0.00000000000E+00  0.00000000000E+00  0.45593999997E+02  0.45594000000E+02  0.51100000000E-03 0. -1.
         11   -1    0    0    0    0 -0.00000000000E+00 -0.00000000000E+00 -0.45593999997E+02  0.45594000000E+02  0.51100000000E-03 0.  1.
    9900012    2    1    2    0    0  0.46037164273E+01 -0.47520913498E+01 -0.31191936202E+02  0.59302055429E+02  0.50000203170E+02 0.  0.
         12    1    1    2    0    0 -0.46037164273E+01  0.47520913498E+01  0.31191936202E+02  0.31885944571E+02  0.00000000000E+00 0. -1.
         11    1    3    3    0    0  0.12789028799E+02 -0.10007553495E+02  0.47150407819E+01  0.16909819467E+02  0.51100000000E-03 0. -1.
        -11    1    3    3    0    0  0.53785651658E+01  0.45676326696E+01 -0.50457696734E+01  0.86747924070E+01  0.51100000000E-03 0.  1.
        -12    1    3    3    0    0 -0.13563877538E+02  0.68782947561E+00 -0.30861207310E+02  0.33717443555E+02  0.00000000000E+00 0.  1.
</event>
<event>
 7    1  0.3461631E-013  0.5930195E+02  0.7816164E-02  0.1266605E+00
        -11   -1    0    0    0    0  0.00000000000E+00  0.00000000000E+00  0.45593999997E+02  0.45594000000E+02  0.51100000000E-03 0. -1.
         11   -1    0    0    0    0 -0.00000000000E+00 -0.00000000000E+00 -0.45593999997E+02  0.45594000000E+02  0.51100000000E-03 0.  1.
    9900012    2    1    2    0    0  0.28623852775E+02  0.10417229736E+02 -0.94274325799E+01  0.59301951200E+02  0.50000013080E+02 0.  0.
         12    1    1    2    0    0 -0.28623852775E+02 -0.10417229736E+02  0.94274325799E+01  0.31886048800E+02  0.00000000000E+00 0. -1.
         11    1    3    3    0    0 -0.50934344377E+01 -0.15930793051E+01 -0.11237118440E+01  0.54537789296E+01  0.51100000000E-03 0. -1.
        -11    1    3    3    0    0  0.20481047257E+02  0.14993620943E+02 -0.22709386049E+02  0.34058746024E+02  0.51100000000E-03 0.  1.
        -12    1    3    3    0    0  0.13236239955E+02 -0.29833119016E+01  0.14405665313E+02  0.19789426246E+02  0.00000000000E+00 0.  1.
</event>
<event>
 7    1  0.3461631E-013  0.5930198E+02  0.7816164E-02  0.1266605E+00
        -11   -1    0    0    0    0  0.00000000000E+00  0.00000000000E+00  0.45593999997E+02  0.45594000000E+02  0.51100000000E-03 0.  1.
         11   -1    0    0    0    0 -0.00000000000E+00 -0.00000000000E+00 -0.45593999997E+02  0.45594000000E+02  0.51100000000E-03 0. -1.
    9900012    2    1    2    0    0  0.16881508893E+02  0.20971071160E+02  0.17086454349E+02  0.59301982840E+02  0.50000070784E+02 0.  0.
         12    1    1    2    0    0 -0.16881508893E+02 -0.20971071160E+02 -0.17086454349E+02  0.31886017160E+02  0.00000000000E+00 0. -1.
         11    1    3    3    0    0  0.12746176768E+01  0.18183672982E+02 -0.57258880682E+01  0.19106449376E+02  0.51100000000E-03 0. -1.
        -11    1    3    3    0    0 -0.53227961914E+01  0.21949685282E+01  0.17741231042E+02  0.18652113158E+02  0.51100000000E-03 0.  1.
         12    1    3    3    0    0  0.20929687408E+02  0.59242965020E+00  0.50711113761E+01  0.21543420306E+02  0.00000000000E+00 0. -1.
</event>
<event>
 7    1  0.3461631E-013  0.5930193E+02  0.7816164E-02  0.1266605E+00
        -11   -1    0    0    0    0  0.00000000000E+00  0.00000000000E+00  0.45593999997E+02  0.45594000000E+02  0.51100000000E-03 0. -1.
         11   -1    0    0    0    0 -0.00000000000E+00 -0.00000000000E+00 -0.45593999997E+02  0.45594000000E+02  0.51100000000E-03 0.  1.
    9900012    2    1    2    0    0  0.26469430341E+02 -0.63111383007E+01  0.16621071485E+02  0.59301933662E+02  0.49999981095E+02 0.  0.
         12    1    1    2    0    0 -0.26469430341E+02  0.63111383007E+01 -0.16621071485E+02  0.31886066338E+02  0.00000000000E+00 0. -1.
         11    1    3    3    0    0  0.14237148330E+01  0.15916479700E+02  0.61876656148E+01  0.17136175069E+02  0.51100000000E-03 0. -1.
        -11    1    3    3    0    0  0.24493593839E+01 -0.11785435338E+02 -0.48257445153E+01  0.12968564218E+02  0.51100000000E-03 0.  1.
         12    1    3    3    0    0  0.22596356124E+02 -0.10442182663E+02  0.15259150386E+02  0.29197194374E+02  0.00000000000E+00 0. -1.
</event>
<event>
 7    1  0.3461631E-013  0.5930193E+02  0.7816164E-02  0.1266605E+00
        -11   -1    0    0    0    0  0.00000000000E+00  0.00000000000E+00  0.45593999997E+02  0.45594000000E+02  0.51100000000E-03 0.  1.
         11   -1    0    0    0    0 -0.00000000000E+00 -0.00000000000E+00 -0.45593999997E+02  0.45594000000E+02  0.51100000000E-03 0. -1.
    9900012    2    1    2    0    0  0.62933126523E+01  0.27123841033E+02  0.15537478063E+02  0.59301925279E+02  0.49999965808E+02 0.  0.
         12    1    1    2    0    0 -0.62933126523E+01 -0.27123841033E+02 -0.15537478063E+02  0.31886074721E+02  0.00000000000E+00 0. -1.
         11    1    3    3    0    0  0.14760435401E+02  0.11317495311E+02  0.13833056157E+02  0.23179939522E+02  0.51100000000E-03 0. -1.
        -11    1    3    3    0    0 -0.40194705035E+01  0.67757337841E+01  0.16466640312E+02  0.18254231150E+02  0.51100000000E-03 0.  1.
         12    1    3    3    0    0 -0.44476522447E+01  0.90306119380E+01 -0.14762218406E+02  0.17867754608E+02  0.00000000000E+00 0. -1.
</event>
<event>
 7    1  0.3461631E-013  0.5930195E+02  0.7816164E-02  0.1266605E+00
        -11   -1    0    0    0    0  0.00000000000E+00  0.00000000000E+00  0.45593999997E+02  0.45594000000E+02  0.51100000000E-03 0.  1.
         11   -1    0    0    0    0 -0.00000000000E+00 -0.00000000000E+00 -0.45593999997E+02  0.45594000000E+02  0.51100000000E-03 0. -1.
    9900012    2    1    2    0    0 -0.30411512162E+02  0.80711610434E+01  0.51688205020E+01  0.59301946341E+02  0.50000004218E+02 0.  0.
         12    1    1    2    0    0  0.30411512162E+02 -0.80711610434E+01 -0.51688205020E+01  0.31886053659E+02  0.00000000000E+00 0. -1.
         11    1    3    3    0    0 -0.18418965131E+02  0.90015317383E+00 -0.70667111737E+01  0.19748593856E+02  0.51100000000E-03 0. -1.
        -11    1    3    3    0    0 -0.16301530309E+02 -0.85378809740E+01  0.14065263170E+02  0.23161755768E+02  0.51100000000E-03 0.  1.
        -12    1    3    3    0    0  0.43089832775E+01  0.15708888844E+02 -0.18297314939E+01  0.16391596717E+02  0.00000000000E+00 0.  1.
</event>
<event>
 7    1  0.3461631E-013  0.5930195E+02  0.7816164E-02  0.1266605E+00
        -11   -1    0    0    0    0  0.00000000000E+00  0.00000000000E+00  0.45593999997E+02  0.45594000000E+02  0.51100000000E-03 0.  1.
         11   -1    0    0    0    0 -0.00000000000E+00 -0.00000000000E+00 -0.45593999997E+02  0.45594000000E+02  0.51100000000E-03 0. -1.
    9900012    2    1    2    0    0  0.80953957147E+01 -0.20589687782E+02  0.22961920424E+02  0.59301945614E+02  0.50000002893E+02 0.  0.
         12    1    1    2    0    0 -0.80953957147E+01  0.20589687782E+02 -0.22961920424E+02  0.31886054386E+02  0.00000000000E+00 0. -1.
         11    1    3    3    0    0  0.36284240375E+01 -0.25609367612E+02  0.36050628628E+01  0.26115161286E+02  0.51100000000E-03 0. -1.
        -11    1    3    3    0    0  0.56708757551E+01 -0.10165184625E+02  0.70924456431E+01  0.13630575768E+02  0.51100000000E-03 0.  1.
         12    1    3    3    0    0 -0.12039040779E+01  0.15184864455E+02  0.12264411918E+02  0.19556208560E+02  0.00000000000E+00 0. -1.
</event>
<event>
 7    1  0.3461631E-013  0.5930190E+02  0.7816164E-02  0.1266605E+00
        -11   -1    0    0    0    0  0.00000000000E+00  0.00000000000E+00  0.45593999997E+02  0.45594000000E+02  0.51100000000E-03 0.  1.
         11   -1    0    0    0    0 -0.00000000000E+00 -0.00000000000E+00 -0.45593999997E+02  0.45594000000E+02  0.51100000000E-03 0. -1.
    9900012    2    1    2    0    0 -0.24575804441E+02 -0.18802086767E+02 -0.76964250438E+01  0.59301896613E+02  0.49999913527E+02 0.  0.
         12    1    1    2    0    0  0.24575804441E+02  0.18802086767E+02  0.76964250438E+01  0.31886103387E+02  0.00000000000E+00 0. -1.
         11    1    3    3    0    0  0.57508825657E+01  0.36402657058E+01  0.37402223130E+01  0.77661733115E+01  0.51100000000E-03 0. -1.
        -11    1    3    3    0    0  0.56298719233E+01 -0.48175364502E+00  0.37143022420E+01  0.67619217574E+01  0.51100000000E-03 0.  1.
        -12    1    3    3    0    0 -0.35956558930E+02 -0.21960598828E+02 -0.15150949599E+02  0.44773801544E+02  0.00000000000E+00 0.  1.
</event>
<event>
 7    1  0.3461631E-013  0.5930203E+02  0.7816164E-02  0.1266604E+00
        -11   -1    0    0    0    0  0.00000000000E+00  0.00000000000E+00  0.45593999997E+02  0.45594000000E+02  0.51100000000E-03 0. -1.
         11   -1    0    0    0    0 -0.00000000000E+00 -0.00000000000E+00 -0.45593999997E+02  0.45594000000E+02  0.51100000000E-03 0.  1.
    9900012    2    1    2    0    0 -0.86170969019E+01  0.30442408282E+02  0.39649394122E+01  0.59302026194E+02  0.50000149851E+02 0.  0.
         12    1    1    2    0    0  0.86170969019E+01 -0.30442408282E+02 -0.39649394122E+01  0.31885973806E+02  0.00000000000E+00 0. -1.
         11    1    3    3    0    0 -0.11946554930E+00 -0.29495445124E+01 -0.14612037890E+02  0.14907237719E+02  0.51100000000E-03 0. -1.
        -11    1    3    3    0    0 -0.11072472502E+02  0.83709050363E+01  0.12116904892E+02  0.18425283794E+02  0.51100000000E-03 0.  1.
        -12    1    3    3    0    0  0.25748411499E+01  0.25021047758E+02  0.64600724099E+01  0.25969504681E+02  0.00000000000E+00 0.  1.
</event>
<event>
 7    1  0.3461631E-013  0.5930197E+02  0.7816164E-02  0.1266605E+00
        -11   -1    0    0    0    0  0.00000000000E+00  0.00000000000E+00  0.45593999997E+02  0.45594000000E+02  0.51100000000E-03 0. -1.
         11   -1    0    0    0    0 -0.00000000000E+00 -0.00000000000E+00 -0.45593999997E+02  0.45594000000E+02  0.51100000000E-03 0.  1.
    9900012    2    1    2    0    0 -0.31536018703E+02 -0.42525560435E+01  0.20282850181E+01  0.59301974085E+02  0.50000054817E+02 0.  0.
         12    1    1    2    0    0  0.31536018703E+02  0.42525560435E+01 -0.20282850181E+01  0.31886025915E+02  0.00000000000E+00 0. -1.
         11    1    3    3    0    0 -0.17797391766E+01 -0.17453984468E+02  0.93445536076E+00  0.17569355493E+02  0.51100000000E-03 0. -1.
        -11    1    3    3    0    0 -0.27618944049E-01 -0.58002185240E+01 -0.24006945531E+01  0.62774702174E+01  0.51100000000E-03 0.  1.
        -12    1    3    3    0    0 -0.29728660582E+02  0.19001646949E+02  0.34945242105E+01  0.35455148374E+02  0.00000000000E+00 0.  1.
</event>
<event>
 7    1  0.3461631E-013  0.5930193E+02  0.7816164E-02  0.1266605E+00
        -11   -1    0    0    0    0  0.00000000000E+00  0.00000000000E+00  0.45593999997E+02  0.45594000000E+02  0.51100000000E-03 0. -1.
         11   -1    0    0    0    0 -0.00000000000E+00 -0.00000000000E+00 -0.45593999997E+02  0.45594000000E+02  0.51100000000E-03 0.  1.
    9900012    2    1    2    0    0 -0.30175758362E+02  0.10263968126E+02  0.89222439734E+00  0.59301929393E+02  0.49999973309E+02 0.  0.
         12    1    1    2    0    0  0.30175758362E+02 -0.10263968126E+02 -0.89222439734E+00  0.31886070607E+02  0.00000000000E+00 0. -1.
         11    1    3    3    0    0  0.24626983225E+01  0.24083569896E+01 -0.50495261784E+01  0.61125102294E+01  0.51100000000E-03 0. -1.
        -11    1    3    3    0    0 -0.85116150111E+01 -0.90194549629E+01 -0.13168207634E+02  0.18088666354E+02  0.51100000000E-03 0.  1.
         12    1    3    3    0    0 -0.24126841673E+02  0.16875066099E+02  0.19109958210E+02  0.35100752809E+02  0.00000000000E+00 0. -1.
</event>
<event>
 7    1  0.3461631E-013  0.5930182E+02  0.7816164E-02  0.1266605E+00
        -11   -1    0    0    0    0  0.00000000000E+00  0.00000000000E+00  0.45593999997E+02  0.45594000000E+02  0.51100000000E-03 0. -1.
         11   -1    0    0    0    0 -0.00000000000E+00 -0.00000000000E+00 -0.45593999997E+02  0.45594000000E+02  0.51100000000E-03 0.  1.
    9900012    2    1    2    0    0  0.69343368446E+01 -0.28399690879E+02 -0.12731887014E+02  0.59301820918E+02  0.49999775477E+02 0.  0.
         12    1    1    2    0    0 -0.69343368446E+01  0.28399690879E+02  0.12731887014E+02  0.31886179082E+02  0.00000000000E+00 0. -1.
         11    1    3    3    0    0  0.42962403636E+01 -0.26689679772E+02  0.12970445072E+01  0.27064349472E+02  0.51100000000E-03 0. -1.
        -11    1    3    3    0    0 -0.11957774102E+01 -0.14582670737E+02 -0.11406451610E+02  0.18552393593E+02  0.51100000000E-03 0.  1.
         12    1    3    3    0    0  0.38338738911E+01  0.12872659630E+02 -0.26224799114E+01  0.13685077854E+02  0.00000000000E+00 0. -1.
</event>
<event>
 7    1  0.3461631E-013  0.5930192E+02  0.7816164E-02  0.1266605E+00
        -11   -1    0    0    0    0  0.00000000000E+00  0.00000000000E+00  0.45593999997E+02  0.45594000000E+02  0.51100000000E-03 0. -1.
         11   -1    0    0    0    0 -0.00000000000E+00 -0.00000000000E+00 -0.45593999997E+02  0.45594000000E+02  0.51100000000E-03 0.  1.
    9900012    2    1    2    0    0 -0.11589958762E+02  0.20059567155E+02 -0.21909098060E+02  0.59301922218E+02  0.49999960224E+02 0.  0.
         12    1    1    2    0    0  0.11589958762E+02 -0.20059567155E+02  0.21909098060E+02  0.31886077782E+02  0.00000000000E+00 0. -1.
         11    1    3    3    0    0  0.97494254618E+01  0.12931183805E+02  0.47070568068E+01  0.16864850888E+02  0.51100000000E-03 0. -1.
        -11    1    3    3    0    0 -0.69377618535E+01 -0.71074950094E+01 -0.12978577576E+01  0.10016659117E+02  0.51100000000E-03 0.  1.
        -12    1    3    3    0    0 -0.14401622370E+02  0.14235878360E+02 -0.25318297109E+02  0.32420412213E+02  0.00000000000E+00 0.  1.
</event>
<event>
 7    1  0.3461631E-013  0.5930194E+02  0.7816164E-02  0.1266605E+00
        -11   -1    0    0    0    0  0.00000000000E+00  0.00000000000E+00  0.45593999997E+02  0.45594000000E+02  0.51100000000E-03 0.  1.
         11   -1    0    0    0    0 -0.00000000000E+00 -0.00000000000E+00 -0.45593999997E+02  0.45594000000E+02  0.51100000000E-03 0. -1.
    9900012    2    1    2    0    0 -0.14346714782E+02 -0.24926190238E+02  0.13768721188E+02  0.59301939284E+02  0.49999991349E+02 0.  0.
         12    1    1    2    0    0  0.14346714782E+02  0.24926190238E+02 -0.13768721188E+02  0.31886060716E+02  0.00000000000E+00 0. -1.
         11    1    3    3    0    0  0.66939897811E+01  0.10137844022E+02 -0.73989340501E+00  0.12170982833E+02  0.51100000000E-03 0. -1.
        -11    1    3    3    0    0 -0.45403987372E+01 -0.57573464847E+01 -0.43964299054E+01  0.85493190028E+01  0.51100000000E-03 0.  1.
        -12    1    3    3    0    0 -0.16500305826E+02 -0.29306687776E+02  0.18905044498E+02  0.38581637448E+02  0.00000000000E+00 0.  1.
</event>
<event>
 7    1  0.3461631E-013  0.5930194E+02  0.7816164E-02  0.1266605E+00
        -11   -1    0    0    0    0  0.00000000000E+00  0.00000000000E+00  0.45593999997E+02  0.45594000000E+02  0.51100000000E-03 0. -1.
         11   -1    0    0    0    0 -0.00000000000E+00 -0.00000000000E+00 -0.45593999997E+02  0.45594000000E+02  0.51100000000E-03 0.  1.
    9900012    2    1    2    0    0 -0.20635618173E+02  0.60884807564E+01 -0.23533434337E+02  0.59301939299E+02  0.49999991377E+02 0.  0.
         12    1    1    2    0    0  0.20635618173E+02 -0.60884807564E+01  0.23533434337E+02  0.31886060701E+02  0.00000000000E+00 0. -1.
         11    1    3    3    0    0 -0.61301107566E+01  0.17575519332E+02  0.34794103932E+01  0.18936299391E+02  0.51100000000E-03 0. -1.
        -11    1    3    3    0    0 -0.10507284583E+02  0.11889139875E+01 -0.24708066026E+02  0.26875733902E+02  0.51100000000E-03 0.  1.
         12    1    3    3    0    0 -0.39982228332E+01 -0.12675952563E+02 -0.23047787047E+01  0.13489906007E+02  0.00000000000E+00 0. -1.
</event>
<event>
 7    1  0.3461631E-013  0.5930194E+02  0.7816164E-02  0.1266605E+00
        -11   -1    0    0    0    0  0.00000000000E+00  0.00000000000E+00  0.45593999997E+02  0.45594000000E+02  0.51100000000E-03 0.  1.
         11   -1    0    0    0    0 -0.00000000000E+00 -0.00000000000E+00 -0.45593999997E+02  0.45594000000E+02  0.51100000000E-03 0. -1.
    9900012    2    1    2    0    0  0.25005913930E+01  0.10524061227E+02  0.29995204135E+02  0.59301935753E+02  0.49999984909E+02 0.  0.
         12    1    1    2    0    0 -0.25005913930E+01 -0.10524061227E+02 -0.29995204135E+02  0.31886064247E+02  0.00000000000E+00 0. -1.
         11    1    3    3    0    0  0.11340518236E+02  0.68298133050E+01  0.87735546328E+01  0.15881717942E+02  0.51100000000E-03 0. -1.
        -11    1    3    3    0    0 -0.53114255541E+01  0.29563055080E+01  0.31731931027E+02  0.32308921843E+02  0.51100000000E-03 0.  1.
         12    1    3    3    0    0 -0.35285012891E+01  0.73794241419E+00 -0.10510281525E+02  0.11111295968E+02  0.00000000000E+00 0. -1.
</event>
<event>
 7    1  0.3461631E-013  0.5930195E+02  0.7816164E-02  0.1266605E+00
        -11   -1    0    0    0    0  0.00000000000E+00  0.00000000000E+00  0.45593999997E+02  0.45594000000E+02  0.51100000000E-03 0. -1.
         11   -1    0    0    0    0 -0.00000000000E+00 -0.00000000000E+00 -0.45593999997E+02  0.45594000000E+02  0.51100000000E-03 0.  1.
    9900012    2    1    2    0    0 -0.63801661687E+01 -0.30479804405E+02 -0.68552937737E+01  0.59301952116E+02  0.50000014752E+02 0.  0.
         12    1    1    2    0    0  0.63801661687E+01  0.30479804405E+02  0.68552937737E+01  0.31886047884E+02  0.00000000000E+00 0. -1.
         11    1    3    3    0    0  0.15328039161E+02  0.27377363931E+01 -0.29486881249E+01  0.15847357729E+02  0.51100000000E-03 0. -1.
        -11    1    3    3    0    0 -0.12180798904E+01 -0.12290783920E+02 -0.66696120674E+01  0.14036766486E+02  0.51100000000E-03 0.  1.
        -12    1    3    3    0    0 -0.20490125439E+02 -0.20926756878E+02  0.27630064185E+01  0.29417827901E+02  0.00000000000E+00 0.  1.
</event>
<event>
 7    1  0.3461631E-013  0.5930193E+02  0.7816164E-02  0.1266605E+00
        -11   -1    0    0    0    0  0.00000000000E+00  0.00000000000E+00  0.45593999997E+02  0.45594000000E+02  0.51100000000E-03 0. -1.
         11   -1    0    0    0    0 -0.00000000000E+00 -0.00000000000E+00 -0.45593999997E+02  0.45594000000E+02  0.51100000000E-03 0.  1.
    9900012    2    1    2    0    0 -0.15112131181E+02 -0.27546427674E+02 -0.54350238022E+01  0.59301926705E+02  0.49999968408E+02 0.  0.
         12    1    1    2    0    0  0.15112131181E+02  0.27546427674E+02  0.54350238022E+01  0.31886073295E+02  0.00000000000E+00 0. -1.
         11    1    3    3    0    0  0.11889956230E+01  0.20310508991E+01 -0.15451451881E+01  0.28153778183E+01  0.51100000000E-03 0. -1.
        -11    1    3    3    0    0  0.43107009690E+00  0.11718983785E+02 -0.19415401079E+01  0.11886546203E+02  0.51100000000E-03 0.  1.
        -12    1    3    3    0    0 -0.16732196901E+02 -0.41296462359E+02 -0.19483385063E+01  0.44600002684E+02  0.00000000000E+00 0.  1.
</event>
<event>
 7    1  0.3461631E-013  0.5930194E+02  0.7816164E-02  0.1266605E+00
        -11   -1    0    0    0    0  0.00000000000E+00  0.00000000000E+00  0.45593999997E+02  0.45594000000E+02  0.51100000000E-03 0. -1.
         11   -1    0    0    0    0 -0.00000000000E+00 -0.00000000000E+00 -0.45593999997E+02  0.45594000000E+02  0.51100000000E-03 0.  1.
    9900012    2    1    2    0    0 -0.23269540628E+02  0.16338822719E+02  0.14432321369E+02  0.59301944286E+02  0.50000000471E+02 0.  0.
         12    1    1    2    0    0  0.23269540628E+02 -0.16338822719E+02 -0.14432321369E+02  0.31886055714E+02  0.00000000000E+00 0. -1.
         11    1    3    3    0    0 -0.27705201514E+02  0.13921304595E+01 -0.48793762217E+01  0.28166017303E+02  0.51100000000E-03 0. -1.
        -11    1    3    3    0    0  0.23643604309E+01 -0.44855167791E+00 -0.30643791193E+01  0.38963853124E+01  0.51100000000E-03 0.  1.
         12    1    3    3    0    0  0.20713004554E+01  0.15395243938E+02  0.22376076710E+02  0.27239541670E+02  0.00000000000E+00 0. -1.
</event>
<event>
 7    1  0.3461631E-013  0.5930185E+02  0.7816164E-02  0.1266605E+00
        -11   -1    0    0    0    0  0.00000000000E+00  0.00000000000E+00  0.45593999997E+02  0.45594000000E+02  0.51100000000E-03 0.  1.
         11   -1    0    0    0    0 -0.00000000000E+00 -0.00000000000E+00 -0.45593999997E+02  0.45594000000E+02  0.51100000000E-03 0. -1.
    9900012    2    1    2    0    0  0.18249728695E+02  0.40802915630E+00  0.26143972343E+02  0.59301852928E+02  0.49999833856E+02 0.  0.
         12    1    1    2    0    0 -0.18249728695E+02 -0.40802915630E+00 -0.26143972343E+02  0.31886147072E+02  0.00000000000E+00 0. -1.
         11    1    3    3    0    0  0.49591178676E+01 -0.14832641602E+02  0.24914626125E+01  0.15836902890E+02  0.51100000000E-03 0. -1.
        -11    1    3    3    0    0  0.22490364342E+02  0.13250083887E+02  0.12716527116E+02  0.29036034051E+02  0.51100000000E-03 0.  1.
         12    1    3    3    0    0 -0.91997535154E+01  0.19905868711E+01  0.10935982614E+02  0.14428915987E+02  0.00000000000E+00 0. -1.
</event>
<event>
 7    1  0.3461631E-013  0.5930196E+02  0.7816164E-02  0.1266605E+00
        -11   -1    0    0    0    0  0.00000000000E+00  0.00000000000E+00  0.45593999997E+02  0.45594000000E+02  0.51100000000E-03 0. -1.
         11   -1    0    0    0    0 -0.00000000000E+00 -0.00000000000E+00 -0.45593999997E+02  0.45594000000E+02  0.51100000000E-03 0.  1.
    9900012    2    1    2    0    0  0.80918657071E+01  0.30797634823E+02 -0.16573190607E+01  0.59301963750E+02  0.50000035968E+02 0.  0.
         12    1    1    2    0    0 -0.80918657071E+01 -0.30797634823E+02  0.16573190607E+01  0.31886036250E+02  0.00000000000E+00 0. -1.
         11    1    3    3    0    0  0.44074056186E+01 -0.56145971443E+01 -0.14442238026E+02  0.16109846828E+02  0.51100000000E-03 0. -1.
        -11    1    3    3    0    0  0.42707401601E+01  0.59800620352E+01 -0.40688224965E+01  0.83997428669E+01  0.51100000000E-03 0.  1.
         12    1    3    3    0    0 -0.58628007168E+00  0.30432169932E+02  0.16853741462E+02  0.34792374054E+02  0.00000000000E+00 0. -1.
</event>
<event>
 7    1  0.3461631E-013  0.5930200E+02  0.7816164E-02  0.1266605E+00
        -11   -1    0    0    0    0  0.00000000000E+00  0.00000000000E+00  0.45593999997E+02  0.45594000000E+02  0.51100000000E-03 0. -1.
         11   -1    0    0    0    0 -0.00000000000E+00 -0.00000000000E+00 -0.45593999997E+02  0.45594000000E+02  0.51100000000E-03 0.  1.
    9900012    2    1    2    0    0  0.30627184037E+02  0.53183025258E+01  0.70998873481E+01  0.59301997676E+02  0.50000097842E+02 0.  0.
         12    1    1    2    0    0 -0.30627184037E+02 -0.53183025258E+01 -0.70998873481E+01  0.31886002324E+02  0.00000000000E+00 0. -1.
         11    1    3    3    0    0  0.19062320613E+02  0.72550356778E+01 -0.22729672949E+01  0.20522523978E+02  0.51100000000E-03 0. -1.
        -11    1    3    3    0    0  0.21707688888E+01  0.17113224396E+01 -0.13502580183E+02  0.13782617092E+02  0.51100000000E-03 0.  1.
         12    1    3    3    0    0  0.93940945356E+01 -0.36480555916E+01  0.22875434826E+02  0.24996856606E+02  0.00000000000E+00 0. -1.
</event>
<event>
 7    1  0.3461631E-013  0.5930197E+02  0.7816164E-02  0.1266605E+00
        -11   -1    0    0    0    0  0.00000000000E+00  0.00000000000E+00  0.45593999997E+02  0.45594000000E+02  0.51100000000E-03 0.  1.
         11   -1    0    0    0    0 -0.00000000000E+00 -0.00000000000E+00 -0.45593999997E+02  0.45594000000E+02  0.51100000000E-03 0. -1.
    9900012    2    1    2    0    0 -0.12939540746E+02  0.27127947397E+02  0.10647147689E+02  0.59301968598E+02  0.50000044810E+02 0.  0.
         12    1    1    2    0    0  0.12939540746E+02 -0.27127947397E+02 -0.10647147689E+02  0.31886031402E+02  0.00000000000E+00 0. -1.
         11    1    3    3    0    0  0.11105688942E+02  0.10757468425E+02  0.16862189219E+02  0.22877781345E+02  0.51100000000E-03 0. -1.
        -11    1    3    3    0    0 -0.23354459784E+02  0.16718331555E+02  0.14136202995E+01  0.28756420577E+02  0.51100000000E-03 0.  1.
        -12    1    3    3    0    0 -0.69076990357E+00 -0.34785258347E+00 -0.76286618292E+01  0.76677666751E+01  0.00000000000E+00 0.  1.
</event>
<event>
 7    1  0.3461631E-013  0.5930199E+02  0.7816164E-02  0.1266605E+00
        -11   -1    0    0    0    0  0.00000000000E+00  0.00000000000E+00  0.45593999997E+02  0.45594000000E+02  0.51100000000E-03 0.  1.
         11   -1    0    0    0    0 -0.00000000000E+00 -0.00000000000E+00 -0.45593999997E+02  0.45594000000E+02  0.51100000000E-03 0. -1.
    9900012    2    1    2    0    0 -0.12945677026E+02  0.12819930411E+02  0.26168237168E+02  0.59301987300E+02  0.50000078919E+02 0.  0.
         12    1    1    2    0    0  0.12945677026E+02 -0.12819930411E+02 -0.26168237168E+02  0.31886012700E+02  0.00000000000E+00 0. -1.
         11    1    3    3    0    0 -0.84286909006E+01  0.18589013375E+02 -0.23159026974E+01  0.20541607875E+02  0.51100000000E-03 0. -1.
        -11    1    3    3    0    0 -0.12859745627E+02  0.66634593242E-01  0.62334988624E+01  0.14291046361E+02  0.51100000000E-03 0.  1.
        -12    1    3    3    0    0  0.83427595024E+01 -0.58357175570E+01  0.22250641003E+02  0.24469333064E+02  0.00000000000E+00 0.  1.
</event>
<event>
 7    1  0.3461631E-013  0.5930186E+02  0.7816164E-02  0.1266605E+00
        -11   -1    0    0    0    0  0.00000000000E+00  0.00000000000E+00  0.45593999997E+02  0.45594000000E+02  0.51100000000E-03 0. -1.
         11   -1    0    0    0    0 -0.00000000000E+00 -0.00000000000E+00 -0.45593999997E+02  0.45594000000E+02  0.51100000000E-03 0.  1.
    9900012    2    1    2    0    0 -0.25268701886E+02  0.11576744563E+01  0.19413362401E+02  0.59301856538E+02  0.49999840440E+02 0.  0.
         12    1    1    2    0    0  0.25268701886E+02 -0.11576744563E+01 -0.19413362401E+02  0.31886143462E+02  0.00000000000E+00 0. -1.
         11    1    3    3    0    0  0.45852637769E+01  0.24220579568E+01 -0.31264413314E+01  0.60552162893E+01  0.51100000000E-03 0. -1.
        -11    1    3    3    0    0 -0.73871016507E+01 -0.71285977342E+01 -0.92915966342E+01  0.13846297149E+02  0.51100000000E-03 0.  1.
         12    1    3    3    0    0 -0.22466864013E+02  0.58642142337E+01  0.31831400366E+02  0.39400343100E+02  0.00000000000E+00 0. -1.
</event>
<event>
 7    1  0.3461631E-013  0.5930194E+02  0.7816164E-02  0.1266605E+00
        -11   -1    0    0    0    0  0.00000000000E+00  0.00000000000E+00  0.45593999997E+02  0.45594000000E+02  0.51100000000E-03 0.  1.
         11   -1    0    0    0    0 -0.00000000000E+00 -0.00000000000E+00 -0.45593999997E+02  0.45594000000E+02  0.51100000000E-03 0. -1.
    9900012    2    1    2    0    0  0.54730107234E+01 -0.22011552250E+02  0.22411129781E+02  0.59301936949E+02  0.49999987089E+02 0.  0.
         12    1    1    2    0    0 -0.54730107234E+01  0.22011552250E+02 -0.22411129781E+02  0.31886063051E+02  0.00000000000E+00 0. -1.
         11    1    3    3    0    0  0.12338772177E+01 -0.91856913274E-01 -0.83029320395E+01  0.83946156193E+01  0.51100000000E-03 0. -1.
        -11    1    3    3    0    0  0.18411712056E+02 -0.96914868197E+01  0.10321184062E+02  0.23225910064E+02  0.51100000000E-03 0.  1.
        -12    1    3    3    0    0 -0.14172578551E+02 -0.12228208518E+02  0.20392877759E+02  0.27681411265E+02  0.00000000000E+00 0.  1.
</event>
<event>
 7    1  0.3461631E-013  0.5930190E+02  0.7816164E-02  0.1266605E+00
        -11   -1    0    0    0    0  0.00000000000E+00  0.00000000000E+00  0.45593999997E+02  0.45594000000E+02  0.51100000000E-03 0. -1.
         11   -1    0    0    0    0 -0.00000000000E+00 -0.00000000000E+00 -0.45593999997E+02  0.45594000000E+02  0.51100000000E-03 0.  1.
    9900012    2    1    2    0    0  0.72522244321E+01  0.26370872345E+02 -0.16392241221E+02  0.59301902094E+02  0.49999923523E+02 0.  0.
         12    1    1    2    0    0 -0.72522244321E+01 -0.26370872345E+02  0.16392241221E+02  0.31886097906E+02  0.00000000000E+00 0. -1.
         11    1    3    3    0    0  0.15588752227E+02 -0.40567921714E+01 -0.14400960108E+02  0.21606813995E+02  0.51100000000E-03 0. -1.
        -11    1    3    3    0    0  0.35012737841E+01  0.23790403689E+02 -0.19221638946E+01  0.24123369170E+02  0.51100000000E-03 0.  1.
        -12    1    3    3    0    0 -0.11837801579E+02  0.66372608267E+01 -0.69117218155E-01  0.13571718929E+02  0.00000000000E+00 0.  1.
</event>
<event>
 7    1  0.3461631E-013  0.5930194E+02  0.7816164E-02  0.1266605E+00
        -11   -1    0    0    0    0  0.00000000000E+00  0.00000000000E+00  0.45593999997E+02  0.45594000000E+02  0.51100000000E-03 0. -1.
         11   -1    0    0    0    0 -0.00000000000E+00 -0.00000000000E+00 -0.45593999997E+02  0.45594000000E+02  0.51100000000E-03 0.  1.
    9900012    2    1    2    0    0  0.28216099391E+02 -0.27129241458E+00  0.14849217969E+02  0.59301935038E+02  0.49999983606E+02 0.  0.
         12    1    1    2    0    0 -0.28216099391E+02  0.27129241458E+00 -0.14849217969E+02  0.31886064962E+02  0.00000000000E+00 0. -1.
         11    1    3    3    0    0  0.18109296720E+01 -0.84173815484E+01  0.26272657756E+01  0.90019055830E+01  0.51100000000E-03 0. -1.
        -11    1    3    3    0    0  0.15508970860E+02  0.11628839576E+02 -0.12496185789E+02  0.23063233653E+02  0.51100000000E-03 0.  1.
        -12    1    3    3    0    0  0.10896198860E+02 -0.34827504426E+01  0.24718137982E+02  0.27236795802E+02  0.00000000000E+00 0.  1.
</event>
<event>
 7    1  0.3461631E-013  0.5930195E+02  0.7816164E-02  0.1266605E+00
        -11   -1    0    0    0    0  0.00000000000E+00  0.00000000000E+00  0.45593999997E+02  0.45594000000E+02  0.51100000000E-03 0. -1.
         11   -1    0    0    0    0 -0.00000000000E+00 -0.00000000000E+00 -0.45593999997E+02  0.45594000000E+02  0.51100000000E-03 0.  1.
    9900012    2    1    2    0    0  0.76403859562E+01  0.29692692206E+02 -0.87572157226E+01  0.59301948265E+02  0.50000007728E+02 0.  0.
         12    1    1    2    0    0 -0.76403859562E+01 -0.29692692206E+02  0.87572157226E+01  0.31886051735E+02  0.00000000000E+00 0. -1.
         11    1    3    3    0    0 -0.13618801330E+01 -0.61421768302E+01 -0.96836428399E+01  0.11547899923E+02  0.51100000000E-03 0.  1.
        -11    1    3    3    0    0  0.14630551004E+02  0.43492890735E+01  0.35214080536E+01  0.15664279526E+02  0.51100000000E-03 0. -1.
         12    1    3    3    0    0 -0.56282849145E+01  0.31485579963E+02 -0.25949809363E+01  0.32089768817E+02  0.00000000000E+00 0. -1.
</event>
<event>
 7    1  0.3461631E-013  0.5930194E+02  0.7816164E-02  0.1266605E+00
        -11   -1    0    0    0    0  0.00000000000E+00  0.00000000000E+00  0.45593999997E+02  0.45594000000E+02  0.51100000000E-03 0.  1.
         11   -1    0    0    0    0 -0.00000000000E+00 -0.00000000000E+00 -0.45593999997E+02  0.45594000000E+02  0.51100000000E-03 0. -1.
    9900012    2    1    2    0    0 -0.25634222963E+02 -0.11766409157E+02  0.14871422392E+02  0.59301937601E+02  0.49999988279E+02 0.  0.
         12    1    1    2    0    0  0.25634222963E+02  0.11766409157E+02 -0.14871422392E+02  0.31886062399E+02  0.00000000000E+00 0. -1.
         11    1    3    3    0    0 -0.13812319260E+02 -0.11278478102E+02  0.16121323074E+01  0.17904837404E+02  0.51100000000E-03 0. -1.
        -11    1    3    3    0    0 -0.87840135165E+01 -0.37528208567E+01  0.26105828103E+02  0.27798503900E+02  0.51100000000E-03 0.  1.
         12    1    3    3    0    0 -0.30378901860E+01  0.32648898015E+01 -0.12846538018E+02  0.13598596297E+02  0.00000000000E+00 0. -1.
</event>
<event>
 7    1  0.3461631E-013  0.5930196E+02  0.7816164E-02  0.1266605E+00
        -11   -1    0    0    0    0  0.00000000000E+00  0.00000000000E+00  0.45593999997E+02  0.45594000000E+02  0.51100000000E-03 0. -1.
         11   -1    0    0    0    0 -0.00000000000E+00 -0.00000000000E+00 -0.45593999997E+02  0.45594000000E+02  0.51100000000E-03 0.  1.
    9900012    2    1    2    0    0 -0.88225074481E+01 -0.19116830491E+01 -0.30581506301E+02  0.59301957640E+02  0.50000024825E+02 0.  0.
         12    1    1    2    0    0  0.88225074481E+01  0.19116830491E+01  0.30581506301E+02  0.31886042360E+02  0.00000000000E+00 0. -1.
         11    1    3    3    0    0  0.89500237207E+00 -0.54377458410E+01 -0.28789643714E+01  0.62175996325E+01  0.51100000000E-03 0. -1.
        -11    1    3    3    0    0 -0.15948571401E+02 -0.10741417506E+02  0.22176534879E+01  0.19355954304E+02  0.51100000000E-03 0.  1.
        -12    1    3    3    0    0  0.62310615808E+01  0.14267480298E+02 -0.29920195418E+02  0.33728403703E+02  0.00000000000E+00 0.  1.
</event>
<event>
 7    1  0.3461631E-013  0.5930196E+02  0.7816164E-02  0.1266605E+00
        -11   -1    0    0    0    0  0.00000000000E+00  0.00000000000E+00  0.45593999997E+02  0.45594000000E+02  0.51100000000E-03 0.  1.
         11   -1    0    0    0    0 -0.00000000000E+00 -0.00000000000E+00 -0.45593999997E+02  0.45594000000E+02  0.51100000000E-03 0. -1.
    9900012    2    1    2    0    0 -0.22021799012E+01 -0.15491105155E+02  0.27783011760E+02  0.59301957949E+02  0.50000025388E+02 0.  0.
         12    1    1    2    0    0  0.22021799012E+01  0.15491105155E+02 -0.27783011760E+02  0.31886042051E+02  0.00000000000E+00 0. -1.
         11    1    3    3    0    0 -0.44439702452E+01 -0.19206698660E+02 -0.12751309057E+00  0.19714522688E+02  0.51100000000E-03 0. -1.
        -11    1    3    3    0    0  0.88518462121E+00 -0.10134688025E+02  0.22847768187E+01  0.10426680131E+02  0.51100000000E-03 0.  1.
         12    1    3    3    0    0  0.13566057228E+01  0.13850281530E+02  0.25625748032E+02  0.29160755130E+02  0.00000000000E+00 0. -1.
</event>
<event>
 7    1  0.3461631E-013  0.5930194E+02  0.7816164E-02  0.1266605E+00
        -11   -1    0    0    0    0  0.00000000000E+00  0.00000000000E+00  0.45593999997E+02  0.45594000000E+02  0.51100000000E-03 0.  1.
         11   -1    0    0    0    0 -0.00000000000E+00 -0.00000000000E+00 -0.45593999997E+02  0.45594000000E+02  0.51100000000E-03 0. -1.
    9900012    2    1    2    0    0  0.70693102860E+01  0.15889100838E+02  0.26726061280E+02  0.59301936823E+02  0.49999986861E+02 0.  0.
         12    1    1    2    0    0 -0.70693102860E+01 -0.15889100838E+02 -0.26726061280E+02  0.31886063177E+02  0.00000000000E+00 0. -1.
         11    1    3    3    0    0 -0.18349878845E+01  0.49355086490E+00  0.59071857493E+01  0.62052894155E+01  0.51100000000E-03 0. -1.
        -11    1    3    3    0    0  0.70402942497E+01 -0.74213866504E+01  0.27424104957E+02  0.29269852338E+02  0.51100000000E-03 0.  1.
         12    1    3    3    0    0  0.18640039208E+01  0.22816936624E+02 -0.66052294263E+01  0.23826795070E+02  0.00000000000E+00 0. -1.
</event>
<event>
 7    1  0.3461631E-013  0.5930194E+02  0.7816164E-02  0.1266605E+00
        -11   -1    0    0    0    0  0.00000000000E+00  0.00000000000E+00  0.45593999997E+02  0.45594000000E+02  0.51100000000E-03 0.  1.
         11   -1    0    0    0    0 -0.00000000000E+00 -0.00000000000E+00 -0.45593999997E+02  0.45594000000E+02  0.51100000000E-03 0. -1.
    9900012    2    1    2    0    0  0.26207934723E+02  0.18105952388E+02 -0.14281053615E+01  0.59301939735E+02  0.49999992170E+02 0.  0.
         12    1    1    2    0    0 -0.26207934723E+02 -0.18105952388E+02  0.14281053615E+01  0.31886060265E+02  0.00000000000E+00 0. -1.
         11    1    3    3    0    0  0.17422189498E+02 -0.14506142918E+02  0.23324932888E+01  0.22790379427E+02  0.51100000000E-03 0. -1.
        -11    1    3    3    0    0  0.83489790799E+00  0.66067199107E+01 -0.63415246648E+01  0.91956912644E+01  0.51100000000E-03 0.  1.
        -12    1    3    3    0    0  0.79508473176E+01  0.26005375394E+02  0.25809260146E+01  0.27315869043E+02  0.00000000000E+00 0.  1.
</event>
<event>
 7    1  0.3461631E-013  0.5930194E+02  0.7816164E-02  0.1266605E+00
        -11   -1    0    0    0    0  0.00000000000E+00  0.00000000000E+00  0.45593999997E+02  0.45594000000E+02  0.51100000000E-03 0.  1.
         11   -1    0    0    0    0 -0.00000000000E+00 -0.00000000000E+00 -0.45593999997E+02  0.45594000000E+02  0.51100000000E-03 0. -1.
    9900012    2    1    2    0    0 -0.68249191566E+01  0.14946157219E+02  0.27326791274E+02  0.59301942570E+02  0.49999997341E+02 0.  0.
         12    1    1    2    0    0  0.68249191566E+01 -0.14946157219E+02 -0.27326791274E+02  0.31886057430E+02  0.00000000000E+00 0. -1.
         11    1    3    3    0    0  0.32652527294E+01  0.30960216208E+01 -0.93582559606E+01  0.10383842263E+02  0.51100000000E-03 0.  1.
        -11    1    3    3    0    0 -0.94567324642E+01 -0.79387678381E+01  0.16879534754E+02  0.20913453026E+02  0.51100000000E-03 0. -1.
        -12    1    3    3    0    0 -0.63343942171E+00  0.19788903436E+02  0.19805512480E+02  0.28004647281E+02  0.00000000000E+00 0.  1.
</event>
<event>
 7    1  0.3461631E-013  0.5930194E+02  0.7816164E-02  0.1266605E+00
        -11   -1    0    0    0    0  0.00000000000E+00  0.00000000000E+00  0.45593999997E+02  0.45594000000E+02  0.51100000000E-03 0.  1.
         11   -1    0    0    0    0 -0.00000000000E+00 -0.00000000000E+00 -0.45593999997E+02  0.45594000000E+02  0.51100000000E-03 0. -1.
    9900012    2    1    2    0    0 -0.71964396116E+01 -0.64297588723E+01  0.30390627468E+02  0.59301940662E+02  0.49999993861E+02 0.  0.
         12    1    1    2    0    0  0.71964396116E+01  0.64297588723E+01 -0.30390627468E+02  0.31886059338E+02  0.00000000000E+00 0. -1.
         11    1    3    3    0    0  0.33161672174E+01  0.32971261862E+01 -0.36270675527E+01  0.59180761565E+01  0.51100000000E-03 0. -1.
        -11    1    3    3    0    0  0.12076145890E+02 -0.13498323434E+02  0.17127534147E+02  0.24927704694E+02  0.51100000000E-03 0.  1.
        -12    1    3    3    0    0 -0.22588752719E+02  0.37714383759E+01  0.16890160874E+02  0.28456159811E+02  0.00000000000E+00 0.  1.
</event>
<event>
 7    1  0.3461631E-013  0.5930195E+02  0.7816164E-02  0.1266605E+00
        -11   -1    0    0    0    0  0.00000000000E+00  0.00000000000E+00  0.45593999997E+02  0.45594000000E+02  0.51100000000E-03 0. -1.
         11   -1    0    0    0    0 -0.00000000000E+00 -0.00000000000E+00 -0.45593999997E+02  0.45594000000E+02  0.51100000000E-03 0.  1.
    9900012    2    1    2    0    0  0.29396797845E+02 -0.10967973575E+02 -0.56790876239E+01  0.59301949694E+02  0.50000010333E+02 0.  0.
         12    1    1    2    0    0 -0.29396797845E+02  0.10967973575E+02  0.56790876239E+01  0.31886050306E+02  0.00000000000E+00 0. -1.
         11    1    3    3    0    0  0.13608296413E+02  0.11612199325E+01  0.11009074919E+02  0.17542345733E+02  0.51100000000E-03 0. -1.
        -11    1    3    3    0    0 -0.47422554103E+01  0.55503061322E+01  0.33782204221E+01  0.80440821738E+01  0.51100000000E-03 0.  1.
        -12    1    3    3    0    0  0.20530756843E+02 -0.17679499640E+02 -0.20066382965E+02  0.33715521787E+02  0.00000000000E+00 0.  1.
</event>
<event>
 7    1  0.3461631E-013  0.5930193E+02  0.7816164E-02  0.1266605E+00
        -11   -1    0    0    0    0  0.00000000000E+00  0.00000000000E+00  0.45593999997E+02  0.45594000000E+02  0.51100000000E-03 0. -1.
         11   -1    0    0    0    0 -0.00000000000E+00 -0.00000000000E+00 -0.45593999997E+02  0.45594000000E+02  0.51100000000E-03 0.  1.
    9900012    2    1    2    0    0  0.47187869236E+01  0.88337817719E+01 -0.30272408744E+02  0.59301931231E+02  0.49999976661E+02 0.  0.
         12    1    1    2    0    0 -0.47187869236E+01 -0.88337817719E+01  0.30272408744E+02  0.31886068769E+02  0.00000000000E+00 0. -1.
         11    1    3    3    0    0 -0.31927956166E+01 -0.11783331995E+01 -0.71255805400E+00  0.34770896191E+01  0.51100000000E-03 0. -1.
        -11    1    3    3    0    0  0.15249956531E+02  0.13332880132E+02 -0.38676249893E+02  0.43659811874E+02  0.51100000000E-03 0.  1.
         12    1    3    3    0    0 -0.73383739912E+01 -0.33207651609E+01  0.91163992030E+01  0.12165029738E+02  0.00000000000E+00 0. -1.
</event>
<event>
 7    1  0.3461631E-013  0.5930198E+02  0.7816164E-02  0.1266605E+00
        -11   -1    0    0    0    0  0.00000000000E+00  0.00000000000E+00  0.45593999997E+02  0.45594000000E+02  0.51100000000E-03 0.  1.
         11   -1    0    0    0    0 -0.00000000000E+00 -0.00000000000E+00 -0.45593999997E+02  0.45594000000E+02  0.51100000000E-03 0. -1.
    9900012    2    1    2    0    0 -0.25743863293E+02 -0.58924527013E+00  0.18804912377E+02  0.59301977408E+02  0.50000060878E+02 0.  0.
         12    1    1    2    0    0  0.25743863293E+02  0.58924527013E+00 -0.18804912377E+02  0.31886022592E+02  0.00000000000E+00 0. -1.
         11    1    3    3    0    0  0.37073514495E+01 -0.23498638417E+01  0.76867707525E+01  0.88517094229E+01  0.51100000000E-03 0. -1.
        -11    1    3    3    0    0 -0.29596923173E+01  0.15704721884E+02  0.12786061980E+02  0.20466593495E+02  0.51100000000E-03 0.  1.
         12    1    3    3    0    0 -0.26491522425E+02 -0.13944103313E+02 -0.16679203558E+01  0.29983674490E+02  0.00000000000E+00 0. -1.
</event>
<event>
 7    1  0.3461631E-013  0.5930195E+02  0.7816164E-02  0.1266605E+00
        -11   -1    0    0    0    0  0.00000000000E+00  0.00000000000E+00  0.45593999997E+02  0.45594000000E+02  0.51100000000E-03 0.  1.
         11   -1    0    0    0    0 -0.00000000000E+00 -0.00000000000E+00 -0.45593999997E+02  0.45594000000E+02  0.51100000000E-03 0. -1.
    9900012    2    1    2    0    0  0.75466908994E+01  0.20938728762E+02  0.22832814264E+02  0.59301947988E+02  0.50000007222E+02 0.  0.
         12    1    1    2    0    0 -0.75466908994E+01 -0.20938728762E+02 -0.22832814264E+02  0.31886052012E+02  0.00000000000E+00 0. -1.
         11    1    3    3    0    0  0.97936134624E+01  0.24956393871E+01 -0.12139073583E+02  0.15795574960E+02  0.51100000000E-03 0. -1.
        -11    1    3    3    0    0  0.36565537159E+01  0.18226142140E+02  0.19480347312E+02  0.26926688880E+02  0.51100000000E-03 0.  1.
        -12    1    3    3    0    0 -0.59034762790E+01  0.21694723465E+00  0.15491540535E+02  0.16579684148E+02  0.00000000000E+00 0.  1.
</event>
<event>
 7    1  0.3461631E-013  0.5930193E+02  0.7816164E-02  0.1266605E+00
        -11   -1    0    0    0    0  0.00000000000E+00  0.00000000000E+00  0.45593999997E+02  0.45594000000E+02  0.51100000000E-03 0. -1.
         11   -1    0    0    0    0 -0.00000000000E+00 -0.00000000000E+00 -0.45593999997E+02  0.45594000000E+02  0.51100000000E-03 0.  1.
    9900012    2    1    2    0    0 -0.16766455355E+02  0.85141905641E+01 -0.25751044075E+02  0.59301925655E+02  0.49999966493E+02 0.  0.
         12    1    1    2    0    0  0.16766455355E+02 -0.85141905641E+01  0.25751044075E+02  0.31886074345E+02  0.00000000000E+00 0. -1.
         11    1    3    3    0    0 -0.28601224454E+00  0.10149999868E+02  0.76348863225E+01  0.12704164268E+02  0.51100000000E-03 0. -1.
        -11    1    3    3    0    0 -0.37433623598E+01 -0.55276608550E+01  0.33879640678E+01  0.74863941301E+01  0.51100000000E-03 0.  1.
        -12    1    3    3    0    0 -0.12737080751E+02  0.38918515508E+01 -0.36773894466E+02  0.39111367257E+02  0.00000000000E+00 0.  1.
</event>
<event>
 7    1  0.3461631E-013  0.5930193E+02  0.7816164E-02  0.1266605E+00
        -11   -1    0    0    0    0  0.00000000000E+00  0.00000000000E+00  0.45593999997E+02  0.45594000000E+02  0.51100000000E-03 0. -1.
         11   -1    0    0    0    0 -0.00000000000E+00 -0.00000000000E+00 -0.45593999997E+02  0.45594000000E+02  0.51100000000E-03 0.  1.
    9900012    2    1    2    0    0 -0.71638843058E+00 -0.15208464396E+02 -0.28016261042E+02  0.59301929617E+02  0.49999973719E+02 0.  0.
         12    1    1    2    0    0  0.71638843058E+00  0.15208464396E+02  0.28016261042E+02  0.31886070383E+02  0.00000000000E+00 0. -1.
         11    1    3    3    0    0 -0.16263489363E+02 -0.24012014550E+02 -0.15909806742E+02  0.33078692233E+02  0.51100000000E-03 0. -1.
        -11    1    3    3    0    0  0.13245873954E+01 -0.39294792564E+01 -0.17019350743E+01  0.44824013935E+01  0.51100000000E-03 0.  1.
        -12    1    3    3    0    0  0.14222513537E+02  0.12733029410E+02 -0.10404519225E+02  0.21740835991E+02  0.00000000000E+00 0.  1.
</event>
<event>
 7    1  0.3461631E-013  0.5930178E+02  0.7816164E-02  0.1266605E+00
        -11   -1    0    0    0    0  0.00000000000E+00  0.00000000000E+00  0.45593999997E+02  0.45594000000E+02  0.51100000000E-03 0. -1.
         11   -1    0    0    0    0 -0.00000000000E+00 -0.00000000000E+00 -0.45593999997E+02  0.45594000000E+02  0.51100000000E-03 0.  1.
    9900012    2    1    2    0    0  0.28205948122E+01  0.53267962041E+01 -0.31311346536E+02  0.59301781428E+02  0.49999703457E+02 0.  0.
         12    1    1    2    0    0 -0.28205948122E+01 -0.53267962041E+01  0.31311346536E+02  0.31886218572E+02  0.00000000000E+00 0. -1.
         11    1    3    3    0    0  0.67972013352E+01  0.15811909894E+02  0.29829599901E+00  0.17213582464E+02  0.51100000000E-03 0. -1.
        -11    1    3    3    0    0 -0.56884650872E+01 -0.11714419854E+02 -0.29516880939E+01  0.13352854767E+02  0.51100000000E-03 0.  1.
        -12    1    3    3    0    0  0.17118585642E+01  0.12293061642E+01 -0.28657954441E+02  0.28735344197E+02  0.00000000000E+00 0.  1.
</event>
<event>
 7    1  0.3461631E-013  0.5930191E+02  0.7816164E-02  0.1266605E+00
        -11   -1    0    0    0    0  0.00000000000E+00  0.00000000000E+00  0.45593999997E+02  0.45594000000E+02  0.51100000000E-03 0.  1.
         11   -1    0    0    0    0 -0.00000000000E+00 -0.00000000000E+00 -0.45593999997E+02  0.45594000000E+02  0.51100000000E-03 0. -1.
    9900012    2    1    2    0    0  0.12043747219E+02 -0.29352871415E+02  0.31749133499E+01  0.59301906132E+02  0.49999930887E+02 0.  0.
         12    1    1    2    0    0 -0.12043747219E+02  0.29352871415E+02 -0.31749133499E+01  0.31886093868E+02  0.00000000000E+00 0. -1.
         11    1    3    3    0    0 -0.29869323415E+01 -0.76911396231E+01 -0.90266021655E+00  0.83000114002E+01  0.51100000000E-03 0. -1.
        -11    1    3    3    0    0 -0.19999768438E+01 -0.19884961958E+02 -0.15280384677E+02  0.25157539140E+02  0.51100000000E-03 0.  1.
         12    1    3    3    0    0  0.17030656404E+02 -0.17767698337E+01  0.19357958243E+02  0.25844355592E+02  0.00000000000E+00 0. -1.
</event>
<event>
 7    1  0.3461631E-013  0.5930196E+02  0.7816164E-02  0.1266605E+00
        -11   -1    0    0    0    0  0.00000000000E+00  0.00000000000E+00  0.45593999997E+02  0.45594000000E+02  0.51100000000E-03 0.  1.
         11   -1    0    0    0    0 -0.00000000000E+00 -0.00000000000E+00 -0.45593999997E+02  0.45594000000E+02  0.51100000000E-03 0. -1.
    9900012    2    1    2    0    0  0.13320745138E+02  0.88316224141E+01  0.27591297360E+02  0.59301960806E+02  0.50000030599E+02 0.  0.
         12    1    1    2    0    0 -0.13320745138E+02 -0.88316224141E+01 -0.27591297360E+02  0.31886039194E+02  0.00000000000E+00 0. -1.
         11    1    3    3    0    0  0.20497711565E+02  0.13689174666E+02  0.17202681440E+02  0.30057976170E+02  0.51100000000E-03 0.  1.
        -11    1    3    3    0    0 -0.13096719124E+01 -0.19892750152E+01  0.18600149807E+02  0.18752013991E+02  0.51100000000E-03 0. -1.
        -12    1    3    3    0    0 -0.58672945152E+01 -0.28682772362E+01 -0.82115338873E+01  0.10491970645E+02  0.00000000000E+00 0.  1.
</event>
<event>
 7    1  0.3461631E-013  0.5930195E+02  0.7816164E-02  0.1266605E+00
        -11   -1    0    0    0    0  0.00000000000E+00  0.00000000000E+00  0.45593999997E+02  0.45594000000E+02  0.51100000000E-03 0. -1.
         11   -1    0    0    0    0 -0.00000000000E+00 -0.00000000000E+00 -0.45593999997E+02  0.45594000000E+02  0.51100000000E-03 0.  1.
    9900012    2    1    2    0    0 -0.31221992836E+02 -0.15978344311E+01 -0.62733189641E+01  0.59301945958E+02  0.50000003520E+02 0.  0.
         12    1    1    2    0    0  0.31221992836E+02  0.15978344311E+01  0.62733189641E+01  0.31886054042E+02  0.00000000000E+00 0. -1.
         11    1    3    3    0    0 -0.24211122949E+02 -0.77310373051E+01 -0.27617510346E+01  0.25565106714E+02  0.51100000000E-03 0.  1.
        -11    1    3    3    0    0  0.59209749201E+01 -0.10679133366E+02  0.15502701547E+00  0.12211710244E+02  0.51100000000E-03 0. -1.
         12    1    3    3    0    0 -0.12931844807E+02  0.16812336240E+02 -0.36665949449E+01  0.21525129000E+02  0.00000000000E+00 0. -1.
</event>
<event>
 7    1  0.3461631E-013  0.5930195E+02  0.7816164E-02  0.1266605E+00
        -11   -1    0    0    0    0  0.00000000000E+00  0.00000000000E+00  0.45593999997E+02  0.45594000000E+02  0.51100000000E-03 0. -1.
         11   -1    0    0    0    0 -0.00000000000E+00 -0.00000000000E+00 -0.45593999997E+02  0.45594000000E+02  0.51100000000E-03 0.  1.
    9900012    2    1    2    0    0 -0.44134767447E+01  0.30350818790E+02  0.87217696740E+01  0.59301949062E+02  0.50000009181E+02 0.  0.
         12    1    1    2    0    0  0.44134767447E+01 -0.30350818790E+02 -0.87217696740E+01  0.31886050938E+02  0.00000000000E+00 0. -1.
         11    1    3    3    0    0 -0.11836093047E+02  0.56795774390E+01  0.95600338518E+01  0.16240226169E+02  0.51100000000E-03 0.  1.
        -11    1    3    3    0    0 -0.13598775177E+02  0.13808520152E+02  0.10582340818E+00  0.19380740800E+02  0.51100000000E-03 0. -1.
        -12    1    3    3    0    0  0.21021391479E+02  0.10862721199E+02 -0.94408758593E+00  0.23680982094E+02  0.00000000000E+00 0.  1.
</event>
<event>
 7    1  0.3461631E-013  0.5930193E+02  0.7816164E-02  0.1266605E+00
        -11   -1    0    0    0    0  0.00000000000E+00  0.00000000000E+00  0.45593999997E+02  0.45594000000E+02  0.51100000000E-03 0.  1.
         11   -1    0    0    0    0 -0.00000000000E+00 -0.00000000000E+00 -0.45593999997E+02  0.45594000000E+02  0.51100000000E-03 0. -1.
    9900012    2    1    2    0    0  0.12930025114E+02 -0.54726235072E+01  0.28628419378E+02  0.59301928533E+02  0.49999971741E+02 0.  0.
         12    1    1    2    0    0 -0.12930025114E+02  0.54726235072E+01 -0.28628419378E+02  0.31886071467E+02  0.00000000000E+00 0. -1.
         11    1    3    3    0    0  0.21691488458E+01 -0.14880926780E+02  0.16961627857E+01  0.15133544099E+02  0.51100000000E-03 0. -1.
        -11    1    3    3    0    0 -0.76944238244E+01 -0.33041629083E+01  0.18351671070E+02  0.20171898320E+02  0.51100000000E-03 0.  1.
         12    1    3    3    0    0  0.18455300093E+02  0.12712466181E+02  0.85805855225E+01  0.23996486114E+02  0.00000000000E+00 0. -1.
</event>
<event>
 7    1  0.3461631E-013  0.5930195E+02  0.7816164E-02  0.1266605E+00
        -11   -1    0    0    0    0  0.00000000000E+00  0.00000000000E+00  0.45593999997E+02  0.45594000000E+02  0.51100000000E-03 0. -1.
         11   -1    0    0    0    0 -0.00000000000E+00 -0.00000000000E+00 -0.45593999997E+02  0.45594000000E+02  0.51100000000E-03 0.  1.
    9900012    2    1    2    0    0  0.15043664033E+02 -0.28105194944E+02  0.71158956593E+00  0.59301950228E+02  0.50000011307E+02 0.  0.
         12    1    1    2    0    0 -0.15043664033E+02  0.28105194944E+02 -0.71158956593E+00  0.31886049772E+02  0.00000000000E+00 0. -1.
         11    1    3    3    0    0  0.17068719192E+02 -0.26319560546E+02  0.37511707678E+01  0.31593222763E+02  0.51100000000E-03 0. -1.
        -11    1    3    3    0    0  0.12687439375E+02 -0.13183680304E+01 -0.23666287407E+01  0.12973439945E+02  0.51100000000E-03 0.  1.
         12    1    3    3    0    0 -0.14712494534E+02 -0.46726636797E+00 -0.67295246124E+00  0.14735287520E+02  0.00000000000E+00 0. -1.
</event>
<event>
 7    1  0.3461631E-013  0.5930195E+02  0.7816164E-02  0.1266605E+00
        -11   -1    0    0    0    0  0.00000000000E+00  0.00000000000E+00  0.45593999997E+02  0.45594000000E+02  0.51100000000E-03 0. -1.
         11   -1    0    0    0    0 -0.00000000000E+00 -0.00000000000E+00 -0.45593999997E+02  0.45594000000E+02  0.51100000000E-03 0.  1.
    9900012    2    1    2    0    0  0.28116276882E+01  0.24637992618E+01 -0.31666138449E+02  0.59301954755E+02  0.50000019565E+02 0.  0.
         12    1    1    2    0    0 -0.28116276882E+01 -0.24637992618E+01  0.31666138449E+02  0.31886045245E+02  0.00000000000E+00 0. -1.
         11    1    3    3    0    0  0.72943738752E+01 -0.80664297186E+01  0.41446572691E+01  0.11638443314E+02  0.51100000000E-03 0. -1.
        -11    1    3    3    0    0 -0.12186837549E+02 -0.52838352855E+01 -0.10982660606E+02  0.17235334607E+02  0.51100000000E-03 0.  1.
        -12    1    3    3    0    0  0.77040913617E+01  0.15814064266E+02 -0.24828135112E+02  0.30428176834E+02  0.00000000000E+00 0.  1.
</event>
<event>
 7    1  0.3461631E-013  0.5930195E+02  0.7816164E-02  0.1266605E+00
        -11   -1    0    0    0    0  0.00000000000E+00  0.00000000000E+00  0.45593999997E+02  0.45594000000E+02  0.51100000000E-03 0.  1.
         11   -1    0    0    0    0 -0.00000000000E+00 -0.00000000000E+00 -0.45593999997E+02  0.45594000000E+02  0.51100000000E-03 0. -1.
    9900012    2    1    2    0    0 -0.23052405719E+02  0.88513952933E+01  0.20173243491E+02  0.59301947234E+02  0.50000005847E+02 0.  0.
         12    1    1    2    0    0  0.23052405719E+02 -0.88513952933E+01 -0.20173243491E+02  0.31886052766E+02  0.00000000000E+00 0. -1.
         11    1    3    3    0    0 -0.10774580144E+02 -0.80420235857E+01 -0.24528218688E+01  0.13666823187E+02  0.51100000000E-03 0. -1.
        -11    1    3    3    0    0  0.86239742988E+01 -0.22530094502E+01  0.12874798916E+02  0.15659164463E+02  0.51100000000E-03 0.  1.
         12    1    3    3    0    0 -0.20901799874E+02  0.19146428329E+02  0.97512664439E+01  0.29975959584E+02  0.00000000000E+00 0. -1.
</event>
<event>
 7    1  0.3461631E-013  0.5930195E+02  0.7816164E-02  0.1266605E+00
        -11   -1    0    0    0    0  0.00000000000E+00  0.00000000000E+00  0.45593999997E+02  0.45594000000E+02  0.51100000000E-03 0.  1.
         11   -1    0    0    0    0 -0.00000000000E+00 -0.00000000000E+00 -0.45593999997E+02  0.45594000000E+02  0.51100000000E-03 0. -1.
    9900012    2    1    2    0    0  0.12764092665E+02 -0.21471112609E+02 -0.19818917983E+02  0.59301949002E+02  0.50000009072E+02 0.  0.
         12    1    1    2    0    0 -0.12764092665E+02  0.21471112609E+02  0.19818917983E+02  0.31886050998E+02  0.00000000000E+00 0. -1.
         11    1    3    3    0    0  0.64615626181E+01 -0.11691929560E+02 -0.12515078407E+02  0.18305195877E+02  0.51100000000E-03 0. -1.
        -11    1    3    3    0    0  0.87337716362E+01 -0.68072071484E+01 -0.22631603646E+02  0.25195363065E+02  0.51100000000E-03 0.  1.
        -12    1    3    3    0    0 -0.24312415888E+01 -0.29719759007E+01  0.15327764070E+02  0.15801390059E+02  0.00000000000E+00 0.  1.
</event>
<event>
 7    1  0.3461631E-013  0.5930196E+02  0.7816164E-02  0.1266605E+00
        -11   -1    0    0    0    0  0.00000000000E+00  0.00000000000E+00  0.45593999997E+02  0.45594000000E+02  0.51100000000E-03 0.  1.
         11   -1    0    0    0    0 -0.00000000000E+00 -0.00000000000E+00 -0.45593999997E+02  0.45594000000E+02  0.51100000000E-03 0. -1.
    9900012    2    1    2    0    0 -0.30403044093E+02 -0.87906240189E+00  0.95708867060E+01  0.59301957393E+02  0.50000024375E+02 0.  0.
         12    1    1    2    0    0  0.30403044093E+02  0.87906240189E+00 -0.95708867060E+01  0.31886042607E+02  0.00000000000E+00 0. -1.
         11    1    3    3    0    0  0.87299937428E+01 -0.35855027464E+00 -0.65153313383E+01  0.10899123440E+02  0.51100000000E-03 0. -1.
        -11    1    3    3    0    0 -0.22561751131E+02  0.55596110336E+01 -0.17581838609E+01  0.23303070607E+02  0.51100000000E-03 0.  1.
        -12    1    3    3    0    0 -0.16571286704E+02 -0.60801231609E+01  0.17844401905E+02  0.25099763346E+02  0.00000000000E+00 0.  1.
</event>
<event>
 7    1  0.3461631E-013  0.5930195E+02  0.7816164E-02  0.1266605E+00
        -11   -1    0    0    0    0  0.00000000000E+00  0.00000000000E+00  0.45593999997E+02  0.45594000000E+02  0.51100000000E-03 0.  1.
         11   -1    0    0    0    0 -0.00000000000E+00 -0.00000000000E+00 -0.45593999997E+02  0.45594000000E+02  0.51100000000E-03 0. -1.
    9900012    2    1    2    0    0 -0.14200698784E+02 -0.15547881444E+01  0.28506897308E+02  0.59301946524E+02  0.50000004553E+02 0.  0.
         12    1    1    2    0    0  0.14200698784E+02  0.15547881444E+01 -0.28506897308E+02  0.31886053476E+02  0.00000000000E+00 0. -1.
         11    1    3    3    0    0  0.40781703644E+01  0.41956051111E+01 -0.27666539989E+01  0.64721673635E+01  0.51100000000E-03 0. -1.
        -11    1    3    3    0    0  0.80216999275E+01  0.68375141640E+01  0.67280909864E+00  0.10561815280E+02  0.51100000000E-03 0.  1.
        -12    1    3    3    0    0 -0.26300569076E+02 -0.12587907420E+02  0.30600742208E+02  0.42267963881E+02  0.00000000000E+00 0.  1.
</event>
<event>
 7    1  0.3461631E-013  0.5930196E+02  0.7816164E-02  0.1266605E+00
        -11   -1    0    0    0    0  0.00000000000E+00  0.00000000000E+00  0.45593999997E+02  0.45594000000E+02  0.51100000000E-03 0.  1.
         11   -1    0    0    0    0 -0.00000000000E+00 -0.00000000000E+00 -0.45593999997E+02  0.45594000000E+02  0.51100000000E-03 0. -1.
    9900012    2    1    2    0    0  0.23411008632E+02  0.90222084325E+01  0.19678510121E+02  0.59301963390E+02  0.50000035312E+02 0.  0.
         12    1    1    2    0    0 -0.23411008632E+02 -0.90222084325E+01 -0.19678510121E+02  0.31886036610E+02  0.00000000000E+00 0. -1.
         11    1    3    3    0    0  0.10629742284E+02  0.73418360477E+01 -0.50369985698E+01  0.13865977515E+02  0.51100000000E-03 0. -1.
        -11    1    3    3    0    0  0.20617328515E+02 -0.10664396960E+02  0.17854029913E+02  0.29284295825E+02  0.51100000000E-03 0.  1.
         12    1    3    3    0    0 -0.78360621674E+01  0.12344769344E+02  0.68614787772E+01  0.16151690050E+02  0.00000000000E+00 0. -1.
</event>
<event>
 7    1  0.3461631E-013  0.5930198E+02  0.7816164E-02  0.1266605E+00
        -11   -1    0    0    0    0  0.00000000000E+00  0.00000000000E+00  0.45593999997E+02  0.45594000000E+02  0.51100000000E-03 0. -1.
         11   -1    0    0    0    0 -0.00000000000E+00 -0.00000000000E+00 -0.45593999997E+02  0.45594000000E+02  0.51100000000E-03 0.  1.
    9900012    2    1    2    0    0 -0.20723369127E+02 -0.86476422111E+01 -0.22637989140E+02  0.59301979614E+02  0.50000064900E+02 0.  0.
         12    1    1    2    0    0  0.20723369127E+02  0.86476422111E+01  0.22637989140E+02  0.31886020386E+02  0.00000000000E+00 0. -1.
         11    1    3    3    0    0 -0.12552972162E+02 -0.54028375795E+01 -0.11426582000E+02  0.17813886170E+02  0.51100000000E-03 0. -1.
        -11    1    3    3    0    0 -0.11370037341E+02 -0.15816310218E+02 -0.18281566072E+02  0.26714211132E+02  0.51100000000E-03 0.  1.
         12    1    3    3    0    0  0.31996403760E+01  0.12571505587E+02  0.70701589322E+01  0.14773882312E+02  0.00000000000E+00 0. -1.
</event>
<event>
 7    1  0.3461631E-013  0.5930197E+02  0.7816164E-02  0.1266605E+00
        -11   -1    0    0    0    0  0.00000000000E+00  0.00000000000E+00  0.45593999997E+02  0.45594000000E+02  0.51100000000E-03 0.  1.
         11   -1    0    0    0    0 -0.00000000000E+00 -0.00000000000E+00 -0.45593999997E+02  0.45594000000E+02  0.51100000000E-03 0. -1.
    9900012    2    1    2    0    0 -0.18514904881E+02 -0.25405678298E+02 -0.53356171074E+01  0.59301968537E+02  0.50000044699E+02 0.  0.
         12    1    1    2    0    0  0.18514904881E+02  0.25405678298E+02  0.53356171074E+01  0.31886031463E+02  0.00000000000E+00 0. -1.
         11    1    3    3    0    0 -0.41964404482E+01 -0.77618523579E+01 -0.61141861362E+01  0.10734977263E+02  0.51100000000E-03 0. -1.
        -11    1    3    3    0    0 -0.20101866843E+02 -0.28603443165E+02  0.53321519881E+01  0.35364867546E+02  0.51100000000E-03 0.  1.
        -12    1    3    3    0    0  0.57834024098E+01  0.10959617225E+02 -0.45535829593E+01  0.13202123728E+02  0.00000000000E+00 0.  1.
</event>
<event>
 7    1  0.3461631E-013  0.5930185E+02  0.7816164E-02  0.1266605E+00
        -11   -1    0    0    0    0  0.00000000000E+00  0.00000000000E+00  0.45593999997E+02  0.45594000000E+02  0.51100000000E-03 0. -1.
         11   -1    0    0    0    0 -0.00000000000E+00 -0.00000000000E+00 -0.45593999997E+02  0.45594000000E+02  0.51100000000E-03 0.  1.
    9900012    2    1    2    0    0 -0.20268857707E+02  0.53287942954E+01 -0.24031312044E+02  0.59301849402E+02  0.49999827425E+02 0.  0.
         12    1    1    2    0    0  0.20268857707E+02 -0.53287942954E+01  0.24031312044E+02  0.31886150598E+02  0.00000000000E+00 0. -1.
         11    1    3    3    0    0 -0.10984735281E+02 -0.12946988856E+01 -0.84255341945E+01  0.13904325986E+02  0.51100000000E-03 0.  1.
        -11    1    3    3    0    0 -0.56234740326E+01  0.20589775797E+02  0.33123016829E+01  0.21599390507E+02  0.51100000000E-03 0. -1.
         12    1    3    3    0    0 -0.36606483931E+01 -0.13966282616E+02 -0.18918079533E+02  0.23798132909E+02  0.00000000000E+00 0. -1.
</event>
<event>
 7    1  0.3461631E-013  0.5930196E+02  0.7816164E-02  0.1266605E+00
        -11   -1    0    0    0    0  0.00000000000E+00  0.00000000000E+00  0.45593999997E+02  0.45594000000E+02  0.51100000000E-03 0.  1.
         11   -1    0    0    0    0 -0.00000000000E+00 -0.00000000000E+00 -0.45593999997E+02  0.45594000000E+02  0.51100000000E-03 0. -1.
    9900012    2    1    2    0    0 -0.25229696738E+02  0.65971538609E+01  0.18348292204E+02  0.59301955037E+02  0.50000020079E+02 0.  0.
         12    1    1    2    0    0  0.25229696738E+02 -0.65971538609E+01 -0.18348292204E+02  0.31886044963E+02  0.00000000000E+00 0. -1.
         11    1    3    3    0    0 -0.35472052879E+01  0.82294766243E+01 -0.65105290237E+01  0.11076729630E+02  0.51100000000E-03 0. -1.
        -11    1    3    3    0    0 -0.26396948975E+02  0.98822180136E+01  0.21159620668E+02  0.35244669031E+02  0.51100000000E-03 0.  1.
         12    1    3    3    0    0  0.47144575243E+01 -0.11514540777E+02  0.36992005591E+01  0.12980556376E+02  0.00000000000E+00 0. -1.
</event>
<event>
 7    1  0.3461631E-013  0.5930190E+02  0.7816164E-02  0.1266605E+00
        -11   -1    0    0    0    0  0.00000000000E+00  0.00000000000E+00  0.45593999997E+02  0.45594000000E+02  0.51100000000E-03 0.  1.
         11   -1    0    0    0    0 -0.00000000000E+00 -0.00000000000E+00 -0.45593999997E+02  0.45594000000E+02  0.51100000000E-03 0. -1.
    9900012    2    1    2    0    0 -0.22425124986E+02 -0.13882441039E+02  0.17919686972E+02  0.59301896741E+02  0.49999913761E+02 0.  0.
         12    1    1    2    0    0  0.22425124986E+02  0.13882441039E+02 -0.17919686972E+02  0.31886103259E+02  0.00000000000E+00 0. -1.
         11    1    3    3    0    0 -0.35159587891E+01 -0.16549774832E+02  0.62558309471E+01  0.18038637263E+02  0.51100000000E-03 0. -1.
        -11    1    3    3    0    0 -0.25154440938E+02  0.12377645492E+02  0.83365916278E+01  0.29248089973E+02  0.51100000000E-03 0.  1.
         12    1    3    3    0    0  0.62452747407E+01 -0.97103116991E+01  0.33272643975E+01  0.12015169506E+02  0.00000000000E+00 0. -1.
</event>
<event>
 7    1  0.3461631E-013  0.5930192E+02  0.7816164E-02  0.1266605E+00
        -11   -1    0    0    0    0  0.00000000000E+00  0.00000000000E+00  0.45593999997E+02  0.45594000000E+02  0.51100000000E-03 0.  1.
         11   -1    0    0    0    0 -0.00000000000E+00 -0.00000000000E+00 -0.45593999997E+02  0.45594000000E+02  0.51100000000E-03 0. -1.
    9900012    2    1    2    0    0  0.27006385169E+02 -0.12506230185E+02  0.11444270513E+02  0.59301922146E+02  0.49999960093E+02 0.  0.
         12    1    1    2    0    0 -0.27006385169E+02  0.12506230185E+02 -0.11444270513E+02  0.31886077854E+02  0.00000000000E+00 0. -1.
         11    1    3    3    0    0  0.75502258392E+01  0.98568221667E+00  0.22310827779E+02  0.23574361414E+02  0.51100000000E-03 0. -1.
        -11    1    3    3    0    0  0.56954753650E+01  0.84269628378E+00  0.69598764963E+01  0.90326329365E+01  0.51100000000E-03 0.  1.
         12    1    3    3    0    0  0.13760683965E+02 -0.14334608685E+02 -0.17826433762E+02  0.26694927795E+02  0.00000000000E+00 0. -1.
</event>
<event>
 7    1  0.3461631E-013  0.5930163E+02  0.7816164E-02  0.1266606E+00
        -11   -1    0    0    0    0  0.00000000000E+00  0.00000000000E+00  0.45593999997E+02  0.45594000000E+02  0.51100000000E-03 0.  1.
         11   -1    0    0    0    0 -0.00000000000E+00 -0.00000000000E+00 -0.45593999997E+02  0.45594000000E+02  0.51100000000E-03 0. -1.
    9900012    2    1    2    0    0 -0.22996830746E+02 -0.19579176274E+02  0.10224588524E+02  0.59301630210E+02  0.49999427668E+02 0.  0.
         12    1    1    2    0    0  0.22996830746E+02  0.19579176274E+02 -0.10224588524E+02  0.31886369790E+02  0.00000000000E+00 0. -1.
         11    1    3    3    0    0  0.62100467285E+01 -0.63453896800E+01 -0.70348463674E+01  0.11327740915E+02  0.51100000000E-03 0. -1.
        -11    1    3    3    0    0 -0.14701435190E+02 -0.13742344905E+02 -0.56062876874E+01  0.20890540970E+02  0.51100000000E-03 0.  1.
         12    1    3    3    0    0 -0.14505442284E+02  0.50855831107E+00  0.22865722578E+02  0.27083348324E+02  0.00000000000E+00 0. -1.
</event>
<event>
 7    1  0.3461631E-013  0.5930193E+02  0.7816164E-02  0.1266605E+00
        -11   -1    0    0    0    0  0.00000000000E+00  0.00000000000E+00  0.45593999997E+02  0.45594000000E+02  0.51100000000E-03 0. -1.
         11   -1    0    0    0    0 -0.00000000000E+00 -0.00000000000E+00 -0.45593999997E+02  0.45594000000E+02  0.51100000000E-03 0.  1.
    9900012    2    1    2    0    0 -0.10149211547E+02 -0.29335758065E+00 -0.30226296228E+02  0.59301928788E+02  0.49999972206E+02 0.  0.
         12    1    1    2    0    0  0.10149211547E+02  0.29335758065E+00  0.30226296228E+02  0.31886071212E+02  0.00000000000E+00 0. -1.
         11    1    3    3    0    0  0.28896106680E+01 -0.18298383795E+01  0.59629540828E+01  0.68742257719E+01  0.51100000000E-03 0. -1.
        -11    1    3    3    0    0  0.86177256638E+01 -0.34639678204E+01  0.74901151484E+00  0.93180087566E+01  0.51100000000E-03 0.  1.
         12    1    3    3    0    0 -0.21656547879E+02  0.50004486192E+01 -0.36938261826E+02  0.43109694259E+02  0.00000000000E+00 0. -1.
</event>
<event>
 7    1  0.3461631E-013  0.5930193E+02  0.7816164E-02  0.1266605E+00
        -11   -1    0    0    0    0  0.00000000000E+00  0.00000000000E+00  0.45593999997E+02  0.45594000000E+02  0.51100000000E-03 0.  1.
         11   -1    0    0    0    0 -0.00000000000E+00 -0.00000000000E+00 -0.45593999997E+02  0.45594000000E+02  0.51100000000E-03 0. -1.
    9900012    2    1    2    0    0  0.65637473474E+01 -0.28087605697E+02  0.13591366294E+02  0.59301927637E+02  0.49999970107E+02 0.  0.
         12    1    1    2    0    0 -0.65637473474E+01  0.28087605697E+02 -0.13591366294E+02  0.31886072363E+02  0.00000000000E+00 0. -1.
         11    1    3    3    0    0  0.10973156371E+02 -0.63977630904E+01 -0.15520193622E+02  0.20055371940E+02  0.51100000000E-03 0. -1.
        -11    1    3    3    0    0 -0.50899287612E+01 -0.17483641476E+01  0.23680227034E+01  0.58797690237E+01  0.51100000000E-03 0.  1.
        -12    1    3    3    0    0  0.68051973708E+00 -0.19941478459E+02  0.26743537213E+02  0.33366786673E+02  0.00000000000E+00 0.  1.
</event>
<event>
 7    1  0.3461631E-013  0.5930179E+02  0.7816164E-02  0.1266605E+00
        -11   -1    0    0    0    0  0.00000000000E+00  0.00000000000E+00  0.45593999997E+02  0.45594000000E+02  0.51100000000E-03 0.  1.
         11   -1    0    0    0    0 -0.00000000000E+00 -0.00000000000E+00 -0.45593999997E+02  0.45594000000E+02  0.51100000000E-03 0. -1.
    9900012    2    1    2    0    0  0.11226388530E+02 -0.29620920380E+02  0.36468401628E+01  0.59301793472E+02  0.49999725421E+02 0.  0.
         12    1    1    2    0    0 -0.11226388530E+02  0.29620920380E+02 -0.36468401628E+01  0.31886206528E+02  0.00000000000E+00 0. -1.
         11    1    3    3    0    0 -0.14027030521E+02 -0.42424528223E+01 -0.94072615165E+01  0.17414148291E+02  0.51100000000E-03 0. -1.
        -11    1    3    3    0    0  0.77616929940E+01  0.56262362599E-01  0.69549612503E+01  0.10422021389E+02  0.51100000000E-03 0.  1.
        -12    1    3    3    0    0  0.17491726058E+02 -0.25434729920E+02  0.60991404290E+01  0.31465623791E+02  0.00000000000E+00 0.  1.
</event>
<event>
 7    1  0.3461631E-013  0.5930194E+02  0.7816164E-02  0.1266605E+00
        -11   -1    0    0    0    0  0.00000000000E+00  0.00000000000E+00  0.45593999997E+02  0.45594000000E+02  0.51100000000E-03 0.  1.
         11   -1    0    0    0    0 -0.00000000000E+00 -0.00000000000E+00 -0.45593999997E+02  0.45594000000E+02  0.51100000000E-03 0. -1.
    9900012    2    1    2    0    0  0.29053832980E+02 -0.11331673065E+02  0.66474465339E+01  0.59301943946E+02  0.49999999850E+02 0.  0.
         12    1    1    2    0    0 -0.29053832980E+02  0.11331673065E+02 -0.66474465339E+01  0.31886056054E+02  0.00000000000E+00 0. -1.
         11    1    3    3    0    0  0.15665124950E+02  0.15617571396E+02 -0.60847148024E+01  0.22941848890E+02  0.51100000000E-03 0.  1.
        -11    1    3    3    0    0 -0.27124506120E+01 -0.37123254461E+00  0.23164626885E+01  0.35862517443E+01  0.51100000000E-03 0. -1.
        -12    1    3    3    0    0  0.16101158642E+02 -0.26578011917E+02  0.10415698648E+02  0.32773843311E+02  0.00000000000E+00 0.  1.
</event>
<event>
 7    1  0.3461631E-013  0.5930194E+02  0.7816164E-02  0.1266605E+00
        -11   -1    0    0    0    0  0.00000000000E+00  0.00000000000E+00  0.45593999997E+02  0.45594000000E+02  0.51100000000E-03 0.  1.
         11   -1    0    0    0    0 -0.00000000000E+00 -0.00000000000E+00 -0.45593999997E+02  0.45594000000E+02  0.51100000000E-03 0. -1.
    9900012    2    1    2    0    0 -0.12434472572E+02  0.24939962676E+02  0.15495247494E+02  0.59301944406E+02  0.50000000690E+02 0.  0.
         12    1    1    2    0    0  0.12434472572E+02 -0.24939962676E+02 -0.15495247494E+02  0.31886055594E+02  0.00000000000E+00 0. -1.
         11    1    3    3    0    0  0.71425621124E+01  0.93142933939E+01  0.59967295760E-01  0.11737795845E+02  0.51100000000E-03 0. -1.
        -11    1    3    3    0    0 -0.12134091088E+02  0.25590861558E+02  0.76682913759E+00  0.28332249982E+02  0.51100000000E-03 0.  1.
        -12    1    3    3    0    0 -0.74429435957E+01 -0.99651922759E+01  0.14668451061E+02  0.19231898580E+02  0.00000000000E+00 0.  1.
</event>
<event>
 7    1  0.3461631E-013  0.5930198E+02  0.7816164E-02  0.1266605E+00
        -11   -1    0    0    0    0  0.00000000000E+00  0.00000000000E+00  0.45593999997E+02  0.45594000000E+02  0.51100000000E-03 0.  1.
         11   -1    0    0    0    0 -0.00000000000E+00 -0.00000000000E+00 -0.45593999997E+02  0.45594000000E+02  0.51100000000E-03 0. -1.
    9900012    2    1    2    0    0 -0.11830748679E+02  0.19445377398E+01  0.29546076395E+02  0.59301976860E+02  0.50000059878E+02 0.  0.
         12    1    1    2    0    0  0.11830748679E+02 -0.19445377398E+01 -0.29546076395E+02  0.31886023140E+02  0.00000000000E+00 0. -1.
         11    1    3    3    0    0  0.11242043183E+02  0.41437545388E+01  0.78098373180E+01  0.14302020689E+02  0.51100000000E-03 0. -1.
        -11    1    3    3    0    0 -0.10630913206E+02  0.14716847866E+02  0.75730088980E+01  0.19671105478E+02  0.51100000000E-03 0.  1.
        -12    1    3    3    0    0 -0.12441878656E+02 -0.16916064665E+02  0.14163230179E+02  0.25328850692E+02  0.00000000000E+00 0.  1.
</event>
<event>
 7    1  0.3461631E-013  0.5930196E+02  0.7816164E-02  0.1266605E+00
        -11   -1    0    0    0    0  0.00000000000E+00  0.00000000000E+00  0.45593999997E+02  0.45594000000E+02  0.51100000000E-03 0.  1.
         11   -1    0    0    0    0 -0.00000000000E+00 -0.00000000000E+00 -0.45593999997E+02  0.45594000000E+02  0.51100000000E-03 0. -1.
    9900012    2    1    2    0    0 -0.14442732022E+02  0.48351792511E+01  0.28013361042E+02  0.59301955035E+02  0.50000020075E+02 0.  0.
         12    1    1    2    0    0  0.14442732022E+02 -0.48351792511E+01 -0.28013361042E+02  0.31886044965E+02  0.00000000000E+00 0. -1.
         11    1    3    3    0    0 -0.64601528624E+01  0.13350647568E+01 -0.89705437930E+01  0.11134928339E+02  0.51100000000E-03 0. -1.
        -11    1    3    3    0    0 -0.11490762031E+02  0.14930318044E+02  0.21121607222E+02  0.28303256012E+02  0.51100000000E-03 0.  1.
        -12    1    3    3    0    0  0.35081828713E+01 -0.11430203550E+02  0.15862297613E+02  0.19863770685E+02  0.00000000000E+00 0.  1.
</event>
<event>
 7    1  0.3461631E-013  0.5930189E+02  0.7816164E-02  0.1266605E+00
        -11   -1    0    0    0    0  0.00000000000E+00  0.00000000000E+00  0.45593999997E+02  0.45594000000E+02  0.51100000000E-03 0.  1.
         11   -1    0    0    0    0 -0.00000000000E+00 -0.00000000000E+00 -0.45593999997E+02  0.45594000000E+02  0.51100000000E-03 0. -1.
    9900012    2    1    2    0    0 -0.85920682913E+01  0.30161914087E+02  0.57584180115E+01  0.59301888965E+02  0.49999899579E+02 0.  0.
         12    1    1    2    0    0  0.85920682913E+01 -0.30161914087E+02 -0.57584180115E+01  0.31886111035E+02  0.00000000000E+00 0. -1.
         11    1    3    3    0    0 -0.59016760283E+00 -0.27208787960E-01 -0.23690975623E+01  0.24416514162E+01  0.51100000000E-03 0. -1.
        -11    1    3    3    0    0 -0.87062953570E+01 -0.11484224515E+02  0.82389366869E-01  0.14411584917E+02  0.51100000000E-03 0.  1.
         12    1    3    3    0    0  0.70439466857E+00  0.41673347390E+02  0.80451262069E+01  0.42448652632E+02  0.00000000000E+00 0. -1.
</event>
<event>
 7    1  0.3461631E-013  0.5930194E+02  0.7816164E-02  0.1266605E+00
        -11   -1    0    0    0    0  0.00000000000E+00  0.00000000000E+00  0.45593999997E+02  0.45594000000E+02  0.51100000000E-03 0.  1.
         11   -1    0    0    0    0 -0.00000000000E+00 -0.00000000000E+00 -0.45593999997E+02  0.45594000000E+02  0.51100000000E-03 0. -1.
    9900012    2    1    2    0    0  0.28225887731E+02  0.13029694599E+02  0.70885120778E+01  0.59301942184E+02  0.49999996638E+02 0.  0.
         12    1    1    2    0    0 -0.28225887731E+02 -0.13029694599E+02 -0.70885120778E+01  0.31886057816E+02  0.00000000000E+00 0. -1.
         11    1    3    3    0    0  0.18545635650E+02  0.88891095772E+01 -0.67260415756E+01  0.21637848929E+02  0.51100000000E-03 0. -1.
        -11    1    3    3    0    0  0.10795450251E+02 -0.84925200550E+01 -0.53019619702E+01  0.14723295962E+02  0.51100000000E-03 0.  1.
         12    1    3    3    0    0 -0.11151981698E+01  0.12633105077E+02  0.19116515624E+02  0.22940797293E+02  0.00000000000E+00 0. -1.
</event>
<event>
 7    1  0.3461631E-013  0.5930191E+02  0.7816164E-02  0.1266605E+00
        -11   -1    0    0    0    0  0.00000000000E+00  0.00000000000E+00  0.45593999997E+02  0.45594000000E+02  0.51100000000E-03 0. -1.
         11   -1    0    0    0    0 -0.00000000000E+00 -0.00000000000E+00 -0.45593999997E+02  0.45594000000E+02  0.51100000000E-03 0.  1.
    9900012    2    1    2    0    0 -0.11646594406E+02 -0.20416608092E+01 -0.29612688023E+02  0.59301908486E+02  0.49999935180E+02 0.  0.
         12    1    1    2    0    0  0.11646594406E+02  0.20416608092E+01  0.29612688023E+02  0.31886091514E+02  0.00000000000E+00 0. -1.
         11    1    3    3    0    0 -0.32216153231E+01 -0.30760841833E+01  0.63518567977E+01  0.77580399736E+01  0.51100000000E-03 0. -1.
        -11    1    3    3    0    0 -0.11075116701E+02 -0.36176605512E+01  0.31462381244E+01  0.12068325998E+02  0.51100000000E-03 0.  1.
         12    1    3    3    0    0  0.26501376182E+01  0.46520839253E+01 -0.39110782945E+02  0.39475542514E+02  0.00000000000E+00 0. -1.
</event>
<event>
 7    1  0.3461631E-013  0.5930192E+02  0.7816164E-02  0.1266605E+00
        -11   -1    0    0    0    0  0.00000000000E+00  0.00000000000E+00  0.45593999997E+02  0.45594000000E+02  0.51100000000E-03 0.  1.
         11   -1    0    0    0    0 -0.00000000000E+00 -0.00000000000E+00 -0.45593999997E+02  0.45594000000E+02  0.51100000000E-03 0. -1.
    9900012    2    1    2    0    0  0.29655729115E+02  0.80935768059E+01  0.84707497983E+01  0.59301923776E+02  0.49999963065E+02 0.  0.
         12    1    1    2    0    0 -0.29655729115E+02 -0.80935768059E+01 -0.84707497983E+01  0.31886076224E+02  0.00000000000E+00 0. -1.
         11    1    3    3    0    0  0.34544865214E+01  0.30253833336E+01  0.80513962794E+01  0.92688404750E+01  0.51100000000E-03 0. -1.
        -11    1    3    3    0    0  0.17058294895E+02  0.11385853806E+02  0.19275598004E+02  0.28145546189E+02  0.51100000000E-03 0.  1.
         12    1    3    3    0    0  0.91429476985E+01 -0.63176603334E+01 -0.18856244486E+02  0.21887537111E+02  0.00000000000E+00 0. -1.
</event>
<event>
 7    1  0.3461631E-013  0.5930195E+02  0.7816164E-02  0.1266605E+00
        -11   -1    0    0    0    0  0.00000000000E+00  0.00000000000E+00  0.45593999997E+02  0.45594000000E+02  0.51100000000E-03 0.  1.
         11   -1    0    0    0    0 -0.00000000000E+00 -0.00000000000E+00 -0.45593999997E+02  0.45594000000E+02  0.51100000000E-03 0. -1.
    9900012    2    1    2    0    0 -0.77073360228E+01 -0.15908745297E+02  0.26537314139E+02  0.59301949018E+02  0.50000009102E+02 0.  0.
         12    1    1    2    0    0  0.77073360228E+01  0.15908745297E+02 -0.26537314139E+02  0.31886050982E+02  0.00000000000E+00 0. -1.
         11    1    3    3    0    0 -0.21368284481E+02  0.20775944986E+01 -0.42848666502E+00  0.21473322557E+02  0.51100000000E-03 0. -1.
        -11    1    3    3    0    0 -0.10328437704E+01 -0.37224521652E+01 -0.12931115519E+00  0.38652474710E+01  0.51100000000E-03 0.  1.
        -12    1    3    3    0    0  0.14693792228E+02 -0.14263887630E+02  0.27095111959E+02  0.33963378991E+02  0.00000000000E+00 0.  1.
</event>
<event>
 7    1  0.3461631E-013  0.5930196E+02  0.7816164E-02  0.1266605E+00
        -11   -1    0    0    0    0  0.00000000000E+00  0.00000000000E+00  0.45593999997E+02  0.45594000000E+02  0.51100000000E-03 0.  1.
         11   -1    0    0    0    0 -0.00000000000E+00 -0.00000000000E+00 -0.45593999997E+02  0.45594000000E+02  0.51100000000E-03 0. -1.
    9900012    2    1    2    0    0 -0.27056324403E+02 -0.10359689414E+02  0.13317345102E+02  0.59301960178E+02  0.50000029455E+02 0.  0.
         12    1    1    2    0    0  0.27056324403E+02  0.10359689414E+02 -0.13317345102E+02  0.31886039822E+02  0.00000000000E+00 0. -1.
         11    1    3    3    0    0 -0.57764857011E+01  0.14057903103E+01 -0.11632274241E+02  0.13063454280E+02  0.51100000000E-03 0. -1.
        -11    1    3    3    0    0 -0.19108164356E+01  0.82089098795E+01  0.13993681137E+02  0.16335866457E+02  0.51100000000E-03 0.  1.
        -12    1    3    3    0    0 -0.19369022266E+02 -0.19974389604E+02  0.10955938206E+02  0.29902639441E+02  0.00000000000E+00 0.  1.
</event>
<event>
 7    1  0.3461631E-013  0.5930195E+02  0.7816164E-02  0.1266605E+00
        -11   -1    0    0    0    0  0.00000000000E+00  0.00000000000E+00  0.45593999997E+02  0.45594000000E+02  0.51100000000E-03 0.  1.
         11   -1    0    0    0    0 -0.00000000000E+00 -0.00000000000E+00 -0.45593999997E+02  0.45594000000E+02  0.51100000000E-03 0. -1.
    9900012    2    1    2    0    0 -0.15866897819E+02  0.27650336499E+02 -0.64848784097E+00  0.59301951462E+02  0.50000013558E+02 0.  0.
         12    1    1    2    0    0  0.15866897819E+02 -0.27650336499E+02  0.64848784097E+00  0.31886048538E+02  0.00000000000E+00 0. -1.
         11    1    3    3    0    0 -0.32140073907E+01 -0.17595082308E+01 -0.29225157330E+01  0.46868764857E+01  0.51100000000E-03 0. -1.
        -11    1    3    3    0    0 -0.18195431680E+02  0.33524839113E+02 -0.10961018342E+02  0.39687938910E+02  0.51100000000E-03 0.  1.
         12    1    3    3    0    0  0.55425412512E+01 -0.41149943834E+01  0.13235046234E+02  0.14927136066E+02  0.00000000000E+00 0. -1.
</event>
<event>
 7    1  0.3461631E-013  0.5930193E+02  0.7816164E-02  0.1266605E+00
        -11   -1    0    0    0    0  0.00000000000E+00  0.00000000000E+00  0.45593999997E+02  0.45594000000E+02  0.51100000000E-03 0. -1.
         11   -1    0    0    0    0 -0.00000000000E+00 -0.00000000000E+00 -0.45593999997E+02  0.45594000000E+02  0.51100000000E-03 0.  1.
    9900012    2    1    2    0    0 -0.84665295541E+00  0.45816910002E+01 -0.31543824374E+02  0.59301928279E+02  0.49999971278E+02 0.  0.
         12    1    1    2    0    0  0.84665295541E+00 -0.45816910002E+01  0.31543824374E+02  0.31886071721E+02  0.00000000000E+00 0. -1.
         11    1    3    3    0    0  0.10057596957E+02 -0.10739644987E+02 -0.91464412298E+01  0.17324913230E+02  0.51100000000E-03 0. -1.
        -11    1    3    3    0    0  0.46766931969E+01  0.16867567050E+02 -0.42573816519E+01  0.18014204846E+02  0.51100000000E-03 0.  1.
        -12    1    3    3    0    0 -0.15580943109E+02 -0.15462310633E+01 -0.18140001492E+02  0.23962810203E+02  0.00000000000E+00 0.  1.
</event>
<event>
 7    1  0.3461631E-013  0.5930193E+02  0.7816164E-02  0.1266605E+00
        -11   -1    0    0    0    0  0.00000000000E+00  0.00000000000E+00  0.45593999997E+02  0.45594000000E+02  0.51100000000E-03 0.  1.
         11   -1    0    0    0    0 -0.00000000000E+00 -0.00000000000E+00 -0.45593999997E+02  0.45594000000E+02  0.51100000000E-03 0. -1.
    9900012    2    1    2    0    0  0.27857196580E+00 -0.12764406175E+02  0.29218380384E+02  0.59301930634E+02  0.49999975573E+02 0.  0.
         12    1    1    2    0    0 -0.27857196580E+00  0.12764406175E+02 -0.29218380384E+02  0.31886069366E+02  0.00000000000E+00 0. -1.
         11    1    3    3    0    0  0.65270438004E+00  0.14100968889E+02 -0.69847245130E+00  0.14133336854E+02  0.51100000000E-03 0. -1.
        -11    1    3    3    0    0  0.79213323513E+01 -0.32834753324E+01  0.10232919782E+02  0.13350706499E+02  0.51100000000E-03 0.  1.
         12    1    3    3    0    0 -0.82954647655E+01 -0.23581899732E+02  0.19683933053E+02  0.31817887281E+02  0.00000000000E+00 0. -1.
</event>
<event>
 7    1  0.3461631E-013  0.5930191E+02  0.7816164E-02  0.1266605E+00
        -11   -1    0    0    0    0  0.00000000000E+00  0.00000000000E+00  0.45593999997E+02  0.45594000000E+02  0.51100000000E-03 0.  1.
         11   -1    0    0    0    0 -0.00000000000E+00 -0.00000000000E+00 -0.45593999997E+02  0.45594000000E+02  0.51100000000E-03 0. -1.
    9900012    2    1    2    0    0 -0.29525793913E+02 -0.15071190873E+01  0.11944832599E+02  0.59301906794E+02  0.49999932094E+02 0.  0.
         12    1    1    2    0    0  0.29525793913E+02  0.15071190873E+01 -0.11944832599E+02  0.31886093206E+02  0.00000000000E+00 0. -1.
         11    1    3    3    0    0 -0.31720051275E+00 -0.42637160270E+01 -0.62333146435E+01  0.75587103550E+01  0.51100000000E-03 0. -1.
        -11    1    3    3    0    0  0.21280758812E+01 -0.78367441738E+01 -0.65584079553E+01  0.10438198186E+02  0.51100000000E-03 0.  1.
        -12    1    3    3    0    0 -0.31336669282E+02  0.10593341114E+02  0.24736555197E+02  0.41304998253E+02  0.00000000000E+00 0.  1.
</event>
<event>
 7    1  0.3461631E-013  0.5930195E+02  0.7816164E-02  0.1266605E+00
        -11   -1    0    0    0    0  0.00000000000E+00  0.00000000000E+00  0.45593999997E+02  0.45594000000E+02  0.51100000000E-03 0. -1.
         11   -1    0    0    0    0 -0.00000000000E+00 -0.00000000000E+00 -0.45593999997E+02  0.45594000000E+02  0.51100000000E-03 0.  1.
    9900012    2    1    2    0    0  0.28699234120E+02 -0.41098202763E+01  0.13273410119E+02  0.59301951672E+02  0.50000013941E+02 0.  0.
         12    1    1    2    0    0 -0.28699234120E+02  0.41098202763E+01 -0.13273410119E+02  0.31886048328E+02  0.00000000000E+00 0. -1.
         11    1    3    3    0    0 -0.67062883283E+01 -0.34481556133E+01 -0.35532141910E+01  0.83360309275E+01  0.51100000000E-03 0. -1.
        -11    1    3    3    0    0  0.26182903598E+02  0.10991429343E+02 -0.15900299648E+00  0.28396852678E+02  0.51100000000E-03 0.  1.
        -12    1    3    3    0    0  0.92226188506E+01 -0.11653094006E+02  0.16985627307E+02  0.22569068066E+02  0.00000000000E+00 0.  1.
</event>
<event>
 7    1  0.3461631E-013  0.5930200E+02  0.7816164E-02  0.1266605E+00
        -11   -1    0    0    0    0  0.00000000000E+00  0.00000000000E+00  0.45593999997E+02  0.45594000000E+02  0.51100000000E-03 0. -1.
         11   -1    0    0    0    0 -0.00000000000E+00 -0.00000000000E+00 -0.45593999997E+02  0.45594000000E+02  0.51100000000E-03 0.  1.
    9900012    2    1    2    0    0  0.24610671882E+01 -0.11984712151E+01 -0.31768283271E+02  0.59301999828E+02  0.50000101767E+02 0.  0.
         12    1    1    2    0    0 -0.24610671882E+01  0.11984712151E+01  0.31768283271E+02  0.31886000172E+02  0.00000000000E+00 0. -1.
         11    1    3    3    0    0 -0.74126119575E+01  0.10015872242E+02 -0.37095166604E+01  0.13000962538E+02  0.51100000000E-03 0. -1.
        -11    1    3    3    0    0  0.21474002495E+02 -0.37567488705E+01 -0.11164182058E+02  0.24492547979E+02  0.51100000000E-03 0.  1.
         12    1    3    3    0    0 -0.11600323349E+02 -0.74575945867E+01 -0.16894584553E+02  0.21808489311E+02  0.00000000000E+00 0. -1.
</event>
<event>
 7    1  0.3461631E-013  0.5930195E+02  0.7816164E-02  0.1266605E+00
        -11   -1    0    0    0    0  0.00000000000E+00  0.00000000000E+00  0.45593999997E+02  0.45594000000E+02  0.51100000000E-03 0.  1.
         11   -1    0    0    0    0 -0.00000000000E+00 -0.00000000000E+00 -0.45593999997E+02  0.45594000000E+02  0.51100000000E-03 0. -1.
    9900012    2    1    2    0    0  0.23479744405E+01  0.25977151678E+02  0.18341068157E+02  0.59301950160E+02  0.50000011183E+02 0.  0.
         12    1    1    2    0    0 -0.23479744405E+01 -0.25977151678E+02 -0.18341068157E+02  0.31886049840E+02  0.00000000000E+00 0. -1.
         11    1    3    3    0    0 -0.21839054128E+01 -0.36749889493E+01  0.14651315565E+01  0.45190261527E+01  0.51100000000E-03 0. -1.
        -11    1    3    3    0    0 -0.14585191005E+02  0.21837035624E+02  0.21119188798E+02  0.33698724861E+02  0.51100000000E-03 0.  1.
        -12    1    3    3    0    0  0.19117070858E+02  0.78151050029E+01 -0.42432521974E+01  0.21084199146E+02  0.00000000000E+00 0.  1.
</event>
<event>
 7    1  0.3461631E-013  0.5930203E+02  0.7816164E-02  0.1266604E+00
        -11   -1    0    0    0    0  0.00000000000E+00  0.00000000000E+00  0.45593999997E+02  0.45594000000E+02  0.51100000000E-03 0. -1.
         11   -1    0    0    0    0 -0.00000000000E+00 -0.00000000000E+00 -0.45593999997E+02  0.45594000000E+02  0.51100000000E-03 0.  1.
    9900012    2    1    2    0    0  0.14536595514E+02  0.39381493623E+01 -0.28105045384E+02  0.59302028076E+02  0.50000153283E+02 0.  0.
         12    1    1    2    0    0 -0.14536595514E+02 -0.39381493623E+01  0.28105045384E+02  0.31885971924E+02  0.00000000000E+00 0. -1.
         11    1    3    3    0    0  0.78853890682E+01 -0.56205105435E+01  0.81326299173E+01  0.12645519727E+02  0.51100000000E-03 0.  1.
        -11    1    3    3    0    0 -0.86383057552E+01  0.36693484563E+01 -0.34434840618E+01  0.99971009377E+01  0.51100000000E-03 0. -1.
        -12    1    3    3    0    0  0.15289512201E+02  0.58893114495E+01 -0.32794191239E+02  0.36659407411E+02  0.00000000000E+00 0.  1.
</event>
<event>
 7    1  0.3461631E-013  0.5930193E+02  0.7816164E-02  0.1266605E+00
        -11   -1    0    0    0    0  0.00000000000E+00  0.00000000000E+00  0.45593999997E+02  0.45594000000E+02  0.51100000000E-03 0.  1.
         11   -1    0    0    0    0 -0.00000000000E+00 -0.00000000000E+00 -0.45593999997E+02  0.45594000000E+02  0.51100000000E-03 0. -1.
    9900012    2    1    2    0    0  0.50031275161E+01  0.25082694238E+02  0.19040712624E+02  0.59301928238E+02  0.49999971204E+02 0.  0.
         12    1    1    2    0    0 -0.50031275161E+01 -0.25082694238E+02 -0.19040712624E+02  0.31886071762E+02  0.00000000000E+00 0. -1.
         11    1    3    3    0    0  0.20315156462E+02  0.10646703328E+02  0.11017467216E+02  0.25444890606E+02  0.51100000000E-03 0. -1.
        -11    1    3    3    0    0  0.58999193795E+01  0.70102744464E+01  0.66869065495E+01  0.11343179270E+02  0.51100000000E-03 0.  1.
        -12    1    3    3    0    0 -0.21211948326E+02  0.74257164633E+01  0.13363388586E+01  0.22513858361E+02  0.00000000000E+00 0.  1.
</event>
<event>
 7    1  0.3461631E-013  0.5930201E+02  0.7816164E-02  0.1266605E+00
        -11   -1    0    0    0    0  0.00000000000E+00  0.00000000000E+00  0.45593999997E+02  0.45594000000E+02  0.51100000000E-03 0. -1.
         11   -1    0    0    0    0 -0.00000000000E+00 -0.00000000000E+00 -0.45593999997E+02  0.45594000000E+02  0.51100000000E-03 0.  1.
    9900012    2    1    2    0    0 -0.23388245628E+02  0.11540204723E+01 -0.21641968883E+02  0.59302005991E+02  0.50000113006E+02 0.  0.
         12    1    1    2    0    0  0.23388245628E+02 -0.11540204723E+01  0.21641968883E+02  0.31885994009E+02  0.00000000000E+00 0. -1.
         11    1    3    3    0    0  0.41366762881E+01 -0.13269724603E+02  0.75316183331E+00  0.13919947369E+02  0.51100000000E-03 0. -1.
        -11    1    3    3    0    0 -0.30298169046E+01  0.79316996159E+01  0.34697350590E+01  0.91722794829E+01  0.51100000000E-03 0.  1.
        -12    1    3    3    0    0 -0.24495105011E+02  0.64920454590E+01 -0.25864865776E+02  0.36209779140E+02  0.00000000000E+00 0.  1.
</event>
<event>
 7    1  0.3461631E-013  0.5930195E+02  0.7816164E-02  0.1266605E+00
        -11   -1    0    0    0    0  0.00000000000E+00  0.00000000000E+00  0.45593999997E+02  0.45594000000E+02  0.51100000000E-03 0.  1.
         11   -1    0    0    0    0 -0.00000000000E+00 -0.00000000000E+00 -0.45593999997E+02  0.45594000000E+02  0.51100000000E-03 0. -1.
    9900012    2    1    2    0    0  0.24382833320E+02 -0.19220832164E+02  0.72634007717E+01  0.59301953827E+02  0.50000017872E+02 0.  0.
         12    1    1    2    0    0 -0.24382833320E+02  0.19220832164E+02 -0.72634007717E+01  0.31886046173E+02  0.00000000000E+00 0. -1.
         11    1    3    3    0    0 -0.24375882599E+01 -0.36659834544E+01 -0.29420368066E+01  0.52949836681E+01  0.51100000000E-03 0. -1.
        -11    1    3    3    0    0 -0.71904958932E+01 -0.17276542732E+02  0.62214275376E+01  0.19720251541E+02  0.51100000000E-03 0.  1.
         12    1    3    3    0    0  0.34010917473E+02  0.17216940227E+01  0.39840100407E+01  0.34286718619E+02  0.00000000000E+00 0. -1.
</event>
<event>
 7    1  0.3461631E-013  0.5930195E+02  0.7816164E-02  0.1266605E+00
        -11   -1    0    0    0    0  0.00000000000E+00  0.00000000000E+00  0.45593999997E+02  0.45594000000E+02  0.51100000000E-03 0.  1.
         11   -1    0    0    0    0 -0.00000000000E+00 -0.00000000000E+00 -0.45593999997E+02  0.45594000000E+02  0.51100000000E-03 0. -1.
    9900012    2    1    2    0    0 -0.31710189051E+02 -0.20272591319E+01  0.26597724975E+01  0.59301948833E+02  0.50000008764E+02 0.  0.
         12    1    1    2    0    0  0.31710189051E+02  0.20272591319E+01 -0.26597724975E+01  0.31886051167E+02  0.00000000000E+00 0. -1.
         11    1    3    3    0    0 -0.56994905976E+01  0.78605394056E+01  0.49188499213E+01  0.10884271111E+02  0.51100000000E-03 0. -1.
        -11    1    3    3    0    0 -0.27127194859E+02 -0.12136927425E+02  0.13370465897E+02  0.32587713433E+02  0.51100000000E-03 0.  1.
         12    1    3    3    0    0  0.11164964046E+01  0.22491288879E+01 -0.15629543321E+02  0.15829964289E+02  0.00000000000E+00 0. -1.
</event>
<event>
 7    1  0.3461631E-013  0.5930194E+02  0.7816164E-02  0.1266605E+00
        -11   -1    0    0    0    0  0.00000000000E+00  0.00000000000E+00  0.45593999997E+02  0.45594000000E+02  0.51100000000E-03 0. -1.
         11   -1    0    0    0    0 -0.00000000000E+00 -0.00000000000E+00 -0.45593999997E+02  0.45594000000E+02  0.51100000000E-03 0.  1.
    9900012    2    1    2    0    0 -0.21928336545E+02  0.22963388575E+02 -0.29243436860E+01  0.59301938085E+02  0.49999989162E+02 0.  0.
         12    1    1    2    0    0  0.21928336545E+02 -0.22963388575E+02  0.29243436860E+01  0.31886061915E+02  0.00000000000E+00 0. -1.
         11    1    3    3    0    0 -0.39410358045E+00  0.43082359738E+01 -0.15004180892E+01  0.45790249553E+01  0.51100000000E-03 0. -1.
        -11    1    3    3    0    0 -0.26371064720E+02  0.18918632600E+02 -0.18235474524E+02  0.37227412552E+02  0.51100000000E-03 0.  1.
         12    1    3    3    0    0  0.48368317558E+01 -0.26347999881E+00  0.16811548927E+02  0.17495500578E+02  0.00000000000E+00 0. -1.
</event>
<event>
 7    1  0.3461631E-013  0.5930194E+02  0.7816164E-02  0.1266605E+00
        -11   -1    0    0    0    0  0.00000000000E+00  0.00000000000E+00  0.45593999997E+02  0.45594000000E+02  0.51100000000E-03 0.  1.
         11   -1    0    0    0    0 -0.00000000000E+00 -0.00000000000E+00 -0.45593999997E+02  0.45594000000E+02  0.51100000000E-03 0. -1.
    9900012    2    1    2    0    0  0.24675917955E+02 -0.49070277403E+01  0.19589305238E+02  0.59301941481E+02  0.49999995356E+02 0.  0.
         12    1    1    2    0    0 -0.24675917955E+02  0.49070277403E+01 -0.19589305238E+02  0.31886058519E+02  0.00000000000E+00 0. -1.
         11    1    3    3    0    0  0.18307193615E+00  0.23247604285E+01 -0.98776066514E+01  0.10149144782E+02  0.51100000000E-03 0. -1.
        -11    1    3    3    0    0  0.10460879150E+02 -0.10916858104E+02  0.31073062357E+02  0.34556374057E+02  0.51100000000E-03 0.  1.
         12    1    3    3    0    0  0.14031966869E+02  0.36850699350E+01 -0.16061504683E+01  0.14596422642E+02  0.00000000000E+00 0. -1.
</event>
<event>
 7    1  0.3461631E-013  0.5930192E+02  0.7816164E-02  0.1266605E+00
        -11   -1    0    0    0    0  0.00000000000E+00  0.00000000000E+00  0.45593999997E+02  0.45594000000E+02  0.51100000000E-03 0. -1.
         11   -1    0    0    0    0 -0.00000000000E+00 -0.00000000000E+00 -0.45593999997E+02  0.45594000000E+02  0.51100000000E-03 0.  1.
    9900012    2    1    2    0    0  0.51545050380E+01 -0.43476918796E+01 -0.31164898865E+02  0.59301917328E+02  0.49999951307E+02 0.  0.
         12    1    1    2    0    0 -0.51545050380E+01  0.43476918796E+01  0.31164898865E+02  0.31886082672E+02  0.00000000000E+00 0. -1.
         11    1    3    3    0    0  0.30776635936E+01 -0.41754333010E+01  0.12010424300E+01  0.53243553249E+01  0.51100000000E-03 0. -1.
        -11    1    3    3    0    0 -0.16295053359E+02 -0.11919476861E+02 -0.92764967171E+01  0.22218372673E+02  0.51100000000E-03 0.  1.
         12    1    3    3    0    0  0.18371894804E+02  0.11747218282E+02 -0.23089444578E+02  0.31759189331E+02  0.00000000000E+00 0. -1.
</event>
<event>
 7    1  0.3461631E-013  0.5930194E+02  0.7816164E-02  0.1266605E+00
        -11   -1    0    0    0    0  0.00000000000E+00  0.00000000000E+00  0.45593999997E+02  0.45594000000E+02  0.51100000000E-03 0. -1.
         11   -1    0    0    0    0 -0.00000000000E+00 -0.00000000000E+00 -0.45593999997E+02  0.45594000000E+02  0.51100000000E-03 0.  1.
    9900012    2    1    2    0    0 -0.31322462974E+02  0.47366597133E+01  0.36315252807E+01  0.59301943363E+02  0.49999998788E+02 0.  0.
         12    1    1    2    0    0  0.31322462974E+02 -0.47366597133E+01 -0.36315252807E+01  0.31886056637E+02  0.00000000000E+00 0. -1.
         11    1    3    3    0    0 -0.23776244096E+02 -0.12442429021E+01  0.76058795024E+01  0.24994145854E+02  0.51100000000E-03 0. -1.
        -11    1    3    3    0    0 -0.14564522575E+02 -0.92053404082E+01 -0.34394699272E+01  0.17569677388E+02  0.51100000000E-03 0.  1.
        -12    1    3    3    0    0  0.70183036980E+01  0.15186243024E+02 -0.53488429447E+00  0.16738120121E+02  0.00000000000E+00 0.  1.
</event>
<event>
 7    1  0.3461631E-013  0.5930194E+02  0.7816164E-02  0.1266605E+00
        -11   -1    0    0    0    0  0.00000000000E+00  0.00000000000E+00  0.45593999997E+02  0.45594000000E+02  0.51100000000E-03 0. -1.
         11   -1    0    0    0    0 -0.00000000000E+00 -0.00000000000E+00 -0.45593999997E+02  0.45594000000E+02  0.51100000000E-03 0.  1.
    9900012    2    1    2    0    0  0.28177130647E+02 -0.57293472052E+01 -0.13782054109E+02  0.59301935233E+02  0.49999983960E+02 0.  0.
         12    1    1    2    0    0 -0.28177130647E+02  0.57293472052E+01  0.13782054109E+02  0.31886064767E+02  0.00000000000E+00 0. -1.
         11    1    3    3    0    0  0.14182229201E+02 -0.10228983994E+02 -0.14892097085E+01  0.17549515220E+02  0.51100000000E-03 0. -1.
        -11    1    3    3    0    0 -0.99078027511E+01 -0.81756021226E+01 -0.40823957059E+01  0.13478537769E+02  0.51100000000E-03 0.  1.
         12    1    3    3    0    0  0.23902704197E+02  0.12675238911E+02 -0.82104486944E+01  0.28273882244E+02  0.00000000000E+00 0. -1.
</event>
<event>
 7    1  0.3461631E-013  0.5930192E+02  0.7816164E-02  0.1266605E+00
        -11   -1    0    0    0    0  0.00000000000E+00  0.00000000000E+00  0.45593999997E+02  0.45594000000E+02  0.51100000000E-03 0.  1.
         11   -1    0    0    0    0 -0.00000000000E+00 -0.00000000000E+00 -0.45593999997E+02  0.45594000000E+02  0.51100000000E-03 0. -1.
    9900012    2    1    2    0    0 -0.73163497483E+01 -0.30505014497E+02  0.57128901514E+01  0.59301921581E+02  0.49999959062E+02 0.  0.
         12    1    1    2    0    0  0.73163497483E+01  0.30505014497E+02 -0.57128901514E+01  0.31886078419E+02  0.00000000000E+00 0. -1.
         11    1    3    3    0    0  0.32113351424E+01 -0.62521672897E+01  0.14198878944E+02  0.15843308769E+02  0.51100000000E-03 0. -1.
        -11    1    3    3    0    0  0.76166326087E+01 -0.23032559324E+02 -0.68058239852E+01  0.25195855248E+02  0.51100000000E-03 0.  1.
         12    1    3    3    0    0 -0.18144317499E+02 -0.12202878828E+01 -0.16801648074E+01  0.18262757563E+02  0.00000000000E+00 0. -1.
</event>
<event>
 7    1  0.3461631E-013  0.5930190E+02  0.7816164E-02  0.1266605E+00
        -11   -1    0    0    0    0  0.00000000000E+00  0.00000000000E+00  0.45593999997E+02  0.45594000000E+02  0.51100000000E-03 0. -1.
         11   -1    0    0    0    0 -0.00000000000E+00 -0.00000000000E+00 -0.45593999997E+02  0.45594000000E+02  0.51100000000E-03 0.  1.
    9900012    2    1    2    0    0 -0.20910386184E+00  0.31418406267E+02  0.54372030342E+01  0.59301903443E+02  0.49999925983E+02 0.  0.
         12    1    1    2    0    0  0.20910386184E+00 -0.31418406267E+02 -0.54372030342E+01  0.31886096557E+02  0.00000000000E+00 0. -1.
         11    1    3    3    0    0 -0.21360316796E+01 -0.19426705379E+01  0.11409751302E+00  0.28895706703E+01  0.51100000000E-03 0. -1.
        -11    1    3    3    0    0 -0.11773748742E+02 -0.64026081708E+01 -0.24997688422E+01  0.13633172608E+02  0.51100000000E-03 0.  1.
         12    1    3    3    0    0  0.13700676560E+02  0.39763684976E+02  0.78228743634E+01  0.42779160165E+02  0.00000000000E+00 0. -1.
</event>
<event>
 7    1  0.3461631E-013  0.5930197E+02  0.7816164E-02  0.1266605E+00
        -11   -1    0    0    0    0  0.00000000000E+00  0.00000000000E+00  0.45593999997E+02  0.45594000000E+02  0.51100000000E-03 0. -1.
         11   -1    0    0    0    0 -0.00000000000E+00 -0.00000000000E+00 -0.45593999997E+02  0.45594000000E+02  0.51100000000E-03 0.  1.
    9900012    2    1    2    0    0 -0.11464525536E+02  0.29320648148E+02  0.50579659915E+01  0.59301972126E+02  0.50000051244E+02 0.  0.
         12    1    1    2    0    0  0.11464525536E+02 -0.29320648148E+02 -0.50579659915E+01  0.31886027874E+02  0.00000000000E+00 0. -1.
         11    1    3    3    0    0  0.13883230561E+02  0.51320041425E+01  0.38654671810E+01  0.15297823183E+02  0.51100000000E-03 0. -1.
        -11    1    3    3    0    0  0.82998696617E+00 -0.45740188574E+01  0.21018885199E+01  0.51018097263E+01  0.51100000000E-03 0.  1.
        -12    1    3    3    0    0 -0.26177743064E+02  0.28762662863E+02 -0.90938970936E+00  0.38902339217E+02  0.00000000000E+00 0.  1.
</event>
<event>
 7    1  0.3461631E-013  0.5930192E+02  0.7816164E-02  0.1266605E+00
        -11   -1    0    0    0    0  0.00000000000E+00  0.00000000000E+00  0.45593999997E+02  0.45594000000E+02  0.51100000000E-03 0.  1.
         11   -1    0    0    0    0 -0.00000000000E+00 -0.00000000000E+00 -0.45593999997E+02  0.45594000000E+02  0.51100000000E-03 0. -1.
    9900012    2    1    2    0    0  0.13477636602E+02 -0.20469686256E+02  0.20397735927E+02  0.59301915657E+02  0.49999948258E+02 0.  0.
         12    1    1    2    0    0 -0.13477636602E+02  0.20469686256E+02 -0.20397735927E+02  0.31886084343E+02  0.00000000000E+00 0. -1.
         11    1    3    3    0    0  0.10284910916E+02 -0.29643817713E+02  0.11059855636E+02  0.33269441356E+02  0.51100000000E-03 0. -1.
        -11    1    3    3    0    0  0.57521686288E+01 -0.62343600181E+01  0.48933182650E+01  0.97928163811E+01  0.51100000000E-03 0.  1.
         12    1    3    3    0    0 -0.25594429430E+01  0.15408491476E+02  0.44445620268E+01  0.16239657920E+02  0.00000000000E+00 0. -1.
</event>
<event>
 7    1  0.3461631E-013  0.5930193E+02  0.7816164E-02  0.1266605E+00
        -11   -1    0    0    0    0  0.00000000000E+00  0.00000000000E+00  0.45593999997E+02  0.45594000000E+02  0.51100000000E-03 0.  1.
         11   -1    0    0    0    0 -0.00000000000E+00 -0.00000000000E+00 -0.45593999997E+02  0.45594000000E+02  0.51100000000E-03 0. -1.
    9900012    2    1    2    0    0 -0.29835481381E+02 -0.65660794679E+01 -0.91352120271E+01  0.59301930196E+02  0.49999974774E+02 0.  0.
         12    1    1    2    0    0  0.29835481381E+02  0.65660794679E+01  0.91352120271E+01  0.31886069804E+02  0.00000000000E+00 0. -1.
         11    1    3    3    0    0  0.12746923178E+01 -0.63901033905E+01 -0.14328294977E+02  0.15740339864E+02  0.51100000000E-03 0. -1.
        -11    1    3    3    0    0 -0.14909754202E+01  0.29983949709E+01 -0.96967903212E+01  0.10258709612E+02  0.51100000000E-03 0.  1.
        -12    1    3    3    0    0 -0.29619198278E+02 -0.31743710483E+01  0.14889873271E+02  0.33302880719E+02  0.00000000000E+00 0.  1.
</event>
<event>
 7    1  0.3461631E-013  0.5930194E+02  0.7816164E-02  0.1266605E+00
        -11   -1    0    0    0    0  0.00000000000E+00  0.00000000000E+00  0.45593999997E+02  0.45594000000E+02  0.51100000000E-03 0.  1.
         11   -1    0    0    0    0 -0.00000000000E+00 -0.00000000000E+00 -0.45593999997E+02  0.45594000000E+02  0.51100000000E-03 0. -1.
    9900012    2    1    2    0    0 -0.31095493391E+02  0.41732286967E+01  0.56899394450E+01  0.59301937874E+02  0.49999988777E+02 0.  0.
         12    1    1    2    0    0  0.31095493391E+02 -0.41732286967E+01 -0.56899394450E+01  0.31886062126E+02  0.00000000000E+00 0. -1.
         11    1    3    3    0    0 -0.62977012092E+01  0.17203409997E+02  0.16967176703E+02  0.24970050893E+02  0.51100000000E-03 0. -1.
        -11    1    3    3    0    0 -0.15676474859E+02  0.63272652477E+00 -0.31448025722E+01  0.16001312144E+02  0.51100000000E-03 0.  1.
         12    1    3    3    0    0 -0.91213173234E+01 -0.13662907825E+02 -0.81324346863E+01  0.18330574837E+02  0.00000000000E+00 0. -1.
</event>
<event>
 7    1  0.3461631E-013  0.5930198E+02  0.7816164E-02  0.1266605E+00
        -11   -1    0    0    0    0  0.00000000000E+00  0.00000000000E+00  0.45593999997E+02  0.45594000000E+02  0.51100000000E-03 0. -1.
         11   -1    0    0    0    0 -0.00000000000E+00 -0.00000000000E+00 -0.45593999997E+02  0.45594000000E+02  0.51100000000E-03 0.  1.
    9900012    2    1    2    0    0 -0.31313545338E+02  0.54429020821E+01 -0.25603175542E+01  0.59301975935E+02  0.50000058190E+02 0.  0.
         12    1    1    2    0    0  0.31313545338E+02 -0.54429020821E+01  0.25603175542E+01  0.31886024065E+02  0.00000000000E+00 0. -1.
         11    1    3    3    0    0  0.20481375847E+01  0.41653804439E+00  0.22534937400E+01  0.30735331145E+01  0.51100000000E-03 0. -1.
        -11    1    3    3    0    0 -0.17076399104E+02 -0.18908322411E+02  0.43848175658E+01  0.25852556703E+02  0.51100000000E-03 0.  1.
         12    1    3    3    0    0 -0.16285283819E+02  0.23934686449E+02 -0.91986288600E+01  0.30375886117E+02  0.00000000000E+00 0. -1.
</event>
<event>
 7    1  0.3461631E-013  0.5930192E+02  0.7816164E-02  0.1266605E+00
        -11   -1    0    0    0    0  0.00000000000E+00  0.00000000000E+00  0.45593999997E+02  0.45594000000E+02  0.51100000000E-03 0. -1.
         11   -1    0    0    0    0 -0.00000000000E+00 -0.00000000000E+00 -0.45593999997E+02  0.45594000000E+02  0.51100000000E-03 0.  1.
    9900012    2    1    2    0    0  0.11358642080E+02  0.29615440825E+02 -0.32601979302E+01  0.59301921914E+02  0.49999959671E+02 0.  0.
         12    1    1    2    0    0 -0.11358642080E+02 -0.29615440825E+02  0.32601979302E+01  0.31886078086E+02  0.00000000000E+00 0. -1.
         11    1    3    3    0    0  0.13654656753E+02  0.13880425149E+02 -0.70951653405E+01  0.20723349749E+02  0.51100000000E-03 0.  1.
        -11    1    3    3    0    0  0.16326469372E+02  0.83618845786E+01  0.12899502422E+01  0.18388547733E+02  0.51100000000E-03 0. -1.
         12    1    3    3    0    0 -0.18622484045E+02  0.73731310974E+01  0.25450171681E+01  0.20190024432E+02  0.00000000000E+00 0. -1.
</event>
<event>
 7    1  0.3461631E-013  0.5930196E+02  0.7816164E-02  0.1266605E+00
        -11   -1    0    0    0    0  0.00000000000E+00  0.00000000000E+00  0.45593999997E+02  0.45594000000E+02  0.51100000000E-03 0.  1.
         11   -1    0    0    0    0 -0.00000000000E+00 -0.00000000000E+00 -0.45593999997E+02  0.45594000000E+02  0.51100000000E-03 0. -1.
    9900012    2    1    2    0    0 -0.30730973265E+02 -0.41163583486E+01  0.74419297094E+01  0.59301961650E+02  0.50000032138E+02 0.  0.
         12    1    1    2    0    0  0.30730973265E+02  0.41163583486E+01 -0.74419297094E+01  0.31886038350E+02  0.00000000000E+00 0. -1.
         11    1    3    3    0    0 -0.42208370752E+01  0.88770529565E+01 -0.17570712554E+01  0.99852308168E+01  0.51100000000E-03 0. -1.
        -11    1    3    3    0    0  0.61293769836E+01 -0.59115806092E+01 -0.80572395732E+01  0.11723274172E+02  0.51100000000E-03 0.  1.
        -12    1    3    3    0    0 -0.32639513174E+02 -0.70818306959E+01  0.17256240538E+02  0.37593456661E+02  0.00000000000E+00 0.  1.
</event>
<event>
 7    1  0.3461631E-013  0.5930196E+02  0.7816164E-02  0.1266605E+00
        -11   -1    0    0    0    0  0.00000000000E+00  0.00000000000E+00  0.45593999997E+02  0.45594000000E+02  0.51100000000E-03 0.  1.
         11   -1    0    0    0    0 -0.00000000000E+00 -0.00000000000E+00 -0.45593999997E+02  0.45594000000E+02  0.51100000000E-03 0. -1.
    9900012    2    1    2    0    0 -0.20696737166E+02  0.22509519783E+02 -0.90380544978E+01  0.59301955415E+02  0.50000020767E+02 0.  0.
         12    1    1    2    0    0  0.20696737166E+02 -0.22509519783E+02  0.90380544978E+01  0.31886044585E+02  0.00000000000E+00 0. -1.
         11    1    3    3    0    0  0.42277772724E+01  0.18921457915E+02  0.69100860598E+01  0.20582637341E+02  0.51100000000E-03 0. -1.
        -11    1    3    3    0    0 -0.10737891498E+02 -0.66667655969E+01  0.29299793820E+01  0.12974315272E+02  0.51100000000E-03 0.  1.
         12    1    3    3    0    0 -0.14186622941E+02  0.10254827465E+02 -0.18878119940E+02  0.25745002801E+02  0.00000000000E+00 0. -1.
</event>
<event>
 7    1  0.3461631E-013  0.5930195E+02  0.7816164E-02  0.1266605E+00
        -11   -1    0    0    0    0  0.00000000000E+00  0.00000000000E+00  0.45593999997E+02  0.45594000000E+02  0.51100000000E-03 0.  1.
         11   -1    0    0    0    0 -0.00000000000E+00 -0.00000000000E+00 -0.45593999997E+02  0.45594000000E+02  0.51100000000E-03 0. -1.
    9900012    2    1    2    0    0  0.30171722233E+02 -0.29531591816E+01  0.98826221119E+01  0.59301949892E+02  0.50000010695E+02 0.  0.
         12    1    1    2    0    0 -0.30171722233E+02  0.29531591816E+01 -0.98826221119E+01  0.31886050108E+02  0.00000000000E+00 0. -1.
         11    1    3    3    0    0  0.22910263274E+00 -0.11353366779E+02  0.79418740161E+01  0.13857300905E+02  0.51100000000E-03 0. -1.
        -11    1    3    3    0    0  0.80072125198E+01 -0.12456493841E+02  0.32014085398E+01  0.15150204885E+02  0.51100000000E-03 0.  1.
        -12    1    3    3    0    0  0.21935407081E+02  0.20856701438E+02 -0.12606604440E+01  0.30294444102E+02  0.00000000000E+00 0.  1.
</event>
<event>
 7    1  0.3461631E-013  0.5930195E+02  0.7816164E-02  0.1266605E+00
        -11   -1    0    0    0    0  0.00000000000E+00  0.00000000000E+00  0.45593999997E+02  0.45594000000E+02  0.51100000000E-03 0.  1.
         11   -1    0    0    0    0 -0.00000000000E+00 -0.00000000000E+00 -0.45593999997E+02  0.45594000000E+02  0.51100000000E-03 0. -1.
    9900012    2    1    2    0    0 -0.21112053542E+02 -0.23882951448E+02  0.77833094922E+00  0.59301953307E+02  0.50000016924E+02 0.  0.
         12    1    1    2    0    0  0.21112053542E+02  0.23882951448E+02 -0.77833094922E+00  0.31886046693E+02  0.00000000000E+00 0. -1.
         11    1    3    3    0    0 -0.71850230434E+01  0.82680254448E+01 -0.43847686590E+01  0.11798771010E+02  0.51100000000E-03 0. -1.
        -11    1    3    3    0    0 -0.17139676878E+01  0.31322011761E+01  0.92767267434E+01  0.99401221710E+01  0.51100000000E-03 0.  1.
        -12    1    3    3    0    0 -0.12213062811E+02 -0.35283178069E+02 -0.41136271351E+01  0.37563060126E+02  0.00000000000E+00 0.  1.
</event>
<event>
 7    1  0.3461631E-013  0.5930195E+02  0.7816164E-02  0.1266605E+00
        -11   -1    0    0    0    0  0.00000000000E+00  0.00000000000E+00  0.45593999997E+02  0.45594000000E+02  0.51100000000E-03 0.  1.
         11   -1    0    0    0    0 -0.00000000000E+00 -0.00000000000E+00 -0.45593999997E+02  0.45594000000E+02  0.51100000000E-03 0. -1.
    9900012    2    1    2    0    0  0.15056467879E+02 -0.51036687308E+01  0.27640104226E+02  0.59301952563E+02  0.50000015567E+02 0.  0.
         12    1    1    2    0    0 -0.15056467879E+02  0.51036687308E+01 -0.27640104226E+02  0.31886047437E+02  0.00000000000E+00 0. -1.
         11    1    3    3    0    0 -0.15899778118E+01 -0.96140688609E+01 -0.65481349480E+01  0.11740375678E+02  0.51100000000E-03 0. -1.
        -11    1    3    3    0    0  0.10060610784E+02 -0.76369007975E+01  0.23410394838E+01  0.12845956923E+02  0.51100000000E-03 0.  1.
         12    1    3    3    0    0  0.65858349070E+01  0.12147300928E+02  0.31847199690E+02  0.34715619962E+02  0.00000000000E+00 0. -1.
</event>
<event>
 7    1  0.3461631E-013  0.5930196E+02  0.7816164E-02  0.1266605E+00
        -11   -1    0    0    0    0  0.00000000000E+00  0.00000000000E+00  0.45593999997E+02  0.45594000000E+02  0.51100000000E-03 0.  1.
         11   -1    0    0    0    0 -0.00000000000E+00 -0.00000000000E+00 -0.45593999997E+02  0.45594000000E+02  0.51100000000E-03 0. -1.
    9900012    2    1    2    0    0  0.30444285103E+02  0.90099605088E+01 -0.29471717059E+01  0.59301957523E+02  0.50000024612E+02 0.  0.
         12    1    1    2    0    0 -0.30444285103E+02 -0.90099605088E+01  0.29471717059E+01  0.31886042477E+02  0.00000000000E+00 0. -1.
         11    1    3    3    0    0  0.23380760560E+02  0.66486519341E+01  0.52467966241E+01  0.24867517205E+02  0.51100000000E-03 0.  1.
        -11    1    3    3    0    0  0.18703233415E+02 -0.35596314230E+01 -0.95595012597E+01  0.21304130601E+02  0.51100000000E-03 0. -1.
         12    1    3    3    0    0 -0.11639708872E+02  0.59209399976E+01  0.13655329297E+01  0.13130309717E+02  0.00000000000E+00 0. -1.
</event>
<event>
 7    1  0.3461631E-013  0.5930226E+02  0.7816164E-02  0.1266604E+00
        -11   -1    0    0    0    0  0.00000000000E+00  0.00000000000E+00  0.45593999997E+02  0.45594000000E+02  0.51100000000E-03 0. -1.
         11   -1    0    0    0    0 -0.00000000000E+00 -0.00000000000E+00 -0.45593999997E+02  0.45594000000E+02  0.51100000000E-03 0.  1.
    9900012    2    1    2    0    0  0.34019362557E+00  0.29724439788E+02  0.11534399479E+02  0.59302259868E+02  0.50000576014E+02 0.  0.
         12    1    1    2    0    0 -0.34019362557E+00 -0.29724439788E+02 -0.11534399479E+02  0.31885740132E+02  0.00000000000E+00 0. -1.
         11    1    3    3    0    0 -0.20469024098E+02  0.19134456189E+02  0.37142640734E+01  0.28264891987E+02  0.51100000000E-03 0. -1.
        -11    1    3    3    0    0  0.10524256302E+02  0.39353504807E+01 -0.58614872642E+01  0.12672962847E+02  0.51100000000E-03 0.  1.
        -12    1    3    3    0    0  0.10284961422E+02  0.66546331187E+01  0.13681622670E+02  0.18364405034E+02  0.00000000000E+00 0.  1.
</event>
<event>
 7    1  0.3461631E-013  0.5930197E+02  0.7816164E-02  0.1266605E+00
        -11   -1    0    0    0    0  0.00000000000E+00  0.00000000000E+00  0.45593999997E+02  0.45594000000E+02  0.51100000000E-03 0. -1.
         11   -1    0    0    0    0 -0.00000000000E+00 -0.00000000000E+00 -0.45593999997E+02  0.45594000000E+02  0.51100000000E-03 0.  1.
    9900012    2    1    2    0    0 -0.31194929412E+02  0.29404303613E+01 -0.59117630255E+01  0.59301973377E+02  0.50000053526E+02 0.  0.
         12    1    1    2    0    0  0.31194929412E+02 -0.29404303613E+01  0.59117630255E+01  0.31886026623E+02  0.00000000000E+00 0. -1.
         11    1    3    3    0    0 -0.32397830037E+01  0.94607828812E+01  0.60180521828E+01  0.11671313507E+02  0.51100000000E-03 0. -1.
        -11    1    3    3    0    0  0.77823863779E+01 -0.65441349093E+01 -0.45469390040E+01  0.11138487061E+02  0.51100000000E-03 0.  1.
        -12    1    3    3    0    0 -0.35737532786E+02  0.23782389375E-01 -0.73828762043E+01  0.36492172809E+02  0.00000000000E+00 0.  1.
</event>
<event>
 7    1  0.3461631E-013  0.5930193E+02  0.7816164E-02  0.1266605E+00
        -11   -1    0    0    0    0  0.00000000000E+00  0.00000000000E+00  0.45593999997E+02  0.45594000000E+02  0.51100000000E-03 0.  1.
         11   -1    0    0    0    0 -0.00000000000E+00 -0.00000000000E+00 -0.45593999997E+02  0.45594000000E+02  0.51100000000E-03 0. -1.
    9900012    2    1    2    0    0 -0.10658333402E+02  0.29229238076E+02  0.69837748179E+01  0.59301928744E+02  0.49999972127E+02 0.  0.
         12    1    1    2    0    0  0.10658333402E+02 -0.29229238076E+02 -0.69837748179E+01  0.31886071256E+02  0.00000000000E+00 0. -1.
         11    1    3    3    0    0 -0.78848314812E-01 -0.86098145541E+00 -0.15241012640E+01  0.17522531345E+01  0.51100000000E-03 0. -1.
        -11    1    3    3    0    0  0.18466451600E+02  0.67770319769E+01  0.27208831488E+01  0.19858026148E+02  0.51100000000E-03 0.  1.
        -12    1    3    3    0    0 -0.29045936687E+02  0.23313187554E+02  0.57869929331E+01  0.37691649462E+02  0.00000000000E+00 0.  1.
</event>
<event>
 7    1  0.3461631E-013  0.5930197E+02  0.7816164E-02  0.1266605E+00
        -11   -1    0    0    0    0  0.00000000000E+00  0.00000000000E+00  0.45593999997E+02  0.45594000000E+02  0.51100000000E-03 0. -1.
         11   -1    0    0    0    0 -0.00000000000E+00 -0.00000000000E+00 -0.45593999997E+02  0.45594000000E+02  0.51100000000E-03 0.  1.
    9900012    2    1    2    0    0  0.16409024806E+02  0.22005263200E+02 -0.16224397765E+02  0.59301971925E+02  0.50000050877E+02 0.  0.
         12    1    1    2    0    0 -0.16409024806E+02 -0.22005263200E+02  0.16224397765E+02  0.31886028075E+02  0.00000000000E+00 0. -1.
         11    1    3    3    0    0  0.12720190652E+00 -0.75459606787E+00  0.26995057398E+01  0.28058736699E+01  0.51100000000E-03 0. -1.
        -11    1    3    3    0    0 -0.14175698437E+02  0.16897229678E+02 -0.10030236090E+02  0.24229577653E+02  0.51100000000E-03 0.  1.
         12    1    3    3    0    0  0.30457521336E+02  0.58626295895E+01 -0.88936674152E+01  0.32266520602E+02  0.00000000000E+00 0. -1.
</event>
<event>
 7    1  0.3461631E-013  0.5930198E+02  0.7816164E-02  0.1266605E+00
        -11   -1    0    0    0    0  0.00000000000E+00  0.00000000000E+00  0.45593999997E+02  0.45594000000E+02  0.51100000000E-03 0.  1.
         11   -1    0    0    0    0 -0.00000000000E+00 -0.00000000000E+00 -0.45593999997E+02  0.45594000000E+02  0.51100000000E-03 0. -1.
    9900012    2    1    2    0    0  0.14599524116E+02 -0.28328917081E+02 -0.10221151458E+01  0.59301978505E+02  0.50000062878E+02 0.  0.
         12    1    1    2    0    0 -0.14599524116E+02  0.28328917081E+02  0.10221151458E+01  0.31886021495E+02  0.00000000000E+00 0. -1.
         11    1    3    3    0    0 -0.42521577788E+01  0.87089774264E+01 -0.24789866456E+01  0.10003624775E+02  0.51100000000E-03 0. -1.
        -11    1    3    3    0    0  0.18321792231E+02 -0.11627976036E+02 -0.65233808952E+01  0.22659487987E+02  0.51100000000E-03 0.  1.
        -12    1    3    3    0    0  0.52988966322E+00 -0.25409918472E+02  0.79802523951E+01  0.26638865743E+02  0.00000000000E+00 0.  1.
</event>
<event>
 7    1  0.3461631E-013  0.5930195E+02  0.7816164E-02  0.1266605E+00
        -11   -1    0    0    0    0  0.00000000000E+00  0.00000000000E+00  0.45593999997E+02  0.45594000000E+02  0.51100000000E-03 0.  1.
         11   -1    0    0    0    0 -0.00000000000E+00 -0.00000000000E+00 -0.45593999997E+02  0.45594000000E+02  0.51100000000E-03 0. -1.
    9900012    2    1    2    0    0  0.47715060723E+01 -0.25741137892E+02  0.18202928911E+02  0.59301951779E+02  0.50000014137E+02 0.  0.
         12    1    1    2    0    0 -0.47715060723E+01  0.25741137892E+02 -0.18202928911E+02  0.31886048221E+02  0.00000000000E+00 0. -1.
         11    1    3    3    0    0 -0.23684913426E+01 -0.25597766701E+02  0.21471100359E+02  0.33494231775E+02  0.51100000000E-03 0. -1.
        -11    1    3    3    0    0  0.12002331271E+02 -0.93093314466E+01 -0.26005731500E+01  0.15410470106E+02  0.51100000000E-03 0.  1.
         12    1    3    3    0    0 -0.48623338567E+01  0.91659602558E+01 -0.66759829748E+00  0.10397249897E+02  0.00000000000E+00 0. -1.
</event>
<event>
 7    1  0.3461631E-013  0.5930197E+02  0.7816164E-02  0.1266605E+00
        -11   -1    0    0    0    0  0.00000000000E+00  0.00000000000E+00  0.45593999997E+02  0.45594000000E+02  0.51100000000E-03 0.  1.
         11   -1    0    0    0    0 -0.00000000000E+00 -0.00000000000E+00 -0.45593999997E+02  0.45594000000E+02  0.51100000000E-03 0. -1.
    9900012    2    1    2    0    0  0.27857797946E+02 -0.12567136551E+02  0.90955415678E+01  0.59301973218E+02  0.50000053237E+02 0.  0.
         12    1    1    2    0    0 -0.27857797946E+02  0.12567136551E+02 -0.90955415678E+01  0.31886026782E+02  0.00000000000E+00 0. -1.
         11    1    3    3    0    0 -0.60635838672E+01 -0.11016226004E+02  0.52902575779E+00  0.12585871174E+02  0.51100000000E-03 0. -1.
        -11    1    3    3    0    0 -0.57249154836E+01 -0.25076836655E+01  0.74467015101E+00  0.62942567913E+01  0.51100000000E-03 0.  1.
        -12    1    3    3    0    0  0.39646297297E+02  0.95677311855E+00  0.78218456590E+01  0.40421845253E+02  0.00000000000E+00 0.  1.
</event>
<event>
 7    1  0.3461631E-013  0.5930194E+02  0.7816164E-02  0.1266605E+00
        -11   -1    0    0    0    0  0.00000000000E+00  0.00000000000E+00  0.45593999997E+02  0.45594000000E+02  0.51100000000E-03 0. -1.
         11   -1    0    0    0    0 -0.00000000000E+00 -0.00000000000E+00 -0.45593999997E+02  0.45594000000E+02  0.51100000000E-03 0.  1.
    9900012    2    1    2    0    0 -0.29365345115E+02 -0.97374129732E+01 -0.77187953130E+01  0.59301944957E+02  0.50000001694E+02 0.  0.
         12    1    1    2    0    0  0.29365345115E+02  0.97374129732E+01  0.77187953130E+01  0.31886055043E+02  0.00000000000E+00 0. -1.
         11    1    3    3    0    0  0.68477696975E+01  0.43920298778E+01 -0.55236881299E+01  0.98332602474E+01  0.51100000000E-03 0. -1.
        -11    1    3    3    0    0 -0.23565640319E+02 -0.13455133380E+02  0.12662545494E+02  0.29945284713E+02  0.51100000000E-03 0.  1.
        -12    1    3    3    0    0 -0.12647474494E+02 -0.67430947122E+00 -0.14857652677E+02  0.19523399996E+02  0.00000000000E+00 0.  1.
</event>
<event>
 7    1  0.3461631E-013  0.5930194E+02  0.7816164E-02  0.1266605E+00
        -11   -1    0    0    0    0  0.00000000000E+00  0.00000000000E+00  0.45593999997E+02  0.45594000000E+02  0.51100000000E-03 0. -1.
         11   -1    0    0    0    0 -0.00000000000E+00 -0.00000000000E+00 -0.45593999997E+02  0.45594000000E+02  0.51100000000E-03 0.  1.
    9900012    2    1    2    0    0 -0.96910779987E+01  0.26574690909E+02  0.14716975076E+02  0.59301944348E+02  0.50000000583E+02 0.  0.
         12    1    1    2    0    0  0.96910779987E+01 -0.26574690909E+02 -0.14716975076E+02  0.31886055652E+02  0.00000000000E+00 0. -1.
         11    1    3    3    0    0 -0.19922615770E+02  0.14971153967E+02 -0.79896011270E+01  0.26170208189E+02  0.51100000000E-03 0. -1.
        -11    1    3    3    0    0 -0.10207433024E+00  0.85631553191E+01  0.65357748618E+00  0.85886676487E+01  0.51100000000E-03 0.  1.
         12    1    3    3    0    0  0.10333612101E+02  0.30403816223E+01  0.22052998717E+02  0.24543068510E+02  0.00000000000E+00 0. -1.
</event>
<event>
 7    1  0.3461631E-013  0.5930194E+02  0.7816164E-02  0.1266605E+00
        -11   -1    0    0    0    0  0.00000000000E+00  0.00000000000E+00  0.45593999997E+02  0.45594000000E+02  0.51100000000E-03 0. -1.
         11   -1    0    0    0    0 -0.00000000000E+00 -0.00000000000E+00 -0.45593999997E+02  0.45594000000E+02  0.51100000000E-03 0.  1.
    9900012    2    1    2    0    0  0.86216758207E+01 -0.96090114376E+01 -0.29155695920E+02  0.59301937224E+02  0.49999987592E+02 0.  0.
         12    1    1    2    0    0 -0.86216758207E+01  0.96090114376E+01  0.29155695920E+02  0.31886062776E+02  0.00000000000E+00 0. -1.
         11    1    3    3    0    0  0.75518370368E+01 -0.25425264856E+02 -0.12354258441E+02  0.29259221410E+02  0.51100000000E-03 0. -1.
        -11    1    3    3    0    0 -0.77042563628E+01  0.12544413988E+01 -0.65531504381E+01  0.10191808978E+02  0.51100000000E-03 0.  1.
        -12    1    3    3    0    0  0.87740951466E+01  0.14561812020E+02 -0.10248287040E+02  0.19850906836E+02  0.00000000000E+00 0.  1.
</event>
<event>
 7    1  0.3461631E-013  0.5930193E+02  0.7816164E-02  0.1266605E+00
        -11   -1    0    0    0    0  0.00000000000E+00  0.00000000000E+00  0.45593999997E+02  0.45594000000E+02  0.51100000000E-03 0.  1.
         11   -1    0    0    0    0 -0.00000000000E+00 -0.00000000000E+00 -0.45593999997E+02  0.45594000000E+02  0.51100000000E-03 0. -1.
    9900012    2    1    2    0    0  0.24010977933E+02 -0.13952655596E+02  0.15669013933E+02  0.59301926910E+02  0.49999968781E+02 0.  0.
         12    1    1    2    0    0 -0.24010977933E+02  0.13952655596E+02 -0.15669013933E+02  0.31886073090E+02  0.00000000000E+00 0. -1.
         11    1    3    3    0    0 -0.62933751496E+00  0.96788981258E-01  0.12763175785E+02  0.12779048877E+02  0.51100000000E-03 0. -1.
        -11    1    3    3    0    0 -0.10621518463E+00  0.10764562778E+02 -0.25320592820E+01  0.11058861512E+02  0.51100000000E-03 0.  1.
         12    1    3    3    0    0  0.24746530632E+02 -0.24814007355E+02  0.54378974307E+01  0.35464016521E+02  0.00000000000E+00 0. -1.
</event>
<event>
 7    1  0.3461631E-013  0.5930195E+02  0.7816164E-02  0.1266605E+00
        -11   -1    0    0    0    0  0.00000000000E+00  0.00000000000E+00  0.45593999997E+02  0.45594000000E+02  0.51100000000E-03 0.  1.
         11   -1    0    0    0    0 -0.00000000000E+00 -0.00000000000E+00 -0.45593999997E+02  0.45594000000E+02  0.51100000000E-03 0. -1.
    9900012    2    1    2    0    0 -0.86524206211E+01  0.29305870466E+02  0.91116250825E+01  0.59301950730E+02  0.50000012224E+02 0.  0.
         12    1    1    2    0    0  0.86524206211E+01 -0.29305870466E+02 -0.91116250825E+01  0.31886049270E+02  0.00000000000E+00 0. -1.
         11    1    3    3    0    0 -0.18684803708E+02  0.10488494646E+01  0.86010178047E+00  0.18733973154E+02  0.51100000000E-03 0. -1.
        -11    1    3    3    0    0  0.52907841320E+01 -0.18924366782E+01  0.83297906478E+01  0.10047841848E+02  0.51100000000E-03 0.  1.
        -12    1    3    3    0    0  0.47415989550E+01  0.30149457680E+02 -0.78267345766E-01  0.30520135728E+02  0.00000000000E+00 0.  1.
</event>
<event>
 7    1  0.3461631E-013  0.5930194E+02  0.7816164E-02  0.1266605E+00
        -11   -1    0    0    0    0  0.00000000000E+00  0.00000000000E+00  0.45593999997E+02  0.45594000000E+02  0.51100000000E-03 0.  1.
         11   -1    0    0    0    0 -0.00000000000E+00 -0.00000000000E+00 -0.45593999997E+02  0.45594000000E+02  0.51100000000E-03 0. -1.
    9900012    2    1    2    0    0 -0.98867535116E+01  0.24984323210E+02  0.17168470692E+02  0.59301942119E+02  0.49999996520E+02 0.  0.
         12    1    1    2    0    0  0.98867535116E+01 -0.24984323210E+02 -0.17168470692E+02  0.31886057881E+02  0.00000000000E+00 0. -1.
         11    1    3    3    0    0 -0.30287147145E+01  0.15224571289E+01  0.13983514319E+00  0.33927190658E+01  0.51100000000E-03 0. -1.
        -11    1    3    3    0    0 -0.14169444590E+02  0.30991718358E+02  0.25385304040E+02  0.42493216261E+02  0.51100000000E-03 0.  1.
         12    1    3    3    0    0  0.73114057927E+01 -0.75298522776E+01 -0.83566684905E+01  0.13416006792E+02  0.00000000000E+00 0. -1.
</event>
<event>
 7    1  0.3461631E-013  0.5930197E+02  0.7816164E-02  0.1266605E+00
        -11   -1    0    0    0    0  0.00000000000E+00  0.00000000000E+00  0.45593999997E+02  0.45594000000E+02  0.51100000000E-03 0.  1.
         11   -1    0    0    0    0 -0.00000000000E+00 -0.00000000000E+00 -0.45593999997E+02  0.45594000000E+02  0.51100000000E-03 0. -1.
    9900012    2    1    2    0    0  0.59617167164E+01  0.17102091985E+02  0.26243002954E+02  0.59301971391E+02  0.50000049903E+02 0.  0.
         12    1    1    2    0    0 -0.59617167164E+01 -0.17102091985E+02 -0.26243002954E+02  0.31886028609E+02  0.00000000000E+00 0. -1.
         11    1    3    3    0    0  0.42826021574E+01  0.15011599309E+02  0.27371128472E+01  0.15848677612E+02  0.51100000000E-03 0. -1.
        -11    1    3    3    0    0 -0.56882987516E+01  0.52987596362E+01  0.31304625002E+02  0.32255435870E+02  0.51100000000E-03 0.  1.
         12    1    3    3    0    0  0.73674133106E+01 -0.32082669604E+01 -0.77987348956E+01  0.11197857909E+02  0.00000000000E+00 0. -1.
</event>
<event>
 7    1  0.3461631E-013  0.5930198E+02  0.7816164E-02  0.1266605E+00
        -11   -1    0    0    0    0  0.00000000000E+00  0.00000000000E+00  0.45593999997E+02  0.45594000000E+02  0.51100000000E-03 0.  1.
         11   -1    0    0    0    0 -0.00000000000E+00 -0.00000000000E+00 -0.45593999997E+02  0.45594000000E+02  0.51100000000E-03 0. -1.
    9900012    2    1    2    0    0  0.15158535023E+02  0.15079176978E+02  0.23654928988E+02  0.59301977548E+02  0.50000061133E+02 0.  0.
         12    1    1    2    0    0 -0.15158535023E+02 -0.15079176978E+02 -0.23654928988E+02  0.31886022452E+02  0.00000000000E+00 0. -1.
         11    1    3    3    0    0  0.11618729595E+00  0.15385767461E+02  0.17006541884E+02  0.22933770012E+02  0.51100000000E-03 0. -1.
        -11    1    3    3    0    0  0.24099503605E+01 -0.69653448538E+00  0.18722169376E+02  0.18889485102E+02  0.51100000000E-03 0.  1.
         12    1    3    3    0    0  0.12632397366E+02  0.38994400242E+00 -0.12073782272E+02  0.17478722433E+02  0.00000000000E+00 0. -1.
</event>
<event>
 7    1  0.3461631E-013  0.5930182E+02  0.7816164E-02  0.1266605E+00
        -11   -1    0    0    0    0  0.00000000000E+00  0.00000000000E+00  0.45593999997E+02  0.45594000000E+02  0.51100000000E-03 0.  1.
         11   -1    0    0    0    0 -0.00000000000E+00 -0.00000000000E+00 -0.45593999997E+02  0.45594000000E+02  0.51100000000E-03 0. -1.
    9900012    2    1    2    0    0  0.14499123339E+02  0.16930408635E+02  0.22800554336E+02  0.59301818162E+02  0.49999770451E+02 0.  0.
         12    1    1    2    0    0 -0.14499123339E+02 -0.16930408635E+02 -0.22800554336E+02  0.31886181838E+02  0.00000000000E+00 0. -1.
         11    1    3    3    0    0  0.16471450803E+02  0.19752134463E+01  0.50285897887E+01  0.17334845694E+02  0.51100000000E-03 0.  1.
        -11    1    3    3    0    0 -0.82537942217E+01 -0.71411780448E+01  0.15396567833E+02  0.18872621551E+02  0.51100000000E-03 0. -1.
         12    1    3    3    0    0  0.62814667579E+01  0.22096373234E+02  0.23753967149E+01  0.23094350917E+02  0.00000000000E+00 0. -1.
</event>
<event>
 7    1  0.3461631E-013  0.5930196E+02  0.7816164E-02  0.1266605E+00
        -11   -1    0    0    0    0  0.00000000000E+00  0.00000000000E+00  0.45593999997E+02  0.45594000000E+02  0.51100000000E-03 0.  1.
         11   -1    0    0    0    0 -0.00000000000E+00 -0.00000000000E+00 -0.45593999997E+02  0.45594000000E+02  0.51100000000E-03 0. -1.
    9900012    2    1    2    0    0 -0.22637625682E+02 -0.19082420038E+02  0.11837162609E+02  0.59301964348E+02  0.50000037059E+02 0.  0.
         12    1    1    2    0    0  0.22637625682E+02  0.19082420038E+02 -0.11837162609E+02  0.31886035652E+02  0.00000000000E+00 0. -1.
         11    1    3    3    0    0 -0.11093927680E+02 -0.15669746291E+01  0.31207497533E+01  0.11630551154E+02  0.51100000000E-03 0. -1.
        -11    1    3    3    0    0 -0.23897717233E+01  0.89002246819E+00 -0.15613390830E+02  0.15820275672E+02  0.51100000000E-03 0.  1.
        -12    1    3    3    0    0 -0.91539262782E+01 -0.18405467877E+02  0.24329803685E+02  0.31851137522E+02  0.00000000000E+00 0.  1.
</event>
<event>
 7    1  0.3461631E-013  0.5930194E+02  0.7816164E-02  0.1266605E+00
        -11   -1    0    0    0    0  0.00000000000E+00  0.00000000000E+00  0.45593999997E+02  0.45594000000E+02  0.51100000000E-03 0. -1.
         11   -1    0    0    0    0 -0.00000000000E+00 -0.00000000000E+00 -0.45593999997E+02  0.45594000000E+02  0.51100000000E-03 0.  1.
    9900012    2    1    2    0    0 -0.18265168272E+02  0.21938131176E+02 -0.14206426207E+02  0.59301944787E+02  0.50000001384E+02 0.  0.
         12    1    1    2    0    0  0.18265168272E+02 -0.21938131176E+02  0.14206426207E+02  0.31886055213E+02  0.00000000000E+00 0. -1.
         11    1    3    3    0    0 -0.14781714465E+02  0.39242459655E+01  0.87310156644E+01  0.17610491865E+02  0.51100000000E-03 0. -1.
        -11    1    3    3    0    0 -0.99834513042E+01 -0.48079803563E+01 -0.70017344320E+01  0.13107641297E+02  0.51100000000E-03 0.  1.
        -12    1    3    3    0    0  0.64999974977E+01  0.22821865567E+02 -0.15935707439E+02  0.28583811625E+02  0.00000000000E+00 0.  1.
</event>
<event>
 7    1  0.3461631E-013  0.5930194E+02  0.7816164E-02  0.1266605E+00
        -11   -1    0    0    0    0  0.00000000000E+00  0.00000000000E+00  0.45593999997E+02  0.45594000000E+02  0.51100000000E-03 0.  1.
         11   -1    0    0    0    0 -0.00000000000E+00 -0.00000000000E+00 -0.45593999997E+02  0.45594000000E+02  0.51100000000E-03 0. -1.
    9900012    2    1    2    0    0 -0.30952752142E+02  0.55301116950E+01  0.52977292733E+01  0.59301938218E+02  0.49999989404E+02 0.  0.
         12    1    1    2    0    0  0.30952752142E+02 -0.55301116950E+01 -0.52977292733E+01  0.31886061782E+02  0.00000000000E+00 0. -1.
         11    1    3    3    0    0  0.35162312729E+01 -0.58656312420E+00  0.69927087866E+01  0.78489435658E+01  0.51100000000E-03 0. -1.
        -11    1    3    3    0    0 -0.16203796434E+02  0.16149364358E+02  0.12661507552E+02  0.26147251515E+02  0.51100000000E-03 0.  1.
         12    1    3    3    0    0 -0.18265186981E+02 -0.10032689539E+02 -0.14356487066E+02  0.25305743137E+02  0.00000000000E+00 0. -1.
</event>
<event>
 7    1  0.3461631E-013  0.5930192E+02  0.7816164E-02  0.1266605E+00
        -11   -1    0    0    0    0  0.00000000000E+00  0.00000000000E+00  0.45593999997E+02  0.45594000000E+02  0.51100000000E-03 0.  1.
         11   -1    0    0    0    0 -0.00000000000E+00 -0.00000000000E+00 -0.45593999997E+02  0.45594000000E+02  0.51100000000E-03 0. -1.
    9900012    2    1    2    0    0  0.15198837029E+02 -0.11113898414E+02  0.25733218934E+02  0.59301922447E+02  0.49999960643E+02 0.  0.
         12    1    1    2    0    0 -0.15198837029E+02  0.11113898414E+02 -0.25733218934E+02  0.31886077553E+02  0.00000000000E+00 0. -1.
         11    1    3    3    0    0  0.14832058078E+02  0.54503283170E+01  0.21139887380E+02  0.26393007867E+02  0.51100000000E-03 0. -1.
        -11    1    3    3    0    0  0.12012216019E+02  0.37938603653E+00  0.13248455494E+01  0.12091008372E+02  0.51100000000E-03 0.  1.
        -12    1    3    3    0    0 -0.11645437068E+02 -0.16943612768E+02  0.32684860044E+01  0.20817906208E+02  0.00000000000E+00 0.  1.
</event>
<event>
 7    1  0.3461631E-013  0.5930193E+02  0.7816164E-02  0.1266605E+00
        -11   -1    0    0    0    0  0.00000000000E+00  0.00000000000E+00  0.45593999997E+02  0.45594000000E+02  0.51100000000E-03 0.  1.
         11   -1    0    0    0    0 -0.00000000000E+00 -0.00000000000E+00 -0.45593999997E+02  0.45594000000E+02  0.51100000000E-03 0. -1.
    9900012    2    1    2    0    0 -0.58870186373E+01  0.20361034471E+02  0.23822100445E+02  0.59301934348E+02  0.49999982346E+02 0.  0.
         12    1    1    2    0    0  0.58870186373E+01 -0.20361034471E+02 -0.23822100445E+02  0.31886065652E+02  0.00000000000E+00 0. -1.
         11    1    3    3    0    0 -0.48563525749E+01  0.19087195354E+02  0.19427417700E+02  0.27664593717E+02  0.51100000000E-03 0. -1.
        -11    1    3    3    0    0  0.72992988843E+00  0.92199332041E+01  0.15391357278E+02  0.17956442995E+02  0.51100000000E-03 0.  1.
         12    1    3    3    0    0 -0.17605959509E+01 -0.79460940865E+01 -0.10996674532E+02  0.13680897635E+02  0.00000000000E+00 0. -1.
</event>
<event>
 7    1  0.3461631E-013  0.5930197E+02  0.7816164E-02  0.1266605E+00
        -11   -1    0    0    0    0  0.00000000000E+00  0.00000000000E+00  0.45593999997E+02  0.45594000000E+02  0.51100000000E-03 0. -1.
         11   -1    0    0    0    0 -0.00000000000E+00 -0.00000000000E+00 -0.45593999997E+02  0.45594000000E+02  0.51100000000E-03 0.  1.
    9900012    2    1    2    0    0 -0.12188066715E+02  0.11636431863E+01 -0.29441739895E+02  0.59301967263E+02  0.50000042375E+02 0.  0.
         12    1    1    2    0    0  0.12188066715E+02 -0.11636431863E+01  0.29441739895E+02  0.31886032737E+02  0.00000000000E+00 0. -1.
         11    1    3    3    0    0 -0.77580826495E+01  0.83023571565E+01 -0.15358774201E+02  0.19105206776E+02  0.51100000000E-03 0. -1.
        -11    1    3    3    0    0 -0.13183779217E+02  0.72901393159E+00 -0.22248608453E+02  0.25871684795E+02  0.51100000000E-03 0.  1.
         12    1    3    3    0    0  0.87537951515E+01 -0.78677279019E+01  0.81656427595E+01  0.14325075692E+02  0.00000000000E+00 0. -1.
</event>
<event>
 7    1  0.3461631E-013  0.5930195E+02  0.7816164E-02  0.1266605E+00
        -11   -1    0    0    0    0  0.00000000000E+00  0.00000000000E+00  0.45593999997E+02  0.45594000000E+02  0.51100000000E-03 0. -1.
         11   -1    0    0    0    0 -0.00000000000E+00 -0.00000000000E+00 -0.45593999997E+02  0.45594000000E+02  0.51100000000E-03 0.  1.
    9900012    2    1    2    0    0 -0.24641369371E+02 -0.48340475070E+01 -0.19650833997E+02  0.59301946990E+02  0.50000005403E+02 0.  0.
         12    1    1    2    0    0  0.24641369371E+02  0.48340475070E+01  0.19650833997E+02  0.31886053010E+02  0.00000000000E+00 0. -1.
         11    1    3    3    0    0  0.14465482232E+01 -0.12583854016E+02 -0.12463502478E+02  0.17770334210E+02  0.51100000000E-03 0. -1.
        -11    1    3    3    0    0  0.20948465256E+01  0.77573322746E+01 -0.10426345201E+02  0.13163330145E+02  0.51100000000E-03 0.  1.
        -12    1    3    3    0    0 -0.28182764119E+02 -0.75257654266E-02  0.32390136814E+01  0.28368282635E+02  0.00000000000E+00 0.  1.
</event>
<event>
 7    1  0.3461631E-013  0.5930194E+02  0.7816164E-02  0.1266605E+00
        -11   -1    0    0    0    0  0.00000000000E+00  0.00000000000E+00  0.45593999997E+02  0.45594000000E+02  0.51100000000E-03 0.  1.
         11   -1    0    0    0    0 -0.00000000000E+00 -0.00000000000E+00 -0.45593999997E+02  0.45594000000E+02  0.51100000000E-03 0. -1.
    9900012    2    1    2    0    0  0.25351485129E+02  0.21640724054E+01  0.19218219636E+02  0.59301937628E+02  0.49999988329E+02 0.  0.
         12    1    1    2    0    0 -0.25351485129E+02 -0.21640724054E+01 -0.19218219636E+02  0.31886062372E+02  0.00000000000E+00 0. -1.
         11    1    3    3    0    0 -0.25968587185E+01  0.36642641355E+01  0.13791478482E+02  0.14504323005E+02  0.51100000000E-03 0. -1.
        -11    1    3    3    0    0  0.13803812674E+01  0.13344171741E+02  0.51290407228E+01  0.14362431232E+02  0.51100000000E-03 0.  1.
         12    1    3    3    0    0  0.26567962580E+02 -0.14844363472E+02  0.29770043139E+00  0.30435183391E+02  0.00000000000E+00 0. -1.
</event>
<event>
 7    1  0.3461631E-013  0.5930195E+02  0.7816164E-02  0.1266605E+00
        -11   -1    0    0    0    0  0.00000000000E+00  0.00000000000E+00  0.45593999997E+02  0.45594000000E+02  0.51100000000E-03 0.  1.
         11   -1    0    0    0    0 -0.00000000000E+00 -0.00000000000E+00 -0.45593999997E+02  0.45594000000E+02  0.51100000000E-03 0. -1.
    9900012    2    1    2    0    0  0.88368252007E+01 -0.14029097705E+02  0.27236285785E+02  0.59301947792E+02  0.50000006865E+02 0.  0.
         12    1    1    2    0    0 -0.88368252007E+01  0.14029097705E+02 -0.27236285785E+02  0.31886052208E+02  0.00000000000E+00 0. -1.
         11    1    3    3    0    0  0.37710996275E+01 -0.48286264178E+01 -0.44742265993E+01  0.75865360611E+01  0.51100000000E-03 0. -1.
        -11    1    3    3    0    0  0.14595237991E+02  0.88376065111E+01  0.24945229684E+02  0.30222321967E+02  0.51100000000E-03 0.  1.
         12    1    3    3    0    0 -0.95295124177E+01 -0.18038077798E+02  0.67652827010E+01  0.21493089764E+02  0.00000000000E+00 0. -1.
</event>
<event>
 7    1  0.3461631E-013  0.5930188E+02  0.7816164E-02  0.1266605E+00
        -11   -1    0    0    0    0  0.00000000000E+00  0.00000000000E+00  0.45593999997E+02  0.45594000000E+02  0.51100000000E-03 0.  1.
         11   -1    0    0    0    0 -0.00000000000E+00 -0.00000000000E+00 -0.45593999997E+02  0.45594000000E+02  0.51100000000E-03 0. -1.
    9900012    2    1    2    0    0 -0.30234892354E+02  0.10117314063E+02 -0.46435339390E+00  0.59301884157E+02  0.49999890810E+02 0.  0.
         12    1    1    2    0    0  0.30234892354E+02 -0.10117314063E+02  0.46435339390E+00  0.31886115843E+02  0.00000000000E+00 0. -1.
         11    1    3    3    0    0 -0.15872276211E+00  0.14558799903E+01  0.59515340508E+00  0.15808185532E+01  0.51100000000E-03 0. -1.
        -11    1    3    3    0    0  0.13234869987E+02  0.13246221275E+01 -0.34067144035E+01  0.13730335416E+02  0.51100000000E-03 0.  1.
         12    1    3    3    0    0 -0.43311039579E+02  0.73368119450E+01  0.23472076045E+01  0.43990730188E+02  0.00000000000E+00 0. -1.
</event>
<event>
 7    1  0.3461631E-013  0.5930195E+02  0.7816164E-02  0.1266605E+00
        -11   -1    0    0    0    0  0.00000000000E+00  0.00000000000E+00  0.45593999997E+02  0.45594000000E+02  0.51100000000E-03 0. -1.
         11   -1    0    0    0    0 -0.00000000000E+00 -0.00000000000E+00 -0.45593999997E+02  0.45594000000E+02  0.51100000000E-03 0.  1.
    9900012    2    1    2    0    0  0.21728340197E+02 -0.14215081663E+02 -0.18507595461E+02  0.59301946557E+02  0.50000004612E+02 0.  0.
         12    1    1    2    0    0 -0.21728340197E+02  0.14215081663E+02  0.18507595461E+02  0.31886053443E+02  0.00000000000E+00 0. -1.
         11    1    3    3    0    0  0.11169070552E+02  0.40663167800E+01 -0.41141614152E+01  0.12578131560E+02  0.51100000000E-03 0. -1.
        -11    1    3    3    0    0  0.20184017513E+02  0.34807749282E+01 -0.87221987170E+01  0.22261785818E+02  0.51100000000E-03 0.  1.
         12    1    3    3    0    0 -0.96247478676E+01 -0.21762173372E+02 -0.56712353289E+01  0.24462029179E+02  0.00000000000E+00 0. -1.
</event>
<event>
 7    1  0.3461631E-013  0.5930195E+02  0.7816164E-02  0.1266605E+00
        -11   -1    0    0    0    0  0.00000000000E+00  0.00000000000E+00  0.45593999997E+02  0.45594000000E+02  0.51100000000E-03 0. -1.
         11   -1    0    0    0    0 -0.00000000000E+00 -0.00000000000E+00 -0.45593999997E+02  0.45594000000E+02  0.51100000000E-03 0.  1.
    9900012    2    1    2    0    0 -0.31342840965E+02 -0.14003061925E+01  0.56908248011E+01  0.59301952517E+02  0.50000015482E+02 0.  0.
         12    1    1    2    0    0  0.31342840965E+02  0.14003061925E+01 -0.56908248011E+01  0.31886047483E+02  0.00000000000E+00 0. -1.
         11    1    3    3    0    0 -0.48144217535E+01  0.75352346087E+01  0.87257248450E+01  0.12493866165E+02  0.51100000000E-03 0. -1.
        -11    1    3    3    0    0 -0.13454744789E+02  0.12553920574E+02 -0.96780986660E+01  0.20791745313E+02  0.51100000000E-03 0.  1.
         12    1    3    3    0    0 -0.13073674422E+02 -0.21489461375E+02  0.66431986222E+01  0.26016341038E+02  0.00000000000E+00 0. -1.
</event>
<event>
 7    1  0.3461631E-013  0.5930195E+02  0.7816164E-02  0.1266605E+00
        -11   -1    0    0    0    0  0.00000000000E+00  0.00000000000E+00  0.45593999997E+02  0.45594000000E+02  0.51100000000E-03 0.  1.
         11   -1    0    0    0    0 -0.00000000000E+00 -0.00000000000E+00 -0.45593999997E+02  0.45594000000E+02  0.51100000000E-03 0. -1.
    9900012    2    1    2    0    0  0.19624725749E+02 -0.23727492146E+02 -0.82823030486E+01  0.59301948378E+02  0.50000007934E+02 0.  0.
         12    1    1    2    0    0 -0.19624725749E+02  0.23727492146E+02  0.82823030486E+01  0.31886051622E+02  0.00000000000E+00 0. -1.
         11    1    3    3    0    0  0.28887402175E+01  0.10876408008E+02 -0.98502822481E+01  0.14955571933E+02  0.51100000000E-03 0. -1.
        -11    1    3    3    0    0  0.17148185269E+02 -0.16788753944E+02 -0.63835557463E+01  0.24832887493E+02  0.51100000000E-03 0.  1.
        -12    1    3    3    0    0 -0.41219973739E+00 -0.17815146210E+02  0.79515349458E+01  0.19513488953E+02  0.00000000000E+00 0.  1.
</event>
<event>
 7    1  0.3461631E-013  0.5930194E+02  0.7816164E-02  0.1266605E+00
        -11   -1    0    0    0    0  0.00000000000E+00  0.00000000000E+00  0.45593999997E+02  0.45594000000E+02  0.51100000000E-03 0.  1.
         11   -1    0    0    0    0 -0.00000000000E+00 -0.00000000000E+00 -0.45593999997E+02  0.45594000000E+02  0.51100000000E-03 0. -1.
    9900012    2    1    2    0    0  0.28875676478E+02  0.41613743923E+01  0.12868528027E+02  0.59301941252E+02  0.49999994937E+02 0.  0.
         12    1    1    2    0    0 -0.28875676478E+02 -0.41613743923E+01 -0.12868528027E+02  0.31886058748E+02  0.00000000000E+00 0. -1.
         11    1    3    3    0    0  0.11116522157E+02 -0.63317883449E+01 -0.34555886930E+01  0.13251781087E+02  0.51100000000E-03 0. -1.
        -11    1    3    3    0    0  0.43795125270E+01  0.87291066090E+01 -0.11523220043E+02  0.15105033353E+02  0.51100000000E-03 0.  1.
        -12    1    3    3    0    0  0.13379641794E+02  0.17640561283E+01  0.27847336763E+02  0.30945126811E+02  0.00000000000E+00 0.  1.
</event>
<event>
 7    1  0.3461631E-013  0.5930196E+02  0.7816164E-02  0.1266605E+00
        -11   -1    0    0    0    0  0.00000000000E+00  0.00000000000E+00  0.45593999997E+02  0.45594000000E+02  0.51100000000E-03 0. -1.
         11   -1    0    0    0    0 -0.00000000000E+00 -0.00000000000E+00 -0.45593999997E+02  0.45594000000E+02  0.51100000000E-03 0.  1.
    9900012    2    1    2    0    0  0.19908901680E+02 -0.15309532111E+02 -0.19646198158E+02  0.59301964787E+02  0.50000037860E+02 0.  0.
         12    1    1    2    0    0 -0.19908901680E+02  0.15309532111E+02  0.19646198158E+02  0.31886035213E+02  0.00000000000E+00 0. -1.
         11    1    3    3    0    0  0.12955835578E+01 -0.38586138232E+01 -0.16756480280E+02  0.17243754494E+02  0.51100000000E-03 0. -1.
        -11    1    3    3    0    0  0.23537017262E+02 -0.19759794319E+02 -0.70694798828E+01  0.31534397080E+02  0.51100000000E-03 0.  1.
         12    1    3    3    0    0 -0.49236991403E+01  0.83088760310E+01  0.41797620056E+01  0.10523813213E+02  0.00000000000E+00 0. -1.
</event>
<event>
 7    1  0.3461631E-013  0.5930167E+02  0.7816164E-02  0.1266606E+00
        -11   -1    0    0    0    0  0.00000000000E+00  0.00000000000E+00  0.45593999997E+02  0.45594000000E+02  0.51100000000E-03 0. -1.
         11   -1    0    0    0    0 -0.00000000000E+00 -0.00000000000E+00 -0.45593999997E+02  0.45594000000E+02  0.51100000000E-03 0.  1.
    9900012    2    1    2    0    0 -0.28598977947E+01 -0.12512038838E+02 -0.29189178023E+02  0.59301666801E+02  0.49999494402E+02 0.  0.
         12    1    1    2    0    0  0.28598977947E+01  0.12512038838E+02  0.29189178023E+02  0.31886333199E+02  0.00000000000E+00 0. -1.
         11    1    3    3    0    0  0.13447979554E+01 -0.80274927995E+01 -0.29149071315E+02  0.30264128617E+02  0.51100000000E-03 0. -1.
        -11    1    3    3    0    0  0.76094382180E+01  0.54671116179E+01 -0.73878512809E+01  0.11932024398E+02  0.51100000000E-03 0.  1.
         12    1    3    3    0    0 -0.11814133968E+02 -0.99516576563E+01  0.73477445733E+01  0.17105513785E+02  0.00000000000E+00 0. -1.
</event>
<event>
 7    1  0.3461631E-013  0.5930194E+02  0.7816164E-02  0.1266605E+00
        -11   -1    0    0    0    0  0.00000000000E+00  0.00000000000E+00  0.45593999997E+02  0.45594000000E+02  0.51100000000E-03 0. -1.
         11   -1    0    0    0    0 -0.00000000000E+00 -0.00000000000E+00 -0.45593999997E+02  0.45594000000E+02  0.51100000000E-03 0.  1.
    9900012    2    1    2    0    0  0.13257137751E+02  0.94658215358E+01 -0.27411084777E+02  0.59301936472E+02  0.49999986219E+02 0.  0.
         12    1    1    2    0    0 -0.13257137751E+02 -0.94658215358E+01  0.27411084777E+02  0.31886063528E+02  0.00000000000E+00 0. -1.
         11    1    3    3    0    0  0.39068383182E+01 -0.14072645071E+02 -0.17688115572E+02  0.22938442791E+02  0.51100000000E-03 0. -1.
        -11    1    3    3    0    0 -0.27900520209E+01 -0.40173823356E+01 -0.19431132373E+01  0.52630257860E+01  0.51100000000E-03 0.  1.
         12    1    3    3    0    0  0.12140351454E+02  0.27555848943E+02 -0.77798559676E+01  0.31100467894E+02  0.00000000000E+00 0. -1.
</event>
<event>
 7    1  0.5151669E-013  0.5930193E+02  0.7816164E-02  0.1266605E+00
        -11   -1    0    0    0    0  0.00000000000E+00  0.00000000000E+00  0.45593999997E+02  0.45594000000E+02  0.51100000000E-03 0. -1.
         11   -1    0    0    0    0 -0.00000000000E+00 -0.00000000000E+00 -0.45593999997E+02  0.45594000000E+02  0.51100000000E-03 0.  1.
    9900012    2    1    2    0    0 -0.24935558636E+02 -0.19793565250E+02 -0.17759567114E+01  0.59301932007E+02  0.49999978077E+02 0.  0.
         12    1    1    2    0    0  0.24935558636E+02  0.19793565250E+02  0.17759567114E+01  0.31886067993E+02  0.00000000000E+00 0. -1.
         11    1    3    3    0    0 -0.18719354048E+02  0.20781928457E+01  0.66193885599E+01  0.19963702228E+02  0.51100000000E-03 0. -1.
        -11    1    3    3    0    0 -0.10866840573E+02 -0.23210609640E+02  0.40853562622E+01  0.25952085850E+02  0.51100000000E-03 0.  1.
         12    1    3    3    0    0  0.46506359851E+01  0.13388515446E+01 -0.12480701533E+02  0.13386143929E+02  0.00000000000E+00 0. -1.
</event>
<event>
 7    1  0.3461631E-013  0.5930193E+02  0.7816164E-02  0.1266605E+00
        -11   -1    0    0    0    0  0.00000000000E+00  0.00000000000E+00  0.45593999997E+02  0.45594000000E+02  0.51100000000E-03 0.  1.
         11   -1    0    0    0    0 -0.00000000000E+00 -0.00000000000E+00 -0.45593999997E+02  0.45594000000E+02  0.51100000000E-03 0. -1.
    9900012    2    1    2    0    0  0.31586838716E+02  0.21682656972E+00 -0.43526894813E+01  0.59301932517E+02  0.49999979006E+02 0.  0.
         12    1    1    2    0    0 -0.31586838716E+02 -0.21682656972E+00  0.43526894813E+01  0.31886067483E+02  0.00000000000E+00 0. -1.
         11    1    3    3    0    0  0.10652838260E+02  0.54875789882E+01 -0.41881022981E+01  0.12693962631E+02  0.51100000000E-03 0. -1.
        -11    1    3    3    0    0  0.29183543257E+02  0.54168422264E+00 -0.11552906776E+02  0.31391754874E+02  0.51100000000E-03 0.  1.
        -12    1    3    3    0    0 -0.82495428010E+01 -0.58124366411E+01  0.11388319593E+02  0.15216215012E+02  0.00000000000E+00 0.  1.
</event>
<event>
 7    1  0.3461631E-013  0.5930195E+02  0.7816164E-02  0.1266605E+00
        -11   -1    0    0    0    0  0.00000000000E+00  0.00000000000E+00  0.45593999997E+02  0.45594000000E+02  0.51100000000E-03 0.  1.
         11   -1    0    0    0    0 -0.00000000000E+00 -0.00000000000E+00 -0.45593999997E+02  0.45594000000E+02  0.51100000000E-03 0. -1.
    9900012    2    1    2    0    0  0.18837045333E+02  0.19686793998E+02  0.16562490251E+02  0.59301949475E+02  0.50000009934E+02 0.  0.
         12    1    1    2    0    0 -0.18837045333E+02 -0.19686793998E+02 -0.16562490251E+02  0.31886050525E+02  0.00000000000E+00 0. -1.
         11    1    3    3    0    0 -0.94634942160E+01  0.75254652118E+01  0.22891315254E+01  0.12305708953E+02  0.51100000000E-03 0. -1.
        -11    1    3    3    0    0  0.65015699605E+01  0.64159175666E+01  0.21469767637E+02  0.23332066621E+02  0.51100000000E-03 0.  1.
        -12    1    3    3    0    0  0.21798969588E+02  0.57454112196E+01 -0.71964089116E+01  0.23664173901E+02  0.00000000000E+00 0.  1.
</event>
<event>
 7    1  0.3461631E-013  0.5930193E+02  0.7816164E-02  0.1266605E+00
        -11   -1    0    0    0    0  0.00000000000E+00  0.00000000000E+00  0.45593999997E+02  0.45594000000E+02  0.51100000000E-03 0.  1.
         11   -1    0    0    0    0 -0.00000000000E+00 -0.00000000000E+00 -0.45593999997E+02  0.45594000000E+02  0.51100000000E-03 0. -1.
    9900012    2    1    2    0    0 -0.24051012646E+02 -0.12367418532E+02  0.16891342128E+02  0.59301926405E+02  0.49999967861E+02 0.  0.
         12    1    1    2    0    0  0.24051012646E+02  0.12367418532E+02 -0.16891342128E+02  0.31886073595E+02  0.00000000000E+00 0. -1.
         11    1    3    3    0    0 -0.10786512863E+02 -0.66390963755E+01  0.45462024430E+01  0.13457132583E+02  0.51100000000E-03 0. -1.
        -11    1    3    3    0    0  0.27078941916E+01  0.95621507773E+01  0.20092012763E+02  0.22415539154E+02  0.51100000000E-03 0.  1.
         12    1    3    3    0    0 -0.15972393974E+02 -0.15290472934E+02 -0.77468730787E+01  0.23429254668E+02  0.00000000000E+00 0. -1.
</event>
<event>
 7    1  0.3461631E-013  0.5930193E+02  0.7816164E-02  0.1266605E+00
        -11   -1    0    0    0    0  0.00000000000E+00  0.00000000000E+00  0.45593999997E+02  0.45594000000E+02  0.51100000000E-03 0.  1.
         11   -1    0    0    0    0 -0.00000000000E+00 -0.00000000000E+00 -0.45593999997E+02  0.45594000000E+02  0.51100000000E-03 0. -1.
    9900012    2    1    2    0    0 -0.30875895170E+02 -0.44649978018E+01  0.65927574864E+01  0.59301928446E+02  0.49999971582E+02 0.  0.
         12    1    1    2    0    0  0.30875895170E+02  0.44649978018E+01 -0.65927574864E+01  0.31886071554E+02  0.00000000000E+00 0. -1.
         11    1    3    3    0    0  0.61969740707E+01 -0.49065364711E+01  0.11336907030E+02  0.13820349092E+02  0.51100000000E-03 0. -1.
        -11    1    3    3    0    0 -0.31889029675E+02  0.21201210524E+01  0.68370719824E+01  0.32682574569E+02  0.51100000000E-03 0.  1.
         12    1    3    3    0    0 -0.51838395651E+01 -0.16785823831E+01 -0.11581221526E+02  0.12799004785E+02  0.00000000000E+00 0. -1.
</event>
<event>
 7    1  0.3461631E-013  0.5930195E+02  0.7816164E-02  0.1266605E+00
        -11   -1    0    0    0    0  0.00000000000E+00  0.00000000000E+00  0.45593999997E+02  0.45594000000E+02  0.51100000000E-03 0.  1.
         11   -1    0    0    0    0 -0.00000000000E+00 -0.00000000000E+00 -0.45593999997E+02  0.45594000000E+02  0.51100000000E-03 0. -1.
    9900012    2    1    2    0    0 -0.61355344608E+01  0.11019212607E+02  0.29285703484E+02  0.59301948847E+02  0.50000008789E+02 0.  0.
         12    1    1    2    0    0  0.61355344608E+01 -0.11019212607E+02 -0.29285703484E+02  0.31886051153E+02  0.00000000000E+00 0. -1.
         11    1    3    3    0    0  0.24350717353E+01 -0.43606007512E+01 -0.17555583391E+01  0.52939964687E+01  0.51100000000E-03 0. -1.
        -11    1    3    3    0    0  0.85964441513E+01 -0.98969107556E+01  0.56300938667E+01  0.14266942621E+02  0.51100000000E-03 0.  1.
         12    1    3    3    0    0 -0.17167050347E+02  0.25276724114E+02  0.25411167956E+02  0.39741009757E+02  0.00000000000E+00 0. -1.
</event>
<event>
 7    1  0.3461631E-013  0.5930188E+02  0.7816164E-02  0.1266605E+00
        -11   -1    0    0    0    0  0.00000000000E+00  0.00000000000E+00  0.45593999997E+02  0.45594000000E+02  0.51100000000E-03 0. -1.
         11   -1    0    0    0    0 -0.00000000000E+00 -0.00000000000E+00 -0.45593999997E+02  0.45594000000E+02  0.51100000000E-03 0.  1.
    9900012    2    1    2    0    0 -0.12113435811E+02 -0.23824050549E+02  0.17389766150E+02  0.59301879532E+02  0.49999882376E+02 0.  0.
         12    1    1    2    0    0  0.12113435811E+02  0.23824050549E+02 -0.17389766150E+02  0.31886120468E+02  0.00000000000E+00 0. -1.
         11    1    3    3    0    0 -0.59653754802E+01  0.67411824626E+01 -0.45034894854E+01  0.10065319837E+02  0.51100000000E-03 0. -1.
        -11    1    3    3    0    0 -0.53485097102E+01 -0.14220260379E+02 -0.64524058735E+01  0.16506238311E+02  0.51100000000E-03 0.  1.
        -12    1    3    3    0    0 -0.79955062092E+00 -0.16344972633E+02  0.28345661509E+02  0.32730321384E+02  0.00000000000E+00 0.  1.
</event>
<event>
 7    1  0.3461631E-013  0.5930197E+02  0.7816164E-02  0.1266605E+00
        -11   -1    0    0    0    0  0.00000000000E+00  0.00000000000E+00  0.45593999997E+02  0.45594000000E+02  0.51100000000E-03 0. -1.
         11   -1    0    0    0    0 -0.00000000000E+00 -0.00000000000E+00 -0.45593999997E+02  0.45594000000E+02  0.51100000000E-03 0.  1.
    9900012    2    1    2    0    0  0.14115041601E+02  0.10414409611E+02 -0.26627517778E+02  0.59301968106E+02  0.50000043913E+02 0.  0.
         12    1    1    2    0    0 -0.14115041601E+02 -0.10414409611E+02  0.26627517778E+02  0.31886031894E+02  0.00000000000E+00 0. -1.
         11    1    3    3    0    0  0.50945696294E+01  0.95054012128E+01 -0.15751456606E+02  0.19089674628E+02  0.51100000000E-03 0. -1.
        -11    1    3    3    0    0  0.15790524486E+02  0.60842571112E+01  0.85791720534E+01  0.18972639287E+02  0.51100000000E-03 0.  1.
         12    1    3    3    0    0 -0.67700525146E+01 -0.51752487134E+01 -0.19455233225E+02  0.21239654191E+02  0.00000000000E+00 0. -1.
</event>
<event>
 7    1  0.3461631E-013  0.5930194E+02  0.7816164E-02  0.1266605E+00
        -11   -1    0    0    0    0  0.00000000000E+00  0.00000000000E+00  0.45593999997E+02  0.45594000000E+02  0.51100000000E-03 0. -1.
         11   -1    0    0    0    0 -0.00000000000E+00 -0.00000000000E+00 -0.45593999997E+02  0.45594000000E+02  0.51100000000E-03 0.  1.
    9900012    2    1    2    0    0 -0.26317623114E+02  0.95428377306E+01 -0.15265577765E+02  0.59301938737E+02  0.49999990352E+02 0.  0.
         12    1    1    2    0    0  0.26317623114E+02 -0.95428377306E+01  0.15265577765E+02  0.31886061263E+02  0.00000000000E+00 0. -1.
         11    1    3    3    0    0 -0.90314236380E+01 -0.71761580611E+01 -0.19172426467E+01  0.11693574179E+02  0.51100000000E-03 0. -1.
        -11    1    3    3    0    0 -0.12088655202E+02  0.28925012940E+01 -0.25573600920E+02  0.28434331584E+02  0.51100000000E-03 0.  1.
        -12    1    3    3    0    0 -0.51975442741E+01  0.13826494498E+02  0.12225265802E+02  0.19174032975E+02  0.00000000000E+00 0.  1.
</event>
<event>
 7    1  0.3461631E-013  0.5930194E+02  0.7816164E-02  0.1266605E+00
        -11   -1    0    0    0    0  0.00000000000E+00  0.00000000000E+00  0.45593999997E+02  0.45594000000E+02  0.51100000000E-03 0. -1.
         11   -1    0    0    0    0 -0.00000000000E+00 -0.00000000000E+00 -0.45593999997E+02  0.45594000000E+02  0.51100000000E-03 0.  1.
    9900012    2    1    2    0    0  0.13433291555E+02  0.19105300043E+02 -0.21708413906E+02  0.59301936492E+02  0.49999986257E+02 0.  0.
         12    1    1    2    0    0 -0.13433291555E+02 -0.19105300043E+02  0.21708413906E+02  0.31886063508E+02  0.00000000000E+00 0. -1.
         11    1    3    3    0    0  0.68483463558E+01 -0.13155527318E+02 -0.12209738221E+02  0.19210555810E+02  0.51100000000E-03 0. -1.
        -11    1    3    3    0    0 -0.22291767388E+01  0.12590167330E+02  0.54092920133E+01  0.13883154637E+02  0.51100000000E-03 0.  1.
        -12    1    3    3    0    0  0.88141219380E+01  0.19670660030E+02 -0.14907967697E+02  0.26208226045E+02  0.00000000000E+00 0.  1.
</event>
<event>
 7    1  0.3461631E-013  0.5930194E+02  0.7816164E-02  0.1266605E+00
        -11   -1    0    0    0    0  0.00000000000E+00  0.00000000000E+00  0.45593999997E+02  0.45594000000E+02  0.51100000000E-03 0. -1.
         11   -1    0    0    0    0 -0.00000000000E+00 -0.00000000000E+00 -0.45593999997E+02  0.45594000000E+02  0.51100000000E-03 0.  1.
    9900012    2    1    2    0    0 -0.26678169346E+02 -0.10370915487E+02 -0.14051332513E+02  0.59301944222E+02  0.50000000354E+02 0.  0.
         12    1    1    2    0    0  0.26678169346E+02  0.10370915487E+02  0.14051332513E+02  0.31886055778E+02  0.00000000000E+00 0. -1.
         11    1    3    3    0    0 -0.17637131870E+02  0.10377492770E-01  0.13838966608E+02  0.22418419332E+02  0.51100000000E-03 0. -1.
        -11    1    3    3    0    0 -0.66382751284E+01 -0.27008891953E+01  0.68245651517E+00  0.71991142706E+01  0.51100000000E-03 0.  1.
        -12    1    3    3    0    0 -0.24027623480E+01 -0.76804037843E+01 -0.28572755636E+02  0.29684410620E+02  0.00000000000E+00 0.  1.
</event>
<event>
 7    1  0.3461631E-013  0.5930197E+02  0.7816164E-02  0.1266605E+00
        -11   -1    0    0    0    0  0.00000000000E+00  0.00000000000E+00  0.45593999997E+02  0.45594000000E+02  0.51100000000E-03 0.  1.
         11   -1    0    0    0    0 -0.00000000000E+00 -0.00000000000E+00 -0.45593999997E+02  0.45594000000E+02  0.51100000000E-03 0. -1.
    9900012    2    1    2    0    0  0.13166448285E+02  0.22696447398E+02  0.18117249838E+02  0.59301971294E+02  0.50000049726E+02 0.  0.
         12    1    1    2    0    0 -0.13166448285E+02 -0.22696447398E+02 -0.18117249838E+02  0.31886028706E+02  0.00000000000E+00 0. -1.
         11    1    3    3    0    0 -0.70987161154E+01  0.36856136350E+01  0.11035538982E+02  0.13629330110E+02  0.51100000000E-03 0. -1.
        -11    1    3    3    0    0 -0.53206639833E+01  0.53616328634E+01  0.13956957323E+02  0.15869884377E+02  0.51100000000E-03 0.  1.
         12    1    3    3    0    0  0.25585828384E+02  0.13649200900E+02 -0.68752464662E+01  0.29802756807E+02  0.00000000000E+00 0. -1.
</event>
<event>
 7    1  0.3461631E-013  0.5930194E+02  0.7816164E-02  0.1266605E+00
        -11   -1    0    0    0    0  0.00000000000E+00  0.00000000000E+00  0.45593999997E+02  0.45594000000E+02  0.51100000000E-03 0.  1.
         11   -1    0    0    0    0 -0.00000000000E+00 -0.00000000000E+00 -0.45593999997E+02  0.45594000000E+02  0.51100000000E-03 0. -1.
    9900012    2    1    2    0    0  0.23130089343E+02  0.38258242503E+01  0.21612101853E+02  0.59301938614E+02  0.49999990126E+02 0.  0.
         12    1    1    2    0    0 -0.23130089343E+02 -0.38258242503E+01 -0.21612101853E+02  0.31886061386E+02  0.00000000000E+00 0. -1.
         11    1    3    3    0    0 -0.92599218514E+00 -0.22708145839E+01 -0.92938036150E+01  0.96119116879E+01  0.51100000000E-03 0. -1.
        -11    1    3    3    0    0  0.16653613622E+02  0.11727849176E+01 -0.84665339979E+00  0.16716312194E+02  0.51100000000E-03 0.  1.
        -12    1    3    3    0    0  0.74024679061E+01  0.49238539165E+01  0.31752558868E+02  0.32973714731E+02  0.00000000000E+00 0.  1.
</event>
<event>
 7    1  0.3461631E-013  0.5930192E+02  0.7816164E-02  0.1266605E+00
        -11   -1    0    0    0    0  0.00000000000E+00  0.00000000000E+00  0.45593999997E+02  0.45594000000E+02  0.51100000000E-03 0.  1.
         11   -1    0    0    0    0 -0.00000000000E+00 -0.00000000000E+00 -0.45593999997E+02  0.45594000000E+02  0.51100000000E-03 0. -1.
    9900012    2    1    2    0    0  0.30720613224E+01 -0.72935649941E+01  0.30888318969E+02  0.59301923104E+02  0.49999961841E+02 0.  0.
         12    1    1    2    0    0 -0.30720613224E+01  0.72935649941E+01 -0.30888318969E+02  0.31886076896E+02  0.00000000000E+00 0. -1.
         11    1    3    3    0    0 -0.32560721194E+00 -0.86357360564E+01  0.94652229974E+01  0.12816879649E+02  0.51100000000E-03 0. -1.
        -11    1    3    3    0    0  0.31561753373E+01  0.44772835759E+01  0.33530995236E+02  0.33975508131E+02  0.51100000000E-03 0.  1.
        -12    1    3    3    0    0  0.24149319705E+00 -0.31351125136E+01 -0.12107899264E+02  0.12509535324E+02  0.00000000000E+00 0.  1.
</event>
<event>
 7    1  0.3461631E-013  0.5930191E+02  0.7816164E-02  0.1266605E+00
        -11   -1    0    0    0    0  0.00000000000E+00  0.00000000000E+00  0.45593999997E+02  0.45594000000E+02  0.51100000000E-03 0. -1.
         11   -1    0    0    0    0 -0.00000000000E+00 -0.00000000000E+00 -0.45593999997E+02  0.45594000000E+02  0.51100000000E-03 0.  1.
    9900012    2    1    2    0    0  0.83567284818E+01 -0.27690594883E+02 -0.13420843181E+02  0.59301906047E+02  0.49999930732E+02 0.  0.
         12    1    1    2    0    0 -0.83567284818E+01  0.27690594883E+02  0.13420843181E+02  0.31886093953E+02  0.00000000000E+00 0. -1.
         11    1    3    3    0    0  0.72313284294E+01  0.10094424394E+02  0.27947766059E+00  0.12420451792E+02  0.51100000000E-03 0. -1.
        -11    1    3    3    0    0 -0.80819921230E+01 -0.94889293499E+01  0.29148014542E+01  0.12800564232E+02  0.51100000000E-03 0.  1.
         12    1    3    3    0    0  0.92073921753E+01 -0.28296089927E+02 -0.16615122296E+02  0.34080890023E+02  0.00000000000E+00 0. -1.
</event>
<event>
 7    1  0.3461631E-013  0.5930192E+02  0.7816164E-02  0.1266605E+00
        -11   -1    0    0    0    0  0.00000000000E+00  0.00000000000E+00  0.45593999997E+02  0.45594000000E+02  0.51100000000E-03 0. -1.
         11   -1    0    0    0    0 -0.00000000000E+00 -0.00000000000E+00 -0.45593999997E+02  0.45594000000E+02  0.51100000000E-03 0.  1.
    9900012    2    1    2    0    0  0.68849402436E+00 -0.28097100119E+02 -0.15059911512E+02  0.59301921629E+02  0.49999959150E+02 0.  0.
         12    1    1    2    0    0 -0.68849402436E+00  0.28097100119E+02  0.15059911512E+02  0.31886078371E+02  0.00000000000E+00 0. -1.
         11    1    3    3    0    0 -0.30724541465E+00  0.91083552293E+01 -0.23187652215E+01  0.94038931907E+01  0.51100000000E-03 0. -1.
        -11    1    3    3    0    0  0.10710421593E+02 -0.63648330911E+01  0.45091899524E+01  0.13249793405E+02  0.51100000000E-03 0.  1.
        -12    1    3    3    0    0 -0.97146821541E+01 -0.30840622257E+02 -0.17250336243E+02  0.36648235034E+02  0.00000000000E+00 0.  1.
</event>
<event>
 7    1  0.3461631E-013  0.5930195E+02  0.7816164E-02  0.1266605E+00
        -11   -1    0    0    0    0  0.00000000000E+00  0.00000000000E+00  0.45593999997E+02  0.45594000000E+02  0.51100000000E-03 0.  1.
         11   -1    0    0    0    0 -0.00000000000E+00 -0.00000000000E+00 -0.45593999997E+02  0.45594000000E+02  0.51100000000E-03 0. -1.
    9900012    2    1    2    0    0 -0.21531717610E+02 -0.35942282662E+01  0.23241915157E+02  0.59301953518E+02  0.50000017309E+02 0.  0.
         12    1    1    2    0    0  0.21531717610E+02  0.35942282662E+01 -0.23241915157E+02  0.31886046482E+02  0.00000000000E+00 0. -1.
         11    1    3    3    0    0 -0.22664765413E+01  0.72332692646E+01 -0.73454650257E+01  0.10555233625E+02  0.51100000000E-03 0. -1.
        -11    1    3    3    0    0 -0.18471385476E+02 -0.66260725595E+01  0.18700119360E+01  0.19712784275E+02  0.51100000000E-03 0.  1.
        -12    1    3    3    0    0 -0.79385559251E+00 -0.42014249713E+01  0.28717368246E+02  0.29033935618E+02  0.00000000000E+00 0.  1.
</event>
<event>
 7    1  0.3461631E-013  0.5930208E+02  0.7816164E-02  0.1266604E+00
        -11   -1    0    0    0    0  0.00000000000E+00  0.00000000000E+00  0.45593999997E+02  0.45594000000E+02  0.51100000000E-03 0.  1.
         11   -1    0    0    0    0 -0.00000000000E+00 -0.00000000000E+00 -0.45593999997E+02  0.45594000000E+02  0.51100000000E-03 0. -1.
    9900012    2    1    2    0    0 -0.16679299735E+02  0.17780317719E+02  0.20551726641E+02  0.59302075115E+02  0.50000239071E+02 0.  0.
         12    1    1    2    0    0  0.16679299735E+02 -0.17780317719E+02 -0.20551726641E+02  0.31885924885E+02  0.00000000000E+00 0. -1.
         11    1    3    3    0    0  0.98588429183E+00  0.54387697851E+01 -0.29036061810E+01  0.62436458682E+01  0.51100000000E-03 0. -1.
        -11    1    3    3    0    0 -0.12671114221E+01  0.18519888500E+02 -0.53702969581E+01  0.19324386952E+02  0.51100000000E-03 0.  1.
         12    1    3    3    0    0 -0.16398072605E+02 -0.61783405659E+01  0.28825629780E+02  0.33734042295E+02  0.00000000000E+00 0. -1.
</event>
<event>
 7    1  0.3461631E-013  0.5930214E+02  0.7816164E-02  0.1266604E+00
        -11   -1    0    0    0    0  0.00000000000E+00  0.00000000000E+00  0.45593999997E+02  0.45594000000E+02  0.51100000000E-03 0.  1.
         11   -1    0    0    0    0 -0.00000000000E+00 -0.00000000000E+00 -0.45593999997E+02  0.45594000000E+02  0.51100000000E-03 0. -1.
    9900012    2    1    2    0    0 -0.17651671557E+02 -0.26335543834E+02 -0.34007971692E+01  0.59302144214E+02  0.50000365091E+02 0.  0.
         12    1    1    2    0    0  0.17651671557E+02  0.26335543834E+02  0.34007971692E+01  0.31885855786E+02  0.00000000000E+00 0. -1.
         11    1    3    3    0    0 -0.19654572498E+02 -0.17791557235E+02  0.93127707260E+01  0.28099278065E+02  0.51100000000E-03 0.  1.
        -11    1    3    3    0    0 -0.59804518270E+01 -0.13366214926E+02  0.93386439767E+00  0.14672886849E+02  0.51100000000E-03 0. -1.
        -12    1    3    3    0    0  0.79833527682E+01  0.48222283270E+01 -0.13647432293E+02  0.16529979300E+02  0.00000000000E+00 0.  1.
</event>
<event>
 7    1  0.3461631E-013  0.5930195E+02  0.7816164E-02  0.1266605E+00
        -11   -1    0    0    0    0  0.00000000000E+00  0.00000000000E+00  0.45593999997E+02  0.45594000000E+02  0.51100000000E-03 0.  1.
         11   -1    0    0    0    0 -0.00000000000E+00 -0.00000000000E+00 -0.45593999997E+02  0.45594000000E+02  0.51100000000E-03 0. -1.
    9900012    2    1    2    0    0  0.10988917531E+00  0.25978531630E+02  0.18488489703E+02  0.59301946108E+02  0.50000003795E+02 0.  0.
         12    1    1    2    0    0 -0.10988917531E+00 -0.25978531630E+02 -0.18488489703E+02  0.31886053892E+02  0.00000000000E+00 0. -1.
         11    1    3    3    0    0  0.14605274609E+02  0.12595052521E+02  0.84269060793E+01  0.21046665787E+02  0.51100000000E-03 0. -1.
        -11    1    3    3    0    0  0.64398056158E+01 -0.42765631001E+01 -0.24977466114E+01  0.81239661936E+01  0.51100000000E-03 0.  1.
        -12    1    3    3    0    0 -0.20935191050E+02  0.17660042209E+02  0.12559330235E+02  0.30131314128E+02  0.00000000000E+00 0.  1.
</event>
<event>
 7    1  0.3461631E-013  0.5930212E+02  0.7816164E-02  0.1266604E+00
        -11   -1    0    0    0    0  0.00000000000E+00  0.00000000000E+00  0.45593999997E+02  0.45594000000E+02  0.51100000000E-03 0. -1.
         11   -1    0    0    0    0 -0.00000000000E+00 -0.00000000000E+00 -0.45593999997E+02  0.45594000000E+02  0.51100000000E-03 0.  1.
    9900012    2    1    2    0    0 -0.30264971726E+02  0.39242583050E+01  0.92380156198E+01  0.59302121473E+02  0.50000323617E+02 0.  0.
         12    1    1    2    0    0  0.30264971726E+02 -0.39242583050E+01 -0.92380156198E+01  0.31885878527E+02  0.00000000000E+00 0. -1.
         11    1    3    3    0    0 -0.25810044145E+01  0.17700093210E+02  0.64412628534E+01  0.19011700367E+02  0.51100000000E-03 0. -1.
        -11    1    3    3    0    0  0.55915970509E+00 -0.64105375858E+00 -0.74514422835E+01  0.74998401225E+01  0.51100000000E-03 0.  1.
         12    1    3    3    0    0 -0.28243127017E+02 -0.13134781147E+02  0.10248195050E+02  0.32790580984E+02  0.00000000000E+00 0. -1.
</event>
<event>
 7    1  0.3461631E-013  0.5930194E+02  0.7816164E-02  0.1266605E+00
        -11   -1    0    0    0    0  0.00000000000E+00  0.00000000000E+00  0.45593999997E+02  0.45594000000E+02  0.51100000000E-03 0.  1.
         11   -1    0    0    0    0 -0.00000000000E+00 -0.00000000000E+00 -0.45593999997E+02  0.45594000000E+02  0.51100000000E-03 0. -1.
    9900012    2    1    2    0    0 -0.67099268509E+01  0.15967880198E+01  0.31131136887E+02  0.59301944518E+02  0.50000000894E+02 0.  0.
         12    1    1    2    0    0  0.67099268509E+01 -0.15967880198E+01 -0.31131136887E+02  0.31886055482E+02  0.00000000000E+00 0. -1.
         11    1    3    3    0    0 -0.10449406941E+02  0.16657003851E+02  0.21060368050E+01  0.19775774928E+02  0.51100000000E-03 0. -1.
        -11    1    3    3    0    0  0.54901216341E+01 -0.39722767455E+01 -0.15535305482E+01  0.69522568656E+01  0.51100000000E-03 0.  1.
         12    1    3    3    0    0 -0.17506415441E+01 -0.11087939086E+02  0.30578630630E+02  0.32573912725E+02  0.00000000000E+00 0. -1.
</event>
<event>
 7    1  0.3461631E-013  0.5930193E+02  0.7816164E-02  0.1266605E+00
        -11   -1    0    0    0    0  0.00000000000E+00  0.00000000000E+00  0.45593999997E+02  0.45594000000E+02  0.51100000000E-03 0.  1.
         11   -1    0    0    0    0 -0.00000000000E+00 -0.00000000000E+00 -0.45593999997E+02  0.45594000000E+02  0.51100000000E-03 0. -1.
    9900012    2    1    2    0    0 -0.12541383036E+02 -0.60565754585E+01  0.28683674365E+02  0.59301928279E+02  0.49999971277E+02 0.  0.
         12    1    1    2    0    0  0.12541383036E+02  0.60565754585E+01 -0.28683674365E+02  0.31886071721E+02  0.00000000000E+00 0. -1.
         11    1    3    3    0    0 -0.18210558609E+02 -0.50605450106E+00 -0.33635189035E+01  0.18525490431E+02  0.51100000000E-03 0. -1.
        -11    1    3    3    0    0 -0.68765478201E+01  0.32575705602E+01  0.35032621070E+01  0.83768443657E+01  0.51100000000E-03 0.  1.
        -12    1    3    3    0    0  0.12545723394E+02 -0.88080915176E+01  0.28543931162E+02  0.32399593482E+02  0.00000000000E+00 0.  1.
</event>
<event>
 7    1  0.3461631E-013  0.5930213E+02  0.7816164E-02  0.1266604E+00
        -11   -1    0    0    0    0  0.00000000000E+00  0.00000000000E+00  0.45593999997E+02  0.45594000000E+02  0.51100000000E-03 0. -1.
         11   -1    0    0    0    0 -0.00000000000E+00 -0.00000000000E+00 -0.45593999997E+02  0.45594000000E+02  0.51100000000E-03 0.  1.
    9900012    2    1    2    0    0 -0.21254277754E+02 -0.19269828392E+02 -0.13915400994E+02  0.59302125480E+02  0.50000330924E+02 0.  0.
         12    1    1    2    0    0  0.21254277754E+02  0.19269828392E+02  0.13915400994E+02  0.31885874520E+02  0.00000000000E+00 0. -1.
         11    1    3    3    0    0 -0.27136401167E+01 -0.21479454137E+02  0.10980063455E+02  0.24275349358E+02  0.51100000000E-03 0. -1.
        -11    1    3    3    0    0 -0.80927978636E+01 -0.32472389762E+01 -0.15252960213E+01  0.88523706679E+01  0.51100000000E-03 0.  1.
         12    1    3    3    0    0 -0.10447839774E+02  0.54568647211E+01 -0.23370168428E+02  0.26174405454E+02  0.00000000000E+00 0. -1.
</event>
<event>
 7    1  0.3461631E-013  0.5930193E+02  0.7816164E-02  0.1266605E+00
        -11   -1    0    0    0    0  0.00000000000E+00  0.00000000000E+00  0.45593999997E+02  0.45594000000E+02  0.51100000000E-03 0.  1.
         11   -1    0    0    0    0 -0.00000000000E+00 -0.00000000000E+00 -0.45593999997E+02  0.45594000000E+02  0.51100000000E-03 0. -1.
    9900012    2    1    2    0    0  0.21770518308E+01  0.27603122203E+02  0.15812964828E+02  0.59301925192E+02  0.49999965648E+02 0.  0.
         12    1    1    2    0    0 -0.21770518308E+01 -0.27603122203E+02 -0.15812964828E+02  0.31886074808E+02  0.00000000000E+00 0. -1.
         11    1    3    3    0    0  0.28100451528E+01  0.29701964242E+02  0.50938843793E+01  0.30266329344E+02  0.51100000000E-03 0. -1.
        -11    1    3    3    0    0  0.20206857219E+00  0.10606779098E+02 -0.22673635753E+01  0.10848296289E+02  0.51100000000E-03 0.  1.
         12    1    3    3    0    0 -0.83506189417E+00 -0.12705621137E+02  0.12986444024E+02  0.18187299559E+02  0.00000000000E+00 0. -1.
</event>
<event>
 7    1  0.3461631E-013  0.5930195E+02  0.7816164E-02  0.1266605E+00
        -11   -1    0    0    0    0  0.00000000000E+00  0.00000000000E+00  0.45593999997E+02  0.45594000000E+02  0.51100000000E-03 0.  1.
         11   -1    0    0    0    0 -0.00000000000E+00 -0.00000000000E+00 -0.45593999997E+02  0.45594000000E+02  0.51100000000E-03 0. -1.
    9900012    2    1    2    0    0 -0.11681969088E+02 -0.51326933488E+01  0.29221696040E+02  0.59301945646E+02  0.50000002952E+02 0.  0.
         12    1    1    2    0    0  0.11681969088E+02  0.51326933488E+01 -0.29221696040E+02  0.31886054354E+02  0.00000000000E+00 0. -1.
         11    1    3    3    0    0  0.69141858071E+01 -0.64963279434E+01  0.93866816563E+01  0.13346086876E+02  0.51100000000E-03 0. -1.
        -11    1    3    3    0    0  0.41794642990E+01 -0.12989712815E+02  0.23274853563E+01  0.13842606300E+02  0.51100000000E-03 0.  1.
         12    1    3    3    0    0 -0.22775619194E+02  0.14353347410E+02  0.17507529027E+02  0.32113252470E+02  0.00000000000E+00 0. -1.
</event>
<event>
 7    1  0.3461631E-013  0.5930195E+02  0.7816164E-02  0.1266605E+00
        -11   -1    0    0    0    0  0.00000000000E+00  0.00000000000E+00  0.45593999997E+02  0.45594000000E+02  0.51100000000E-03 0.  1.
         11   -1    0    0    0    0 -0.00000000000E+00 -0.00000000000E+00 -0.45593999997E+02  0.45594000000E+02  0.51100000000E-03 0. -1.
    9900012    2    1    2    0    0  0.26336112016E+02  0.14398758140E+02  0.10761287955E+02  0.59301947398E+02  0.50000006146E+02 0.  0.
         12    1    1    2    0    0 -0.26336112016E+02 -0.14398758140E+02 -0.10761287955E+02  0.31886052602E+02  0.00000000000E+00 0. -1.
         11    1    3    3    0    0  0.26027728912E+01 -0.14861450120E+01  0.22962617583E+01  0.37756949087E+01  0.51100000000E-03 0. -1.
        -11    1    3    3    0    0  0.17696219849E+02 -0.80374501384E+01  0.20350145996E+02  0.28140455646E+02  0.51100000000E-03 0.  1.
        -12    1    3    3    0    0  0.60371192756E+01  0.23922353290E+02 -0.11885119799E+02  0.27385796843E+02  0.00000000000E+00 0.  1.
</event>
<event>
 7    1  0.3461631E-013  0.5930194E+02  0.7816164E-02  0.1266605E+00
        -11   -1    0    0    0    0  0.00000000000E+00  0.00000000000E+00  0.45593999997E+02  0.45594000000E+02  0.51100000000E-03 0.  1.
         11   -1    0    0    0    0 -0.00000000000E+00 -0.00000000000E+00 -0.45593999997E+02  0.45594000000E+02  0.51100000000E-03 0. -1.
    9900012    2    1    2    0    0  0.24613936527E+02 -0.20219749906E+02 -0.14271025946E+01  0.59301940673E+02  0.49999993881E+02 0.  0.
         12    1    1    2    0    0 -0.24613936527E+02  0.20219749906E+02  0.14271025946E+01  0.31886059327E+02  0.00000000000E+00 0. -1.
         11    1    3    3    0    0  0.65807389238E+01 -0.30852822560E+02  0.32442196623E+01  0.31713210910E+02  0.51100000000E-03 0. -1.
        -11    1    3    3    0    0  0.11230698752E+01 -0.32137329548E+01  0.28859966643E+01  0.44629970263E+01  0.51100000000E-03 0.  1.
        -12    1    3    3    0    0  0.16910127728E+02  0.13846805609E+02 -0.75573189212E+01  0.23125732737E+02  0.00000000000E+00 0.  1.
</event>
<event>
 7    1  0.3461631E-013  0.5930192E+02  0.7816164E-02  0.1266605E+00
        -11   -1    0    0    0    0  0.00000000000E+00  0.00000000000E+00  0.45593999997E+02  0.45594000000E+02  0.51100000000E-03 0. -1.
         11   -1    0    0    0    0 -0.00000000000E+00 -0.00000000000E+00 -0.45593999997E+02  0.45594000000E+02  0.51100000000E-03 0.  1.
    9900012    2    1    2    0    0  0.26737756599E+02  0.15964031672E+02  0.68530270333E+01  0.59301922871E+02  0.49999961415E+02 0.  0.
         12    1    1    2    0    0 -0.26737756599E+02 -0.15964031672E+02 -0.68530270333E+01  0.31886077129E+02  0.00000000000E+00 0. -1.
         11    1    3    3    0    0  0.17066338470E+02 -0.64396197620E+01  0.87341366058E+00  0.18261748633E+02  0.51100000000E-03 0. -1.
        -11    1    3    3    0    0  0.17540932359E+02  0.33555095095E+01  0.93470382200E+01  0.20157154458E+02  0.51100000000E-03 0.  1.
        -12    1    3    3    0    0 -0.78695142308E+01  0.19048141925E+02 -0.33674248473E+01  0.20883019780E+02  0.00000000000E+00 0.  1.
</event>
<event>
 7    1  0.3461631E-013  0.5930195E+02  0.7816164E-02  0.1266605E+00
        -11   -1    0    0    0    0  0.00000000000E+00  0.00000000000E+00  0.45593999997E+02  0.45594000000E+02  0.51100000000E-03 0.  1.
         11   -1    0    0    0    0 -0.00000000000E+00 -0.00000000000E+00 -0.45593999997E+02  0.45594000000E+02  0.51100000000E-03 0. -1.
    9900012    2    1    2    0    0  0.31212315488E+02 -0.55340718913E+01  0.34475820472E+01  0.59301946438E+02  0.50000004395E+02 0.  0.
         12    1    1    2    0    0 -0.31212315488E+02  0.55340718913E+01 -0.34475820472E+01  0.31886053562E+02  0.00000000000E+00 0. -1.
         11    1    3    3    0    0  0.21415905228E+01 -0.68064226780E+01  0.82819135830E+01  0.10931783592E+02  0.51100000000E-03 0. -1.
        -11    1    3    3    0    0  0.25015448279E+02  0.10488113121E+02  0.11273393560E+02  0.29374522499E+02  0.51100000000E-03 0.  1.
         12    1    3    3    0    0  0.40552766860E+01 -0.92157623346E+01 -0.16107725096E+02  0.18995640347E+02  0.00000000000E+00 0. -1.
</event>
<event>
 7    1  0.3461631E-013  0.5930200E+02  0.7816164E-02  0.1266605E+00
        -11   -1    0    0    0    0  0.00000000000E+00  0.00000000000E+00  0.45593999997E+02  0.45594000000E+02  0.51100000000E-03 0. -1.
         11   -1    0    0    0    0 -0.00000000000E+00 -0.00000000000E+00 -0.45593999997E+02  0.45594000000E+02  0.51100000000E-03 0.  1.
    9900012    2    1    2    0    0 -0.19604731411E+02 -0.10848762027E+02 -0.22686473865E+02  0.59301996368E+02  0.50000095455E+02 0.  0.
         12    1    1    2    0    0  0.19604731411E+02  0.10848762027E+02  0.22686473865E+02  0.31886003632E+02  0.00000000000E+00 0. -1.
         11    1    3    3    0    0  0.34469883558E+01 -0.15517791912E+02 -0.57840601275E+00  0.15906544198E+02  0.51100000000E-03 0. -1.
        -11    1    3    3    0    0 -0.71735776550E+00 -0.93770060022E+01 -0.72115055083E+00  0.94320147427E+01  0.51100000000E-03 0.  1.
        -12    1    3    3    0    0 -0.22334362001E+02  0.14046035888E+02 -0.21386917302E+02  0.33963437427E+02  0.00000000000E+00 0.  1.
</event>
<event>
 7    1  0.3461631E-013  0.5930195E+02  0.7816164E-02  0.1266605E+00
        -11   -1    0    0    0    0  0.00000000000E+00  0.00000000000E+00  0.45593999997E+02  0.45594000000E+02  0.51100000000E-03 0.  1.
         11   -1    0    0    0    0 -0.00000000000E+00 -0.00000000000E+00 -0.45593999997E+02  0.45594000000E+02  0.51100000000E-03 0. -1.
    9900012    2    1    2    0    0  0.14071311378E+02  0.16992378786E+02  0.23021237816E+02  0.59301950836E+02  0.50000012417E+02 0.  0.
         12    1    1    2    0    0 -0.14071311378E+02 -0.16992378786E+02 -0.23021237816E+02  0.31886049164E+02  0.00000000000E+00 0. -1.
         11    1    3    3    0    0 -0.66943953822E+01  0.44162747066E+01 -0.61232700945E+01  0.10090235316E+02  0.51100000000E-03 0.  1.
        -11    1    3    3    0    0 -0.16499715966E+01  0.55431560501E+01 -0.50813568956E+01  0.76986475063E+01  0.51100000000E-03 0. -1.
        -12    1    3    3    0    0  0.22415678356E+02  0.70329480295E+01  0.34225864806E+02  0.41513068014E+02  0.00000000000E+00 0.  1.
</event>
<event>
 7    1  0.3461631E-013  0.5930194E+02  0.7816164E-02  0.1266605E+00
        -11   -1    0    0    0    0  0.00000000000E+00  0.00000000000E+00  0.45593999997E+02  0.45594000000E+02  0.51100000000E-03 0.  1.
         11   -1    0    0    0    0 -0.00000000000E+00 -0.00000000000E+00 -0.45593999997E+02  0.45594000000E+02  0.51100000000E-03 0. -1.
    9900012    2    1    2    0    0 -0.13598932843E+02  0.45698912582E+00  0.28837143196E+02  0.59301942839E+02  0.49999997833E+02 0.  0.
         12    1    1    2    0    0  0.13598932843E+02 -0.45698912582E+00 -0.28837143196E+02  0.31886057161E+02  0.00000000000E+00 0. -1.
         11    1    3    3    0    0 -0.81288613638E+01  0.94061794720E+01 -0.33907617169E+01  0.12886111307E+02  0.51100000000E-03 0. -1.
        -11    1    3    3    0    0 -0.18052484617E+02 -0.30374748949E+01  0.24261469919E+02  0.30393048177E+02  0.51100000000E-03 0.  1.
         12    1    3    3    0    0  0.12582413138E+02 -0.59117154513E+01  0.79664349941E+01  0.16022783356E+02  0.00000000000E+00 0. -1.
</event>
<event>
 7    1  0.3461631E-013  0.5930197E+02  0.7816164E-02  0.1266605E+00
        -11   -1    0    0    0    0  0.00000000000E+00  0.00000000000E+00  0.45593999997E+02  0.45594000000E+02  0.51100000000E-03 0. -1.
         11   -1    0    0    0    0 -0.00000000000E+00 -0.00000000000E+00 -0.45593999997E+02  0.45594000000E+02  0.51100000000E-03 0.  1.
    9900012    2    1    2    0    0  0.57007495769E+01 -0.23102492708E+02 -0.21224865015E+02  0.59301974692E+02  0.50000055924E+02 0.  0.
         12    1    1    2    0    0 -0.57007495769E+01  0.23102492708E+02  0.21224865015E+02  0.31886025308E+02  0.00000000000E+00 0. -1.
         11    1    3    3    0    0 -0.24416509613E+01  0.57485268513E+01 -0.42743859881E+01  0.75681963646E+01  0.51100000000E-03 0. -1.
        -11    1    3    3    0    0 -0.67750827184E+01  0.44007004962E+01 -0.12686696619E+02  0.15040617742E+02  0.51100000000E-03 0.  1.
         12    1    3    3    0    0  0.14917483257E+02 -0.33251720055E+02 -0.42637824078E+01  0.36693160586E+02  0.00000000000E+00 0. -1.
</event>
<event>
 7    1  0.3461631E-013  0.5930190E+02  0.7816164E-02  0.1266605E+00
        -11   -1    0    0    0    0  0.00000000000E+00  0.00000000000E+00  0.45593999997E+02  0.45594000000E+02  0.51100000000E-03 0. -1.
         11   -1    0    0    0    0 -0.00000000000E+00 -0.00000000000E+00 -0.45593999997E+02  0.45594000000E+02  0.51100000000E-03 0.  1.
    9900012    2    1    2    0    0  0.20398360477E+02  0.21294944011E+02  0.12130772674E+02  0.59301899639E+02  0.49999919045E+02 0.  0.
         12    1    1    2    0    0 -0.20398360477E+02 -0.21294944011E+02 -0.12130772674E+02  0.31886100361E+02  0.00000000000E+00 0. -1.
         11    1    3    3    0    0 -0.11326204607E+02  0.13408123436E+02  0.76258364048E+01  0.19136720357E+02  0.51100000000E-03 0. -1.
        -11    1    3    3    0    0  0.10351962045E+01 -0.23584550756E+01 -0.56873767608E+01  0.62434122246E+01  0.51100000000E-03 0.  1.
        -12    1    3    3    0    0  0.30689368880E+02  0.10245275650E+02  0.10192313030E+02  0.33921767057E+02  0.00000000000E+00 0.  1.
</event>
<event>
 7    1  0.3461631E-013  0.5930195E+02  0.7816164E-02  0.1266605E+00
        -11   -1    0    0    0    0  0.00000000000E+00  0.00000000000E+00  0.45593999997E+02  0.45594000000E+02  0.51100000000E-03 0. -1.
         11   -1    0    0    0    0 -0.00000000000E+00 -0.00000000000E+00 -0.45593999997E+02  0.45594000000E+02  0.51100000000E-03 0.  1.
    9900012    2    1    2    0    0 -0.97929090999E+01 -0.25222454960E+02 -0.16871490150E+02  0.59301945325E+02  0.50000002366E+02 0.  0.
         12    1    1    2    0    0  0.97929090999E+01  0.25222454960E+02  0.16871490150E+02  0.31886054675E+02  0.00000000000E+00 0. -1.
         11    1    3    3    0    0 -0.21478430578E+02  0.18560006857E+01 -0.17089056627E+02  0.27510063164E+02  0.51100000000E-03 0. -1.
        -11    1    3    3    0    0  0.96918367975E+00  0.10419702514E+01 -0.88985922025E+00  0.16783529733E+01  0.51100000000E-03 0.  1.
        -12    1    3    3    0    0  0.10716337798E+02 -0.28120425897E+02  0.11074256979E+01  0.30113529188E+02  0.00000000000E+00 0.  1.
</event>
<event>
 7    1  0.3461631E-013  0.5930194E+02  0.7816164E-02  0.1266605E+00
        -11   -1    0    0    0    0  0.00000000000E+00  0.00000000000E+00  0.45593999997E+02  0.45594000000E+02  0.51100000000E-03 0. -1.
         11   -1    0    0    0    0 -0.00000000000E+00 -0.00000000000E+00 -0.45593999997E+02  0.45594000000E+02  0.51100000000E-03 0.  1.
    9900012    2    1    2    0    0 -0.71061716976E+01 -0.21480620650E+02 -0.22467889638E+02  0.59301940279E+02  0.49999993164E+02 0.  0.
         12    1    1    2    0    0  0.71061716976E+01  0.21480620650E+02  0.22467889638E+02  0.31886059721E+02  0.00000000000E+00 0. -1.
         11    1    3    3    0    0 -0.12968937249E+02  0.53001804902E+01  0.15418246029E+00  0.14011032049E+02  0.51100000000E-03 0. -1.
        -11    1    3    3    0    0  0.14005295732E+02 -0.34969952482E+01 -0.65611995813E+01  0.15856437951E+02  0.51100000000E-03 0.  1.
        -12    1    3    3    0    0 -0.81425301806E+01 -0.23283805892E+02 -0.16060872517E+02  0.29434470279E+02  0.00000000000E+00 0.  1.
</event>
<event>
 7    1  0.3461631E-013  0.5930197E+02  0.7816164E-02  0.1266605E+00
        -11   -1    0    0    0    0  0.00000000000E+00  0.00000000000E+00  0.45593999997E+02  0.45594000000E+02  0.51100000000E-03 0.  1.
         11   -1    0    0    0    0 -0.00000000000E+00 -0.00000000000E+00 -0.45593999997E+02  0.45594000000E+02  0.51100000000E-03 0. -1.
    9900012    2    1    2    0    0 -0.14025138591E+02 -0.79562575107E+01  0.27508406500E+02  0.59301968979E+02  0.50000045506E+02 0.  0.
         12    1    1    2    0    0  0.14025138591E+02  0.79562575107E+01 -0.27508406500E+02  0.31886031021E+02  0.00000000000E+00 0. -1.
         11    1    3    3    0    0  0.44736064814E+01 -0.21459252950E+01 -0.97003489273E+01  0.10895637654E+02  0.51100000000E-03 0. -1.
        -11    1    3    3    0    0  0.26473339307E+01 -0.89806588226E+01  0.87940608644E+01  0.12845081416E+02  0.51100000000E-03 0.  1.
        -12    1    3    3    0    0 -0.21146079003E+02  0.31703266069E+01  0.28414694563E+02  0.35561249909E+02  0.00000000000E+00 0.  1.
</event>
<event>
 7    1  0.3461631E-013  0.5930199E+02  0.7816164E-02  0.1266605E+00
        -11   -1    0    0    0    0  0.00000000000E+00  0.00000000000E+00  0.45593999997E+02  0.45594000000E+02  0.51100000000E-03 0.  1.
         11   -1    0    0    0    0 -0.00000000000E+00 -0.00000000000E+00 -0.45593999997E+02  0.45594000000E+02  0.51100000000E-03 0. -1.
    9900012    2    1    2    0    0  0.31229924854E+02  0.17520693456E+01  0.61918818964E+01  0.59301994374E+02  0.50000091820E+02 0.  0.
         12    1    1    2    0    0 -0.31229924854E+02 -0.17520693456E+01 -0.61918818964E+01  0.31886005626E+02  0.00000000000E+00 0. -1.
         11    1    3    3    0    0  0.11894898724E+02 -0.17862421940E+02  0.96340031672E+01  0.23523791159E+02  0.51100000000E-03 0. -1.
        -11    1    3    3    0    0  0.53575015100E+01  0.64710720375E+01  0.94640239830E+01  0.12654854640E+02  0.51100000000E-03 0.  1.
         12    1    3    3    0    0  0.13977524620E+02  0.13143419248E+02 -0.12906145254E+02  0.23123348575E+02  0.00000000000E+00 0. -1.
</event>
<event>
 7    1  0.3461631E-013  0.5930208E+02  0.7816164E-02  0.1266604E+00
        -11   -1    0    0    0    0  0.00000000000E+00  0.00000000000E+00  0.45593999997E+02  0.45594000000E+02  0.51100000000E-03 0.  1.
         11   -1    0    0    0    0 -0.00000000000E+00 -0.00000000000E+00 -0.45593999997E+02  0.45594000000E+02  0.51100000000E-03 0. -1.
    9900012    2    1    2    0    0 -0.19072620049E+02  0.11290515452E+01  0.25527870768E+02  0.59302081809E+02  0.50000251279E+02 0.  0.
         12    1    1    2    0    0  0.19072620049E+02 -0.11290515452E+01 -0.25527870768E+02  0.31885918191E+02  0.00000000000E+00 0. -1.
         11    1    3    3    0    0  0.43424430105E+01 -0.87865524100E+01  0.80922141247E+01  0.12710005675E+02  0.51100000000E-03 0. -1.
        -11    1    3    3    0    0 -0.17214309845E+02 -0.96249176113E+01  0.17076923219E+02  0.26088173745E+02  0.51100000000E-03 0.  1.
         12    1    3    3    0    0 -0.62007532151E+01  0.19540521566E+02  0.35873342456E+00  0.20503902389E+02  0.00000000000E+00 0. -1.
</event>
<event>
 7    1  0.3461631E-013  0.5930193E+02  0.7816164E-02  0.1266605E+00
        -11   -1    0    0    0    0  0.00000000000E+00  0.00000000000E+00  0.45593999997E+02  0.45594000000E+02  0.51100000000E-03 0.  1.
         11   -1    0    0    0    0 -0.00000000000E+00 -0.00000000000E+00 -0.45593999997E+02  0.45594000000E+02  0.51100000000E-03 0. -1.
    9900012    2    1    2    0    0  0.26557224593E+02 -0.12796848123E+02  0.12152210500E+02  0.59301925923E+02  0.49999966982E+02 0.  0.
         12    1    1    2    0    0 -0.26557224593E+02  0.12796848123E+02 -0.12152210500E+02  0.31886074077E+02  0.00000000000E+00 0. -1.
         11    1    3    3    0    0  0.17243702845E+02 -0.51954885689E+01 -0.18825422452E+01  0.18107522051E+02  0.51100000000E-03 0. -1.
        -11    1    3    3    0    0  0.26999779018E+01  0.14638094832E+02  0.18853463750E+01  0.15003940556E+02  0.51100000000E-03 0.  1.
         12    1    3    3    0    0  0.66135438470E+01 -0.22239454386E+02  0.12149406370E+02  0.26190463317E+02  0.00000000000E+00 0. -1.
</event>
<event>
 7    1  0.3461631E-013  0.5930194E+02  0.7816164E-02  0.1266605E+00
        -11   -1    0    0    0    0  0.00000000000E+00  0.00000000000E+00  0.45593999997E+02  0.45594000000E+02  0.51100000000E-03 0.  1.
         11   -1    0    0    0    0 -0.00000000000E+00 -0.00000000000E+00 -0.45593999997E+02  0.45594000000E+02  0.51100000000E-03 0. -1.
    9900012    2    1    2    0    0 -0.94955233197E+01 -0.20011018114E+02  0.22937197787E+02  0.59301939544E+02  0.49999991823E+02 0.  0.
         12    1    1    2    0    0  0.94955233197E+01  0.20011018114E+02 -0.22937197787E+02  0.31886060456E+02  0.00000000000E+00 0. -1.
         11    1    3    3    0    0 -0.10537959850E+02 -0.21864476738E+02  0.66352846415E+01  0.25162093382E+02  0.51100000000E-03 0. -1.
        -11    1    3    3    0    0 -0.27266007548E+01 -0.48373382314E+01 -0.73847022647E+01  0.92394816218E+01  0.51100000000E-03 0.  1.
        -12    1    3    3    0    0  0.37690372850E+01  0.66907968555E+01  0.23686615411E+02  0.24900364540E+02  0.00000000000E+00 0.  1.
</event>
<event>
 7    1  0.3461631E-013  0.5930197E+02  0.7816164E-02  0.1266605E+00
        -11   -1    0    0    0    0  0.00000000000E+00  0.00000000000E+00  0.45593999997E+02  0.45594000000E+02  0.51100000000E-03 0. -1.
         11   -1    0    0    0    0 -0.00000000000E+00 -0.00000000000E+00 -0.45593999997E+02  0.45594000000E+02  0.51100000000E-03 0.  1.
    9900012    2    1    2    0    0 -0.29721953174E+02 -0.68788164577E+00 -0.11526110749E+02  0.59301969977E+02  0.50000047325E+02 0.  0.
         12    1    1    2    0    0  0.29721953174E+02  0.68788164577E+00  0.11526110749E+02  0.31886030023E+02  0.00000000000E+00 0. -1.
         11    1    3    3    0    0  0.66597550949E+01 -0.58599169281E+01 -0.11478274732E+02  0.14506610749E+02  0.51100000000E-03 0. -1.
        -11    1    3    3    0    0 -0.25859078023E+02  0.38235238040E+00 -0.11695890471E+02  0.28383656630E+02  0.51100000000E-03 0.  1.
        -12    1    3    3    0    0 -0.10522630246E+02  0.47896829019E+01  0.11648054454E+02  0.16411702598E+02  0.00000000000E+00 0.  1.
</event>
<event>
 7    1  0.3461631E-013  0.5930194E+02  0.7816164E-02  0.1266605E+00
        -11   -1    0    0    0    0  0.00000000000E+00  0.00000000000E+00  0.45593999997E+02  0.45594000000E+02  0.51100000000E-03 0. -1.
         11   -1    0    0    0    0 -0.00000000000E+00 -0.00000000000E+00 -0.45593999997E+02  0.45594000000E+02  0.51100000000E-03 0.  1.
    9900012    2    1    2    0    0  0.29932207649E+02  0.30794510170E+01 -0.10549907625E+02  0.59301943106E+02  0.49999998319E+02 0.  0.
         12    1    1    2    0    0 -0.29932207649E+02 -0.30794510170E+01  0.10549907625E+02  0.31886056894E+02  0.00000000000E+00 0. -1.
         11    1    3    3    0    0  0.74206000187E+01 -0.14255356902E+02  0.37670098108E+01  0.16506691619E+02  0.51100000000E-03 0. -1.
        -11    1    3    3    0    0  0.17838896245E+01  0.70434134044E+01 -0.17954672849E+02  0.19369104573E+02  0.51100000000E-03 0.  1.
         12    1    3    3    0    0  0.20727718006E+02  0.10291394515E+02  0.36377554131E+01  0.23426146914E+02  0.00000000000E+00 0. -1.
</event>
<event>
 7    1  0.3461631E-013  0.5930185E+02  0.7816164E-02  0.1266605E+00
        -11   -1    0    0    0    0  0.00000000000E+00  0.00000000000E+00  0.45593999997E+02  0.45594000000E+02  0.51100000000E-03 0.  1.
         11   -1    0    0    0    0 -0.00000000000E+00 -0.00000000000E+00 -0.45593999997E+02  0.45594000000E+02  0.51100000000E-03 0. -1.
    9900012    2    1    2    0    0  0.14135087894E+02 -0.13662047890E+02  0.25105268489E+02  0.59301846764E+02  0.49999822613E+02 0.  0.
         12    1    1    2    0    0 -0.14135087894E+02  0.13662047890E+02 -0.25105268489E+02  0.31886153236E+02  0.00000000000E+00 0. -1.
         11    1    3    3    0    0  0.17773197851E+02 -0.19336438785E+01  0.48099751889E+01  0.18513816519E+02  0.51100000000E-03 0. -1.
        -11    1    3    3    0    0  0.11589379278E+02 -0.90291836687E+01  0.20621549060E+02  0.25319718712E+02  0.51100000000E-03 0.  1.
        -12    1    3    3    0    0 -0.15227489235E+02 -0.26992203425E+01 -0.32625576056E+00  0.15468311533E+02  0.00000000000E+00 0.  1.
</event>
<event>
 7    1  0.3461631E-013  0.5930194E+02  0.7816164E-02  0.1266605E+00
        -11   -1    0    0    0    0  0.00000000000E+00  0.00000000000E+00  0.45593999997E+02  0.45594000000E+02  0.51100000000E-03 0.  1.
         11   -1    0    0    0    0 -0.00000000000E+00 -0.00000000000E+00 -0.45593999997E+02  0.45594000000E+02  0.51100000000E-03 0. -1.
    9900012    2    1    2    0    0 -0.14402278582E+02 -0.27848664389E+02 -0.58091967676E+01  0.59301944996E+02  0.50000001766E+02 0.  0.
         12    1    1    2    0    0  0.14402278582E+02  0.27848664389E+02  0.58091967676E+01  0.31886055004E+02  0.00000000000E+00 0. -1.
         11    1    3    3    0    0 -0.98798091556E+01 -0.16447660500E+02 -0.89657107025E+01  0.21178293924E+02  0.51100000000E-03 0. -1.
        -11    1    3    3    0    0 -0.16919909687E+02  0.47177127302E+01  0.13763721758E+00  0.17565850434E+02  0.51100000000E-03 0.  1.
         12    1    3    3    0    0  0.12397440260E+02 -0.16118716619E+02  0.30188767173E+01  0.20557800638E+02  0.00000000000E+00 0. -1.
</event>
<event>
 7    1  0.3461631E-013  0.5930196E+02  0.7816164E-02  0.1266605E+00
        -11   -1    0    0    0    0  0.00000000000E+00  0.00000000000E+00  0.45593999997E+02  0.45594000000E+02  0.51100000000E-03 0. -1.
         11   -1    0    0    0    0 -0.00000000000E+00 -0.00000000000E+00 -0.45593999997E+02  0.45594000000E+02  0.51100000000E-03 0.  1.
    9900012    2    1    2    0    0  0.14321793804E+02 -0.45543424753E+01 -0.28122296586E+02  0.59301962642E+02  0.50000033948E+02 0.  0.
         12    1    1    2    0    0 -0.14321793804E+02  0.45543424753E+01  0.28122296586E+02  0.31886037358E+02  0.00000000000E+00 0. -1.
         11    1    3    3    0    0  0.20904197491E+00  0.31133588669E+01 -0.13870180254E+02  0.14216842213E+02  0.51100000000E-03 0. -1.
        -11    1    3    3    0    0 -0.94605890364E+01  0.94073494563E+01 -0.19458879500E+01  0.13482857593E+02  0.51100000000E-03 0.  1.
        -12    1    3    3    0    0  0.23573340865E+02 -0.17075050798E+02 -0.12306228382E+02  0.31602262835E+02  0.00000000000E+00 0.  1.
</event>
<event>
 7    1  0.4205913E-013  0.5930199E+02  0.7816164E-02  0.1266605E+00
        -11   -1    0    0    0    0  0.00000000000E+00  0.00000000000E+00  0.45593999997E+02  0.45594000000E+02  0.51100000000E-03 0. -1.
         11   -1    0    0    0    0 -0.00000000000E+00 -0.00000000000E+00 -0.45593999997E+02  0.45594000000E+02  0.51100000000E-03 0.  1.
    9900012    2    1    2    0    0  0.95402870424E+01 -0.14850899951E+02 -0.26554685033E+02  0.59301990475E+02  0.50000084709E+02 0.  0.
         12    1    1    2    0    0 -0.95402870424E+01  0.14850899951E+02  0.26554685033E+02  0.31886009525E+02  0.00000000000E+00 0. -1.
         11    1    3    3    0    0 -0.12188142721E+01 -0.30373933649E+01  0.85986812774E+01  0.92004666542E+01  0.51100000000E-03 0. -1.
        -11    1    3    3    0    0  0.17918977751E+02 -0.13473436440E+02 -0.11230012762E+02  0.25074617446E+02  0.51100000000E-03 0.  1.
         12    1    3    3    0    0 -0.71598764370E+01  0.16599298539E+01 -0.23923353548E+02  0.25026906375E+02  0.00000000000E+00 0. -1.
</event>
<event>
 7    1  0.3461631E-013  0.5930186E+02  0.7816164E-02  0.1266605E+00
        -11   -1    0    0    0    0  0.00000000000E+00  0.00000000000E+00  0.45593999997E+02  0.45594000000E+02  0.51100000000E-03 0. -1.
         11   -1    0    0    0    0 -0.00000000000E+00 -0.00000000000E+00 -0.45593999997E+02  0.45594000000E+02  0.51100000000E-03 0.  1.
    9900012    2    1    2    0    0  0.12573577243E+02 -0.26740170614E+02 -0.11983095395E+02  0.59301856545E+02  0.49999840453E+02 0.  0.
         12    1    1    2    0    0 -0.12573577243E+02  0.26740170614E+02  0.11983095395E+02  0.31886143455E+02  0.00000000000E+00 0. -1.
         11    1    3    3    0    0  0.14897743209E+02 -0.23209334009E+02  0.54105693672E+01  0.28104985305E+02  0.51100000000E-03 0. -1.
        -11    1    3    3    0    0  0.72543085534E+01 -0.10810625069E+02 -0.12973981165E+02  0.18379847511E+02  0.51100000000E-03 0.  1.
        -12    1    3    3    0    0 -0.95784745199E+01  0.72797884634E+01 -0.44196835965E+01  0.12817023730E+02  0.00000000000E+00 0.  1.
</event>
<event>
 7    1  0.3461631E-013  0.5930194E+02  0.7816164E-02  0.1266605E+00
        -11   -1    0    0    0    0  0.00000000000E+00  0.00000000000E+00  0.45593999997E+02  0.45594000000E+02  0.51100000000E-03 0.  1.
         11   -1    0    0    0    0 -0.00000000000E+00 -0.00000000000E+00 -0.45593999997E+02  0.45594000000E+02  0.51100000000E-03 0. -1.
    9900012    2    1    2    0    0 -0.22925927149E+02  0.69436015132E+01 -0.21045399455E+02  0.59301943865E+02  0.49999999703E+02 0.  0.
         12    1    1    2    0    0  0.22925927149E+02 -0.69436015132E+01  0.21045399455E+02  0.31886056135E+02  0.00000000000E+00 0. -1.
         11    1    3    3    0    0  0.40037751772E+01 -0.14043606018E+02 -0.11303057179E+02  0.18466515305E+02  0.51100000000E-03 0. -1.
        -11    1    3    3    0    0  0.32454230391E+00  0.94216760462E+01 -0.55329623723E+01  0.10931010022E+02  0.51100000000E-03 0.  1.
        -12    1    3    3    0    0 -0.27254244630E+02  0.11565531485E+02 -0.42093799040E+01  0.29904418537E+02  0.00000000000E+00 0.  1.
</event>
<event>
 7    1  0.3461631E-013  0.5930194E+02  0.7816164E-02  0.1266605E+00
        -11   -1    0    0    0    0  0.00000000000E+00  0.00000000000E+00  0.45593999997E+02  0.45594000000E+02  0.51100000000E-03 0.  1.
         11   -1    0    0    0    0 -0.00000000000E+00 -0.00000000000E+00 -0.45593999997E+02  0.45594000000E+02  0.51100000000E-03 0. -1.
    9900012    2    1    2    0    0  0.22018155665E+02  0.80025887420E+01  0.21630543849E+02  0.59301936702E+02  0.49999986639E+02 0.  0.
         12    1    1    2    0    0 -0.22018155665E+02 -0.80025887420E+01 -0.21630543849E+02  0.31886063298E+02  0.00000000000E+00 0. -1.
         11    1    3    3    0    0 -0.27789567769E+01 -0.71721935712E+00 -0.27362183684E+01  0.39653367568E+01  0.51100000000E-03 0. -1.
        -11    1    3    3    0    0 -0.11364707349E+02  0.72697717087E+01  0.67845165267E+01  0.15100854896E+02  0.51100000000E-03 0.  1.
        -12    1    3    3    0    0  0.36161819791E+02  0.14500363905E+01  0.17582245691E+02  0.40235745049E+02  0.00000000000E+00 0.  1.
</event>
<event>
 7    1  0.3461631E-013  0.5930193E+02  0.7816164E-02  0.1266605E+00
        -11   -1    0    0    0    0  0.00000000000E+00  0.00000000000E+00  0.45593999997E+02  0.45594000000E+02  0.51100000000E-03 0.  1.
         11   -1    0    0    0    0 -0.00000000000E+00 -0.00000000000E+00 -0.45593999997E+02  0.45594000000E+02  0.51100000000E-03 0. -1.
    9900012    2    1    2    0    0  0.27524752222E+02  0.10244743311E+02  0.12415893357E+02  0.59301934732E+02  0.49999983047E+02 0.  0.
         12    1    1    2    0    0 -0.27524752222E+02 -0.10244743311E+02 -0.12415893357E+02  0.31886065268E+02  0.00000000000E+00 0. -1.
         11    1    3    3    0    0 -0.50441860695E+00  0.16007785673E+01  0.10491981800E+01  0.19793299964E+01  0.51100000000E-03 0. -1.
        -11    1    3    3    0    0  0.72368600235E+01  0.20432327590E+02 -0.11245702539E+02  0.24419622839E+02  0.51100000000E-03 0.  1.
         12    1    3    3    0    0  0.20792310806E+02 -0.11788362846E+02  0.22612397717E+02  0.32902981897E+02  0.00000000000E+00 0. -1.
</event>
<event>
 7    1  0.3461631E-013  0.5930196E+02  0.7816164E-02  0.1266605E+00
        -11   -1    0    0    0    0  0.00000000000E+00  0.00000000000E+00  0.45593999997E+02  0.45594000000E+02  0.51100000000E-03 0. -1.
         11   -1    0    0    0    0 -0.00000000000E+00 -0.00000000000E+00 -0.45593999997E+02  0.45594000000E+02  0.51100000000E-03 0.  1.
    9900012    2    1    2    0    0  0.77594928744E+01 -0.13177868524E+01 -0.30899407483E+02  0.59301957996E+02  0.50000025476E+02 0.  0.
         12    1    1    2    0    0 -0.77594928744E+01  0.13177868524E+01  0.30899407483E+02  0.31886042004E+02  0.00000000000E+00 0. -1.
         11    1    3    3    0    0  0.28226455205E+01 -0.22021160124E+01 -0.18714382065E+02  0.19053732941E+02  0.51100000000E-03 0. -1.
        -11    1    3    3    0    0 -0.96286328697E+01  0.14269075834E+02 -0.11006262305E+02  0.20431713249E+02  0.51100000000E-03 0.  1.
         12    1    3    3    0    0  0.14565480224E+02 -0.13384746674E+02 -0.11787631127E+01  0.19816511806E+02  0.00000000000E+00 0. -1.
</event>
<event>
 7    1  0.3461631E-013  0.5930203E+02  0.7816164E-02  0.1266604E+00
        -11   -1    0    0    0    0  0.00000000000E+00  0.00000000000E+00  0.45593999997E+02  0.45594000000E+02  0.51100000000E-03 0.  1.
         11   -1    0    0    0    0 -0.00000000000E+00 -0.00000000000E+00 -0.45593999997E+02  0.45594000000E+02  0.51100000000E-03 0. -1.
    9900012    2    1    2    0    0  0.96862055920E+01 -0.54703376100E+01  0.29882570911E+02  0.59302027903E+02  0.50000152968E+02 0.  0.
         12    1    1    2    0    0 -0.96862055920E+01  0.54703376100E+01 -0.29882570911E+02  0.31885972097E+02  0.00000000000E+00 0. -1.
         11    1    3    3    0    0  0.48722537500E+00  0.47512799586E+01 -0.73926474300E+01  0.88013229742E+01  0.51100000000E-03 0. -1.
        -11    1    3    3    0    0 -0.15613805677E+01 -0.33900094807E+01 -0.50604709470E+01  0.62879599254E+01  0.51100000000E-03 0.  1.
        -12    1    3    3    0    0  0.10760360785E+02 -0.68316080878E+01  0.42335689288E+02  0.44212745003E+02  0.00000000000E+00 0.  1.
</event>
<event>
 7    1  0.3461631E-013  0.5930194E+02  0.7816164E-02  0.1266605E+00
        -11   -1    0    0    0    0  0.00000000000E+00  0.00000000000E+00  0.45593999997E+02  0.45594000000E+02  0.51100000000E-03 0. -1.
         11   -1    0    0    0    0 -0.00000000000E+00 -0.00000000000E+00 -0.45593999997E+02  0.45594000000E+02  0.51100000000E-03 0.  1.
    9900012    2    1    2    0    0 -0.18070795112E+02  0.25630833517E+02  0.57643422320E+01  0.59301938717E+02  0.49999990315E+02 0.  0.
         12    1    1    2    0    0  0.18070795112E+02 -0.25630833517E+02 -0.57643422320E+01  0.31886061283E+02  0.00000000000E+00 0. -1.
         11    1    3    3    0    0  0.35747151906E+01 -0.64070101772E+01 -0.12111476147E+02  0.14160375095E+02  0.51100000000E-03 0. -1.
        -11    1    3    3    0    0 -0.11307947967E+01 -0.16493674127E+01  0.10731444872E+01  0.22695261809E+01  0.51100000000E-03 0.  1.
        -12    1    3    3    0    0 -0.20514715506E+02  0.33687211107E+02  0.16802673892E+02  0.42872037441E+02  0.00000000000E+00 0.  1.
</event>
<event>
 7    1  0.3461631E-013  0.5930194E+02  0.7816164E-02  0.1266605E+00
        -11   -1    0    0    0    0  0.00000000000E+00  0.00000000000E+00  0.45593999997E+02  0.45594000000E+02  0.51100000000E-03 0.  1.
         11   -1    0    0    0    0 -0.00000000000E+00 -0.00000000000E+00 -0.45593999997E+02  0.45594000000E+02  0.51100000000E-03 0. -1.
    9900012    2    1    2    0    0 -0.22156944254E+02 -0.14733575537E+02  0.17570222184E+02  0.59301935107E+02  0.49999983731E+02 0.  0.
         12    1    1    2    0    0  0.22156944254E+02  0.14733575537E+02 -0.17570222184E+02  0.31886064893E+02  0.00000000000E+00 0. -1.
         11    1    3    3    0    0  0.88744883575E+00  0.90621318992E+00 -0.39941998502E+00  0.13297835791E+01  0.51100000000E-03 0. -1.
        -11    1    3    3    0    0 -0.20949154062E+02 -0.21906997113E+01 -0.12575322714E+02  0.24531713409E+02  0.51100000000E-03 0.  1.
        -12    1    3    3    0    0 -0.20952390279E+01 -0.13449089015E+02  0.30544964883E+02  0.33440438119E+02  0.00000000000E+00 0.  1.
</event>
<event>
 7    1  0.3461631E-013  0.5930225E+02  0.7816164E-02  0.1266604E+00
        -11   -1    0    0    0    0  0.00000000000E+00  0.00000000000E+00  0.45593999997E+02  0.45594000000E+02  0.51100000000E-03 0.  1.
         11   -1    0    0    0    0 -0.00000000000E+00 -0.00000000000E+00 -0.45593999997E+02  0.45594000000E+02  0.51100000000E-03 0. -1.
    9900012    2    1    2    0    0 -0.31083267256E+02 -0.34472568493E+01  0.62167528607E+01  0.59302249276E+02  0.50000556696E+02 0.  0.
         12    1    1    2    0    0  0.31083267256E+02  0.34472568493E+01 -0.62167528607E+01  0.31885750724E+02  0.00000000000E+00 0. -1.
         11    1    3    3    0    0 -0.44776693970E+01 -0.67086034110E+01  0.48794750170E+01  0.94267788591E+01  0.51100000000E-03 0. -1.
        -11    1    3    3    0    0 -0.34574034163E+02 -0.81356709299E+01  0.39106118893E+01  0.35732980080E+02  0.51100000000E-03 0.  1.
         12    1    3    3    0    0  0.79684363034E+01  0.11397017492E+02 -0.25733340456E+01  0.14142490337E+02  0.00000000000E+00 0. -1.
</event>
<event>
 7    1  0.3461631E-013  0.5930188E+02  0.7816164E-02  0.1266605E+00
        -11   -1    0    0    0    0  0.00000000000E+00  0.00000000000E+00  0.45593999997E+02  0.45594000000E+02  0.51100000000E-03 0. -1.
         11   -1    0    0    0    0 -0.00000000000E+00 -0.00000000000E+00 -0.45593999997E+02  0.45594000000E+02  0.51100000000E-03 0.  1.
    9900012    2    1    2    0    0  0.11897357747E+02 -0.18449869643E+02 -0.23125302345E+02  0.59301883589E+02  0.49999889774E+02 0.  0.
         12    1    1    2    0    0 -0.11897357747E+02  0.18449869643E+02  0.23125302345E+02  0.31886116411E+02  0.00000000000E+00 0. -1.
         11    1    3    3    0    0  0.14143429746E+01 -0.23983783751E+01 -0.16642292330E+02  0.16873603028E+02  0.51100000000E-03 0.  1.
        -11    1    3    3    0    0  0.16874541771E+02  0.44076186484E+01  0.49579910320E+01  0.18131710826E+02  0.51100000000E-03 0. -1.
         12    1    3    3    0    0 -0.63915269981E+01 -0.20459109916E+02 -0.11441001047E+02  0.24296569735E+02  0.00000000000E+00 0. -1.
</event>
<event>
 7    1  0.3461631E-013  0.5930194E+02  0.7816164E-02  0.1266605E+00
        -11   -1    0    0    0    0  0.00000000000E+00  0.00000000000E+00  0.45593999997E+02  0.45594000000E+02  0.51100000000E-03 0. -1.
         11   -1    0    0    0    0 -0.00000000000E+00 -0.00000000000E+00 -0.45593999997E+02  0.45594000000E+02  0.51100000000E-03 0.  1.
    9900012    2    1    2    0    0  0.10106703148E+02 -0.24523153574E+02 -0.17697181652E+02  0.59301941163E+02  0.49999994776E+02 0.  0.
         12    1    1    2    0    0 -0.10106703148E+02  0.24523153574E+02  0.17697181652E+02  0.31886058837E+02  0.00000000000E+00 0. -1.
         11    1    3    3    0    0  0.82986686141E+01 -0.74664390490E+01 -0.10342894917E+01  0.11210948571E+02  0.51100000000E-03 0. -1.
        -11    1    3    3    0    0  0.72004432387E+01 -0.19876240536E+02  0.80642199227E+01  0.22626156631E+02  0.51100000000E-03 0.  1.
         12    1    3    3    0    0 -0.53924087049E+01  0.28195260112E+01 -0.24727112083E+02  0.25464835962E+02  0.00000000000E+00 0. -1.
</event>
<event>
 7    1  0.3461631E-013  0.5930194E+02  0.7816164E-02  0.1266605E+00
        -11   -1    0    0    0    0  0.00000000000E+00  0.00000000000E+00  0.45593999997E+02  0.45594000000E+02  0.51100000000E-03 0.  1.
         11   -1    0    0    0    0 -0.00000000000E+00 -0.00000000000E+00 -0.45593999997E+02  0.45594000000E+02  0.51100000000E-03 0. -1.
    9900012    2    1    2    0    0 -0.21748697190E+02 -0.53103801084E+01  0.22704946477E+02  0.59301944099E+02  0.50000000131E+02 0.  0.
         12    1    1    2    0    0  0.21748697190E+02  0.53103801084E+01 -0.22704946477E+02  0.31886055901E+02  0.00000000000E+00 0. -1.
         11    1    3    3    0    0 -0.22010771873E+02  0.97477061074E+01  0.10044835929E+02  0.26084297612E+02  0.51100000000E-03 0. -1.
        -11    1    3    3    0    0 -0.10800916622E+02 -0.15064286964E+02  0.12109026290E+02  0.22140936285E+02  0.51100000000E-03 0.  1.
         12    1    3    3    0    0  0.11062991305E+02  0.62007478960E-02  0.55108425752E+00  0.11076710203E+02  0.00000000000E+00 0. -1.
</event>
<event>
 7    1  0.3461631E-013  0.5930195E+02  0.7816164E-02  0.1266605E+00
        -11   -1    0    0    0    0  0.00000000000E+00  0.00000000000E+00  0.45593999997E+02  0.45594000000E+02  0.51100000000E-03 0.  1.
         11   -1    0    0    0    0 -0.00000000000E+00 -0.00000000000E+00 -0.45593999997E+02  0.45594000000E+02  0.51100000000E-03 0. -1.
    9900012    2    1    2    0    0 -0.20285445329E+02 -0.23583190397E+02 -0.70038603740E+01  0.59301949419E+02  0.50000009833E+02 0.  0.
         12    1    1    2    0    0  0.20285445329E+02  0.23583190397E+02  0.70038603740E+01  0.31886050581E+02  0.00000000000E+00 0. -1.
         11    1    3    3    0    0 -0.83685422078E+01 -0.97246218088E+01 -0.18491445905E+02  0.22506317778E+02  0.51100000000E-03 0. -1.
        -11    1    3    3    0    0  0.94106549913E+00 -0.15193705644E+02 -0.48367258621E+01  0.15972733417E+02  0.51100000000E-03 0.  1.
        -12    1    3    3    0    0 -0.12857968620E+02  0.13351370557E+01  0.16324311393E+02  0.20822898224E+02  0.00000000000E+00 0.  1.
</event>
<event>
 7    1  0.3461631E-013  0.5930194E+02  0.7816164E-02  0.1266605E+00
        -11   -1    0    0    0    0  0.00000000000E+00  0.00000000000E+00  0.45593999997E+02  0.45594000000E+02  0.51100000000E-03 0. -1.
         11   -1    0    0    0    0 -0.00000000000E+00 -0.00000000000E+00 -0.45593999997E+02  0.45594000000E+02  0.51100000000E-03 0.  1.
    9900012    2    1    2    0    0  0.15777523108E+02  0.24112266474E+02 -0.13652446140E+02  0.59301938538E+02  0.49999989989E+02 0.  0.
         12    1    1    2    0    0 -0.15777523108E+02 -0.24112266474E+02  0.13652446140E+02  0.31886061462E+02  0.00000000000E+00 0. -1.
         11    1    3    3    0    0 -0.30310670068E+01 -0.32919508649E+00  0.70734545914E+01  0.77025642952E+01  0.51100000000E-03 0. -1.
        -11    1    3    3    0    0  0.15742658481E+02  0.21850395403E+02  0.33974572988E+01  0.27144314168E+02  0.51100000000E-03 0.  1.
         12    1    3    3    0    0  0.30659316340E+01  0.25910661571E+01 -0.24123358030E+02  0.24455060075E+02  0.00000000000E+00 0. -1.
</event>
<event>
 7    1  0.3461631E-013  0.5930196E+02  0.7816164E-02  0.1266605E+00
        -11   -1    0    0    0    0  0.00000000000E+00  0.00000000000E+00  0.45593999997E+02  0.45594000000E+02  0.51100000000E-03 0.  1.
         11   -1    0    0    0    0 -0.00000000000E+00 -0.00000000000E+00 -0.45593999997E+02  0.45594000000E+02  0.51100000000E-03 0. -1.
    9900012    2    1    2    0    0 -0.22539944646E+02 -0.22544822595E+02  0.63352819490E+00  0.59301960916E+02  0.50000030800E+02 0.  0.
         12    1    1    2    0    0  0.22539944646E+02  0.22544822595E+02 -0.63352819490E+00  0.31886039084E+02  0.00000000000E+00 0. -1.
         11    1    3    3    0    0  0.10873423675E+02 -0.59246284343E+01 -0.21347934894E+01  0.12565425102E+02  0.51100000000E-03 0. -1.
        -11    1    3    3    0    0 -0.97255581819E+00  0.24868170375E+00  0.95039205727E+01  0.95567888918E+01  0.51100000000E-03 0.  1.
         12    1    3    3    0    0 -0.32440812503E+02 -0.16868875865E+02 -0.67355988883E+01  0.37179746922E+02  0.00000000000E+00 0. -1.
</event>
<event>
 7    1  0.3461631E-013  0.5930193E+02  0.7816164E-02  0.1266605E+00
        -11   -1    0    0    0    0  0.00000000000E+00  0.00000000000E+00  0.45593999997E+02  0.45594000000E+02  0.51100000000E-03 0. -1.
         11   -1    0    0    0    0 -0.00000000000E+00 -0.00000000000E+00 -0.45593999997E+02  0.45594000000E+02  0.51100000000E-03 0.  1.
    9900012    2    1    2    0    0  0.14528190254E+02 -0.25775710031E+02 -0.11885536815E+02  0.59301928981E+02  0.49999972558E+02 0.  0.
         12    1    1    2    0    0 -0.14528190254E+02  0.25775710031E+02  0.11885536815E+02  0.31886071019E+02  0.00000000000E+00 0. -1.
         11    1    3    3    0    0 -0.37574840236E+01 -0.15125000570E+01  0.30029963908E+01  0.50422544754E+01  0.51100000000E-03 0. -1.
        -11    1    3    3    0    0  0.77222236569E+01 -0.35189849764E+02 -0.15091504389E+02  0.39060360592E+02  0.51100000000E-03 0.  1.
        -12    1    3    3    0    0  0.10563450621E+02  0.10926639790E+02  0.20297118360E+00  0.15199313913E+02  0.00000000000E+00 0.  1.
</event>
<event>
 7    1  0.3461631E-013  0.5930188E+02  0.7816164E-02  0.1266605E+00
        -11   -1    0    0    0    0  0.00000000000E+00  0.00000000000E+00  0.45593999997E+02  0.45594000000E+02  0.51100000000E-03 0.  1.
         11   -1    0    0    0    0 -0.00000000000E+00 -0.00000000000E+00 -0.45593999997E+02  0.45594000000E+02  0.51100000000E-03 0. -1.
    9900012    2    1    2    0    0  0.17767507103E+02  0.26347985105E+02 -0.26122653230E+01  0.59301881423E+02  0.49999885824E+02 0.  0.
         12    1    1    2    0    0 -0.17767507103E+02 -0.26347985105E+02  0.26122653230E+01  0.31886118577E+02  0.00000000000E+00 0. -1.
         11    1    3    3    0    0  0.62394366511E+01 -0.72609268225E+01  0.78403818075E+01  0.12374296553E+02  0.51100000000E-03 0. -1.
        -11    1    3    3    0    0  0.11003469013E+02  0.70986828105E+01 -0.15122652800E+02  0.20004055988E+02  0.51100000000E-03 0.  1.
        -12    1    3    3    0    0  0.52460143881E+00  0.26510229117E+02  0.46700056699E+01  0.26923528882E+02  0.00000000000E+00 0.  1.
</event>
<event>
 7    1  0.3461631E-013  0.5930194E+02  0.7816164E-02  0.1266605E+00
        -11   -1    0    0    0    0  0.00000000000E+00  0.00000000000E+00  0.45593999997E+02  0.45594000000E+02  0.51100000000E-03 0. -1.
         11   -1    0    0    0    0 -0.00000000000E+00 -0.00000000000E+00 -0.45593999997E+02  0.45594000000E+02  0.51100000000E-03 0.  1.
    9900012    2    1    2    0    0  0.22530595395E+02  0.62024625601E+01 -0.21693839899E+02  0.59301937837E+02  0.49999988710E+02 0.  0.
         12    1    1    2    0    0 -0.22530595395E+02 -0.62024625601E+01  0.21693839899E+02  0.31886062163E+02  0.00000000000E+00 0. -1.
         11    1    3    3    0    0  0.69599009927E+01  0.18311666152E+02 -0.95786813940E+01  0.21806156851E+02  0.51100000000E-03 0. -1.
        -11    1    3    3    0    0  0.55069167783E+01  0.85834230341E+01  0.21503941143E+01  0.10422354748E+02  0.51100000000E-03 0.  1.
        -12    1    3    3    0    0  0.10063777624E+02 -0.20692626626E+02 -0.14265552619E+02  0.27073426239E+02  0.00000000000E+00 0.  1.
</event>
<event>
 7    1  0.3461631E-013  0.5930193E+02  0.7816164E-02  0.1266605E+00
        -11   -1    0    0    0    0  0.00000000000E+00  0.00000000000E+00  0.45593999997E+02  0.45594000000E+02  0.51100000000E-03 0. -1.
         11   -1    0    0    0    0 -0.00000000000E+00 -0.00000000000E+00 -0.45593999997E+02  0.45594000000E+02  0.51100000000E-03 0.  1.
    9900012    2    1    2    0    0 -0.30678494428E+02  0.42846897059E+01 -0.75625959530E+01  0.59301930255E+02  0.49999974882E+02 0.  0.
         12    1    1    2    0    0  0.30678494428E+02 -0.42846897059E+01  0.75625959530E+01  0.31886069745E+02  0.00000000000E+00 0. -1.
         11    1    3    3    0    0 -0.66851424561E+01  0.16893453027E+02 -0.45619491117E+01  0.18732091842E+02  0.51100000000E-03 0. -1.
        -11    1    3    3    0    0  0.49330517272E+00 -0.12398561417E+02 -0.90355996957E+01  0.15349584272E+02  0.51100000000E-03 0.  1.
         12    1    3    3    0    0 -0.24486657145E+02 -0.21020190428E+00  0.60349528543E+01  0.25220254141E+02  0.00000000000E+00 0. -1.
</event>
<event>
 7    1  0.3461631E-013  0.5930194E+02  0.7816164E-02  0.1266605E+00
        -11   -1    0    0    0    0  0.00000000000E+00  0.00000000000E+00  0.45593999997E+02  0.45594000000E+02  0.51100000000E-03 0. -1.
         11   -1    0    0    0    0 -0.00000000000E+00 -0.00000000000E+00 -0.45593999997E+02  0.45594000000E+02  0.51100000000E-03 0.  1.
    9900012    2    1    2    0    0  0.11593428708E+02  0.18974493748E+02 -0.22853488260E+02  0.59301938345E+02  0.49999989636E+02 0.  0.
         12    1    1    2    0    0 -0.11593428708E+02 -0.18974493748E+02  0.22853488260E+02  0.31886061655E+02  0.00000000000E+00 0. -1.
         11    1    3    3    0    0  0.32459246299E+01 -0.39311335518E+01  0.65501912888E+01  0.83002917952E+01  0.51100000000E-03 0. -1.
        -11    1    3    3    0    0 -0.10976320547E+02  0.55693864893E+01 -0.74222281867E+00  0.12330797768E+02  0.51100000000E-03 0.  1.
        -12    1    3    3    0    0  0.19323824626E+02  0.17336240810E+02 -0.28661456730E+02  0.38670848782E+02  0.00000000000E+00 0.  1.
</event>
<event>
 7    1  0.3461631E-013  0.5930194E+02  0.7816164E-02  0.1266605E+00
        -11   -1    0    0    0    0  0.00000000000E+00  0.00000000000E+00  0.45593999997E+02  0.45594000000E+02  0.51100000000E-03 0.  1.
         11   -1    0    0    0    0 -0.00000000000E+00 -0.00000000000E+00 -0.45593999997E+02  0.45594000000E+02  0.51100000000E-03 0. -1.
    9900012    2    1    2    0    0 -0.18268598187E+02  0.12212283993E+02  0.23104957950E+02  0.59301942829E+02  0.49999997813E+02 0.  0.
         12    1    1    2    0    0  0.18268598187E+02 -0.12212283993E+02 -0.23104957950E+02  0.31886057171E+02  0.00000000000E+00 0. -1.
         11    1    3    3    0    0  0.89328417761E+01  0.13392715984E+02  0.92494381020E+01  0.18566437706E+02  0.51100000000E-03 0. -1.
        -11    1    3    3    0    0 -0.47137072910E+01  0.11459729610E+02  0.30101032173E+01  0.12751672863E+02  0.51100000000E-03 0.  1.
        -12    1    3    3    0    0 -0.22487732672E+02 -0.12640161602E+02  0.10845416631E+02  0.27983832260E+02  0.00000000000E+00 0.  1.
</event>
<event>
 7    1  0.3461631E-013  0.5930194E+02  0.7816164E-02  0.1266605E+00
        -11   -1    0    0    0    0  0.00000000000E+00  0.00000000000E+00  0.45593999997E+02  0.45594000000E+02  0.51100000000E-03 0.  1.
         11   -1    0    0    0    0 -0.00000000000E+00 -0.00000000000E+00 -0.45593999997E+02  0.45594000000E+02  0.51100000000E-03 0. -1.
    9900012    2    1    2    0    0 -0.85005310556E+01  0.14322614936E+01  0.30698701246E+02  0.59301942554E+02  0.49999997313E+02 0.  0.
         12    1    1    2    0    0  0.85005310556E+01 -0.14322614936E+01 -0.30698701246E+02  0.31886057446E+02  0.00000000000E+00 0. -1.
         11    1    3    3    0    0  0.11295732703E+02  0.13960231267E+01  0.19955219360E+02  0.22972880486E+02  0.51100000000E-03 0. -1.
        -11    1    3    3    0    0 -0.74291327795E+01 -0.13887757660E+02  0.74253519587E+01  0.17412572431E+02  0.51100000000E-03 0.  1.
         12    1    3    3    0    0 -0.12367130979E+02  0.13923996027E+02  0.33181299279E+01  0.18916489638E+02  0.00000000000E+00 0. -1.
</event>
<event>
 7    1  0.3461631E-013  0.5930192E+02  0.7816164E-02  0.1266605E+00
        -11   -1    0    0    0    0  0.00000000000E+00  0.00000000000E+00  0.45593999997E+02  0.45594000000E+02  0.51100000000E-03 0. -1.
         11   -1    0    0    0    0 -0.00000000000E+00 -0.00000000000E+00 -0.45593999997E+02  0.45594000000E+02  0.51100000000E-03 0.  1.
    9900012    2    1    2    0    0 -0.18096731905E+02  0.61230709746E+01 -0.25529170028E+02  0.59301917988E+02  0.49999952509E+02 0.  0.
         12    1    1    2    0    0  0.18096731905E+02 -0.61230709746E+01  0.25529170028E+02  0.31886082012E+02  0.00000000000E+00 0. -1.
         11    1    3    3    0    0 -0.86525920869E+00  0.10734416688E+01 -0.20401340519E+02  0.20447876314E+02  0.51100000000E-03 0. -1.
        -11    1    3    3    0    0  0.48487517105E+01 -0.10075757435E+01 -0.13574525436E+02  0.14449683149E+02  0.51100000000E-03 0.  1.
         12    1    3    3    0    0 -0.22080224407E+02  0.60572050493E+01  0.84466959281E+01  0.24404358524E+02  0.00000000000E+00 0. -1.
</event>
<event>
 7    1  0.3461631E-013  0.5930194E+02  0.7816164E-02  0.1266605E+00
        -11   -1    0    0    0    0  0.00000000000E+00  0.00000000000E+00  0.45593999997E+02  0.45594000000E+02  0.51100000000E-03 0.  1.
         11   -1    0    0    0    0 -0.00000000000E+00 -0.00000000000E+00 -0.45593999997E+02  0.45594000000E+02  0.51100000000E-03 0. -1.
    9900012    2    1    2    0    0  0.21477263317E+02 -0.13117874712E+02  0.19579826703E+02  0.59301935798E+02  0.49999984992E+02 0.  0.
         12    1    1    2    0    0 -0.21477263317E+02  0.13117874712E+02 -0.19579826703E+02  0.31886064202E+02  0.00000000000E+00 0. -1.
         11    1    3    3    0    0 -0.29046726644E+01 -0.11931798109E+02 -0.38300892041E+01  0.12863689711E+02  0.51100000000E-03 0. -1.
        -11    1    3    3    0    0  0.22343827560E+02  0.10815075818E+02  0.66043853647E+01  0.25687164135E+02  0.51100000000E-03 0.  1.
         12    1    3    3    0    0  0.20381084205E+01 -0.12001152422E+02  0.16805530543E+02  0.20751081953E+02  0.00000000000E+00 0. -1.
</event>
<event>
 7    1  0.3461631E-013  0.5930186E+02  0.7816164E-02  0.1266605E+00
        -11   -1    0    0    0    0  0.00000000000E+00  0.00000000000E+00  0.45593999997E+02  0.45594000000E+02  0.51100000000E-03 0.  1.
         11   -1    0    0    0    0 -0.00000000000E+00 -0.00000000000E+00 -0.45593999997E+02  0.45594000000E+02  0.51100000000E-03 0. -1.
    9900012    2    1    2    0    0  0.30542823372E+02 -0.80448117757E+01  0.43752238472E+01  0.59301864459E+02  0.49999854886E+02 0.  0.
         12    1    1    2    0    0 -0.30542823372E+02  0.80448117757E+01 -0.43752238472E+01  0.31886135541E+02  0.00000000000E+00 0. -1.
         11    1    3    3    0    0  0.16767035194E+02  0.30286582470E+01 -0.91798681024E+01  0.19353971650E+02  0.51100000000E-03 0. -1.
        -11    1    3    3    0    0 -0.76067959426E+01 -0.10668009285E+02 -0.23294365155E+01  0.13307743662E+02  0.51100000000E-03 0.  1.
         12    1    3    3    0    0  0.21382584120E+02 -0.40546073746E+00  0.15884528465E+02  0.26640149148E+02  0.00000000000E+00 0. -1.
</event>
<event>
 7    1  0.3461631E-013  0.5930196E+02  0.7816164E-02  0.1266605E+00
        -11   -1    0    0    0    0  0.00000000000E+00  0.00000000000E+00  0.45593999997E+02  0.45594000000E+02  0.51100000000E-03 0.  1.
         11   -1    0    0    0    0 -0.00000000000E+00 -0.00000000000E+00 -0.45593999997E+02  0.45594000000E+02  0.51100000000E-03 0. -1.
    9900012    2    1    2    0    0  0.60857204568E+01 -0.27409790575E+02  0.15112471040E+02  0.59301962400E+02  0.50000033507E+02 0.  0.
         12    1    1    2    0    0 -0.60857204568E+01  0.27409790575E+02 -0.15112471040E+02  0.31886037600E+02  0.00000000000E+00 0. -1.
         11    1    3    3    0    0  0.18981959242E+02  0.38490619368E+01 -0.49022336926E+00  0.19374477378E+02  0.51100000000E-03 0. -1.
        -11    1    3    3    0    0 -0.31706066778E+00 -0.12229962812E+02  0.11420957672E+02  0.16736510755E+02  0.51100000000E-03 0.  1.
        -12    1    3    3    0    0 -0.12579178117E+02 -0.19028889700E+02  0.41817367368E+01  0.23190974267E+02  0.00000000000E+00 0.  1.
</event>
<event>
 7    1  0.3461631E-013  0.5930194E+02  0.7816164E-02  0.1266605E+00
        -11   -1    0    0    0    0  0.00000000000E+00  0.00000000000E+00  0.45593999997E+02  0.45594000000E+02  0.51100000000E-03 0.  1.
         11   -1    0    0    0    0 -0.00000000000E+00 -0.00000000000E+00 -0.45593999997E+02  0.45594000000E+02  0.51100000000E-03 0. -1.
    9900012    2    1    2    0    0 -0.18985428931E+02  0.15003352888E+02  0.20764721625E+02  0.59301940762E+02  0.49999994044E+02 0.  0.
         12    1    1    2    0    0  0.18985428931E+02 -0.15003352888E+02 -0.20764721625E+02  0.31886059238E+02  0.00000000000E+00 0. -1.
         11    1    3    3    0    0 -0.91430413450E+01  0.57103146692E+01 -0.23856415832E+01  0.11040569944E+02  0.51100000000E-03 0. -1.
        -11    1    3    3    0    0 -0.25041188808E+02  0.71382713863E+01  0.19366390754E+02  0.32451088524E+02  0.51100000000E-03 0.  1.
         12    1    3    3    0    0  0.15198801222E+02  0.21547668323E+01  0.37839724543E+01  0.15810282294E+02  0.00000000000E+00 0. -1.
</event>
<event>
 7    1  0.3461631E-013  0.5930197E+02  0.7816164E-02  0.1266605E+00
        -11   -1    0    0    0    0  0.00000000000E+00  0.00000000000E+00  0.45593999997E+02  0.45594000000E+02  0.51100000000E-03 0.  1.
         11   -1    0    0    0    0 -0.00000000000E+00 -0.00000000000E+00 -0.45593999997E+02  0.45594000000E+02  0.51100000000E-03 0. -1.
    9900012    2    1    2    0    0  0.31216531882E+02  0.27176255218E+01  0.59043935643E+01  0.59301965211E+02  0.50000038633E+02 0.  0.
         12    1    1    2    0    0 -0.31216531882E+02 -0.27176255218E+01 -0.59043935643E+01  0.31886034789E+02  0.00000000000E+00 0. -1.
         11    1    3    3    0    0  0.20479590126E+02  0.80334507505E+01 -0.88917990274E+01  0.23727916741E+02  0.51100000000E-03 0. -1.
        -11    1    3    3    0    0  0.52155472798E+01  0.46220153160E+01 -0.76896350453E+01  0.10377641659E+02  0.51100000000E-03 0.  1.
        -12    1    3    3    0    0  0.55213944759E+01 -0.99378405447E+01  0.22485827637E+02  0.25196406811E+02  0.00000000000E+00 0.  1.
</event>
<event>
 7    1  0.3461631E-013  0.5930196E+02  0.7816164E-02  0.1266605E+00
        -11   -1    0    0    0    0  0.00000000000E+00  0.00000000000E+00  0.45593999997E+02  0.45594000000E+02  0.51100000000E-03 0. -1.
         11   -1    0    0    0    0 -0.00000000000E+00 -0.00000000000E+00 -0.45593999997E+02  0.45594000000E+02  0.51100000000E-03 0.  1.
    9900012    2    1    2    0    0  0.15793464929E+02  0.14466309913E+02 -0.23622279677E+02  0.59301956751E+02  0.50000023204E+02 0.  0.
         12    1    1    2    0    0 -0.15793464929E+02 -0.14466309913E+02  0.23622279677E+02  0.31886043249E+02  0.00000000000E+00 0. -1.
         11    1    3    3    0    0  0.12813111873E+02 -0.10010449303E+02 -0.19528489245E+02  0.25411549019E+02  0.51100000000E-03 0. -1.
        -11    1    3    3    0    0  0.68421739313E+01  0.66130475484E+01 -0.10826000800E+02  0.14413536539E+02  0.51100000000E-03 0.  1.
        -12    1    3    3    0    0 -0.38618208749E+01  0.17863711668E+02  0.67322103673E+01  0.19476871193E+02  0.00000000000E+00 0.  1.
</event>
<event>
 7    1  0.3461631E-013  0.5930197E+02  0.7816164E-02  0.1266605E+00
        -11   -1    0    0    0    0  0.00000000000E+00  0.00000000000E+00  0.45593999997E+02  0.45594000000E+02  0.51100000000E-03 0.  1.
         11   -1    0    0    0    0 -0.00000000000E+00 -0.00000000000E+00 -0.45593999997E+02  0.45594000000E+02  0.51100000000E-03 0. -1.
    9900012    2    1    2    0    0  0.24459296679E+02 -0.13409515058E+02  0.15448197069E+02  0.59301967308E+02  0.50000042458E+02 0.  0.
         12    1    1    2    0    0 -0.24459296679E+02  0.13409515058E+02 -0.15448197069E+02  0.31886032692E+02  0.00000000000E+00 0. -1.
         11    1    3    3    0    0  0.11879763791E+02 -0.41291528274E+01 -0.89315321551E+01  0.15425659068E+02  0.51100000000E-03 0. -1.
        -11    1    3    3    0    0  0.25921787182E+01 -0.14714982784E+02 -0.20718306010E+01  0.15084514946E+02  0.51100000000E-03 0.  1.
        -12    1    3    3    0    0  0.99873541704E+01  0.54346205537E+01  0.26451559825E+02  0.28791793294E+02  0.00000000000E+00 0.  1.
</event>
<event>
 7    1  0.3461631E-013  0.5930194E+02  0.7816164E-02  0.1266605E+00
        -11   -1    0    0    0    0  0.00000000000E+00  0.00000000000E+00  0.45593999997E+02  0.45594000000E+02  0.51100000000E-03 0. -1.
         11   -1    0    0    0    0 -0.00000000000E+00 -0.00000000000E+00 -0.45593999997E+02  0.45594000000E+02  0.51100000000E-03 0.  1.
    9900012    2    1    2    0    0  0.17607173718E+02  0.26579908717E+02  0.46550763966E+00  0.59301940175E+02  0.49999992974E+02 0.  0.
         12    1    1    2    0    0 -0.17607173718E+02 -0.26579908717E+02 -0.46550763966E+00  0.31886059825E+02  0.00000000000E+00 0. -1.
         11    1    3    3    0    0  0.52587210298E+01  0.24526041060E+02  0.18235179950E+02  0.31011330591E+02  0.51100000000E-03 0. -1.
        -11    1    3    3    0    0  0.11136045648E+02 -0.51642736007E+01 -0.43841068678E+01  0.13034631862E+02  0.51100000000E-03 0.  1.
        -12    1    3    3    0    0  0.12124070410E+01  0.72181412577E+01 -0.13385565442E+02  0.15255977722E+02  0.00000000000E+00 0.  1.
</event>
<event>
 7    1  0.3461631E-013  0.5930193E+02  0.7816164E-02  0.1266605E+00
        -11   -1    0    0    0    0  0.00000000000E+00  0.00000000000E+00  0.45593999997E+02  0.45594000000E+02  0.51100000000E-03 0.  1.
         11   -1    0    0    0    0 -0.00000000000E+00 -0.00000000000E+00 -0.45593999997E+02  0.45594000000E+02  0.51100000000E-03 0. -1.
    9900012    2    1    2    0    0 -0.14447358017E+02 -0.27972920422E+02 -0.50508230452E+01  0.59301933387E+02  0.49999980594E+02 0.  0.
         12    1    1    2    0    0  0.14447358017E+02  0.27972920422E+02  0.50508230452E+01  0.31886066613E+02  0.00000000000E+00 0. -1.
         11    1    3    3    0    0  0.35019117823E+00 -0.24536837804E+01 -0.89751242420E+01  0.93110715482E+01  0.51100000000E-03 0. -1.
        -11    1    3    3    0    0 -0.24547697668E+02 -0.23097443293E+02 -0.77536737694E+01  0.34586136019E+02  0.51100000000E-03 0.  1.
         12    1    3    3    0    0  0.97501484736E+01 -0.24217933488E+01  0.11677974966E+02  0.15404725820E+02  0.00000000000E+00 0. -1.
</event>
<event>
 7    1  0.3461631E-013  0.5930192E+02  0.7816164E-02  0.1266605E+00
        -11   -1    0    0    0    0  0.00000000000E+00  0.00000000000E+00  0.45593999997E+02  0.45594000000E+02  0.51100000000E-03 0.  1.
         11   -1    0    0    0    0 -0.00000000000E+00 -0.00000000000E+00 -0.45593999997E+02  0.45594000000E+02  0.51100000000E-03 0. -1.
    9900012    2    1    2    0    0 -0.71435852130E+01 -0.29426604322E+02  0.99883011977E+01  0.59301921338E+02  0.49999958619E+02 0.  0.
         12    1    1    2    0    0  0.71435852130E+01  0.29426604322E+02 -0.99883011977E+01  0.31886078662E+02  0.00000000000E+00 0. -1.
         11    1    3    3    0    0 -0.73041022308E+01  0.44177502479E+01 -0.10904093028E+02  0.13847948284E+02  0.51100000000E-03 0. -1.
        -11    1    3    3    0    0  0.89601046259E+01 -0.58163196211E+01  0.31593508971E+01  0.11139773211E+02  0.51100000000E-03 0.  1.
         12    1    3    3    0    0 -0.87995876081E+01 -0.28028034949E+02  0.17733043328E+02  0.34314199843E+02  0.00000000000E+00 0. -1.
</event>
<event>
 7    1  0.3461631E-013  0.5930204E+02  0.7816164E-02  0.1266604E+00
        -11   -1    0    0    0    0  0.00000000000E+00  0.00000000000E+00  0.45593999997E+02  0.45594000000E+02  0.51100000000E-03 0. -1.
         11   -1    0    0    0    0 -0.00000000000E+00 -0.00000000000E+00 -0.45593999997E+02  0.45594000000E+02  0.51100000000E-03 0.  1.
    9900012    2    1    2    0    0 -0.52818693678E+00  0.68153306198E+01 -0.31144611764E+02  0.59302038279E+02  0.50000171892E+02 0.  0.
         12    1    1    2    0    0  0.52818693678E+00 -0.68153306198E+01  0.31144611764E+02  0.31885961721E+02  0.00000000000E+00 0. -1.
         11    1    3    3    0    0  0.24593062700E+01 -0.36068032055E+00  0.13498208855E+02  0.13725156472E+02  0.51100000000E-03 0. -1.
        -11    1    3    3    0    0 -0.35763299158E-01 -0.32587295938E+00 -0.15160975979E+00  0.36118967262E+00  0.51100000000E-03 0.  1.
        -12    1    3    3    0    0 -0.29517299076E+01  0.75018838998E+01 -0.44491210860E+02  0.45215692135E+02  0.00000000000E+00 0.  1.
</event>
<event>
 7    1  0.3461631E-013  0.5930197E+02  0.7816164E-02  0.1266605E+00
        -11   -1    0    0    0    0  0.00000000000E+00  0.00000000000E+00  0.45593999997E+02  0.45594000000E+02  0.51100000000E-03 0. -1.
         11   -1    0    0    0    0 -0.00000000000E+00 -0.00000000000E+00 -0.45593999997E+02  0.45594000000E+02  0.51100000000E-03 0.  1.
    9900012    2    1    2    0    0  0.12237570799E+02 -0.24746453878E+01 -0.29340027312E+02  0.59301965259E+02  0.50000038720E+02 0.  0.
         12    1    1    2    0    0 -0.12237570799E+02  0.24746453878E+01  0.29340027312E+02  0.31886034741E+02  0.00000000000E+00 0. -1.
         11    1    3    3    0    0  0.65245541863E+01 -0.94220051853E+01 -0.14036697755E+02  0.18121061590E+02  0.51100000000E-03 0. -1.
        -11    1    3    3    0    0 -0.35584669140E+01 -0.10909768806E+02  0.50711564367E+01  0.12546010124E+02  0.51100000000E-03 0.  1.
        -12    1    3    3    0    0  0.92714835262E+01  0.17857128603E+02 -0.20374485994E+02  0.28634893544E+02  0.00000000000E+00 0.  1.
</event>
<event>
 7    1  0.3461631E-013  0.5930187E+02  0.7816164E-02  0.1266605E+00
        -11   -1    0    0    0    0  0.00000000000E+00  0.00000000000E+00  0.45593999997E+02  0.45594000000E+02  0.51100000000E-03 0.  1.
         11   -1    0    0    0    0 -0.00000000000E+00 -0.00000000000E+00 -0.45593999997E+02  0.45594000000E+02  0.51100000000E-03 0. -1.
    9900012    2    1    2    0    0  0.14277526322E+02 -0.27763992102E+02 -0.64836753026E+01  0.59301873538E+02  0.49999871444E+02 0.  0.
         12    1    1    2    0    0 -0.14277526322E+02  0.27763992102E+02  0.64836753026E+01  0.31886126462E+02  0.00000000000E+00 0. -1.
         11    1    3    3    0    0  0.13136707395E+01 -0.48311268000E+01 -0.18955919857E+02  0.19605928054E+02  0.51100000000E-03 0. -1.
        -11    1    3    3    0    0  0.65810072513E+01 -0.11456785588E+01 -0.70801472522E+01  0.97339982112E+01  0.51100000000E-03 0.  1.
        -12    1    3    3    0    0  0.63828483312E+01 -0.21787186743E+02  0.19552391807E+02  0.29961947273E+02  0.00000000000E+00 0.  1.
</event>
<event>
 7    1  0.3461631E-013  0.5930207E+02  0.7816164E-02  0.1266604E+00
        -11   -1    0    0    0    0  0.00000000000E+00  0.00000000000E+00  0.45593999997E+02  0.45594000000E+02  0.51100000000E-03 0.  1.
         11   -1    0    0    0    0 -0.00000000000E+00 -0.00000000000E+00 -0.45593999997E+02  0.45594000000E+02  0.51100000000E-03 0. -1.
    9900012    2    1    2    0    0 -0.70958064599E+01  0.36254258368E+01  0.30874237832E+02  0.59302066683E+02  0.50000223693E+02 0.  0.
         12    1    1    2    0    0  0.70958064599E+01 -0.36254258368E+01 -0.30874237832E+02  0.31885933317E+02  0.00000000000E+00 0. -1.
         11    1    3    3    0    0  0.14232662503E+02  0.69609919960E+00  0.17712348505E+02  0.22732807259E+02  0.51100000000E-03 0. -1.
        -11    1    3    3    0    0 -0.24240289685E+00  0.10796804989E+02  0.81037634216E+01  0.13501879091E+02  0.51100000000E-03 0.  1.
        -12    1    3    3    0    0 -0.21086066067E+02 -0.78674783515E+01  0.50581259053E+01  0.23067380333E+02  0.00000000000E+00 0.  1.
</event>
<event>
 7    1  0.3461631E-013  0.5930196E+02  0.7816164E-02  0.1266605E+00
        -11   -1    0    0    0    0  0.00000000000E+00  0.00000000000E+00  0.45593999997E+02  0.45594000000E+02  0.51100000000E-03 0.  1.
         11   -1    0    0    0    0 -0.00000000000E+00 -0.00000000000E+00 -0.45593999997E+02  0.45594000000E+02  0.51100000000E-03 0. -1.
    9900012    2    1    2    0    0  0.22070958455E+02 -0.21950095183E+02 -0.69127249889E+01  0.59301958345E+02  0.50000026111E+02 0.  0.
         12    1    1    2    0    0 -0.22070958455E+02  0.21950095183E+02  0.69127249889E+01  0.31886041655E+02  0.00000000000E+00 0. -1.
         11    1    3    3    0    0  0.21533226478E+02 -0.14789817113E+02 -0.63383761086E+01  0.26881100140E+02  0.51100000000E-03 0.  1.
        -11    1    3    3    0    0 -0.94726680278E+01 -0.13169389395E+02  0.78515142856E+01  0.18022500754E+02  0.51100000000E-03 0. -1.
        -12    1    3    3    0    0  0.10010400005E+02  0.60091113253E+01 -0.84258631659E+01  0.14398357451E+02  0.00000000000E+00 0.  1.
</event>
<event>
 7    1  0.3461631E-013  0.5930197E+02  0.7816164E-02  0.1266605E+00
        -11   -1    0    0    0    0  0.00000000000E+00  0.00000000000E+00  0.45593999997E+02  0.45594000000E+02  0.51100000000E-03 0.  1.
         11   -1    0    0    0    0 -0.00000000000E+00 -0.00000000000E+00 -0.45593999997E+02  0.45594000000E+02  0.51100000000E-03 0. -1.
    9900012    2    1    2    0    0  0.20409312862E+02 -0.19220759986E+02  0.15190177991E+02  0.59301965858E+02  0.50000039812E+02 0.  0.
         12    1    1    2    0    0 -0.20409312862E+02  0.19220759986E+02 -0.15190177991E+02  0.31886034142E+02  0.00000000000E+00 0. -1.
         11    1    3    3    0    0  0.11181751524E+02  0.63879951747E+01 -0.38799191303E+01  0.13449603051E+02  0.51100000000E-03 0. -1.
        -11    1    3    3    0    0  0.25536252626E+01  0.74907984451E+01  0.30866239042E+01  0.84947225213E+01  0.51100000000E-03 0.  1.
         12    1    3    3    0    0  0.66739360755E+01 -0.33099553605E+02  0.15983473217E+02  0.37357640285E+02  0.00000000000E+00 0. -1.
</event>
<event>
 7    1  0.3461631E-013  0.5930197E+02  0.7816164E-02  0.1266605E+00
        -11   -1    0    0    0    0  0.00000000000E+00  0.00000000000E+00  0.45593999997E+02  0.45594000000E+02  0.51100000000E-03 0.  1.
         11   -1    0    0    0    0 -0.00000000000E+00 -0.00000000000E+00 -0.45593999997E+02  0.45594000000E+02  0.51100000000E-03 0. -1.
    9900012    2    1    2    0    0  0.22932462568E+02  0.87730524638E+01  0.20343417232E+02  0.59301969930E+02  0.50000047239E+02 0.  0.
         12    1    1    2    0    0 -0.22932462568E+02 -0.87730524638E+01 -0.20343417232E+02  0.31886030070E+02  0.00000000000E+00 0. -1.
         11    1    3    3    0    0 -0.54338273728E+01  0.13900361494E+02  0.13617214873E+02  0.20203343058E+02  0.51100000000E-03 0. -1.
        -11    1    3    3    0    0  0.32696948479E+01  0.15621597583E+01  0.12052338368E+02  0.12585313183E+02  0.51100000000E-03 0.  1.
         12    1    3    3    0    0  0.25096595093E+02 -0.66894687883E+01 -0.53261360095E+01  0.26513313688E+02  0.00000000000E+00 0. -1.
</event>
<event>
 7    1  0.3461631E-013  0.5930195E+02  0.7816164E-02  0.1266605E+00
        -11   -1    0    0    0    0  0.00000000000E+00  0.00000000000E+00  0.45593999997E+02  0.45594000000E+02  0.51100000000E-03 0.  1.
         11   -1    0    0    0    0 -0.00000000000E+00 -0.00000000000E+00 -0.45593999997E+02  0.45594000000E+02  0.51100000000E-03 0. -1.
    9900012    2    1    2    0    0  0.25529770618E+02  0.17381139480E+02  0.79276290082E+01  0.59301945069E+02  0.50000001898E+02 0.  0.
         12    1    1    2    0    0 -0.25529770618E+02 -0.17381139480E+02 -0.79276290082E+01  0.31886054931E+02  0.00000000000E+00 0. -1.
         11    1    3    3    0    0 -0.58260483423E+01  0.13244562292E+02  0.37531487504E+00  0.14474188444E+02  0.51100000000E-03 0. -1.
        -11    1    3    3    0    0 -0.14690702936E+01  0.37927152119E+01  0.11088727214E+02  0.11811127283E+02  0.51100000000E-03 0.  1.
        -12    1    3    3    0    0  0.32824889254E+02  0.34386197553E+00 -0.35364130812E+01  0.33016629341E+02  0.00000000000E+00 0.  1.
</event>
<event>
 7    1  0.3461631E-013  0.5930195E+02  0.7816164E-02  0.1266605E+00
        -11   -1    0    0    0    0  0.00000000000E+00  0.00000000000E+00  0.45593999997E+02  0.45594000000E+02  0.51100000000E-03 0. -1.
         11   -1    0    0    0    0 -0.00000000000E+00 -0.00000000000E+00 -0.45593999997E+02  0.45594000000E+02  0.51100000000E-03 0.  1.
    9900012    2    1    2    0    0 -0.19161936469E+01  0.25580602629E+02 -0.18938885812E+02  0.59301946234E+02  0.50000004024E+02 0.  0.
         12    1    1    2    0    0  0.19161936469E+01 -0.25580602629E+02  0.18938885812E+02  0.31886053766E+02  0.00000000000E+00 0. -1.
         11    1    3    3    0    0  0.87168352319E+01  0.88891732948E+01 -0.10817155596E+02  0.16492770349E+02  0.51100000000E-03 0. -1.
        -11    1    3    3    0    0  0.26285389637E+01  0.23557030407E+01 -0.19761653895E+02  0.20074399588E+02  0.51100000000E-03 0.  1.
         12    1    3    3    0    0 -0.13261567842E+02  0.14335726294E+02  0.11639923679E+02  0.22734776297E+02  0.00000000000E+00 0. -1.
</event>
<event>
 7    1  0.3461631E-013  0.5930188E+02  0.7816164E-02  0.1266605E+00
        -11   -1    0    0    0    0  0.00000000000E+00  0.00000000000E+00  0.45593999997E+02  0.45594000000E+02  0.51100000000E-03 0.  1.
         11   -1    0    0    0    0 -0.00000000000E+00 -0.00000000000E+00 -0.45593999997E+02  0.45594000000E+02  0.51100000000E-03 0. -1.
    9900012    2    1    2    0    0 -0.32211147553E+01 -0.36925437573E+01  0.31507369903E+02  0.59301877347E+02  0.49999878390E+02 0.  0.
         12    1    1    2    0    0  0.32211147553E+01  0.36925437573E+01 -0.31507369903E+02  0.31886122653E+02  0.00000000000E+00 0. -1.
         11    1    3    3    0    0 -0.11411743262E+02 -0.11994186780E+02  0.19797233817E+02  0.25807341356E+02  0.51100000000E-03 0. -1.
        -11    1    3    3    0    0  0.21250314793E+01 -0.94188637315E+01 -0.25119168406E+01  0.99769975070E+01  0.51100000000E-03 0.  1.
         12    1    3    3    0    0  0.60655970279E+01  0.17720506754E+02  0.14222052926E+02  0.23517538484E+02  0.00000000000E+00 0. -1.
</event>
<event>
 7    1  0.3461631E-013  0.5930194E+02  0.7816164E-02  0.1266605E+00
        -11   -1    0    0    0    0  0.00000000000E+00  0.00000000000E+00  0.45593999997E+02  0.45594000000E+02  0.51100000000E-03 0.  1.
         11   -1    0    0    0    0 -0.00000000000E+00 -0.00000000000E+00 -0.45593999997E+02  0.45594000000E+02  0.51100000000E-03 0. -1.
    9900012    2    1    2    0    0 -0.25913673366E+02  0.17742429816E+02  0.55144027843E+01  0.59301938450E+02  0.49999989828E+02 0.  0.
         12    1    1    2    0    0  0.25913673366E+02 -0.17742429816E+02 -0.55144027843E+01  0.31886061550E+02  0.00000000000E+00 0. -1.
         11    1    3    3    0    0 -0.12315413924E+01  0.13341637830E+02 -0.54987832706E+01  0.14482838531E+02  0.51100000000E-03 0. -1.
        -11    1    3    3    0    0 -0.21978916241E+02 -0.42905834117E+01 -0.79674047930E+01  0.23768916772E+02  0.51100000000E-03 0.  1.
         12    1    3    3    0    0 -0.27032157327E+01  0.86913753969E+01  0.18980590848E+02  0.21050183147E+02  0.00000000000E+00 0. -1.
</event>
<event>
 7    1  0.3461631E-013  0.5930195E+02  0.7816164E-02  0.1266605E+00
        -11   -1    0    0    0    0  0.00000000000E+00  0.00000000000E+00  0.45593999997E+02  0.45594000000E+02  0.51100000000E-03 0. -1.
         11   -1    0    0    0    0 -0.00000000000E+00 -0.00000000000E+00 -0.45593999997E+02  0.45594000000E+02  0.51100000000E-03 0.  1.
    9900012    2    1    2    0    0 -0.97762283996E+01 -0.29674303870E+02 -0.63703625107E+01  0.59301945519E+02  0.50000002719E+02 0.  0.
         12    1    1    2    0    0  0.97762283996E+01  0.29674303870E+02  0.63703625107E+01  0.31886054481E+02  0.00000000000E+00 0. -1.
         11    1    3    3    0    0 -0.94997759932E+01  0.39068073753E+01 -0.54292743554E+01  0.11618343603E+02  0.51100000000E-03 0. -1.
        -11    1    3    3    0    0 -0.50746491362E+01 -0.22864511772E+01  0.12195871663E+02  0.13405939307E+02  0.51100000000E-03 0.  1.
        -12    1    3    3    0    0  0.47981967299E+01 -0.31294660068E+02 -0.13136959818E+02  0.34277662608E+02  0.00000000000E+00 0.  1.
</event>
<event>
 7    1  0.3461631E-013  0.5930195E+02  0.7816164E-02  0.1266605E+00
        -11   -1    0    0    0    0  0.00000000000E+00  0.00000000000E+00  0.45593999997E+02  0.45594000000E+02  0.51100000000E-03 0.  1.
         11   -1    0    0    0    0 -0.00000000000E+00 -0.00000000000E+00 -0.45593999997E+02  0.45594000000E+02  0.51100000000E-03 0. -1.
    9900012    2    1    2    0    0 -0.23835564723E+02 -0.21175504255E+02  0.42899992933E+00  0.59301950275E+02  0.50000011394E+02 0.  0.
         12    1    1    2    0    0  0.23835564723E+02  0.21175504255E+02 -0.42899992933E+00  0.31886049725E+02  0.00000000000E+00 0. -1.
         11    1    3    3    0    0  0.60870326070E+00  0.13750444375E+01 -0.69675309553E+01  0.71279558598E+01  0.51100000000E-03 0. -1.
        -11    1    3    3    0    0 -0.83011997456E+01 -0.31205205229E+02  0.96929025252E+01  0.33713900845E+02  0.51100000000E-03 0.  1.
         12    1    3    3    0    0 -0.16143068238E+02  0.86546565365E+01 -0.22963716405E+01  0.18460093570E+02  0.00000000000E+00 0. -1.
</event>
<event>
 7    1  0.3461631E-013  0.5930194E+02  0.7816164E-02  0.1266605E+00
        -11   -1    0    0    0    0  0.00000000000E+00  0.00000000000E+00  0.45593999997E+02  0.45594000000E+02  0.51100000000E-03 0.  1.
         11   -1    0    0    0    0 -0.00000000000E+00 -0.00000000000E+00 -0.45593999997E+02  0.45594000000E+02  0.51100000000E-03 0. -1.
    9900012    2    1    2    0    0  0.13013871868E+02  0.28528611858E+02  0.57860635902E+01  0.59301935843E+02  0.49999985074E+02 0.  0.
         12    1    1    2    0    0 -0.13013871868E+02 -0.28528611858E+02 -0.57860635902E+01  0.31886064157E+02  0.00000000000E+00 0. -1.
         11    1    3    3    0    0  0.30662034006E+01  0.13009417425E+02 -0.35817062860E+00  0.13370670570E+02  0.51100000000E-03 0. -1.
        -11    1    3    3    0    0 -0.25449938655E+01  0.23221074804E+02  0.15945361794E+02  0.28283385085E+02  0.51100000000E-03 0.  1.
        -12    1    3    3    0    0  0.12492662333E+02 -0.77018803715E+01 -0.98011275751E+01  0.17647880189E+02  0.00000000000E+00 0.  1.
</event>
<event>
 7    1  0.3461631E-013  0.5930194E+02  0.7816164E-02  0.1266605E+00
        -11   -1    0    0    0    0  0.00000000000E+00  0.00000000000E+00  0.45593999997E+02  0.45594000000E+02  0.51100000000E-03 0. -1.
         11   -1    0    0    0    0 -0.00000000000E+00 -0.00000000000E+00 -0.45593999997E+02  0.45594000000E+02  0.51100000000E-03 0.  1.
    9900012    2    1    2    0    0  0.16731408049E+02  0.26887414731E+02  0.37212458844E+01  0.59301941022E+02  0.49999994518E+02 0.  0.
         12    1    1    2    0    0 -0.16731408049E+02 -0.26887414731E+02 -0.37212458844E+01  0.31886058978E+02  0.00000000000E+00 0. -1.
         11    1    3    3    0    0 -0.14583614270E+02  0.10359056958E+02  0.33762913804E+01  0.18204153646E+02  0.51100000000E-03 0. -1.
        -11    1    3    3    0    0  0.48955897659E+01  0.11437589002E+02 -0.54381166949E+01  0.13577862673E+02  0.51100000000E-03 0.  1.
        -12    1    3    3    0    0  0.26419432553E+02  0.50907687717E+01  0.57830711989E+01  0.27519924702E+02  0.00000000000E+00 0.  1.
</event>
<event>
 7    1  0.3461631E-013  0.5930195E+02  0.7816164E-02  0.1266605E+00
        -11   -1    0    0    0    0  0.00000000000E+00  0.00000000000E+00  0.45593999997E+02  0.45594000000E+02  0.51100000000E-03 0.  1.
         11   -1    0    0    0    0 -0.00000000000E+00 -0.00000000000E+00 -0.45593999997E+02  0.45594000000E+02  0.51100000000E-03 0. -1.
    9900012    2    1    2    0    0  0.17592354905E+02  0.26286612037E+02  0.40303283575E+01  0.59301945523E+02  0.50000002726E+02 0.  0.
         12    1    1    2    0    0 -0.17592354905E+02 -0.26286612037E+02 -0.40303283575E+01  0.31886054477E+02  0.00000000000E+00 0. -1.
         11    1    3    3    0    0 -0.56119985392E+01 -0.32665313643E+01 -0.16209288906E+01  0.66926949346E+01  0.51100000000E-03 0. -1.
        -11    1    3    3    0    0  0.73537062668E+00 -0.32091574624E+01 -0.95283332253E+01  0.10081100926E+02  0.51100000000E-03 0.  1.
        -12    1    3    3    0    0  0.22468982817E+02  0.32762300863E+02  0.15179590473E+02  0.42528149662E+02  0.00000000000E+00 0.  1.
</event>
<event>
 7    1  0.3461631E-013  0.5930195E+02  0.7816164E-02  0.1266605E+00
        -11   -1    0    0    0    0  0.00000000000E+00  0.00000000000E+00  0.45593999997E+02  0.45594000000E+02  0.51100000000E-03 0.  1.
         11   -1    0    0    0    0 -0.00000000000E+00 -0.00000000000E+00 -0.45593999997E+02  0.45594000000E+02  0.51100000000E-03 0. -1.
    9900012    2    1    2    0    0 -0.17774950993E+01 -0.30149749393E+02 -0.10225135824E+02  0.59301948505E+02  0.50000008166E+02 0.  0.
         12    1    1    2    0    0  0.17774950993E+01  0.30149749393E+02  0.10225135824E+02  0.31886051495E+02  0.00000000000E+00 0. -1.
         11    1    3    3    0    0  0.86463333781E+01 -0.21721523333E+01 -0.14056391690E+02  0.16645103612E+02  0.51100000000E-03 0. -1.
        -11    1    3    3    0    0  0.81108657871E+00 -0.28298956400E+02 -0.45003656894E+01  0.28666044135E+02  0.51100000000E-03 0.  1.
        -12    1    3    3    0    0 -0.11234915056E+02  0.32135934021E+00  0.83316215546E+01  0.13990800759E+02  0.00000000000E+00 0.  1.
</event>
<event>
 7    1  0.3461631E-013  0.5930195E+02  0.7816164E-02  0.1266605E+00
        -11   -1    0    0    0    0  0.00000000000E+00  0.00000000000E+00  0.45593999997E+02  0.45594000000E+02  0.51100000000E-03 0. -1.
         11   -1    0    0    0    0 -0.00000000000E+00 -0.00000000000E+00 -0.45593999997E+02  0.45594000000E+02  0.51100000000E-03 0.  1.
    9900012    2    1    2    0    0  0.68513583061E+01 -0.15729214859E+02 -0.26876963954E+02  0.59301945021E+02  0.50000001812E+02 0.  0.
         12    1    1    2    0    0 -0.68513583061E+01  0.15729214859E+02  0.26876963954E+02  0.31886054979E+02  0.00000000000E+00 0. -1.
         11    1    3    3    0    0  0.16928466210E+02 -0.48600761619E+01 -0.11536470874E+02  0.21054298113E+02  0.51100000000E-03 0. -1.
        -11    1    3    3    0    0 -0.10692036488E+02 -0.99378018713E+01 -0.24770598039E+02  0.28751731735E+02  0.51100000000E-03 0.  1.
         12    1    3    3    0    0  0.61492858362E+00 -0.93133682581E+00  0.94301049591E+01  0.94959151737E+01  0.00000000000E+00 0. -1.
</event>
<event>
 7    1  0.3461631E-013  0.5930218E+02  0.7816164E-02  0.1266604E+00
        -11   -1    0    0    0    0  0.00000000000E+00  0.00000000000E+00  0.45593999997E+02  0.45594000000E+02  0.51100000000E-03 0.  1.
         11   -1    0    0    0    0 -0.00000000000E+00 -0.00000000000E+00 -0.45593999997E+02  0.45594000000E+02  0.51100000000E-03 0. -1.
    9900012    2    1    2    0    0  0.31383830962E+02 -0.55761750003E+01  0.81672118043E+00  0.59302178591E+02  0.50000427785E+02 0.  0.
         12    1    1    2    0    0 -0.31383830962E+02  0.55761750003E+01 -0.81672118043E+00  0.31885821409E+02  0.00000000000E+00 0. -1.
         11    1    3    3    0    0  0.12847845407E+02  0.10175513202E+02  0.24578899644E+01  0.16572550313E+02  0.51100000000E-03 0. -1.
        -11    1    3    3    0    0  0.13038668575E+02  0.86070401797E+01  0.58126054259E+01  0.16669565110E+02  0.51100000000E-03 0.  1.
        -12    1    3    3    0    0  0.54973169801E+01 -0.24358728382E+02 -0.74537742099E+01  0.26060063168E+02  0.00000000000E+00 0.  1.
</event>
<event>
 7    1  0.3587396E-013  0.5930195E+02  0.7816164E-02  0.1266605E+00
        -11   -1    0    0    0    0  0.00000000000E+00  0.00000000000E+00  0.45593999997E+02  0.45594000000E+02  0.51100000000E-03 0. -1.
         11   -1    0    0    0    0 -0.00000000000E+00 -0.00000000000E+00 -0.45593999997E+02  0.45594000000E+02  0.51100000000E-03 0.  1.
    9900012    2    1    2    0    0 -0.76709569790E+01 -0.23057852988E+02 -0.20644896777E+02  0.59301954019E+02  0.50000018221E+02 0.  0.
         12    1    1    2    0    0  0.76709569790E+01  0.23057852988E+02  0.20644896777E+02  0.31886045981E+02  0.00000000000E+00 0. -1.
         11    1    3    3    0    0  0.10538070134E+02 -0.16116399915E+02 -0.89570901406E+01  0.21237201615E+02  0.51100000000E-03 0. -1.
        -11    1    3    3    0    0 -0.48062476573E+01 -0.10647808868E+02 -0.19037507571E+02  0.22336126455E+02  0.51100000000E-03 0.  1.
         12    1    3    3    0    0 -0.13402779456E+02  0.37063557950E+01  0.73497009345E+01  0.15728625949E+02  0.00000000000E+00 0. -1.
</event>
<event>
 7    1  0.3461631E-013  0.5930198E+02  0.7816164E-02  0.1266605E+00
        -11   -1    0    0    0    0  0.00000000000E+00  0.00000000000E+00  0.45593999997E+02  0.45594000000E+02  0.51100000000E-03 0.  1.
         11   -1    0    0    0    0 -0.00000000000E+00 -0.00000000000E+00 -0.45593999997E+02  0.45594000000E+02  0.51100000000E-03 0. -1.
    9900012    2    1    2    0    0  0.18630764809E+01  0.38288411170E+01  0.31600435109E+02  0.59301975203E+02  0.50000056857E+02 0.  0.
         12    1    1    2    0    0 -0.18630764809E+01 -0.38288411170E+01 -0.31600435109E+02  0.31886024797E+02  0.00000000000E+00 0. -1.
         11    1    3    3    0    0  0.13949871509E+02  0.64581366537E+00  0.44637492730E+00  0.13971944792E+02  0.51100000000E-03 0. -1.
        -11    1    3    3    0    0  0.31827332498E+01  0.26529747513E+01  0.29694012548E+02  0.29981701877E+02  0.51100000000E-03 0.  1.
         12    1    3    3    0    0 -0.15269528278E+02  0.53005270036E+00  0.14600476333E+01  0.15348328534E+02  0.00000000000E+00 0. -1.
</event>
<event>
 7    1  0.3461631E-013  0.5930200E+02  0.7816164E-02  0.1266605E+00
        -11   -1    0    0    0    0  0.00000000000E+00  0.00000000000E+00  0.45593999997E+02  0.45594000000E+02  0.51100000000E-03 0.  1.
         11   -1    0    0    0    0 -0.00000000000E+00 -0.00000000000E+00 -0.45593999997E+02  0.45594000000E+02  0.51100000000E-03 0. -1.
    9900012    2    1    2    0    0 -0.31811120358E+02  0.55917595383E+00  0.21111815163E+01  0.59301997686E+02  0.50000097860E+02 0.  0.
         12    1    1    2    0    0  0.31811120358E+02 -0.55917595383E+00 -0.21111815163E+01  0.31886002314E+02  0.00000000000E+00 0. -1.
         11    1    3    3    0    0 -0.16055963755E+02 -0.87780823934E+01  0.39850143956E+00  0.18303210273E+02  0.51100000000E-03 0. -1.
        -11    1    3    3    0    0 -0.13646790883E+02 -0.13869334016E+01  0.17227094164E+02  0.22021154812E+02  0.51100000000E-03 0.  1.
         12    1    3    3    0    0 -0.21083657195E+01  0.10724191749E+02 -0.15514414088E+02  0.18977632602E+02  0.00000000000E+00 0. -1.
</event>
<event>
 7    1  0.3461631E-013  0.5930170E+02  0.7816164E-02  0.1266606E+00
        -11   -1    0    0    0    0  0.00000000000E+00  0.00000000000E+00  0.45593999997E+02  0.45594000000E+02  0.51100000000E-03 0.  1.
         11   -1    0    0    0    0 -0.00000000000E+00 -0.00000000000E+00 -0.45593999997E+02  0.45594000000E+02  0.51100000000E-03 0. -1.
    9900012    2    1    2    0    0 -0.41327834073E+01  0.13480293115E+02  0.28599616156E+02  0.59301698154E+02  0.49999551583E+02 0.  0.
         12    1    1    2    0    0  0.41327834073E+01 -0.13480293115E+02 -0.28599616156E+02  0.31886301846E+02  0.00000000000E+00 0. -1.
         11    1    3    3    0    0  0.16548022240E+01 -0.67866075758E+01 -0.43766301640E+00  0.69991400876E+01  0.51100000000E-03 0. -1.
        -11    1    3    3    0    0  0.95583752903E+01 -0.60586741806E+01  0.18534352073E+01  0.11467575740E+02  0.51100000000E-03 0.  1.
         12    1    3    3    0    0 -0.15345960922E+02  0.26325574871E+02  0.27183843965E+02  0.40834982327E+02  0.00000000000E+00 0. -1.
</event>
<event>
 7    1  0.3461631E-013  0.5930195E+02  0.7816164E-02  0.1266605E+00
        -11   -1    0    0    0    0  0.00000000000E+00  0.00000000000E+00  0.45593999997E+02  0.45594000000E+02  0.51100000000E-03 0.  1.
         11   -1    0    0    0    0 -0.00000000000E+00 -0.00000000000E+00 -0.45593999997E+02  0.45594000000E+02  0.51100000000E-03 0. -1.
    9900012    2    1    2    0    0 -0.11618855180E+01  0.14160438002E+02  0.28545616817E+02  0.59301949417E+02  0.50000009828E+02 0.  0.
         12    1    1    2    0    0  0.11618855180E+01 -0.14160438002E+02 -0.28545616817E+02  0.31886050583E+02  0.00000000000E+00 0. -1.
         11    1    3    3    0    0 -0.62043885741E+01  0.53537663077E+01  0.55535886882E+01  0.98994746747E+01  0.51100000000E-03 0. -1.
        -11    1    3    3    0    0 -0.17420070105E+02  0.44640819755E+01  0.19031561031E+02  0.26183719863E+02  0.51100000000E-03 0.  1.
        -12    1    3    3    0    0  0.22462573161E+02  0.43425897189E+01  0.39604670976E+01  0.23218754879E+02  0.00000000000E+00 0.  1.
</event>
<event>
 7    1  0.3461631E-013  0.5930233E+02  0.7816164E-02  0.1266603E+00
        -11   -1    0    0    0    0  0.00000000000E+00  0.00000000000E+00  0.45593999997E+02  0.45594000000E+02  0.51100000000E-03 0. -1.
         11   -1    0    0    0    0 -0.00000000000E+00 -0.00000000000E+00 -0.45593999997E+02  0.45594000000E+02  0.51100000000E-03 0.  1.
    9900012    2    1    2    0    0  0.19044773967E+02  0.97151759081E+01 -0.23656031713E+02  0.59302330887E+02  0.50000705533E+02 0.  0.
         12    1    1    2    0    0 -0.19044773967E+02 -0.97151759081E+01  0.23656031713E+02  0.31885669113E+02  0.00000000000E+00 0. -1.
         11    1    3    3    0    0 -0.55585589885E+00 -0.14298204934E+02 -0.19007154022E+02  0.23791165259E+02  0.51100000000E-03 0. -1.
        -11    1    3    3    0    0  0.40802909274E+01  0.21793261078E+01 -0.72467536347E+01  0.85973062549E+01  0.51100000000E-03 0.  1.
         12    1    3    3    0    0  0.15520338939E+02  0.21834054734E+02  0.25978759440E+01  0.26913859372E+02  0.00000000000E+00 0. -1.
</event>
<event>
 7    1  0.3461631E-013  0.5930189E+02  0.7816164E-02  0.1266605E+00
        -11   -1    0    0    0    0  0.00000000000E+00  0.00000000000E+00  0.45593999997E+02  0.45594000000E+02  0.51100000000E-03 0.  1.
         11   -1    0    0    0    0 -0.00000000000E+00 -0.00000000000E+00 -0.45593999997E+02  0.45594000000E+02  0.51100000000E-03 0. -1.
    9900012    2    1    2    0    0  0.22718613109E+02  0.41408485726E+01  0.21987318979E+02  0.59301886967E+02  0.49999895935E+02 0.  0.
         12    1    1    2    0    0 -0.22718613109E+02 -0.41408485726E+01 -0.21987318979E+02  0.31886113033E+02  0.00000000000E+00 0. -1.
         11    1    3    3    0    0  0.26061927007E+00  0.24622680326E+01  0.46302619031E+01  0.52507153627E+01  0.51100000000E-03 0. -1.
        -11    1    3    3    0    0  0.78008925127E+01 -0.17049575815E+02  0.22935399708E+02  0.29623884275E+02  0.51100000000E-03 0.  1.
         12    1    3    3    0    0  0.14657101326E+02  0.18728156355E+02 -0.55783426328E+01  0.24427287330E+02  0.00000000000E+00 0. -1.
</event>
<event>
 7    1  0.3461631E-013  0.5930191E+02  0.7816164E-02  0.1266605E+00
        -11   -1    0    0    0    0  0.00000000000E+00  0.00000000000E+00  0.45593999997E+02  0.45594000000E+02  0.51100000000E-03 0. -1.
         11   -1    0    0    0    0 -0.00000000000E+00 -0.00000000000E+00 -0.45593999997E+02  0.45594000000E+02  0.51100000000E-03 0.  1.
    9900012    2    1    2    0    0 -0.24472934233E+02 -0.19505453253E+02 -0.61102873682E+01  0.59301908545E+02  0.49999935288E+02 0.  0.
         12    1    1    2    0    0  0.24472934233E+02  0.19505453253E+02  0.61102873682E+01  0.31886091455E+02  0.00000000000E+00 0. -1.
         11    1    3    3    0    0  0.10366705036E+02  0.79949631055E+00 -0.13420674501E+02  0.16977110236E+02  0.51100000000E-03 0. -1.
        -11    1    3    3    0    0 -0.21029419650E+01 -0.11746490067E+01 -0.21688998115E+01  0.32413410574E+01  0.51100000000E-03 0.  1.
         12    1    3    3    0    0 -0.32736697304E+02 -0.19130300557E+02  0.94792869439E+01  0.39083457251E+02  0.00000000000E+00 0. -1.
</event>
<event>
 7    1  0.3461631E-013  0.5930189E+02  0.7816164E-02  0.1266605E+00
        -11   -1    0    0    0    0  0.00000000000E+00  0.00000000000E+00  0.45593999997E+02  0.45594000000E+02  0.51100000000E-03 0.  1.
         11   -1    0    0    0    0 -0.00000000000E+00 -0.00000000000E+00 -0.45593999997E+02  0.45594000000E+02  0.51100000000E-03 0. -1.
    9900012    2    1    2    0    0 -0.27592557763E+02  0.62506579518E+01  0.14707272214E+02  0.59301892920E+02  0.49999906791E+02 0.  0.
         12    1    1    2    0    0  0.27592557763E+02 -0.62506579518E+01 -0.14707272214E+02  0.31886107080E+02  0.00000000000E+00 0. -1.
         11    1    3    3    0    0 -0.32666583489E+02  0.12284738635E+02  0.16153318713E+01  0.34937512469E+02  0.51100000000E-03 0. -1.
        -11    1    3    3    0    0  0.58633628383E+01 -0.77921558731E+01 -0.13053071129E+01  0.98387267390E+01  0.51100000000E-03 0.  1.
         12    1    3    3    0    0 -0.78933711212E+00  0.17580751899E+01  0.14397247456E+02  0.14525653712E+02  0.00000000000E+00 0. -1.
</event>
<event>
 7    1  0.3461631E-013  0.5930202E+02  0.7816164E-02  0.1266604E+00
        -11   -1    0    0    0    0  0.00000000000E+00  0.00000000000E+00  0.45593999997E+02  0.45594000000E+02  0.51100000000E-03 0. -1.
         11   -1    0    0    0    0 -0.00000000000E+00 -0.00000000000E+00 -0.45593999997E+02  0.45594000000E+02  0.51100000000E-03 0.  1.
    9900012    2    1    2    0    0  0.18393956988E+02 -0.17240894588E+02 -0.19522537112E+02  0.59302022594E+02  0.50000143285E+02 0.  0.
         12    1    1    2    0    0 -0.18393956988E+02  0.17240894588E+02  0.19522537112E+02  0.31885977406E+02  0.00000000000E+00 0. -1.
         11    1    3    3    0    0  0.15931066402E+02 -0.90252757217E+01  0.15544708951E+01  0.18375822664E+02  0.51100000000E-03 0. -1.
        -11    1    3    3    0    0  0.59064961453E+01 -0.19576460690E+02 -0.51947967951E+01  0.21097640244E+02  0.51100000000E-03 0.  1.
        -12    1    3    3    0    0 -0.34436055591E+01  0.11360841824E+02 -0.15882211212E+02  0.19828559685E+02  0.00000000000E+00 0.  1.
</event>
<event>
 7    1  0.3461631E-013  0.5930193E+02  0.7816164E-02  0.1266605E+00
        -11   -1    0    0    0    0  0.00000000000E+00  0.00000000000E+00  0.45593999997E+02  0.45594000000E+02  0.51100000000E-03 0. -1.
         11   -1    0    0    0    0 -0.00000000000E+00 -0.00000000000E+00 -0.45593999997E+02  0.45594000000E+02  0.51100000000E-03 0.  1.
    9900012    2    1    2    0    0 -0.19351444195E+02  0.78022901219E+01 -0.24111563721E+02  0.59301927356E+02  0.49999969595E+02 0.  0.
         12    1    1    2    0    0  0.19351444195E+02 -0.78022901219E+01  0.24111563721E+02  0.31886072644E+02  0.00000000000E+00 0. -1.
         11    1    3    3    0    0 -0.14492565124E+02 -0.61780991644E+01  0.62960582582E+01  0.16965957179E+02  0.51100000000E-03 0. -1.
        -11    1    3    3    0    0 -0.11404268741E+02  0.79442409595E+01 -0.39924596610E+01  0.14460568604E+02  0.51100000000E-03 0.  1.
        -12    1    3    3    0    0  0.65453896703E+01  0.60361483268E+01 -0.26415162318E+02  0.27875401573E+02  0.00000000000E+00 0.  1.
</event>
<event>
 7    1  0.3461631E-013  0.5930194E+02  0.7816164E-02  0.1266605E+00
        -11   -1    0    0    0    0  0.00000000000E+00  0.00000000000E+00  0.45593999997E+02  0.45594000000E+02  0.51100000000E-03 0.  1.
         11   -1    0    0    0    0 -0.00000000000E+00 -0.00000000000E+00 -0.45593999997E+02  0.45594000000E+02  0.51100000000E-03 0. -1.
    9900012    2    1    2    0    0  0.25700420068E+02  0.18217034890E+02 -0.49344294270E+01  0.59301944339E+02  0.50000000567E+02 0.  0.
         12    1    1    2    0    0 -0.25700420068E+02 -0.18217034890E+02  0.49344294270E+01  0.31886055661E+02  0.00000000000E+00 0. -1.
         11    1    3    3    0    0  0.86114269525E+01 -0.36918434658E+01 -0.20531532514E+01  0.95917579655E+01  0.51100000000E-03 0. -1.
        -11    1    3    3    0    0  0.17751538926E+02  0.10355666756E+02 -0.20242017431E+02  0.28846078384E+02  0.51100000000E-03 0.  1.
        -12    1    3    3    0    0 -0.66254581054E+00  0.11553211600E+02  0.17360741256E+02  0.20864107989E+02  0.00000000000E+00 0.  1.
</event>
<event>
 7    1  0.3461631E-013  0.5930196E+02  0.7816164E-02  0.1266605E+00
        -11   -1    0    0    0    0  0.00000000000E+00  0.00000000000E+00  0.45593999997E+02  0.45594000000E+02  0.51100000000E-03 0. -1.
         11   -1    0    0    0    0 -0.00000000000E+00 -0.00000000000E+00 -0.45593999997E+02  0.45594000000E+02  0.51100000000E-03 0.  1.
    9900012    2    1    2    0    0  0.50933151049E+01  0.12684500572E+01 -0.31451057486E+02  0.59301955384E+02  0.50000020710E+02 0.  0.
         12    1    1    2    0    0 -0.50933151049E+01 -0.12684500572E+01  0.31451057486E+02  0.31886044616E+02  0.00000000000E+00 0. -1.
         11    1    3    3    0    0 -0.16069028384E+02 -0.46406266113E+01 -0.40029843692E+01  0.17198051421E+02  0.51100000000E-03 0. -1.
        -11    1    3    3    0    0 -0.47277905329E+01  0.33268410536E+01 -0.36055491612E+01  0.68132121451E+01  0.51100000000E-03 0.  1.
        -12    1    3    3    0    0  0.25890134022E+02  0.25822356149E+01 -0.23842523955E+02  0.35290691818E+02  0.00000000000E+00 0.  1.
</event>
<event>
 7    1  0.3461631E-013  0.5930191E+02  0.7816164E-02  0.1266605E+00
        -11   -1    0    0    0    0  0.00000000000E+00  0.00000000000E+00  0.45593999997E+02  0.45594000000E+02  0.51100000000E-03 0.  1.
         11   -1    0    0    0    0 -0.00000000000E+00 -0.00000000000E+00 -0.45593999997E+02  0.45594000000E+02  0.51100000000E-03 0. -1.
    9900012    2    1    2    0    0  0.30737719790E+02  0.32853964577E+01  0.78180154372E+01  0.59301911919E+02  0.49999941441E+02 0.  0.
         12    1    1    2    0    0 -0.30737719790E+02 -0.32853964577E+01 -0.78180154372E+01  0.31886088081E+02  0.00000000000E+00 0. -1.
         11    1    3    3    0    0  0.31705964499E+01 -0.59545533143E+01  0.43239255202E+01  0.80128471336E+01  0.51100000000E-03 0. -1.
        -11    1    3    3    0    0  0.21814631857E+01 -0.14060972599E+02  0.83378897647E+01  0.16492123515E+02  0.51100000000E-03 0.  1.
         12    1    3    3    0    0  0.25385660154E+02  0.23300922371E+02 -0.48437998477E+01  0.34796941270E+02  0.00000000000E+00 0. -1.
</event>
<event>
 7    1  0.3461631E-013  0.5930196E+02  0.7816164E-02  0.1266605E+00
        -11   -1    0    0    0    0  0.00000000000E+00  0.00000000000E+00  0.45593999997E+02  0.45594000000E+02  0.51100000000E-03 0. -1.
         11   -1    0    0    0    0 -0.00000000000E+00 -0.00000000000E+00 -0.45593999997E+02  0.45594000000E+02  0.51100000000E-03 0.  1.
    9900012    2    1    2    0    0  0.16450151624E+02 -0.14189076922E+02 -0.23340567187E+02  0.59301961221E+02  0.50000031357E+02 0.  0.
         12    1    1    2    0    0 -0.16450151624E+02  0.14189076922E+02  0.23340567187E+02  0.31886038779E+02  0.00000000000E+00 0. -1.
         11    1    3    3    0    0  0.19205025584E+02 -0.10848058553E+02 -0.78570117521E+00  0.22071037779E+02  0.51100000000E-03 0.  1.
        -11    1    3    3    0    0  0.11198014277E+02 -0.37284689656E+01 -0.13987284801E+01  0.11885009306E+02  0.51100000000E-03 0. -1.
         12    1    3    3    0    0 -0.13952888237E+02  0.38745059727E+00 -0.21156137532E+02  0.25345914136E+02  0.00000000000E+00 0. -1.
</event>
<event>
 7    1  0.3461631E-013  0.5930196E+02  0.7816164E-02  0.1266605E+00
        -11   -1    0    0    0    0  0.00000000000E+00  0.00000000000E+00  0.45593999997E+02  0.45594000000E+02  0.51100000000E-03 0.  1.
         11   -1    0    0    0    0 -0.00000000000E+00 -0.00000000000E+00 -0.45593999997E+02  0.45594000000E+02  0.51100000000E-03 0. -1.
    9900012    2    1    2    0    0  0.16449596720E+02  0.25841956944E+02 -0.88500658114E+01  0.59301958606E+02  0.50000026587E+02 0.  0.
         12    1    1    2    0    0 -0.16449596720E+02 -0.25841956944E+02  0.88500658114E+01  0.31886041394E+02  0.00000000000E+00 0. -1.
         11    1    3    3    0    0  0.15810748920E+02 -0.82240482655E+01 -0.23126818423E+01  0.17971178283E+02  0.51100000000E-03 0. -1.
        -11    1    3    3    0    0  0.21832309564E+01 -0.17956624257E+01  0.30691583215E+01  0.41726051838E+01  0.51100000000E-03 0.  1.
        -12    1    3    3    0    0 -0.15443831569E+01  0.35861667635E+02 -0.96065422906E+01  0.37158175139E+02  0.00000000000E+00 0.  1.
</event>
<event>
 7    1  0.3461631E-013  0.5930193E+02  0.7816164E-02  0.1266605E+00
        -11   -1    0    0    0    0  0.00000000000E+00  0.00000000000E+00  0.45593999997E+02  0.45594000000E+02  0.51100000000E-03 0. -1.
         11   -1    0    0    0    0 -0.00000000000E+00 -0.00000000000E+00 -0.45593999997E+02  0.45594000000E+02  0.51100000000E-03 0.  1.
    9900012    2    1    2    0    0 -0.28596519067E+02  0.13991006188E+02 -0.17923566365E+01  0.59301926249E+02  0.49999967577E+02 0.  0.
         12    1    1    2    0    0  0.28596519067E+02 -0.13991006188E+02  0.17923566365E+01  0.31886073751E+02  0.00000000000E+00 0. -1.
         11    1    3    3    0    0 -0.23763970986E+02 -0.12247099227E+02 -0.76450869270E+01  0.27805846704E+02  0.51100000000E-03 0. -1.
        -11    1    3    3    0    0 -0.58103384434E+01  0.38338118923E+01  0.58150245598E+01  0.90704276274E+01  0.51100000000E-03 0.  1.
        -12    1    3    3    0    0  0.97779036219E+00  0.22404293523E+02  0.37705730773E-01  0.22425651919E+02  0.00000000000E+00 0.  1.
</event>
<event>
 7    1  0.3461631E-013  0.5930193E+02  0.7816164E-02  0.1266605E+00
        -11   -1    0    0    0    0  0.00000000000E+00  0.00000000000E+00  0.45593999997E+02  0.45594000000E+02  0.51100000000E-03 0.  1.
         11   -1    0    0    0    0 -0.00000000000E+00 -0.00000000000E+00 -0.45593999997E+02  0.45594000000E+02  0.51100000000E-03 0. -1.
    9900012    2    1    2    0    0  0.67575037453E+01 -0.10375645579E+01  0.31144523971E+02  0.59301925133E+02  0.49999965540E+02 0.  0.
         12    1    1    2    0    0 -0.67575037453E+01  0.10375645579E+01 -0.31144523971E+02  0.31886074867E+02  0.00000000000E+00 0. -1.
         11    1    3    3    0    0  0.82507722258E+01 -0.53776108716E+01 -0.34103198939E+01  0.10422294519E+02  0.51100000000E-03 0. -1.
        -11    1    3    3    0    0 -0.12209267114E+01 -0.17843791468E+01 -0.67677700547E+01  0.71047436793E+01  0.51100000000E-03 0.  1.
        -12    1    3    3    0    0 -0.27234176900E+00  0.61244254604E+01  0.41322613919E+02  0.41774886934E+02  0.00000000000E+00 0.  1.
</event>
<event>
 7    1  0.3461631E-013  0.5930194E+02  0.7816164E-02  0.1266605E+00
        -11   -1    0    0    0    0  0.00000000000E+00  0.00000000000E+00  0.45593999997E+02  0.45594000000E+02  0.51100000000E-03 0.  1.
         11   -1    0    0    0    0 -0.00000000000E+00 -0.00000000000E+00 -0.45593999997E+02  0.45594000000E+02  0.51100000000E-03 0. -1.
    9900012    2    1    2    0    0 -0.20451008472E+02 -0.19578282492E+02  0.14668612151E+02  0.59301936033E+02  0.49999985420E+02 0.  0.
         12    1    1    2    0    0  0.20451008472E+02  0.19578282492E+02 -0.14668612151E+02  0.31886063967E+02  0.00000000000E+00 0. -1.
         11    1    3    3    0    0  0.87790137867E+01  0.16755746541E+01  0.56621107062E+01  0.10580081824E+02  0.51100000000E-03 0. -1.
        -11    1    3    3    0    0  0.45292526323E+01  0.31504475662E+01 -0.15843465055E+01  0.57401745082E+01  0.51100000000E-03 0.  1.
        -12    1    3    3    0    0 -0.33759274891E+02 -0.24404304712E+02  0.10590847950E+02  0.42981679701E+02  0.00000000000E+00 0.  1.
</event>
<event>
 7    1  0.3461631E-013  0.5930195E+02  0.7816164E-02  0.1266605E+00
        -11   -1    0    0    0    0  0.00000000000E+00  0.00000000000E+00  0.45593999997E+02  0.45594000000E+02  0.51100000000E-03 0.  1.
         11   -1    0    0    0    0 -0.00000000000E+00 -0.00000000000E+00 -0.45593999997E+02  0.45594000000E+02  0.51100000000E-03 0. -1.
    9900012    2    1    2    0    0 -0.22184035866E+02 -0.94210772586E+01  0.20876583592E+02  0.59301954675E+02  0.50000019418E+02 0.  0.
         12    1    1    2    0    0  0.22184035866E+02  0.94210772586E+01 -0.20876583592E+02  0.31886045325E+02  0.00000000000E+00 0. -1.
         11    1    3    3    0    0  0.67543076671E+01 -0.98566919475E+00  0.11423113687E+02  0.13307131260E+02  0.51100000000E-03 0. -1.
        -11    1    3    3    0    0  0.71863414667E+01  0.18762412643E+01  0.20463786128E+01  0.77039892683E+01  0.51100000000E-03 0.  1.
        -12    1    3    3    0    0 -0.36124685000E+02 -0.10311649328E+02  0.74070912923E+01  0.38290834146E+02  0.00000000000E+00 0.  1.
</event>
<event>
 7    1  0.3461631E-013  0.5930196E+02  0.7816164E-02  0.1266605E+00
        -11   -1    0    0    0    0  0.00000000000E+00  0.00000000000E+00  0.45593999997E+02  0.45594000000E+02  0.51100000000E-03 0. -1.
         11   -1    0    0    0    0 -0.00000000000E+00 -0.00000000000E+00 -0.45593999997E+02  0.45594000000E+02  0.51100000000E-03 0.  1.
    9900012    2    1    2    0    0  0.24505127582E+02 -0.75848928874E+01 -0.18939054776E+02  0.59301958011E+02  0.50000025502E+02 0.  0.
         12    1    1    2    0    0 -0.24505127582E+02  0.75848928874E+01  0.18939054776E+02  0.31886041989E+02  0.00000000000E+00 0. -1.
         11    1    3    3    0    0 -0.66311558958E+01 -0.15386560237E+02 -0.27349149665E+01  0.16976401992E+02  0.51100000000E-03 0. -1.
        -11    1    3    3    0    0 -0.30039074218E+01 -0.18876170400E+01 -0.79315761437E+00  0.36353345308E+01  0.51100000000E-03 0.  1.
        -12    1    3    3    0    0  0.34140190900E+02  0.96892843898E+01 -0.15410982195E+02  0.38690221489E+02  0.00000000000E+00 0.  1.
</event>
<event>
 7    1  0.3461631E-013  0.5930194E+02  0.7816164E-02  0.1266605E+00
        -11   -1    0    0    0    0  0.00000000000E+00  0.00000000000E+00  0.45593999997E+02  0.45594000000E+02  0.51100000000E-03 0. -1.
         11   -1    0    0    0    0 -0.00000000000E+00 -0.00000000000E+00 -0.45593999997E+02  0.45594000000E+02  0.51100000000E-03 0.  1.
    9900012    2    1    2    0    0  0.20347298297E+01  0.27862032075E+02 -0.15371648618E+02  0.59301944458E+02  0.50000000784E+02 0.  0.
         12    1    1    2    0    0 -0.20347298297E+01 -0.27862032075E+02  0.15371648618E+02  0.31886055542E+02  0.00000000000E+00 0. -1.
         11    1    3    3    0    0  0.93861239918E+01 -0.82115112036E+01 -0.10076378945E+02  0.16033142323E+02  0.51100000000E-03 0. -1.
        -11    1    3    3    0    0 -0.28486720201E+01  0.23936008133E+01 -0.83606529517E+01  0.91512171415E+01  0.51100000000E-03 0.  1.
         12    1    3    3    0    0 -0.45027221420E+01  0.33679942465E+02  0.30653832786E+01  0.34117584993E+02  0.00000000000E+00 0. -1.
</event>
<event>
 7    1  0.3461631E-013  0.5930196E+02  0.7816164E-02  0.1266605E+00
        -11   -1    0    0    0    0  0.00000000000E+00  0.00000000000E+00  0.45593999997E+02  0.45594000000E+02  0.51100000000E-03 0.  1.
         11   -1    0    0    0    0 -0.00000000000E+00 -0.00000000000E+00 -0.45593999997E+02  0.45594000000E+02  0.51100000000E-03 0. -1.
    9900012    2    1    2    0    0 -0.27491006473E+02  0.14616611542E+02 -0.68788847216E+01  0.59301955641E+02  0.50000021179E+02 0.  0.
         12    1    1    2    0    0  0.27491006473E+02 -0.14616611542E+02  0.68788847216E+01  0.31886044359E+02  0.00000000000E+00 0. -1.
         11    1    3    3    0    0 -0.13895457044E+02 -0.40631099589E+01 -0.39758905646E+01  0.15013337239E+02  0.51100000000E-03 0. -1.
        -11    1    3    3    0    0 -0.66975964558E+01 -0.11364837302E+02 -0.26827287905E+01  0.13461588287E+02  0.51100000000E-03 0.  1.
        -12    1    3    3    0    0 -0.68979529734E+01  0.30044558803E+02 -0.22026536653E+00  0.30827030115E+02  0.00000000000E+00 0.  1.
</event>
<event>
 7    1  0.3461631E-013  0.5930195E+02  0.7816164E-02  0.1266605E+00
        -11   -1    0    0    0    0  0.00000000000E+00  0.00000000000E+00  0.45593999997E+02  0.45594000000E+02  0.51100000000E-03 0.  1.
         11   -1    0    0    0    0 -0.00000000000E+00 -0.00000000000E+00 -0.45593999997E+02  0.45594000000E+02  0.51100000000E-03 0. -1.
    9900012    2    1    2    0    0 -0.23769424684E+02 -0.13800916600E+02  0.16163830045E+02  0.59301948966E+02  0.50000009006E+02 0.  0.
         12    1    1    2    0    0  0.23769424684E+02  0.13800916600E+02 -0.16163830045E+02  0.31886051034E+02  0.00000000000E+00 0. -1.
         11    1    3    3    0    0 -0.16184644353E+02 -0.14973574091E+02  0.73015173659E+01  0.23226338282E+02  0.51100000000E-03 0. -1.
        -11    1    3    3    0    0 -0.20951862990E+02 -0.15967948699E+01  0.76854510765E+01  0.22374013389E+02  0.51100000000E-03 0.  1.
         12    1    3    3    0    0  0.13367082659E+02  0.27694523610E+01  0.11768616027E+01  0.13701597295E+02  0.00000000000E+00 0. -1.
</event>
<event>
 7    1  0.3461631E-013  0.5930193E+02  0.7816164E-02  0.1266605E+00
        -11   -1    0    0    0    0  0.00000000000E+00  0.00000000000E+00  0.45593999997E+02  0.45594000000E+02  0.51100000000E-03 0. -1.
         11   -1    0    0    0    0 -0.00000000000E+00 -0.00000000000E+00 -0.45593999997E+02  0.45594000000E+02  0.51100000000E-03 0.  1.
    9900012    2    1    2    0    0  0.10164880728E+02 -0.28853381830E+02  0.89932711293E+01  0.59301931430E+02  0.49999977025E+02 0.  0.
         12    1    1    2    0    0 -0.10164880728E+02  0.28853381830E+02 -0.89932711293E+01  0.31886068570E+02  0.00000000000E+00 0. -1.
         11    1    3    3    0    0  0.80850815182E+01 -0.17573826770E+02 -0.23676342972E+01  0.19488807632E+02  0.51100000000E-03 0. -1.
        -11    1    3    3    0    0  0.13367885382E+02 -0.19884507789E+02  0.68689414775E+01  0.24925416082E+02  0.51100000000E-03 0.  1.
        -12    1    3    3    0    0 -0.11288086172E+02  0.86049527287E+01  0.44919639491E+01  0.14887707715E+02  0.00000000000E+00 0.  1.
</event>
<event>
 7    1  0.3461631E-013  0.5930194E+02  0.7816164E-02  0.1266605E+00
        -11   -1    0    0    0    0  0.00000000000E+00  0.00000000000E+00  0.45593999997E+02  0.45594000000E+02  0.51100000000E-03 0.  1.
         11   -1    0    0    0    0 -0.00000000000E+00 -0.00000000000E+00 -0.45593999997E+02  0.45594000000E+02  0.51100000000E-03 0. -1.
    9900012    2    1    2    0    0 -0.16184661809E+01 -0.27107286691E+02  0.16712157574E+02  0.59301942932E+02  0.49999998002E+02 0.  0.
         12    1    1    2    0    0  0.16184661809E+01  0.27107286691E+02 -0.16712157574E+02  0.31886057068E+02  0.00000000000E+00 0. -1.
         11    1    3    3    0    0 -0.61840103106E+01 -0.11017218012E+02  0.21510038746E+01  0.12815923461E+02  0.51100000000E-03 0.  1.
        -11    1    3    3    0    0  0.31633505109E+01  0.56327102059E+01 -0.11095511081E+02  0.12839181327E+02  0.51100000000E-03 0. -1.
         12    1    3    3    0    0  0.14021936188E+01 -0.21722778886E+02  0.25656664781E+02  0.33646838145E+02  0.00000000000E+00 0. -1.
</event>
<event>
 7    1  0.3461631E-013  0.5930195E+02  0.7816164E-02  0.1266605E+00
        -11   -1    0    0    0    0  0.00000000000E+00  0.00000000000E+00  0.45593999997E+02  0.45594000000E+02  0.51100000000E-03 0.  1.
         11   -1    0    0    0    0 -0.00000000000E+00 -0.00000000000E+00 -0.45593999997E+02  0.45594000000E+02  0.51100000000E-03 0. -1.
    9900012    2    1    2    0    0 -0.30374799818E+02  0.43560911014E+01  0.86669610426E+01  0.59301949643E+02  0.50000010241E+02 0.  0.
         12    1    1    2    0    0  0.30374799818E+02 -0.43560911014E+01 -0.86669610426E+01  0.31886050357E+02  0.00000000000E+00 0. -1.
         11    1    3    3    0    0  0.88324514696E+01 -0.11039272370E+01  0.69632670089E+01  0.11301236304E+02  0.51100000000E-03 0. -1.
        -11    1    3    3    0    0 -0.61975877259E+01 -0.93462660144E+01 -0.27575626307E+01  0.11548460242E+02  0.51100000000E-03 0.  1.
        -12    1    3    3    0    0 -0.33009663562E+02  0.14806284353E+02  0.44612566644E+01  0.36452253097E+02  0.00000000000E+00 0.  1.
</event>
<event>
 7    1  0.3461631E-013  0.5930198E+02  0.7816164E-02  0.1266605E+00
        -11   -1    0    0    0    0  0.00000000000E+00  0.00000000000E+00  0.45593999997E+02  0.45594000000E+02  0.51100000000E-03 0. -1.
         11   -1    0    0    0    0 -0.00000000000E+00 -0.00000000000E+00 -0.45593999997E+02  0.45594000000E+02  0.51100000000E-03 0.  1.
    9900012    2    1    2    0    0  0.11654218516E+02  0.15569429082E+02 -0.25268361339E+02  0.59301984007E+02  0.50000072913E+02 0.  0.
         12    1    1    2    0    0 -0.11654218516E+02 -0.15569429082E+02  0.25268361339E+02  0.31886015993E+02  0.00000000000E+00 0. -1.
         11    1    3    3    0    0  0.80389695353E+01 -0.51054108979E+01  0.17962778202E+01  0.96910714524E+01  0.51100000000E-03 0. -1.
        -11    1    3    3    0    0  0.61567070421E+01 -0.94675450738E+01 -0.82807011038E+01  0.14003908824E+02  0.51100000000E-03 0.  1.
        -12    1    3    3    0    0 -0.25414580612E+01  0.30142385054E+02 -0.18783938055E+02  0.35607003730E+02  0.00000000000E+00 0.  1.
</event>
<event>
 7    1  0.3461631E-013  0.5930194E+02  0.7816164E-02  0.1266605E+00
        -11   -1    0    0    0    0  0.00000000000E+00  0.00000000000E+00  0.45593999997E+02  0.45594000000E+02  0.51100000000E-03 0.  1.
         11   -1    0    0    0    0 -0.00000000000E+00 -0.00000000000E+00 -0.45593999997E+02  0.45594000000E+02  0.51100000000E-03 0. -1.
    9900012    2    1    2    0    0  0.10545299851E+02  0.21361617067E+02  0.21194317156E+02  0.59301935452E+02  0.49999984360E+02 0.  0.
         12    1    1    2    0    0 -0.10545299851E+02 -0.21361617067E+02 -0.21194317156E+02  0.31886064548E+02  0.00000000000E+00 0. -1.
         11    1    3    3    0    0 -0.18720788487E+01  0.78428040688E+01 -0.84584314806E+01  0.11685859757E+02  0.51100000000E-03 0. -1.
        -11    1    3    3    0    0  0.54647760797E+01  0.19129554744E+02  0.37885774989E+01  0.20252332261E+02  0.51100000000E-03 0.  1.
        -12    1    3    3    0    0  0.69526026197E+01 -0.56107417455E+01  0.25864171137E+02  0.27363743435E+02  0.00000000000E+00 0.  1.
</event>
<event>
 7    1  0.3461631E-013  0.5930195E+02  0.7816164E-02  0.1266605E+00
        -11   -1    0    0    0    0  0.00000000000E+00  0.00000000000E+00  0.45593999997E+02  0.45594000000E+02  0.51100000000E-03 0. -1.
         11   -1    0    0    0    0 -0.00000000000E+00 -0.00000000000E+00 -0.45593999997E+02  0.45594000000E+02  0.51100000000E-03 0.  1.
    9900012    2    1    2    0    0 -0.87224426930E+01  0.91622251751E+01 -0.29269312663E+02  0.59301952260E+02  0.50000015015E+02 0.  0.
         12    1    1    2    0    0  0.87224426930E+01 -0.91622251751E+01  0.29269312663E+02  0.31886047740E+02  0.00000000000E+00 0. -1.
         11    1    3    3    0    0 -0.19502306710E+00 -0.26662790410E+01 -0.51287454340E+01  0.57836932758E+01  0.51100000000E-03 0. -1.
        -11    1    3    3    0    0  0.40960166765E+01 -0.15448901268E+02 -0.18321546967E+01  0.16087345775E+02  0.51100000000E-03 0.  1.
        -12    1    3    3    0    0 -0.12623436302E+02  0.27277405484E+02 -0.22308412532E+02  0.37430913210E+02  0.00000000000E+00 0.  1.
</event>
<event>
 7    1  0.3461631E-013  0.5930188E+02  0.7816164E-02  0.1266605E+00
        -11   -1    0    0    0    0  0.00000000000E+00  0.00000000000E+00  0.45593999997E+02  0.45594000000E+02  0.51100000000E-03 0.  1.
         11   -1    0    0    0    0 -0.00000000000E+00 -0.00000000000E+00 -0.45593999997E+02  0.45594000000E+02  0.51100000000E-03 0. -1.
    9900012    2    1    2    0    0 -0.17618521578E+02  0.77142240786E+01  0.25432326460E+02  0.59301877864E+02  0.49999879333E+02 0.  0.
         12    1    1    2    0    0  0.17618521578E+02 -0.77142240786E+01 -0.25432326460E+02  0.31886122136E+02  0.00000000000E+00 0. -1.
         11    1    3    3    0    0 -0.11634618443E+02 -0.46633263716E+01  0.58341373493E+01  0.13825632645E+02  0.51100000000E-03 0. -1.
        -11    1    3    3    0    0  0.82724116192E+01 -0.96482564122E+01 -0.30961779655E-01  0.12709154365E+02  0.51100000000E-03 0.  1.
        -12    1    3    3    0    0 -0.14256314754E+02  0.22025806862E+02  0.19629150890E+02  0.32767090853E+02  0.00000000000E+00 0.  1.
</event>
<event>
 7    1  0.3461631E-013  0.5930193E+02  0.7816164E-02  0.1266605E+00
        -11   -1    0    0    0    0  0.00000000000E+00  0.00000000000E+00  0.45593999997E+02  0.45594000000E+02  0.51100000000E-03 0.  1.
         11   -1    0    0    0    0 -0.00000000000E+00 -0.00000000000E+00 -0.45593999997E+02  0.45594000000E+02  0.51100000000E-03 0. -1.
    9900012    2    1    2    0    0  0.26000787585E+02  0.18046458865E+02 -0.38737110278E+01  0.59301932985E+02  0.49999979860E+02 0.  0.
         12    1    1    2    0    0 -0.26000787585E+02 -0.18046458865E+02  0.38737110278E+01  0.31886067015E+02  0.00000000000E+00 0. -1.
         11    1    3    3    0    0  0.83106134328E+00 -0.12262853865E+02  0.23412768700E+01  0.12511987272E+02  0.51100000000E-03 0. -1.
        -11    1    3    3    0    0  0.17077290927E+02  0.31590179104E+01 -0.62554841339E+01  0.18459261674E+02  0.51100000000E-03 0.  1.
        -12    1    3    3    0    0  0.80924353145E+01  0.27150294819E+02  0.40496236093E-01  0.28330684038E+02  0.00000000000E+00 0.  1.
</event>
<event>
 7    1  0.3461631E-013  0.5930193E+02  0.7816164E-02  0.1266605E+00
        -11   -1    0    0    0    0  0.00000000000E+00  0.00000000000E+00  0.45593999997E+02  0.45594000000E+02  0.51100000000E-03 0.  1.
         11   -1    0    0    0    0 -0.00000000000E+00 -0.00000000000E+00 -0.45593999997E+02  0.45594000000E+02  0.51100000000E-03 0. -1.
    9900012    2    1    2    0    0  0.21497001480E+02  0.23219659091E+02 -0.39303867033E+01  0.59301928110E+02  0.49999970969E+02 0.  0.
         12    1    1    2    0    0 -0.21497001480E+02 -0.23219659091E+02  0.39303867033E+01  0.31886071890E+02  0.00000000000E+00 0. -1.
         11    1    3    3    0    0  0.63181444278E+01  0.86788912718E+01 -0.69788595817E+01  0.12804162762E+02  0.51100000000E-03 0. -1.
        -11    1    3    3    0    0  0.26822689269E+02  0.19414502676E+02  0.57025145227E+01  0.33599081028E+02  0.51100000000E-03 0.  1.
         12    1    3    3    0    0 -0.11643832216E+02 -0.48737348568E+01 -0.26540416443E+01  0.12898684320E+02  0.00000000000E+00 0. -1.
</event>
<event>
 7    1  0.3461631E-013  0.5930197E+02  0.7816164E-02  0.1266605E+00
        -11   -1    0    0    0    0  0.00000000000E+00  0.00000000000E+00  0.45593999997E+02  0.45594000000E+02  0.51100000000E-03 0.  1.
         11   -1    0    0    0    0 -0.00000000000E+00 -0.00000000000E+00 -0.45593999997E+02  0.45594000000E+02  0.51100000000E-03 0. -1.
    9900012    2    1    2    0    0  0.28709083985E+01  0.90186979105E+01  0.30448971343E+02  0.59301970412E+02  0.50000048119E+02 0.  0.
         12    1    1    2    0    0 -0.28709083985E+01 -0.90186979105E+01 -0.30448971343E+02  0.31886029588E+02  0.00000000000E+00 0. -1.
         11    1    3    3    0    0  0.17066255537E+01 -0.15018174399E+02  0.14678947213E+01  0.15185942454E+02  0.51100000000E-03 0. -1.
        -11    1    3    3    0    0 -0.20165282459E+01 -0.20098486090E+01  0.13183459366E+02  0.13487382204E+02  0.51100000000E-03 0.  1.
        -12    1    3    3    0    0  0.31808110907E+01  0.26046720918E+02  0.15797617256E+02  0.30628645754E+02  0.00000000000E+00 0.  1.
</event>
<event>
 7    1  0.3461631E-013  0.5930191E+02  0.7816164E-02  0.1266605E+00
        -11   -1    0    0    0    0  0.00000000000E+00  0.00000000000E+00  0.45593999997E+02  0.45594000000E+02  0.51100000000E-03 0. -1.
         11   -1    0    0    0    0 -0.00000000000E+00 -0.00000000000E+00 -0.45593999997E+02  0.45594000000E+02  0.51100000000E-03 0.  1.
    9900012    2    1    2    0    0 -0.29155148760E+02 -0.12161543662E+02  0.43355579247E+01  0.59301907326E+02  0.49999933065E+02 0.  0.
         12    1    1    2    0    0  0.29155148760E+02  0.12161543662E+02 -0.43355579247E+01  0.31886092674E+02  0.00000000000E+00 0. -1.
         11    1    3    3    0    0 -0.40338541714E+01 -0.17817523831E+02  0.13443695770E+01  0.18317845527E+02  0.51100000000E-03 0. -1.
        -11    1    3    3    0    0  0.42844732515E+01  0.91964451780E+01 -0.33699075007E+01  0.10690537488E+02  0.51100000000E-03 0.  1.
         12    1    3    3    0    0 -0.29405767841E+02 -0.35404650094E+01  0.63610958485E+01  0.30293524311E+02  0.00000000000E+00 0. -1.
</event>
<event>
 7    1  0.3461631E-013  0.5930190E+02  0.7816164E-02  0.1266605E+00
        -11   -1    0    0    0    0  0.00000000000E+00  0.00000000000E+00  0.45593999997E+02  0.45594000000E+02  0.51100000000E-03 0. -1.
         11   -1    0    0    0    0 -0.00000000000E+00 -0.00000000000E+00 -0.45593999997E+02  0.45594000000E+02  0.51100000000E-03 0.  1.
    9900012    2    1    2    0    0 -0.15550065843E+02 -0.25212268995E+02  0.11800848959E+02  0.59301904414E+02  0.49999927753E+02 0.  0.
         12    1    1    2    0    0  0.15550065843E+02  0.25212268995E+02 -0.11800848959E+02  0.31886095586E+02  0.00000000000E+00 0. -1.
         11    1    3    3    0    0 -0.45921571165E+00 -0.14613955220E+02  0.51164634774E+01  0.15490537919E+02  0.51100000000E-03 0. -1.
        -11    1    3    3    0    0 -0.12994572774E+02  0.87911227138E+00 -0.14583901229E+02  0.19553054372E+02  0.51100000000E-03 0.  1.
         12    1    3    3    0    0 -0.20962773575E+01 -0.11477426046E+02  0.21268286711E+02  0.24258312122E+02  0.00000000000E+00 0. -1.
</event>
<event>
 7    1  0.3461631E-013  0.5930193E+02  0.7816164E-02  0.1266605E+00
        -11   -1    0    0    0    0  0.00000000000E+00  0.00000000000E+00  0.45593999997E+02  0.45594000000E+02  0.51100000000E-03 0.  1.
         11   -1    0    0    0    0 -0.00000000000E+00 -0.00000000000E+00 -0.45593999997E+02  0.45594000000E+02  0.51100000000E-03 0. -1.
    9900012    2    1    2    0    0 -0.26065341051E+02 -0.15238135843E+02 -0.10252747481E+02  0.59301927507E+02  0.49999969871E+02 0.  0.
         12    1    1    2    0    0  0.26065341051E+02  0.15238135843E+02  0.10252747481E+02  0.31886072493E+02  0.00000000000E+00 0. -1.
         11    1    3    3    0    0 -0.28967171161E+01  0.10510341283E+01  0.59272671222E+00  0.31379878914E+01  0.51100000000E-03 0. -1.
        -11    1    3    3    0    0 -0.74430855944E+01 -0.89811407712E+01  0.18621547673E+02  0.21973221218E+02  0.51100000000E-03 0.  1.
         12    1    3    3    0    0 -0.15725538341E+02 -0.73080292006E+01 -0.29467021866E+02  0.34190718398E+02  0.00000000000E+00 0. -1.
</event>
<event>
 7    1  0.3461631E-013  0.5930195E+02  0.7816164E-02  0.1266605E+00
        -11   -1    0    0    0    0  0.00000000000E+00  0.00000000000E+00  0.45593999997E+02  0.45594000000E+02  0.51100000000E-03 0. -1.
         11   -1    0    0    0    0 -0.00000000000E+00 -0.00000000000E+00 -0.45593999997E+02  0.45594000000E+02  0.51100000000E-03 0.  1.
    9900012    2    1    2    0    0 -0.24766841460E+02 -0.64587683218E+01 -0.19015997544E+02  0.59301948398E+02  0.50000007971E+02 0.  0.
         12    1    1    2    0    0  0.24766841460E+02  0.64587683218E+01  0.19015997544E+02  0.31886051602E+02  0.00000000000E+00 0. -1.
         11    1    3    3    0    0 -0.13984362773E+01 -0.12629134149E+02 -0.19829271079E+02  0.23551022168E+02  0.51100000000E-03 0. -1.
        -11    1    3    3    0    0 -0.44724193821E+01  0.67132904522E+01 -0.10863966495E+02  0.13531318195E+02  0.51100000000E-03 0.  1.
        -12    1    3    3    0    0 -0.18895985801E+02 -0.54292462521E+00  0.11677240030E+02  0.22219608036E+02  0.00000000000E+00 0.  1.
</event>
<event>
 7    1  0.3461631E-013  0.5930197E+02  0.7816164E-02  0.1266605E+00
        -11   -1    0    0    0    0  0.00000000000E+00  0.00000000000E+00  0.45593999997E+02  0.45594000000E+02  0.51100000000E-03 0.  1.
         11   -1    0    0    0    0 -0.00000000000E+00 -0.00000000000E+00 -0.45593999997E+02  0.45594000000E+02  0.51100000000E-03 0. -1.
    9900012    2    1    2    0    0 -0.10822539397E+01  0.13319976003E+01  0.31839812630E+02  0.59301966074E+02  0.50000040208E+02 0.  0.
         12    1    1    2    0    0  0.10822539397E+01 -0.13319976003E+01 -0.31839812630E+02  0.31886033926E+02  0.00000000000E+00 0. -1.
         11    1    3    3    0    0 -0.84122401170E+00 -0.13769636996E+01 -0.73556743948E+01  0.75305798536E+01  0.51100000000E-03 0. -1.
        -11    1    3    3    0    0 -0.34077835401E+01  0.16335315276E+02  0.10147293937E+02  0.19530056025E+02  0.51100000000E-03 0.  1.
        -12    1    3    3    0    0  0.31667536121E+01 -0.13626353976E+02  0.29048193088E+02  0.32241330196E+02  0.00000000000E+00 0.  1.
</event>
<event>
 7    1  0.3461631E-013  0.5930193E+02  0.7816164E-02  0.1266605E+00
        -11   -1    0    0    0    0  0.00000000000E+00  0.00000000000E+00  0.45593999997E+02  0.45594000000E+02  0.51100000000E-03 0. -1.
         11   -1    0    0    0    0 -0.00000000000E+00 -0.00000000000E+00 -0.45593999997E+02  0.45594000000E+02  0.51100000000E-03 0.  1.
    9900012    2    1    2    0    0  0.26668057186E+02 -0.67464631808E+01  0.16125173091E+02  0.59301933344E+02  0.49999980516E+02 0.  0.
         12    1    1    2    0    0 -0.26668057186E+02  0.67464631808E+01 -0.16125173091E+02  0.31886066656E+02  0.00000000000E+00 0. -1.
         11    1    3    3    0    0  0.14022250368E+02 -0.67161640963E+01  0.15454255003E+02  0.21921778293E+02  0.51100000000E-03 0. -1.
        -11    1    3    3    0    0  0.43944646688E+00  0.14362166714E+02  0.87811104542E+01  0.16839621343E+02  0.51100000000E-03 0.  1.
        -12    1    3    3    0    0  0.12206360352E+02 -0.14392465798E+02 -0.81101923663E+01  0.20540533708E+02  0.00000000000E+00 0.  1.
</event>
<event>
 7    1  0.3461631E-013  0.5930191E+02  0.7816164E-02  0.1266605E+00
        -11   -1    0    0    0    0  0.00000000000E+00  0.00000000000E+00  0.45593999997E+02  0.45594000000E+02  0.51100000000E-03 0.  1.
         11   -1    0    0    0    0 -0.00000000000E+00 -0.00000000000E+00 -0.45593999997E+02  0.45594000000E+02  0.51100000000E-03 0. -1.
    9900012    2    1    2    0    0 -0.61949374143E+00  0.31115084322E+02  0.69419311546E+01  0.59301911293E+02  0.49999940300E+02 0.  0.
         12    1    1    2    0    0  0.61949374143E+00 -0.31115084322E+02 -0.69419311546E+01  0.31886088707E+02  0.00000000000E+00 0. -1.
         11    1    3    3    0    0  0.10665346559E+02  0.16517062586E+02 -0.41553665743E+01  0.20095523017E+02  0.51100000000E-03 0. -1.
        -11    1    3    3    0    0  0.84825524662E+01  0.15586308808E+02  0.64058152615E+01  0.18865873635E+02  0.51100000000E-03 0.  1.
        -12    1    3    3    0    0 -0.19767392766E+02 -0.98828707171E+00  0.46914824675E+01  0.20340514641E+02  0.00000000000E+00 0.  1.
</event>
<event>
 7    1  0.3461631E-013  0.5930195E+02  0.7816164E-02  0.1266605E+00
        -11   -1    0    0    0    0  0.00000000000E+00  0.00000000000E+00  0.45593999997E+02  0.45594000000E+02  0.51100000000E-03 0.  1.
         11   -1    0    0    0    0 -0.00000000000E+00 -0.00000000000E+00 -0.45593999997E+02  0.45594000000E+02  0.51100000000E-03 0. -1.
    9900012    2    1    2    0    0  0.73384237200E+01 -0.29807501579E+02  0.86244314953E+01  0.59301946126E+02  0.50000003826E+02 0.  0.
         12    1    1    2    0    0 -0.73384237200E+01  0.29807501579E+02 -0.86244314953E+01  0.31886053874E+02  0.00000000000E+00 0. -1.
         11    1    3    3    0    0  0.55662575106E+01 -0.34086209250E+01  0.19023492381E+01  0.67985919255E+01  0.51100000000E-03 0. -1.
        -11    1    3    3    0    0 -0.26956628846E+01 -0.31695866027E+02  0.19965283585E+02  0.37556718048E+02  0.51100000000E-03 0.  1.
         12    1    3    3    0    0  0.44678290939E+01  0.52969853734E+01 -0.13243201328E+02  0.14946636152E+02  0.00000000000E+00 0. -1.
</event>
<event>
 7    1  0.3461631E-013  0.5930191E+02  0.7816164E-02  0.1266605E+00
        -11   -1    0    0    0    0  0.00000000000E+00  0.00000000000E+00  0.45593999997E+02  0.45594000000E+02  0.51100000000E-03 0.  1.
         11   -1    0    0    0    0 -0.00000000000E+00 -0.00000000000E+00 -0.45593999997E+02  0.45594000000E+02  0.51100000000E-03 0. -1.
    9900012    2    1    2    0    0 -0.23501081087E+02 -0.21166768661E+02  0.40484324245E+01  0.59301910354E+02  0.49999938587E+02 0.  0.
         12    1    1    2    0    0  0.23501081087E+02  0.21166768661E+02 -0.40484324245E+01  0.31886089646E+02  0.00000000000E+00 0. -1.
         11    1    3    3    0    0 -0.15339878996E+02 -0.15680792449E+02 -0.44530968355E+01  0.22383681805E+02  0.51100000000E-03 0. -1.
        -11    1    3    3    0    0  0.60031151209E+01 -0.15928840446E+02  0.91159618297E+01  0.19309741310E+02  0.51100000000E-03 0.  1.
         12    1    3    3    0    0 -0.14164317211E+02  0.10442864234E+02 -0.61443256970E+00  0.17608487239E+02  0.00000000000E+00 0. -1.
</event>
<event>
 7    1  0.3461631E-013  0.5930179E+02  0.7816164E-02  0.1266605E+00
        -11   -1    0    0    0    0  0.00000000000E+00  0.00000000000E+00  0.45593999997E+02  0.45594000000E+02  0.51100000000E-03 0.  1.
         11   -1    0    0    0    0 -0.00000000000E+00 -0.00000000000E+00 -0.45593999997E+02  0.45594000000E+02  0.51100000000E-03 0. -1.
    9900012    2    1    2    0    0 -0.16182056382E+02 -0.16861462965E+02  0.21692449535E+02  0.59301792183E+02  0.49999723072E+02 0.  0.
         12    1    1    2    0    0  0.16182056382E+02  0.16861462965E+02 -0.21692449535E+02  0.31886207817E+02  0.00000000000E+00 0. -1.
         11    1    3    3    0    0 -0.53309901566E+01 -0.15342688258E+02  0.17309677751E+02  0.23736943424E+02  0.51100000000E-03 0. -1.
        -11    1    3    3    0    0 -0.15457725644E+02  0.12766127833E+02  0.45367291898E+01  0.20554737019E+02  0.51100000000E-03 0.  1.
         12    1    3    3    0    0  0.46066594183E+01 -0.14284902539E+02 -0.15395740518E+00  0.15010111740E+02  0.00000000000E+00 0. -1.
</event>
<event>
 7    1  0.3461631E-013  0.5930195E+02  0.7816164E-02  0.1266605E+00
        -11   -1    0    0    0    0  0.00000000000E+00  0.00000000000E+00  0.45593999997E+02  0.45594000000E+02  0.51100000000E-03 0. -1.
         11   -1    0    0    0    0 -0.00000000000E+00 -0.00000000000E+00 -0.45593999997E+02  0.45594000000E+02  0.51100000000E-03 0.  1.
    9900012    2    1    2    0    0 -0.23893450501E+02  0.19794441524E+02 -0.73486972308E+01  0.59301949083E+02  0.50000009220E+02 0.  0.
         12    1    1    2    0    0  0.23893450501E+02 -0.19794441524E+02  0.73486972308E+01  0.31886050917E+02  0.00000000000E+00 0. -1.
         11    1    3    3    0    0 -0.41825249882E+01  0.65740892361E+01  0.13159979239E+02  0.15293698650E+02  0.51100000000E-03 0. -1.
        -11    1    3    3    0    0 -0.60376745321E+01  0.12641098202E+02  0.51519590047E+01  0.14926270779E+02  0.51100000000E-03 0.  1.
        -12    1    3    3    0    0 -0.13673250980E+02  0.57925408575E+00 -0.25660635475E+02  0.29081979655E+02  0.00000000000E+00 0.  1.
</event>
<event>
 7    1  0.3461631E-013  0.5930195E+02  0.7816164E-02  0.1266605E+00
        -11   -1    0    0    0    0  0.00000000000E+00  0.00000000000E+00  0.45593999997E+02  0.45594000000E+02  0.51100000000E-03 0.  1.
         11   -1    0    0    0    0 -0.00000000000E+00 -0.00000000000E+00 -0.45593999997E+02  0.45594000000E+02  0.51100000000E-03 0. -1.
    9900012    2    1    2    0    0  0.93994542936E+01 -0.16939568736E+02  0.25326301555E+02  0.59301948497E+02  0.50000008151E+02 0.  0.
         12    1    1    2    0    0 -0.93994542936E+01  0.16939568736E+02 -0.25326301555E+02  0.31886051503E+02  0.00000000000E+00 0. -1.
         11    1    3    3    0    0  0.27736446796E+00  0.30870209635E+01  0.11958397672E+00  0.31017624128E+01  0.51100000000E-03 0.  1.
        -11    1    3    3    0    0  0.17006299806E+02 -0.20910505318E+02  0.34629415200E+02  0.43882341131E+02  0.51100000000E-03 0. -1.
         12    1    3    3    0    0 -0.78842099803E+01  0.88391561895E+00 -0.94226976216E+01  0.12317844954E+02  0.00000000000E+00 0. -1.
</event>
<event>
 7    1  0.3461631E-013  0.5930192E+02  0.7816164E-02  0.1266605E+00
        -11   -1    0    0    0    0  0.00000000000E+00  0.00000000000E+00  0.45593999997E+02  0.45594000000E+02  0.51100000000E-03 0.  1.
         11   -1    0    0    0    0 -0.00000000000E+00 -0.00000000000E+00 -0.45593999997E+02  0.45594000000E+02  0.51100000000E-03 0. -1.
    9900012    2    1    2    0    0 -0.23059553259E+02  0.22019175137E+02  0.36712992594E+00  0.59301923813E+02  0.49999963134E+02 0.  0.
         12    1    1    2    0    0  0.23059553259E+02 -0.22019175137E+02 -0.36712992594E+00  0.31886076187E+02  0.00000000000E+00 0. -1.
         11    1    3    3    0    0 -0.10709406973E+02  0.35291842553E+02  0.50977900864E+01  0.37231613079E+02  0.51100000000E-03 0.  1.
        -11    1    3    3    0    0  0.42004496058E+00 -0.56412970264E+01 -0.44392111389E+01  0.71907764328E+01  0.51100000000E-03 0. -1.
        -12    1    3    3    0    0 -0.12770191246E+02 -0.76313703894E+01 -0.29144902148E+00  0.14879534301E+02  0.00000000000E+00 0.  1.
</event>
<event>
 7    1  0.3461631E-013  0.5930219E+02  0.7816164E-02  0.1266604E+00
        -11   -1    0    0    0    0  0.00000000000E+00  0.00000000000E+00  0.45593999997E+02  0.45594000000E+02  0.51100000000E-03 0. -1.
         11   -1    0    0    0    0 -0.00000000000E+00 -0.00000000000E+00 -0.45593999997E+02  0.45594000000E+02  0.51100000000E-03 0.  1.
    9900012    2    1    2    0    0  0.24935511667E+02 -0.16163521362E+02 -0.11561402367E+02  0.59302185135E+02  0.50000439721E+02 0.  0.
         12    1    1    2    0    0 -0.24935511667E+02  0.16163521362E+02  0.11561402367E+02  0.31885814865E+02  0.00000000000E+00 0. -1.
         11    1    3    3    0    0  0.26194793990E+00  0.12349320509E+02 -0.82170736630E+00  0.12379399704E+02  0.51100000000E-03 0. -1.
        -11    1    3    3    0    0  0.15119251378E+02 -0.22782453078E+00 -0.75403118817E+01  0.16896744355E+02  0.51100000000E-03 0.  1.
        -12    1    3    3    0    0  0.95543123483E+01 -0.28285017340E+02 -0.31993831191E+01  0.30026041077E+02  0.00000000000E+00 0.  1.
</event>
<event>
 7    1  0.3461631E-013  0.5930191E+02  0.7816164E-02  0.1266605E+00
        -11   -1    0    0    0    0  0.00000000000E+00  0.00000000000E+00  0.45593999997E+02  0.45594000000E+02  0.51100000000E-03 0.  1.
         11   -1    0    0    0    0 -0.00000000000E+00 -0.00000000000E+00 -0.45593999997E+02  0.45594000000E+02  0.51100000000E-03 0. -1.
    9900012    2    1    2    0    0  0.86653207922E+01 -0.27364322213E+02  0.13886283421E+02  0.59301909273E+02  0.49999936616E+02 0.  0.
         12    1    1    2    0    0 -0.86653207922E+01  0.27364322213E+02 -0.13886283421E+02  0.31886090727E+02  0.00000000000E+00 0. -1.
         11    1    3    3    0    0 -0.10795314827E+01  0.53763413290E+01  0.23151163708E+01  0.59523271399E+01  0.51100000000E-03 0. -1.
        -11    1    3    3    0    0  0.12796871594E+02  0.52151800330E+01  0.11256599534E+01  0.13864527975E+02  0.51100000000E-03 0.  1.
        -12    1    3    3    0    0 -0.30520193190E+01 -0.37955843575E+02  0.10445507097E+02  0.39485054159E+02  0.00000000000E+00 0.  1.
</event>
<event>
 7    1  0.3461631E-013  0.5930194E+02  0.7816164E-02  0.1266605E+00
        -11   -1    0    0    0    0  0.00000000000E+00  0.00000000000E+00  0.45593999997E+02  0.45594000000E+02  0.51100000000E-03 0. -1.
         11   -1    0    0    0    0 -0.00000000000E+00 -0.00000000000E+00 -0.45593999997E+02  0.45594000000E+02  0.51100000000E-03 0.  1.
    9900012    2    1    2    0    0 -0.21954575246E+02 -0.33143602283E+01 -0.22885206716E+02  0.59301936518E+02  0.49999986305E+02 0.  0.
         12    1    1    2    0    0  0.21954575246E+02  0.33143602283E+01  0.22885206716E+02  0.31886063482E+02  0.00000000000E+00 0. -1.
         11    1    3    3    0    0  0.70406924463E+01 -0.86355091983E+01 -0.81209122043E+00  0.11171520114E+02  0.51100000000E-03 0. -1.
        -11    1    3    3    0    0 -0.11575263756E+02  0.16437170570E+02 -0.18174627734E+02  0.27101372676E+02  0.51100000000E-03 0.  1.
         12    1    3    3    0    0 -0.17420003936E+02 -0.11116021600E+02 -0.38984877613E+01  0.21029043729E+02  0.00000000000E+00 0. -1.
</event>
<event>
 7    1  0.3461631E-013  0.5930184E+02  0.7816164E-02  0.1266605E+00
        -11   -1    0    0    0    0  0.00000000000E+00  0.00000000000E+00  0.45593999997E+02  0.45594000000E+02  0.51100000000E-03 0.  1.
         11   -1    0    0    0    0 -0.00000000000E+00 -0.00000000000E+00 -0.45593999997E+02  0.45594000000E+02  0.51100000000E-03 0. -1.
    9900012    2    1    2    0    0  0.63640531168E+01  0.30725874084E+02 -0.56698167217E+01  0.59301837923E+02  0.49999806491E+02 0.  0.
         12    1    1    2    0    0 -0.63640531168E+01 -0.30725874084E+02  0.56698167217E+01  0.31886162077E+02  0.00000000000E+00 0. -1.
         11    1    3    3    0    0  0.18806600459E+02  0.23502109654E+02 -0.18417158676E+02  0.35287804026E+02  0.51100000000E-03 0. -1.
        -11    1    3    3    0    0 -0.11440284362E+02  0.91970715898E+00  0.22009256882E+01  0.11686318569E+02  0.51100000000E-03 0.  1.
        -12    1    3    3    0    0 -0.10022629800E+01  0.63040572718E+01  0.10546416266E+02  0.12327715329E+02  0.00000000000E+00 0.  1.
</event>
<event>
 7    1  0.3461631E-013  0.5930194E+02  0.7816164E-02  0.1266605E+00
        -11   -1    0    0    0    0  0.00000000000E+00  0.00000000000E+00  0.45593999997E+02  0.45594000000E+02  0.51100000000E-03 0.  1.
         11   -1    0    0    0    0 -0.00000000000E+00 -0.00000000000E+00 -0.45593999997E+02  0.45594000000E+02  0.51100000000E-03 0. -1.
    9900012    2    1    2    0    0 -0.14109061522E+02 -0.11661346461E+02  0.26108775210E+02  0.59301940957E+02  0.49999994400E+02 0.  0.
         12    1    1    2    0    0  0.14109061522E+02  0.11661346461E+02 -0.26108775210E+02  0.31886059043E+02  0.00000000000E+00 0. -1.
         11    1    3    3    0    0 -0.15005637992E+01 -0.25824807506E+02  0.94515658122E+01  0.27540959878E+02  0.51100000000E-03 0. -1.
        -11    1    3    3    0    0  0.37110290597E+01  0.11832171615E+01  0.85368086506E+01  0.93834344315E+01  0.51100000000E-03 0.  1.
         12    1    3    3    0    0 -0.16319526782E+02  0.12980243884E+02  0.81204007474E+01  0.22377546648E+02  0.00000000000E+00 0. -1.
</event>
<event>
 7    1  0.3461631E-013  0.5930196E+02  0.7816164E-02  0.1266605E+00
        -11   -1    0    0    0    0  0.00000000000E+00  0.00000000000E+00  0.45593999997E+02  0.45594000000E+02  0.51100000000E-03 0. -1.
         11   -1    0    0    0    0 -0.00000000000E+00 -0.00000000000E+00 -0.45593999997E+02  0.45594000000E+02  0.51100000000E-03 0.  1.
    9900012    2    1    2    0    0 -0.22532152574E+02 -0.17228521312E+02  0.14567078549E+02  0.59301958796E+02  0.50000026935E+02 0.  0.
         12    1    1    2    0    0  0.22532152574E+02  0.17228521312E+02 -0.14567078549E+02  0.31886041204E+02  0.00000000000E+00 0. -1.
         11    1    3    3    0    0  0.37947992919E+01  0.15753545258E+01  0.18528665832E+01  0.45072561924E+01  0.51100000000E-03 0. -1.
        -11    1    3    3    0    0 -0.17521206361E+02 -0.22765364236E+01 -0.13740548760E+02  0.22382537187E+02  0.51100000000E-03 0.  1.
         12    1    3    3    0    0 -0.88057455048E+01 -0.16527339414E+02  0.26454760725E+02  0.32412165417E+02  0.00000000000E+00 0. -1.
</event>
<event>
 7    1  0.3461631E-013  0.5930197E+02  0.7816164E-02  0.1266605E+00
        -11   -1    0    0    0    0  0.00000000000E+00  0.00000000000E+00  0.45593999997E+02  0.45594000000E+02  0.51100000000E-03 0.  1.
         11   -1    0    0    0    0 -0.00000000000E+00 -0.00000000000E+00 -0.45593999997E+02  0.45594000000E+02  0.51100000000E-03 0. -1.
    9900012    2    1    2    0    0  0.96543048506E+01  0.14565352511E+02  0.26671408793E+02  0.59301966334E+02  0.50000040681E+02 0.  0.
         12    1    1    2    0    0 -0.96543048506E+01 -0.14565352511E+02 -0.26671408793E+02  0.31886033666E+02  0.00000000000E+00 0. -1.
         11    1    3    3    0    0  0.16376611960E+02 -0.63303599705E+01  0.10413886817E+02  0.20413620833E+02  0.51100000000E-03 0. -1.
        -11    1    3    3    0    0  0.86990557337E+01 -0.30097455535E-02  0.97596912377E+00  0.87536332861E+01  0.51100000000E-03 0.  1.
        -12    1    3    3    0    0 -0.15421362843E+02  0.20898722227E+02  0.15281552853E+02  0.30134712215E+02  0.00000000000E+00 0.  1.
</event>
<event>
 7    1  0.3461631E-013  0.5930198E+02  0.7816164E-02  0.1266605E+00
        -11   -1    0    0    0    0  0.00000000000E+00  0.00000000000E+00  0.45593999997E+02  0.45594000000E+02  0.51100000000E-03 0.  1.
         11   -1    0    0    0    0 -0.00000000000E+00 -0.00000000000E+00 -0.45593999997E+02  0.45594000000E+02  0.51100000000E-03 0. -1.
    9900012    2    1    2    0    0  0.13685777547E+02 -0.18405695524E+02  0.22150585676E+02  0.59301975152E+02  0.50000056764E+02 0.  0.
         12    1    1    2    0    0 -0.13685777547E+02  0.18405695524E+02 -0.22150585676E+02  0.31886024848E+02  0.00000000000E+00 0. -1.
         11    1    3    3    0    0  0.12199789180E+02 -0.10138581984E+01  0.56094753516E+01  0.13465844885E+02  0.51100000000E-03 0. -1.
        -11    1    3    3    0    0  0.17172344450E+02 -0.79526942086E+01  0.19633772259E+02  0.27269392595E+02  0.51100000000E-03 0.  1.
         12    1    3    3    0    0 -0.15686356083E+02 -0.94391431173E+01 -0.30926619350E+01  0.18566737673E+02  0.00000000000E+00 0. -1.
</event>
<event>
 7    1  0.3461631E-013  0.5930195E+02  0.7816164E-02  0.1266605E+00
        -11   -1    0    0    0    0  0.00000000000E+00  0.00000000000E+00  0.45593999997E+02  0.45594000000E+02  0.51100000000E-03 0.  1.
         11   -1    0    0    0    0 -0.00000000000E+00 -0.00000000000E+00 -0.45593999997E+02  0.45594000000E+02  0.51100000000E-03 0. -1.
    9900012    2    1    2    0    0  0.15273098933E+02  0.27736750665E+02 -0.37583864159E+01  0.59301947298E+02  0.50000005965E+02 0.  0.
         12    1    1    2    0    0 -0.15273098933E+02 -0.27736750665E+02  0.37583864159E+01  0.31886052702E+02  0.00000000000E+00 0. -1.
         11    1    3    3    0    0  0.27360206415E+01  0.16066850550E+02  0.47448570856E+01  0.16974780251E+02  0.51100000000E-03 0. -1.
        -11    1    3    3    0    0  0.15383118391E+00  0.17188420211E+02  0.96170849941E+01  0.19696542271E+02  0.51100000000E-03 0.  1.
         12    1    3    3    0    0  0.12383247108E+02 -0.55185200963E+01 -0.18120328496E+02  0.22630624776E+02  0.00000000000E+00 0. -1.
</event>
<event>
 7    1  0.3461631E-013  0.5930205E+02  0.7816164E-02  0.1266604E+00
        -11   -1    0    0    0    0  0.00000000000E+00  0.00000000000E+00  0.45593999997E+02  0.45594000000E+02  0.51100000000E-03 0.  1.
         11   -1    0    0    0    0 -0.00000000000E+00 -0.00000000000E+00 -0.45593999997E+02  0.45594000000E+02  0.51100000000E-03 0. -1.
    9900012    2    1    2    0    0 -0.46347511298E+00  0.31579659016E+02 -0.43845355145E+01  0.59302049733E+02  0.50000192781E+02 0.  0.
         12    1    1    2    0    0  0.46347511298E+00 -0.31579659016E+02  0.43845355145E+01  0.31885950267E+02  0.00000000000E+00 0. -1.
         11    1    3    3    0    0 -0.93445749663E+01  0.21419565809E+01 -0.25380905253E+01  0.99172054063E+01  0.51100000000E-03 0. -1.
        -11    1    3    3    0    0  0.50933020822E+00 -0.82761783065E+01 -0.64151488181E+01  0.10483734031E+02  0.51100000000E-03 0.  1.
        -12    1    3    3    0    0  0.83717696451E+01  0.37713880741E+02  0.45687038290E+01  0.38901110296E+02  0.00000000000E+00 0.  1.
</event>
<event>
 7    1  0.3461631E-013  0.5930194E+02  0.7816164E-02  0.1266605E+00
        -11   -1    0    0    0    0  0.00000000000E+00  0.00000000000E+00  0.45593999997E+02  0.45594000000E+02  0.51100000000E-03 0.  1.
         11   -1    0    0    0    0 -0.00000000000E+00 -0.00000000000E+00 -0.45593999997E+02  0.45594000000E+02  0.51100000000E-03 0. -1.
    9900012    2    1    2    0    0 -0.13105195862E+02  0.29021240532E+02 -0.16559248405E+01  0.59301942739E+02  0.49999997650E+02 0.  0.
         12    1    1    2    0    0  0.13105195862E+02 -0.29021240532E+02  0.16559248405E+01  0.31886057261E+02  0.00000000000E+00 0. -1.
         11    1    3    3    0    0 -0.95505530445E+01  0.93009142855E+01 -0.72865513779E+01  0.15192560721E+02  0.51100000000E-03 0. -1.
        -11    1    3    3    0    0 -0.74300705374E+01  0.20257277323E+02 -0.12920882644E+02  0.25149800025E+02  0.51100000000E-03 0.  1.
         12    1    3    3    0    0  0.38754277200E+01 -0.53695107669E+00  0.18551509181E+02  0.18959581994E+02  0.00000000000E+00 0. -1.
</event>
<event>
 7    1  0.3461631E-013  0.5930195E+02  0.7816164E-02  0.1266605E+00
        -11   -1    0    0    0    0  0.00000000000E+00  0.00000000000E+00  0.45593999997E+02  0.45594000000E+02  0.51100000000E-03 0.  1.
         11   -1    0    0    0    0 -0.00000000000E+00 -0.00000000000E+00 -0.45593999997E+02  0.45594000000E+02  0.51100000000E-03 0. -1.
    9900012    2    1    2    0    0 -0.20666403280E+01  0.19365797294E+02  0.25247085055E+02  0.59301946452E+02  0.50000004421E+02 0.  0.
         12    1    1    2    0    0  0.20666403280E+01 -0.19365797294E+02 -0.25247085055E+02  0.31886053548E+02  0.00000000000E+00 0. -1.
         11    1    3    3    0    0 -0.32078678156E+01  0.50922812901E+01 -0.55089523745E+01  0.81590625188E+01  0.51100000000E-03 0. -1.
        -11    1    3    3    0    0 -0.46627083519E+01  0.26419870850E+02  0.16310534258E+02  0.31397196578E+02  0.51100000000E-03 0.  1.
         12    1    3    3    0    0  0.58039358395E+01 -0.12146354845E+02  0.14445503172E+02  0.19745687355E+02  0.00000000000E+00 0. -1.
</event>
<event>
 7    1  0.3489709E-013  0.5930195E+02  0.7816164E-02  0.1266605E+00
        -11   -1    0    0    0    0  0.00000000000E+00  0.00000000000E+00  0.45593999997E+02  0.45594000000E+02  0.51100000000E-03 0. -1.
         11   -1    0    0    0    0 -0.00000000000E+00 -0.00000000000E+00 -0.45593999997E+02  0.45594000000E+02  0.51100000000E-03 0.  1.
    9900012    2    1    2    0    0 -0.19189133315E+02 -0.78371011055E+01 -0.24229674330E+02  0.59301951182E+02  0.50000013048E+02 0.  0.
         12    1    1    2    0    0  0.19189133315E+02  0.78371011055E+01  0.24229674330E+02  0.31886048818E+02  0.00000000000E+00 0. -1.
         11    1    3    3    0    0  0.55084391120E+01 -0.25206292125E+01 -0.32517667921E+01  0.68753516716E+01  0.51100000000E-03 0. -1.
        -11    1    3    3    0    0 -0.17895389787E+02 -0.20801709830E+02 -0.22443982379E+02  0.35449801872E+02  0.51100000000E-03 0.  1.
         12    1    3    3    0    0 -0.68021826401E+01  0.15485237937E+02  0.14660748413E+01  0.16976797639E+02  0.00000000000E+00 0. -1.
</event>
<event>
 7    1  0.3461631E-013  0.5930194E+02  0.7816164E-02  0.1266605E+00
        -11   -1    0    0    0    0  0.00000000000E+00  0.00000000000E+00  0.45593999997E+02  0.45594000000E+02  0.51100000000E-03 0. -1.
         11   -1    0    0    0    0 -0.00000000000E+00 -0.00000000000E+00 -0.45593999997E+02  0.45594000000E+02  0.51100000000E-03 0.  1.
    9900012    2    1    2    0    0  0.30421052369E+02 -0.94436520120E+01  0.14484016649E+01  0.59301939441E+02  0.49999991635E+02 0.  0.
         12    1    1    2    0    0 -0.30421052369E+02  0.94436520120E+01 -0.14484016649E+01  0.31886060559E+02  0.00000000000E+00 0. -1.
         11    1    3    3    0    0  0.55555259672E+01  0.50483887209E+01  0.39538868917E+01  0.84842983954E+01  0.51100000000E-03 0. -1.
        -11    1    3    3    0    0  0.19689305054E+02  0.11111513967E+02  0.59206748777E+01  0.23370683931E+02  0.51100000000E-03 0.  1.
         12    1    3    3    0    0  0.51762213480E+01 -0.25603554700E+02 -0.84261601045E+01  0.27446957114E+02  0.00000000000E+00 0. -1.
</event>
<event>
 7    1  0.3461631E-013  0.5930195E+02  0.7816164E-02  0.1266605E+00
        -11   -1    0    0    0    0  0.00000000000E+00  0.00000000000E+00  0.45593999997E+02  0.45594000000E+02  0.51100000000E-03 0. -1.
         11   -1    0    0    0    0 -0.00000000000E+00 -0.00000000000E+00 -0.45593999997E+02  0.45594000000E+02  0.51100000000E-03 0.  1.
    9900012    2    1    2    0    0 -0.30392456755E+02 -0.96339870204E+01 -0.45293269682E+00  0.59301948480E+02  0.50000008120E+02 0.  0.
         12    1    1    2    0    0  0.30392456755E+02  0.96339870204E+01  0.45293269682E+00  0.31886051520E+02  0.00000000000E+00 0. -1.
         11    1    3    3    0    0 -0.75153167775E+01  0.16757795695E+01 -0.63343404985E+01  0.99705613305E+01  0.51100000000E-03 0. -1.
        -11    1    3    3    0    0 -0.12001693321E+02  0.15508842935E+02  0.55847255419E+01  0.20390046871E+02  0.51100000000E-03 0.  1.
         12    1    3    3    0    0 -0.10875446656E+02 -0.26818609524E+02  0.29668225979E+00  0.28941340279E+02  0.00000000000E+00 0. -1.
</event>
<event>
 7    1  0.3461631E-013  0.5930195E+02  0.7816164E-02  0.1266605E+00
        -11   -1    0    0    0    0  0.00000000000E+00  0.00000000000E+00  0.45593999997E+02  0.45594000000E+02  0.51100000000E-03 0. -1.
         11   -1    0    0    0    0 -0.00000000000E+00 -0.00000000000E+00 -0.45593999997E+02  0.45594000000E+02  0.51100000000E-03 0.  1.
    9900012    2    1    2    0    0 -0.24681120029E+02 -0.87507302114E+01 -0.18193051788E+02  0.59301951351E+02  0.50000013355E+02 0.  0.
         12    1    1    2    0    0  0.24681120029E+02  0.87507302114E+01  0.18193051788E+02  0.31886048649E+02  0.00000000000E+00 0. -1.
         11    1    3    3    0    0 -0.68851867523E+01 -0.94912104133E+01 -0.34877269715E+00  0.11730750802E+02  0.51100000000E-03 0. -1.
        -11    1    3    3    0    0 -0.28964385125E+02  0.81994311083E+01 -0.87391045330E+01  0.31345465772E+02  0.51100000000E-03 0.  1.
        -12    1    3    3    0    0  0.11168451849E+02 -0.74589509065E+01 -0.91051745577E+01  0.16225734777E+02  0.00000000000E+00 0.  1.
</event>
<event>
 7    1  0.3461631E-013  0.5930178E+02  0.7816164E-02  0.1266605E+00
        -11   -1    0    0    0    0  0.00000000000E+00  0.00000000000E+00  0.45593999997E+02  0.45594000000E+02  0.51100000000E-03 0.  1.
         11   -1    0    0    0    0 -0.00000000000E+00 -0.00000000000E+00 -0.45593999997E+02  0.45594000000E+02  0.51100000000E-03 0. -1.
    9900012    2    1    2    0    0 -0.12692213432E+02  0.80179839018E+01  0.28130954400E+02  0.59301781298E+02  0.49999703218E+02 0.  0.
         12    1    1    2    0    0  0.12692213432E+02 -0.80179839018E+01 -0.28130954400E+02  0.31886218702E+02  0.00000000000E+00 0. -1.
         11    1    3    3    0    0 -0.41466863441E+01  0.10486243672E+02  0.28419900139E+02  0.30575268407E+02  0.51100000000E-03 0. -1.
        -11    1    3    3    0    0 -0.64454555335E+01 -0.69583330045E+00  0.13335440913E+02  0.14827746478E+02  0.51100000000E-03 0.  1.
         12    1    3    3    0    0 -0.21000715547E+01 -0.17724264700E+01 -0.13624386652E+02  0.13898766412E+02  0.00000000000E+00 0. -1.
</event>
<event>
 7    1  0.3461631E-013  0.5930196E+02  0.7816164E-02  0.1266605E+00
        -11   -1    0    0    0    0  0.00000000000E+00  0.00000000000E+00  0.45593999997E+02  0.45594000000E+02  0.51100000000E-03 0. -1.
         11   -1    0    0    0    0 -0.00000000000E+00 -0.00000000000E+00 -0.45593999997E+02  0.45594000000E+02  0.51100000000E-03 0.  1.
    9900012    2    1    2    0    0 -0.14021050455E+02 -0.13085626136E+02 -0.25473437090E+02  0.59301961293E+02  0.50000031488E+02 0.  0.
         12    1    1    2    0    0  0.14021050455E+02  0.13085626136E+02  0.25473437090E+02  0.31886038707E+02  0.00000000000E+00 0. -1.
         11    1    3    3    0    0 -0.12341198556E+01 -0.21078111650E+00 -0.23928578958E+01  0.27006017232E+01  0.51100000000E-03 0. -1.
        -11    1    3    3    0    0 -0.23986144810E+02 -0.21245880947E+02 -0.30691118175E+01  0.32189160406E+02  0.51100000000E-03 0.  1.
         12    1    3    3    0    0  0.11199214210E+02  0.83710359271E+01 -0.20011467377E+02  0.24412199163E+02  0.00000000000E+00 0. -1.
</event>
<event>
 7    1  0.3461631E-013  0.5930214E+02  0.7816164E-02  0.1266604E+00
        -11   -1    0    0    0    0  0.00000000000E+00  0.00000000000E+00  0.45593999997E+02  0.45594000000E+02  0.51100000000E-03 0. -1.
         11   -1    0    0    0    0 -0.00000000000E+00 -0.00000000000E+00 -0.45593999997E+02  0.45594000000E+02  0.51100000000E-03 0.  1.
    9900012    2    1    2    0    0  0.83801181164E+01 -0.30308282195E+02 -0.52810625505E+01  0.59302141521E+02  0.50000360179E+02 0.  0.
         12    1    1    2    0    0 -0.83801181164E+01  0.30308282195E+02  0.52810625505E+01  0.31885858479E+02  0.00000000000E+00 0. -1.
         11    1    3    3    0    0  0.78529566428E-01 -0.19709429492E+02  0.17954740991E+02  0.26661592265E+02  0.51100000000E-03 0. -1.
        -11    1    3    3    0    0 -0.54878280359E+01 -0.49856544182E+01 -0.43650233274E+01  0.86038616585E+01  0.51100000000E-03 0.  1.
        -12    1    3    3    0    0  0.13789416586E+02 -0.56131982849E+01 -0.18870780214E+02  0.24036687597E+02  0.00000000000E+00 0.  1.
</event>
<event>
 7    1  0.3461631E-013  0.5930194E+02  0.7816164E-02  0.1266605E+00
        -11   -1    0    0    0    0  0.00000000000E+00  0.00000000000E+00  0.45593999997E+02  0.45594000000E+02  0.51100000000E-03 0.  1.
         11   -1    0    0    0    0 -0.00000000000E+00 -0.00000000000E+00 -0.45593999997E+02  0.45594000000E+02  0.51100000000E-03 0. -1.
    9900012    2    1    2    0    0  0.23037530922E+02  0.22007485837E+02  0.12898490958E+01  0.59301937613E+02  0.49999988301E+02 0.  0.
         12    1    1    2    0    0 -0.23037530922E+02 -0.22007485837E+02 -0.12898490958E+01  0.31886062387E+02  0.00000000000E+00 0. -1.
         11    1    3    3    0    0 -0.24379304084E+01  0.18732004279E+02 -0.68727687485E+01  0.20101403919E+02  0.51100000000E-03 0. -1.
        -11    1    3    3    0    0  0.88138038645E+01  0.14688221189E+02  0.82314532025E+01  0.19004836288E+02  0.51100000000E-03 0.  1.
         12    1    3    3    0    0  0.16661657466E+02 -0.11412739631E+02 -0.68835358130E-01  0.20195697406E+02  0.00000000000E+00 0. -1.
</event>
<event>
 7    1  0.3461631E-013  0.5930193E+02  0.7816164E-02  0.1266605E+00
        -11   -1    0    0    0    0  0.00000000000E+00  0.00000000000E+00  0.45593999997E+02  0.45594000000E+02  0.51100000000E-03 0.  1.
         11   -1    0    0    0    0 -0.00000000000E+00 -0.00000000000E+00 -0.45593999997E+02  0.45594000000E+02  0.51100000000E-03 0. -1.
    9900012    2    1    2    0    0  0.22034898807E+02  0.14642081082E+02  0.17798718214E+02  0.59301926647E+02  0.49999968301E+02 0.  0.
         12    1    1    2    0    0 -0.22034898807E+02 -0.14642081082E+02 -0.17798718214E+02  0.31886073353E+02  0.00000000000E+00 0. -1.
         11    1    3    3    0    0  0.10194063388E+02  0.49159150771E+00 -0.54337987164E+01  0.11562299050E+02  0.51100000000E-03 0. -1.
        -11    1    3    3    0    0  0.97907314297E+01 -0.82254727288E+01  0.21738148865E+02  0.25220308084E+02  0.51100000000E-03 0.  1.
        -12    1    3    3    0    0  0.20501039890E+01  0.22375962303E+02  0.14943680655E+01  0.22519319512E+02  0.00000000000E+00 0.  1.
</event>
<event>
 7    1  0.3977813E-013  0.5930193E+02  0.7816164E-02  0.1266605E+00
        -11   -1    0    0    0    0  0.00000000000E+00  0.00000000000E+00  0.45593999997E+02  0.45594000000E+02  0.51100000000E-03 0. -1.
         11   -1    0    0    0    0 -0.00000000000E+00 -0.00000000000E+00 -0.45593999997E+02  0.45594000000E+02  0.51100000000E-03 0.  1.
    9900012    2    1    2    0    0  0.28924657322E+02 -0.95322513963E+01 -0.94457204245E+01  0.59301933259E+02  0.49999980360E+02 0.  0.
         12    1    1    2    0    0 -0.28924657322E+02  0.95322513963E+01  0.94457204245E+01  0.31886066741E+02  0.00000000000E+00 0. -1.
         11    1    3    3    0    0  0.11677166780E+02  0.66546661174E+01  0.80935038026E+01  0.15689028307E+02  0.51100000000E-03 0. -1.
        -11    1    3    3    0    0  0.22101887955E+02 -0.22114400455E+02 -0.99049746200E+01  0.32797083424E+02  0.51100000000E-03 0.  1.
         12    1    3    3    0    0 -0.48543974126E+01  0.59274829410E+01 -0.76342496072E+01  0.10815821528E+02  0.00000000000E+00 0. -1.
</event>
<event>
 7    1  0.3461631E-013  0.5930188E+02  0.7816164E-02  0.1266605E+00
        -11   -1    0    0    0    0  0.00000000000E+00  0.00000000000E+00  0.45593999997E+02  0.45594000000E+02  0.51100000000E-03 0.  1.
         11   -1    0    0    0    0 -0.00000000000E+00 -0.00000000000E+00 -0.45593999997E+02  0.45594000000E+02  0.51100000000E-03 0. -1.
    9900012    2    1    2    0    0  0.16898779437E+02 -0.20198131080E+02  0.17977518460E+02  0.59301883655E+02  0.49999889895E+02 0.  0.
         12    1    1    2    0    0 -0.16898779437E+02  0.20198131080E+02 -0.17977518460E+02  0.31886116345E+02  0.00000000000E+00 0. -1.
         11    1    3    3    0    0  0.91866067548E+01 -0.11463070254E+02  0.15714465344E+01  0.14773800046E+02  0.51100000000E-03 0. -1.
        -11    1    3    3    0    0  0.23063512604E+02 -0.10130799125E+01  0.42365678334E+01  0.23471268645E+02  0.51100000000E-03 0.  1.
         12    1    3    3    0    0 -0.15351339921E+02 -0.77219809132E+01  0.12169504092E+02  0.21056814965E+02  0.00000000000E+00 0. -1.
</event>
<event>
 7    1  0.3461631E-013  0.5930194E+02  0.7816164E-02  0.1266605E+00
        -11   -1    0    0    0    0  0.00000000000E+00  0.00000000000E+00  0.45593999997E+02  0.45594000000E+02  0.51100000000E-03 0.  1.
         11   -1    0    0    0    0 -0.00000000000E+00 -0.00000000000E+00 -0.45593999997E+02  0.45594000000E+02  0.51100000000E-03 0. -1.
    9900012    2    1    2    0    0  0.90895223025E+01 -0.25075664088E+02  0.17473185291E+02  0.59301944281E+02  0.50000000462E+02 0.  0.
         12    1    1    2    0    0 -0.90895223025E+01  0.25075664088E+02 -0.17473185291E+02  0.31886055719E+02  0.00000000000E+00 0. -1.
         11    1    3    3    0    0 -0.20513359886E+01 -0.23422243607E+01  0.72630781513E+00  0.31971108203E+01  0.51100000000E-03 0. -1.
        -11    1    3    3    0    0  0.65942823731E+01 -0.30083579448E+02  0.28198966419E+02  0.41757490583E+02  0.51100000000E-03 0.  1.
         12    1    3    3    0    0  0.45465759181E+01  0.73501397206E+01 -0.11452088943E+02  0.14347342878E+02  0.00000000000E+00 0. -1.
</event>
<event>
 7    1  0.3461631E-013  0.5930193E+02  0.7816164E-02  0.1266605E+00
        -11   -1    0    0    0    0  0.00000000000E+00  0.00000000000E+00  0.45593999997E+02  0.45594000000E+02  0.51100000000E-03 0.  1.
         11   -1    0    0    0    0 -0.00000000000E+00 -0.00000000000E+00 -0.45593999997E+02  0.45594000000E+02  0.51100000000E-03 0. -1.
    9900012    2    1    2    0    0  0.14107859291E+02 -0.28350203151E+02 -0.37357757166E+01  0.59301925725E+02  0.49999966620E+02 0.  0.
         12    1    1    2    0    0 -0.14107859291E+02  0.28350203151E+02  0.37357757166E+01  0.31886074275E+02  0.00000000000E+00 0. -1.
         11    1    3    3    0    0  0.57948051195E+01  0.50848904299E+01 -0.16961046086E+02  0.18630967813E+02  0.51100000000E-03 0. -1.
        -11    1    3    3    0    0  0.92048437920E+00  0.20321565927E+01  0.79926366008E+00  0.23697625554E+01  0.51100000000E-03 0.  1.
         12    1    3    3    0    0  0.73925697921E+01 -0.35467250173E+02  0.12426006710E+02  0.38301195356E+02  0.00000000000E+00 0. -1.
</event>
<event>
 7    1  0.3461631E-013  0.5930194E+02  0.7816164E-02  0.1266605E+00
        -11   -1    0    0    0    0  0.00000000000E+00  0.00000000000E+00  0.45593999997E+02  0.45594000000E+02  0.51100000000E-03 0.  1.
         11   -1    0    0    0    0 -0.00000000000E+00 -0.00000000000E+00 -0.45593999997E+02  0.45594000000E+02  0.51100000000E-03 0. -1.
    9900012    2    1    2    0    0  0.63216475375E+00  0.12173492349E+02  0.29464001028E+02  0.59301938707E+02  0.49999990295E+02 0.  0.
         12    1    1    2    0    0 -0.63216475375E+00 -0.12173492349E+02 -0.29464001028E+02  0.31886061293E+02  0.00000000000E+00 0. -1.
         11    1    3    3    0    0 -0.67801074959E+01  0.75618836608E+01 -0.64183488712E+01  0.12014455653E+02  0.51100000000E-03 0. -1.
        -11    1    3    3    0    0 -0.36890384398E+01  0.91562134057E+01  0.45223008585E+00  0.98817893548E+01  0.51100000000E-03 0.  1.
        -12    1    3    3    0    0  0.11101310689E+02 -0.45446047178E+01  0.35430119813E+02  0.37405693698E+02  0.00000000000E+00 0.  1.
</event>
<event>
 7    1  0.3461631E-013  0.5930196E+02  0.7816164E-02  0.1266605E+00
        -11   -1    0    0    0    0  0.00000000000E+00  0.00000000000E+00  0.45593999997E+02  0.45594000000E+02  0.51100000000E-03 0.  1.
         11   -1    0    0    0    0 -0.00000000000E+00 -0.00000000000E+00 -0.45593999997E+02  0.45594000000E+02  0.51100000000E-03 0. -1.
    9900012    2    1    2    0    0 -0.91195632808E+01 -0.65226770749E+01  0.29849757880E+02  0.59301956091E+02  0.50000022001E+02 0.  0.
         12    1    1    2    0    0  0.91195632808E+01  0.65226770749E+01 -0.29849757880E+02  0.31886043909E+02  0.00000000000E+00 0. -1.
         11    1    3    3    0    0 -0.79316204537E+01 -0.10111290989E+01  0.19622908741E+02  0.21189420303E+02  0.51100000000E-03 0. -1.
        -11    1    3    3    0    0  0.60967742002E+01  0.14116015726E+01  0.21860848737E+02  0.22738952975E+02  0.51100000000E-03 0.  1.
         12    1    3    3    0    0 -0.72847170273E+01 -0.69231495485E+01 -0.11633999598E+02  0.15373582813E+02  0.00000000000E+00 0. -1.
</event>
<event>
 7    1  0.3461631E-013  0.5930194E+02  0.7816164E-02  0.1266605E+00
        -11   -1    0    0    0    0  0.00000000000E+00  0.00000000000E+00  0.45593999997E+02  0.45594000000E+02  0.51100000000E-03 0.  1.
         11   -1    0    0    0    0 -0.00000000000E+00 -0.00000000000E+00 -0.45593999997E+02  0.45594000000E+02  0.51100000000E-03 0. -1.
    9900012    2    1    2    0    0 -0.77774310722E+01 -0.12306519313E+02  0.28368675098E+02  0.59301943824E+02  0.49999999628E+02 0.  0.
         12    1    1    2    0    0  0.77774310722E+01  0.12306519313E+02 -0.28368675098E+02  0.31886056176E+02  0.00000000000E+00 0. -1.
         11    1    3    3    0    0  0.84379435515E+01 -0.21795598850E+01 -0.77021482097E+01  0.11630668939E+02  0.51100000000E-03 0. -1.
        -11    1    3    3    0    0 -0.83694468057E+01 -0.11881661125E+02  0.46817425638E+01  0.15268930042E+02  0.51100000000E-03 0.  1.
        -12    1    3    3    0    0 -0.78459278179E+01  0.17547016967E+01  0.31389080744E+02  0.32402344843E+02  0.00000000000E+00 0.  1.
</event>
<event>
 7    1  0.3461631E-013  0.5930194E+02  0.7816164E-02  0.1266605E+00
        -11   -1    0    0    0    0  0.00000000000E+00  0.00000000000E+00  0.45593999997E+02  0.45594000000E+02  0.51100000000E-03 0.  1.
         11   -1    0    0    0    0 -0.00000000000E+00 -0.00000000000E+00 -0.45593999997E+02  0.45594000000E+02  0.51100000000E-03 0. -1.
    9900012    2    1    2    0    0 -0.24984625970E+02 -0.16664413351E+01  0.19741124224E+02  0.59301944314E+02  0.50000000523E+02 0.  0.
         12    1    1    2    0    0  0.24984625970E+02  0.16664413351E+01 -0.19741124224E+02  0.31886055686E+02  0.00000000000E+00 0. -1.
         11    1    3    3    0    0 -0.86091098798E+01 -0.31694888861E+01 -0.63633544631E+01  0.11164887505E+02  0.51100000000E-03 0. -1.
        -11    1    3    3    0    0 -0.26209957224E+02  0.59922675396E+01  0.98866888836E+01  0.28646391489E+02  0.51100000000E-03 0.  1.
         12    1    3    3    0    0  0.98344411344E+01 -0.44892199885E+01  0.16217789803E+02  0.19490665320E+02  0.00000000000E+00 0. -1.
</event>
<event>
 7    1  0.3461631E-013  0.5930196E+02  0.7816164E-02  0.1266605E+00
        -11   -1    0    0    0    0  0.00000000000E+00  0.00000000000E+00  0.45593999997E+02  0.45594000000E+02  0.51100000000E-03 0.  1.
         11   -1    0    0    0    0 -0.00000000000E+00 -0.00000000000E+00 -0.45593999997E+02  0.45594000000E+02  0.51100000000E-03 0. -1.
    9900012    2    1    2    0    0 -0.12346394833E+02 -0.29073485216E+02  0.43610578417E+01  0.59301955506E+02  0.50000020934E+02 0.  0.
         12    1    1    2    0    0  0.12346394833E+02  0.29073485216E+02 -0.43610578417E+01  0.31886044494E+02  0.00000000000E+00 0. -1.
         11    1    3    3    0    0  0.11083600677E+02 -0.15000020265E+02  0.14398635879E+02  0.23561993280E+02  0.51100000000E-03 0. -1.
        -11    1    3    3    0    0 -0.15374993258E+02 -0.20278358256E+01  0.35125438353E+01  0.15900959099E+02  0.51100000000E-03 0.  1.
         12    1    3    3    0    0 -0.80550022514E+01 -0.12045629125E+02 -0.13550121873E+02  0.19839003126E+02  0.00000000000E+00 0. -1.
</event>
<event>
 7    1  0.3461631E-013  0.5930201E+02  0.7816164E-02  0.1266605E+00
        -11   -1    0    0    0    0  0.00000000000E+00  0.00000000000E+00  0.45593999997E+02  0.45594000000E+02  0.51100000000E-03 0.  1.
         11   -1    0    0    0    0 -0.00000000000E+00 -0.00000000000E+00 -0.45593999997E+02  0.45594000000E+02  0.51100000000E-03 0. -1.
    9900012    2    1    2    0    0 -0.69090818809E+01 -0.25232514785E+02  0.18229127868E+02  0.59302010637E+02  0.50000121479E+02 0.  0.
         12    1    1    2    0    0  0.69090818809E+01  0.25232514785E+02 -0.18229127868E+02  0.31885989363E+02  0.00000000000E+00 0. -1.
         11    1    3    3    0    0  0.38722693479E+01 -0.18441211962E+02  0.64363331176E+01  0.19912286478E+02  0.51100000000E-03 0.  1.
        -11    1    3    3    0    0 -0.95589472897E+01  0.13528836638E+02  0.89707103042E+01  0.18838167047E+02  0.51100000000E-03 0. -1.
         12    1    3    3    0    0 -0.12224039391E+01 -0.20320139461E+02  0.28220844462E+01  0.20551557112E+02  0.00000000000E+00 0. -1.
</event>
<event>
 7    1  0.3461631E-013  0.5930196E+02  0.7816164E-02  0.1266605E+00
        -11   -1    0    0    0    0  0.00000000000E+00  0.00000000000E+00  0.45593999997E+02  0.45594000000E+02  0.51100000000E-03 0.  1.
         11   -1    0    0    0    0 -0.00000000000E+00 -0.00000000000E+00 -0.45593999997E+02  0.45594000000E+02  0.51100000000E-03 0. -1.
    9900012    2    1    2    0    0 -0.23199735326E+02  0.16992710562E+02  0.13774591382E+02  0.59301963884E+02  0.50000036213E+02 0.  0.
         12    1    1    2    0    0  0.23199735326E+02 -0.16992710562E+02 -0.13774591382E+02  0.31886036116E+02  0.00000000000E+00 0. -1.
         11    1    3    3    0    0 -0.71956190227E+01  0.68302640975E+01  0.10546721667E+02  0.14479736839E+02  0.51100000000E-03 0. -1.
        -11    1    3    3    0    0 -0.16831975408E+02  0.73562247410E+01  0.20371682515E+02  0.27430546610E+02  0.51100000000E-03 0.  1.
         12    1    3    3    0    0  0.82785910397E+00  0.28062217235E+01 -0.17143812799E+02  0.17391680435E+02  0.00000000000E+00 0. -1.
</event>
<event>
 7    1  0.3461631E-013  0.5930195E+02  0.7816164E-02  0.1266605E+00
        -11   -1    0    0    0    0  0.00000000000E+00  0.00000000000E+00  0.45593999997E+02  0.45594000000E+02  0.51100000000E-03 0. -1.
         11   -1    0    0    0    0 -0.00000000000E+00 -0.00000000000E+00 -0.45593999997E+02  0.45594000000E+02  0.51100000000E-03 0.  1.
    9900012    2    1    2    0    0 -0.19908208658E+01  0.23723100838E+02 -0.21212520273E+02  0.59301954504E+02  0.50000019106E+02 0.  0.
         12    1    1    2    0    0  0.19908208658E+01 -0.23723100838E+02  0.21212520273E+02  0.31886045496E+02  0.00000000000E+00 0. -1.
         11    1    3    3    0    0 -0.89471904330E+01  0.65794626678E+01  0.11505667084E+01  0.11165363839E+02  0.51100000000E-03 0. -1.
        -11    1    3    3    0    0  0.58055751883E+01  0.98980743529E+01  0.98351485409E+01  0.15113130921E+02  0.51100000000E-03 0.  1.
        -12    1    3    3    0    0  0.11507943788E+01  0.72455638169E+01 -0.32198235522E+02  0.33023459744E+02  0.00000000000E+00 0.  1.
</event>
<event>
 7    1  0.3461631E-013  0.5930193E+02  0.7816164E-02  0.1266605E+00
        -11   -1    0    0    0    0  0.00000000000E+00  0.00000000000E+00  0.45593999997E+02  0.45594000000E+02  0.51100000000E-03 0. -1.
         11   -1    0    0    0    0 -0.00000000000E+00 -0.00000000000E+00 -0.45593999997E+02  0.45594000000E+02  0.51100000000E-03 0.  1.
    9900012    2    1    2    0    0  0.20789570565E+02 -0.61283701741E+01  0.23387133016E+02  0.59301934768E+02  0.49999983112E+02 0.  0.
         12    1    1    2    0    0 -0.20789570565E+02  0.61283701741E+01 -0.23387133016E+02  0.31886065232E+02  0.00000000000E+00 0. -1.
         11    1    3    3    0    0 -0.58920937736E+01  0.41197667025E-01 -0.24445884604E+01  0.63792224672E+01  0.51100000000E-03 0. -1.
        -11    1    3    3    0    0 -0.62057202873E+01 -0.85723926941E+01  0.14712714502E+02  0.18123488877E+02  0.51100000000E-03 0.  1.
        -12    1    3    3    0    0  0.32887384626E+02  0.24028248530E+01  0.11119006974E+02  0.34799223424E+02  0.00000000000E+00 0.  1.
</event>
<event>
 7    1  0.3461631E-013  0.5930194E+02  0.7816164E-02  0.1266605E+00
        -11   -1    0    0    0    0  0.00000000000E+00  0.00000000000E+00  0.45593999997E+02  0.45594000000E+02  0.51100000000E-03 0. -1.
         11   -1    0    0    0    0 -0.00000000000E+00 -0.00000000000E+00 -0.45593999997E+02  0.45594000000E+02  0.51100000000E-03 0.  1.
    9900012    2    1    2    0    0  0.20108479499E+02  0.23366973360E+02  0.81458215419E+01  0.59301940344E+02  0.49999993282E+02 0.  0.
         12    1    1    2    0    0 -0.20108479499E+02 -0.23366973360E+02 -0.81458215419E+01  0.31886059656E+02  0.00000000000E+00 0. -1.
         11    1    3    3    0    0 -0.32696015006E+01 -0.83904834466E+01  0.43103561060E+01  0.99834701614E+01  0.51100000000E-03 0. -1.
        -11    1    3    3    0    0 -0.39730334597E+01  0.13688223103E+02 -0.54314945722E+01  0.15252985941E+02  0.51100000000E-03 0.  1.
        -12    1    3    3    0    0  0.27351114459E+02  0.18069233704E+02  0.92669600081E+01  0.34065484241E+02  0.00000000000E+00 0.  1.
</event>
<event>
 7    1  0.3461631E-013  0.5930208E+02  0.7816164E-02  0.1266604E+00
        -11   -1    0    0    0    0  0.00000000000E+00  0.00000000000E+00  0.45593999997E+02  0.45594000000E+02  0.51100000000E-03 0.  1.
         11   -1    0    0    0    0 -0.00000000000E+00 -0.00000000000E+00 -0.45593999997E+02  0.45594000000E+02  0.51100000000E-03 0. -1.
    9900012    2    1    2    0    0 -0.18100512966E+02  0.24122776641E+02  0.10352531012E+02  0.59302081151E+02  0.50000250079E+02 0.  0.
         12    1    1    2    0    0  0.18100512966E+02 -0.24122776641E+02 -0.10352531012E+02  0.31885918849E+02  0.00000000000E+00 0. -1.
         11    1    3    3    0    0  0.41375208141E+01  0.10930270940E+02  0.13197788270E+01  0.11761450494E+02  0.51100000000E-03 0. -1.
        -11    1    3    3    0    0 -0.21542038577E+02 -0.81845707951E+01 -0.26047478184E+01  0.23191190927E+02  0.51100000000E-03 0.  1.
         12    1    3    3    0    0 -0.69599520319E+00  0.21377076496E+02  0.11637500003E+02  0.24349439730E+02  0.00000000000E+00 0. -1.
</event>
<event>
 7    1  0.3461631E-013  0.5930197E+02  0.7816164E-02  0.1266605E+00
        -11   -1    0    0    0    0  0.00000000000E+00  0.00000000000E+00  0.45593999997E+02  0.45594000000E+02  0.51100000000E-03 0.  1.
         11   -1    0    0    0    0 -0.00000000000E+00 -0.00000000000E+00 -0.45593999997E+02  0.45594000000E+02  0.51100000000E-03 0. -1.
    9900012    2    1    2    0    0  0.23618771871E+02  0.29363336703E+01  0.21219104694E+02  0.59301971020E+02  0.50000049228E+02 0.  0.
         12    1    1    2    0    0 -0.23618771871E+02 -0.29363336703E+01 -0.21219104694E+02  0.31886028980E+02  0.00000000000E+00 0. -1.
         11    1    3    3    0    0  0.31551348341E+00 -0.15742128184E+02  0.14091890360E+01  0.15808224521E+02  0.51100000000E-03 0. -1.
        -11    1    3    3    0    0 -0.26420487699E+01  0.58914968602E+01  0.11847398465E+02  0.13492627898E+02  0.51100000000E-03 0.  1.
        -12    1    3    3    0    0  0.25945307157E+02  0.12786964994E+02  0.79625171928E+01  0.30001118601E+02  0.00000000000E+00 0.  1.
</event>
<event>
 7    1  0.3461631E-013  0.5930198E+02  0.7816164E-02  0.1266605E+00
        -11   -1    0    0    0    0  0.00000000000E+00  0.00000000000E+00  0.45593999997E+02  0.45594000000E+02  0.51100000000E-03 0.  1.
         11   -1    0    0    0    0 -0.00000000000E+00 -0.00000000000E+00 -0.45593999997E+02  0.45594000000E+02  0.51100000000E-03 0. -1.
    9900012    2    1    2    0    0 -0.68913030507E+01 -0.30441066590E+02  0.65245529211E+01  0.59301978240E+02  0.50000062394E+02 0.  0.
         12    1    1    2    0    0  0.68913030507E+01  0.30441066590E+02 -0.65245529211E+01  0.31886021760E+02  0.00000000000E+00 0. -1.
         11    1    3    3    0    0 -0.50238370329E+01 -0.11553402137E+02  0.65088920390E+01  0.14180469502E+02  0.51100000000E-03 0.  1.
        -11    1    3    3    0    0  0.84399190336E+01 -0.29258844431E+02 -0.96042051748E+00  0.30466943045E+02  0.51100000000E-03 0. -1.
         12    1    3    3    0    0 -0.10307385051E+02  0.10371179977E+02  0.97608139964E+00  0.14654565692E+02  0.00000000000E+00 0. -1.
</event>
<event>
 7    1  0.3461631E-013  0.5930192E+02  0.7816164E-02  0.1266605E+00
        -11   -1    0    0    0    0  0.00000000000E+00  0.00000000000E+00  0.45593999997E+02  0.45594000000E+02  0.51100000000E-03 0. -1.
         11   -1    0    0    0    0 -0.00000000000E+00 -0.00000000000E+00 -0.45593999997E+02  0.45594000000E+02  0.51100000000E-03 0.  1.
    9900012    2    1    2    0    0  0.17988223884E+02 -0.21820614325E+02 -0.14731153455E+02  0.59301916983E+02  0.49999950677E+02 0.  0.
         12    1    1    2    0    0 -0.17988223884E+02  0.21820614325E+02  0.14731153455E+02  0.31886083017E+02  0.00000000000E+00 0. -1.
         11    1    3    3    0    0  0.26275748607E+01 -0.60104125793E+00  0.96378440019E+01  0.10007668935E+02  0.51100000000E-03 0. -1.
        -11    1    3    3    0    0  0.20997757445E+02 -0.11591236384E+00 -0.12414231476E+02  0.24393285896E+02  0.51100000000E-03 0.  1.
        -12    1    3    3    0    0 -0.56371084218E+01 -0.21103660703E+02 -0.11954765981E+02  0.24900962152E+02  0.00000000000E+00 0.  1.
</event>
<event>
 7    1  0.3461631E-013  0.5930198E+02  0.7816164E-02  0.1266605E+00
        -11   -1    0    0    0    0  0.00000000000E+00  0.00000000000E+00  0.45593999997E+02  0.45594000000E+02  0.51100000000E-03 0.  1.
         11   -1    0    0    0    0 -0.00000000000E+00 -0.00000000000E+00 -0.45593999997E+02  0.45594000000E+02  0.51100000000E-03 0. -1.
    9900012    2    1    2    0    0 -0.17071717211E+02  0.11033736660E+02  0.24566875304E+02  0.59301980565E+02  0.50000066636E+02 0.  0.
         12    1    1    2    0    0  0.17071717211E+02 -0.11033736660E+02 -0.24566875304E+02  0.31886019435E+02  0.00000000000E+00 0. -1.
         11    1    3    3    0    0 -0.26869457768E+02  0.45097919252E+01  0.11890900441E+02  0.29727083569E+02  0.51100000000E-03 0.  1.
        -11    1    3    3    0    0  0.93604174658E+00 -0.88589973289E+01  0.33142295512E+01  0.95048474793E+01  0.51100000000E-03 0. -1.
         12    1    3    3    0    0  0.88616988105E+01  0.15382942064E+02  0.93617453110E+01  0.20070049517E+02  0.00000000000E+00 0. -1.
</event>
<event>
 7    1  0.3461631E-013  0.5930184E+02  0.7816164E-02  0.1266605E+00
        -11   -1    0    0    0    0  0.00000000000E+00  0.00000000000E+00  0.45593999997E+02  0.45594000000E+02  0.51100000000E-03 0.  1.
         11   -1    0    0    0    0 -0.00000000000E+00 -0.00000000000E+00 -0.45593999997E+02  0.45594000000E+02  0.51100000000E-03 0. -1.
    9900012    2    1    2    0    0 -0.12637831403E+02 -0.28974738868E+02  0.41805068558E+01  0.59301844500E+02  0.49999818484E+02 0.  0.
         12    1    1    2    0    0  0.12637831403E+02  0.28974738868E+02 -0.41805068558E+01  0.31886155500E+02  0.00000000000E+00 0. -1.
         11    1    3    3    0    0 -0.19907391865E+00 -0.12332420699E+02 -0.12852052076E+02  0.17813014163E+02  0.51100000000E-03 0. -1.
        -11    1    3    3    0    0  0.23618019084E+01  0.77881390383E+01 -0.17843549549E+00  0.81403352155E+01  0.51100000000E-03 0.  1.
        -12    1    3    3    0    0 -0.14800559393E+02 -0.24430457207E+02  0.17210994428E+02  0.33348495121E+02  0.00000000000E+00 0.  1.
</event>
<event>
 7    1  0.3461631E-013  0.5930193E+02  0.7816164E-02  0.1266605E+00
        -11   -1    0    0    0    0  0.00000000000E+00  0.00000000000E+00  0.45593999997E+02  0.45594000000E+02  0.51100000000E-03 0. -1.
         11   -1    0    0    0    0 -0.00000000000E+00 -0.00000000000E+00 -0.45593999997E+02  0.45594000000E+02  0.51100000000E-03 0.  1.
    9900012    2    1    2    0    0 -0.44820074590E+01  0.36852546185E+01 -0.31353659794E+02  0.59301929767E+02  0.49999973992E+02 0.  0.
         12    1    1    2    0    0  0.44820074590E+01 -0.36852546185E+01  0.31353659794E+02  0.31886070233E+02  0.00000000000E+00 0. -1.
         11    1    3    3    0    0  0.54290216221E+01 -0.14861173567E+02 -0.51608213750E+01  0.16642200368E+02  0.51100000000E-03 0. -1.
        -11    1    3    3    0    0 -0.26059144597E+01 -0.65617283540E+01 -0.28722898420E+01  0.76221465716E+01  0.51100000000E-03 0.  1.
        -12    1    3    3    0    0 -0.73051146215E+01  0.25108156540E+02 -0.23320548577E+02  0.35037582827E+02  0.00000000000E+00 0.  1.
</event>
<event>
 7    1  0.3461631E-013  0.5930198E+02  0.7816164E-02  0.1266605E+00
        -11   -1    0    0    0    0  0.00000000000E+00  0.00000000000E+00  0.45593999997E+02  0.45594000000E+02  0.51100000000E-03 0.  1.
         11   -1    0    0    0    0 -0.00000000000E+00 -0.00000000000E+00 -0.45593999997E+02  0.45594000000E+02  0.51100000000E-03 0. -1.
    9900012    2    1    2    0    0 -0.36862825958E+01 -0.21141103755E+02  0.23583536052E+02  0.59301982374E+02  0.50000069934E+02 0.  0.
         12    1    1    2    0    0  0.36862825958E+01  0.21141103755E+02 -0.23583536052E+02  0.31886017626E+02  0.00000000000E+00 0. -1.
         11    1    3    3    0    0 -0.51730471671E+01 -0.34616702928E+01 -0.10698930763E+02  0.12377830906E+02  0.51100000000E-03 0. -1.
        -11    1    3    3    0    0 -0.50279890804E+01 -0.69465792305E+00 -0.26710968940E+01  0.57356763072E+01  0.51100000000E-03 0.  1.
        -12    1    3    3    0    0  0.65147536516E+01 -0.16984775539E+02  0.36953563709E+02  0.41188475160E+02  0.00000000000E+00 0.  1.
</event>
<event>
 7    1  0.3461631E-013  0.5930194E+02  0.7816164E-02  0.1266605E+00
        -11   -1    0    0    0    0  0.00000000000E+00  0.00000000000E+00  0.45593999997E+02  0.45594000000E+02  0.51100000000E-03 0.  1.
         11   -1    0    0    0    0 -0.00000000000E+00 -0.00000000000E+00 -0.45593999997E+02  0.45594000000E+02  0.51100000000E-03 0. -1.
    9900012    2    1    2    0    0 -0.25923169863E+02  0.17344373665E+02  0.66244012852E+01  0.59301941511E+02  0.49999995410E+02 0.  0.
         12    1    1    2    0    0  0.25923169863E+02 -0.17344373665E+02 -0.66244012852E+01  0.31886058489E+02  0.00000000000E+00 0. -1.
         11    1    3    3    0    0  0.55309854433E+01  0.12845901569E+02  0.10643130204E+02  0.17575130381E+02  0.51100000000E-03 0. -1.
        -11    1    3    3    0    0 -0.19186236915E+02  0.24017185229E+01  0.10980631273E+02  0.22236326186E+02  0.51100000000E-03 0.  1.
        -12    1    3    3    0    0 -0.12267918391E+02  0.20967535733E+01 -0.14999360192E+02  0.19490484944E+02  0.00000000000E+00 0.  1.
</event>
<event>
 7    1  0.3461631E-013  0.5930194E+02  0.7816164E-02  0.1266605E+00
        -11   -1    0    0    0    0  0.00000000000E+00  0.00000000000E+00  0.45593999997E+02  0.45594000000E+02  0.51100000000E-03 0.  1.
         11   -1    0    0    0    0 -0.00000000000E+00 -0.00000000000E+00 -0.45593999997E+02  0.45594000000E+02  0.51100000000E-03 0. -1.
    9900012    2    1    2    0    0  0.78798117455E+01 -0.23419961199E+02  0.20152783197E+02  0.59301942133E+02  0.49999996545E+02 0.  0.
         12    1    1    2    0    0 -0.78798117455E+01  0.23419961199E+02 -0.20152783197E+02  0.31886057867E+02  0.00000000000E+00 0. -1.
         11    1    3    3    0    0 -0.82392903180E+01 -0.33136821457E+02  0.75450726700E+01  0.34969457575E+02  0.51100000000E-03 0. -1.
        -11    1    3    3    0    0 -0.57675501553E+00  0.30484890314E+00 -0.73247361538E+00  0.98086546480E+00  0.51100000000E-03 0.  1.
        -12    1    3    3    0    0  0.16695857079E+02  0.94120113548E+01  0.13340184142E+02  0.23351619093E+02  0.00000000000E+00 0.  1.
</event>
<event>
 7    1  0.3461631E-013  0.5930194E+02  0.7816164E-02  0.1266605E+00
        -11   -1    0    0    0    0  0.00000000000E+00  0.00000000000E+00  0.45593999997E+02  0.45594000000E+02  0.51100000000E-03 0. -1.
         11   -1    0    0    0    0 -0.00000000000E+00 -0.00000000000E+00 -0.45593999997E+02  0.45594000000E+02  0.51100000000E-03 0.  1.
    9900012    2    1    2    0    0  0.46294879457E+01  0.16494767736E+02 -0.26892584579E+02  0.59301943069E+02  0.49999998251E+02 0.  0.
         12    1    1    2    0    0 -0.46294879457E+01 -0.16494767736E+02  0.26892584579E+02  0.31886056931E+02  0.00000000000E+00 0. -1.
         11    1    3    3    0    0  0.17961927448E+02  0.39841734210E+01  0.29745509437E+01  0.18637393302E+02  0.51100000000E-03 0. -1.
        -11    1    3    3    0    0  0.34823173272E+01 -0.24644808169E+01 -0.90252209763E+01  0.99827257599E+01  0.51100000000E-03 0.  1.
        -12    1    3    3    0    0 -0.16814756830E+02  0.14975075131E+02 -0.20841914546E+02  0.30681824007E+02  0.00000000000E+00 0.  1.
</event>
<event>
 7    1  0.3933497E-013  0.5930195E+02  0.7816164E-02  0.1266605E+00
        -11   -1    0    0    0    0  0.00000000000E+00  0.00000000000E+00  0.45593999997E+02  0.45594000000E+02  0.51100000000E-03 0. -1.
         11   -1    0    0    0    0 -0.00000000000E+00 -0.00000000000E+00 -0.45593999997E+02  0.45594000000E+02  0.51100000000E-03 0.  1.
    9900012    2    1    2    0    0  0.14384804441E+02  0.28097420177E+02 -0.45091786396E+01  0.59301948012E+02  0.50000007266E+02 0.  0.
         12    1    1    2    0    0 -0.14384804441E+02 -0.28097420177E+02  0.45091786396E+01  0.31886051988E+02  0.00000000000E+00 0. -1.
         11    1    3    3    0    0 -0.47036264367E+01  0.16799685011E+02 -0.85831738321E+01  0.19442849365E+02  0.51100000000E-03 0. -1.
        -11    1    3    3    0    0  0.11472746167E+02  0.22654476938E+02 -0.62156438715E+00  0.25401487604E+02  0.51100000000E-03 0.  1.
         12    1    3    3    0    0  0.76156847109E+01 -0.11356741772E+02  0.46955595796E+01  0.14457611043E+02  0.00000000000E+00 0. -1.
</event>
<event>
 7    1  0.3461631E-013  0.5930203E+02  0.7816164E-02  0.1266604E+00
        -11   -1    0    0    0    0  0.00000000000E+00  0.00000000000E+00  0.45593999997E+02  0.45594000000E+02  0.51100000000E-03 0. -1.
         11   -1    0    0    0    0 -0.00000000000E+00 -0.00000000000E+00 -0.45593999997E+02  0.45594000000E+02  0.51100000000E-03 0.  1.
    9900012    2    1    2    0    0 -0.14478998908E+02 -0.18933549687E+02  0.21180043530E+02  0.59302031972E+02  0.50000160390E+02 0.  0.
         12    1    1    2    0    0  0.14478998908E+02  0.18933549687E+02 -0.21180043530E+02  0.31885968028E+02  0.00000000000E+00 0. -1.
         11    1    3    3    0    0  0.38207869541E+00  0.46008850038E+01  0.24185841114E+02  0.24622531097E+02  0.51100000000E-03 0. -1.
        -11    1    3    3    0    0  0.54145574257E+00 -0.87015181574E+01  0.68948121660E+01  0.11115216041E+02  0.51100000000E-03 0.  1.
         12    1    3    3    0    0 -0.15402533346E+02 -0.14832916533E+02 -0.99006097503E+01  0.23564284835E+02  0.00000000000E+00 0. -1.
</event>
<event>
 7    1  0.3461631E-013  0.5930203E+02  0.7816164E-02  0.1266604E+00
        -11   -1    0    0    0    0  0.00000000000E+00  0.00000000000E+00  0.45593999997E+02  0.45594000000E+02  0.51100000000E-03 0.  1.
         11   -1    0    0    0    0 -0.00000000000E+00 -0.00000000000E+00 -0.45593999997E+02  0.45594000000E+02  0.51100000000E-03 0. -1.
    9900012    2    1    2    0    0 -0.24075534436E+02 -0.19825522705E+02  0.66356819277E+01  0.59302031557E+02  0.50000159632E+02 0.  0.
         12    1    1    2    0    0  0.24075534436E+02  0.19825522705E+02 -0.66356819277E+01  0.31885968443E+02  0.00000000000E+00 0. -1.
         11    1    3    3    0    0 -0.55707842852E+01 -0.51608822662E+01 -0.29402305876E+01  0.81432978263E+01  0.51100000000E-03 0. -1.
        -11    1    3    3    0    0 -0.46254160554E+01 -0.80789065397E+01 -0.17617532074E+02  0.19925878681E+02  0.51100000000E-03 0.  1.
        -12    1    3    3    0    0 -0.13879334096E+02 -0.65857338991E+01  0.27193444589E+02  0.31232855050E+02  0.00000000000E+00 0.  1.
</event>
<event>
 7    1  0.3461631E-013  0.5930195E+02  0.7816164E-02  0.1266605E+00
        -11   -1    0    0    0    0  0.00000000000E+00  0.00000000000E+00  0.45593999997E+02  0.45594000000E+02  0.51100000000E-03 0. -1.
         11   -1    0    0    0    0 -0.00000000000E+00 -0.00000000000E+00 -0.45593999997E+02  0.45594000000E+02  0.51100000000E-03 0.  1.
    9900012    2    1    2    0    0 -0.28194255164E+02 -0.72213307766E+01 -0.13025231003E+02  0.59301948424E+02  0.50000008017E+02 0.  0.
         12    1    1    2    0    0  0.28194255164E+02  0.72213307766E+01  0.13025231003E+02  0.31886051576E+02  0.00000000000E+00 0. -1.
         11    1    3    3    0    0 -0.65472019055E+01 -0.15616783727E+01  0.90579894169E+01  0.11285028341E+02  0.51100000000E-03 0. -1.
        -11    1    3    3    0    0  0.22005778442E+01  0.10889714513E+02  0.67687055564E+00  0.11130434809E+02  0.51100000000E-03 0.  1.
         12    1    3    3    0    0 -0.23847631103E+02 -0.16549366917E+02 -0.22760090976E+02  0.36886485273E+02  0.00000000000E+00 0. -1.
</event>
<event>
 7    1  0.3461631E-013  0.5930195E+02  0.7816164E-02  0.1266605E+00
        -11   -1    0    0    0    0  0.00000000000E+00  0.00000000000E+00  0.45593999997E+02  0.45594000000E+02  0.51100000000E-03 0.  1.
         11   -1    0    0    0    0 -0.00000000000E+00 -0.00000000000E+00 -0.45593999997E+02  0.45594000000E+02  0.51100000000E-03 0. -1.
    9900012    2    1    2    0    0  0.18085963803E+02 -0.26117014508E+02  0.27422509298E+01  0.59301945468E+02  0.50000002627E+02 0.  0.
         12    1    1    2    0    0 -0.18085963803E+02  0.26117014508E+02 -0.27422509298E+01  0.31886054532E+02  0.00000000000E+00 0. -1.
         11    1    3    3    0    0  0.67461284216E+01  0.93118331912E+00  0.46716133482E+01  0.82584092046E+01  0.51100000000E-03 0.  1.
        -11    1    3    3    0    0  0.20077876388E+01  0.94381258872E+01  0.74987456009E+01  0.12220499880E+02  0.51100000000E-03 0. -1.
        -12    1    3    3    0    0  0.93320477423E+01 -0.36486323714E+02 -0.94281080192E+01  0.38823036384E+02  0.00000000000E+00 0.  1.
</event>
<event>
 7    1  0.3461631E-013  0.5930195E+02  0.7816164E-02  0.1266605E+00
        -11   -1    0    0    0    0  0.00000000000E+00  0.00000000000E+00  0.45593999997E+02  0.45594000000E+02  0.51100000000E-03 0.  1.
         11   -1    0    0    0    0 -0.00000000000E+00 -0.00000000000E+00 -0.45593999997E+02  0.45594000000E+02  0.51100000000E-03 0. -1.
    9900012    2    1    2    0    0  0.13373405148E+02  0.28674258983E+02 -0.39571835135E+01  0.59301946703E+02  0.50000004879E+02 0.  0.
         12    1    1    2    0    0 -0.13373405148E+02 -0.28674258983E+02  0.39571835135E+01  0.31886053297E+02  0.00000000000E+00 0. -1.
         11    1    3    3    0    0  0.21602323600E+02  0.36298499667E+01 -0.58387744339E+01  0.22669968744E+02  0.51100000000E-03 0. -1.
        -11    1    3    3    0    0 -0.28231943359E+01 -0.47759434093E+01  0.29957979941E+01  0.63051461197E+01  0.51100000000E-03 0.  1.
         12    1    3    3    0    0 -0.54057241153E+01  0.29820352426E+02 -0.11142070738E+01  0.30326831840E+02  0.00000000000E+00 0. -1.
</event>
<event>
 7    1  0.3461631E-013  0.5930177E+02  0.7816164E-02  0.1266605E+00
        -11   -1    0    0    0    0  0.00000000000E+00  0.00000000000E+00  0.45593999997E+02  0.45594000000E+02  0.51100000000E-03 0.  1.
         11   -1    0    0    0    0 -0.00000000000E+00 -0.00000000000E+00 -0.45593999997E+02  0.45594000000E+02  0.51100000000E-03 0. -1.
    9900012    2    1    2    0    0  0.12901622786E+02 -0.79071245638E+01  0.28067013357E+02  0.59301768988E+02  0.49999680768E+02 0.  0.
         12    1    1    2    0    0 -0.12901622786E+02  0.79071245638E+01 -0.28067013357E+02  0.31886231012E+02  0.00000000000E+00 0. -1.
         11    1    3    3    0    0  0.44157078641E+01  0.15506574278E+02  0.89899572287E+01  0.18460001436E+02  0.51100000000E-03 0. -1.
        -11    1    3    3    0    0 -0.73767453205E+01 -0.29427173551E+01  0.11280848560E+02  0.13796140817E+02  0.51100000000E-03 0.  1.
         12    1    3    3    0    0  0.15862660242E+02 -0.20470981487E+02  0.77962075684E+01  0.27045626734E+02  0.00000000000E+00 0. -1.
</event>
<event>
 7    1  0.3461631E-013  0.5930194E+02  0.7816164E-02  0.1266605E+00
        -11   -1    0    0    0    0  0.00000000000E+00  0.00000000000E+00  0.45593999997E+02  0.45594000000E+02  0.51100000000E-03 0. -1.
         11   -1    0    0    0    0 -0.00000000000E+00 -0.00000000000E+00 -0.45593999997E+02  0.45594000000E+02  0.51100000000E-03 0.  1.
    9900012    2    1    2    0    0  0.22818511983E+02  0.80002933457E+01  0.20785371953E+02  0.59301939253E+02  0.49999991292E+02 0.  0.
         12    1    1    2    0    0 -0.22818511983E+02 -0.80002933457E+01 -0.20785371953E+02  0.31886060747E+02  0.00000000000E+00 0. -1.
         11    1    3    3    0    0 -0.52930910940E+01 -0.12219436799E+02  0.25606979680E+01  0.13560553947E+02  0.51100000000E-03 0. -1.
        -11    1    3    3    0    0  0.13483325534E+01  0.39166425065E+01 -0.51768511608E+01  0.66300737100E+01  0.51100000000E-03 0.  1.
         12    1    3    3    0    0  0.26763270524E+02  0.16303087638E+02  0.23401525146E+02  0.39111311596E+02  0.00000000000E+00 0. -1.
</event>
<event>
 7    1  0.4260770E-013  0.5930194E+02  0.7816164E-02  0.1266605E+00
        -11   -1    0    0    0    0  0.00000000000E+00  0.00000000000E+00  0.45593999997E+02  0.45594000000E+02  0.51100000000E-03 0. -1.
         11   -1    0    0    0    0 -0.00000000000E+00 -0.00000000000E+00 -0.45593999997E+02  0.45594000000E+02  0.51100000000E-03 0.  1.
    9900012    2    1    2    0    0 -0.31110075157E+02  0.65208968182E+01 -0.25223068262E+01  0.59301938730E+02  0.49999990338E+02 0.  0.
         12    1    1    2    0    0  0.31110075157E+02 -0.65208968182E+01  0.25223068262E+01  0.31886061270E+02  0.00000000000E+00 0. -1.
         11    1    3    3    0    0  0.19031492364E+01  0.60965835768E+01 -0.10022573063E+02  0.11884539511E+02  0.51100000000E-03 0. -1.
        -11    1    3    3    0    0 -0.37201539417E+02  0.79610807095E+01  0.46029224526E+01  0.38321276550E+02  0.51100000000E-03 0.  1.
         12    1    3    3    0    0  0.41883150234E+01 -0.75367674681E+01  0.28973437844E+01  0.90961226690E+01  0.00000000000E+00 0. -1.
</event>
<event>
 7    1  0.3461631E-013  0.5930206E+02  0.7816164E-02  0.1266604E+00
        -11   -1    0    0    0    0  0.00000000000E+00  0.00000000000E+00  0.45593999997E+02  0.45594000000E+02  0.51100000000E-03 0.  1.
         11   -1    0    0    0    0 -0.00000000000E+00 -0.00000000000E+00 -0.45593999997E+02  0.45594000000E+02  0.51100000000E-03 0. -1.
    9900012    2    1    2    0    0 -0.30189302848E+02  0.96736920682E+01  0.34261956559E+01  0.59302060444E+02  0.50000212315E+02 0.  0.
         12    1    1    2    0    0  0.30189302848E+02 -0.96736920682E+01 -0.34261956559E+01  0.31885939556E+02  0.00000000000E+00 0. -1.
         11    1    3    3    0    0 -0.19062743397E+02 -0.62791394152E+01  0.11316194096E+02  0.23040660292E+02  0.51100000000E-03 0. -1.
        -11    1    3    3    0    0 -0.16937158010E+02  0.91700328379E+01  0.56223481835E+01  0.20064087895E+02  0.51100000000E-03 0.  1.
         12    1    3    3    0    0  0.58105985592E+01  0.67827986455E+01 -0.13512346623E+02  0.16197312257E+02  0.00000000000E+00 0. -1.
</event>
<event>
 7    1  0.3461631E-013  0.5930195E+02  0.7816164E-02  0.1266605E+00
        -11   -1    0    0    0    0  0.00000000000E+00  0.00000000000E+00  0.45593999997E+02  0.45594000000E+02  0.51100000000E-03 0.  1.
         11   -1    0    0    0    0 -0.00000000000E+00 -0.00000000000E+00 -0.45593999997E+02  0.45594000000E+02  0.51100000000E-03 0. -1.
    9900012    2    1    2    0    0 -0.17724981121E+02 -0.14626606528E+02  0.22104469360E+02  0.59301950700E+02  0.50000012169E+02 0.  0.
         12    1    1    2    0    0  0.17724981121E+02  0.14626606528E+02 -0.22104469360E+02  0.31886049300E+02  0.00000000000E+00 0. -1.
         11    1    3    3    0    0  0.58779183370E+01 -0.10007232312E+02  0.10521710500E+02  0.15665280547E+02  0.51100000000E-03 0. -1.
        -11    1    3    3    0    0 -0.11344349391E+02 -0.15390538065E+02  0.17849249564E+02  0.26156426271E+02  0.51100000000E-03 0.  1.
         12    1    3    3    0    0 -0.12258550067E+02  0.10771163849E+02 -0.62664907038E+01  0.17480243882E+02  0.00000000000E+00 0. -1.
</event>
<event>
 7    1  0.3461631E-013  0.5930196E+02  0.7816164E-02  0.1266605E+00
        -11   -1    0    0    0    0  0.00000000000E+00  0.00000000000E+00  0.45593999997E+02  0.45594000000E+02  0.51100000000E-03 0. -1.
         11   -1    0    0    0    0 -0.00000000000E+00 -0.00000000000E+00 -0.45593999997E+02  0.45594000000E+02  0.51100000000E-03 0.  1.
    9900012    2    1    2    0    0  0.69985388283E+01 -0.22073940450E+02 -0.21919879084E+02  0.59301960864E+02  0.50000030705E+02 0.  0.
         12    1    1    2    0    0 -0.69985388283E+01  0.22073940450E+02  0.21919879084E+02  0.31886039136E+02  0.00000000000E+00 0. -1.
         11    1    3    3    0    0  0.10460609867E+02  0.29130444904E-01  0.95775872091E+01  0.14182925805E+02  0.51100000000E-03 0. -1.
        -11    1    3    3    0    0  0.18169841849E+01  0.41708155928E+01 -0.91750217307E+01  0.10241003772E+02  0.51100000000E-03 0.  1.
        -12    1    3    3    0    0 -0.52790552239E+01 -0.26273886487E+02 -0.22322444563E+02  0.34878031287E+02  0.00000000000E+00 0.  1.
</event>
<event>
 7    1  0.3461631E-013  0.5930194E+02  0.7816164E-02  0.1266605E+00
        -11   -1    0    0    0    0  0.00000000000E+00  0.00000000000E+00  0.45593999997E+02  0.45594000000E+02  0.51100000000E-03 0. -1.
         11   -1    0    0    0    0 -0.00000000000E+00 -0.00000000000E+00 -0.45593999997E+02  0.45594000000E+02  0.51100000000E-03 0.  1.
    9900012    2    1    2    0    0 -0.25251154271E+01  0.31433920511E+02 -0.47173423192E+01  0.59301939014E+02  0.49999990856E+02 0.  0.
         12    1    1    2    0    0  0.25251154271E+01 -0.31433920511E+02  0.47173423192E+01  0.31886060986E+02  0.00000000000E+00 0. -1.
         11    1    3    3    0    0 -0.74734117531E+01  0.24965326920E+02  0.19479064858E+01  0.26132618915E+02  0.51100000000E-03 0. -1.
        -11    1    3    3    0    0 -0.12132475120E+02  0.47041635089E+01 -0.90254886912E+01  0.15836210192E+02  0.51100000000E-03 0.  1.
         12    1    3    3    0    0  0.17080771446E+02  0.17644300829E+01  0.23602398862E+01  0.17333109907E+02  0.00000000000E+00 0. -1.
</event>
<event>
 7    1  0.3461631E-013  0.5930187E+02  0.7816164E-02  0.1266605E+00
        -11   -1    0    0    0    0  0.00000000000E+00  0.00000000000E+00  0.45593999997E+02  0.45594000000E+02  0.51100000000E-03 0.  1.
         11   -1    0    0    0    0 -0.00000000000E+00 -0.00000000000E+00 -0.45593999997E+02  0.45594000000E+02  0.51100000000E-03 0. -1.
    9900012    2    1    2    0    0  0.23032278630E+02 -0.18618635797E+02  0.11814633813E+02  0.59301874020E+02  0.49999872323E+02 0.  0.
         12    1    1    2    0    0 -0.23032278630E+02  0.18618635797E+02 -0.11814633813E+02  0.31886125980E+02  0.00000000000E+00 0. -1.
         11    1    3    3    0    0  0.15007715066E+02 -0.58601192141E+01  0.77102840245E+01  0.17861158661E+02  0.51100000000E-03 0. -1.
        -11    1    3    3    0    0  0.18137001227E+02  0.77127505587E+00 -0.88098950153E+01  0.20178204310E+02  0.51100000000E-03 0.  1.
        -12    1    3    3    0    0 -0.10112437663E+02 -0.13529791639E+02  0.12914244804E+02  0.21262511050E+02  0.00000000000E+00 0.  1.
</event>
<event>
 7    1  0.3461631E-013  0.5930197E+02  0.7816164E-02  0.1266605E+00
        -11   -1    0    0    0    0  0.00000000000E+00  0.00000000000E+00  0.45593999997E+02  0.45594000000E+02  0.51100000000E-03 0. -1.
         11   -1    0    0    0    0 -0.00000000000E+00 -0.00000000000E+00 -0.45593999997E+02  0.45594000000E+02  0.51100000000E-03 0.  1.
    9900012    2    1    2    0    0  0.98225294397E+01  0.29160629990E+02 -0.83602883627E+01  0.59301970967E+02  0.50000049130E+02 0.  0.
         12    1    1    2    0    0 -0.98225294397E+01 -0.29160629990E+02  0.83602883627E+01  0.31886029033E+02  0.00000000000E+00 0. -1.
         11    1    3    3    0    0  0.39415725757E+01  0.16689366559E+01 -0.82761345331E+01  0.93174968206E+01  0.51100000000E-03 0. -1.
        -11    1    3    3    0    0 -0.24895823574E+01  0.15306833338E+02 -0.19920639982E+02  0.25245377096E+02  0.51100000000E-03 0.  1.
        -12    1    3    3    0    0  0.83705392215E+01  0.12184859996E+02  0.19836486153E+02  0.24739097050E+02  0.00000000000E+00 0.  1.
</event>
<event>
 7    1  0.3461631E-013  0.5930195E+02  0.7816164E-02  0.1266605E+00
        -11   -1    0    0    0    0  0.00000000000E+00  0.00000000000E+00  0.45593999997E+02  0.45594000000E+02  0.51100000000E-03 0. -1.
         11   -1    0    0    0    0 -0.00000000000E+00 -0.00000000000E+00 -0.45593999997E+02  0.45594000000E+02  0.51100000000E-03 0.  1.
    9900012    2    1    2    0    0  0.71235063078E+01  0.17723785737E+02 -0.25531223559E+02  0.59301948200E+02  0.50000007609E+02 0.  0.
         12    1    1    2    0    0 -0.71235063078E+01 -0.17723785737E+02  0.25531223559E+02  0.31886051800E+02  0.00000000000E+00 0. -1.
         11    1    3    3    0    0  0.67884047465E+00  0.14177255532E+02 -0.94828326701E+01  0.17069842253E+02  0.51100000000E-03 0. -1.
        -11    1    3    3    0    0 -0.48591546976E+01  0.90117243013E+01 -0.24864831614E+02  0.26890191720E+02  0.51100000000E-03 0.  1.
        -12    1    3    3    0    0  0.11303820531E+02 -0.54651940971E+01  0.88164407252E+01  0.15341914228E+02  0.00000000000E+00 0.  1.
</event>
<event>
 7    1  0.3461631E-013  0.5930194E+02  0.7816164E-02  0.1266605E+00
        -11   -1    0    0    0    0  0.00000000000E+00  0.00000000000E+00  0.45593999997E+02  0.45594000000E+02  0.51100000000E-03 0.  1.
         11   -1    0    0    0    0 -0.00000000000E+00 -0.00000000000E+00 -0.45593999997E+02  0.45594000000E+02  0.51100000000E-03 0. -1.
    9900012    2    1    2    0    0 -0.88528107595E+01  0.27340511163E+02  0.13814670757E+02  0.59301938200E+02  0.49999989371E+02 0.  0.
         12    1    1    2    0    0  0.88528107595E+01 -0.27340511163E+02 -0.13814670757E+02  0.31886061800E+02  0.00000000000E+00 0. -1.
         11    1    3    3    0    0 -0.38819972378E+01  0.14493561305E+02 -0.51374158287E+01  0.15859579550E+02  0.51100000000E-03 0. -1.
        -11    1    3    3    0    0  0.12413225785E+02  0.14873506219E+02  0.27031675370E+01  0.19560584772E+02  0.51100000000E-03 0.  1.
        -12    1    3    3    0    0 -0.17384039306E+02 -0.20265563607E+01  0.16248919049E+02  0.23881773878E+02  0.00000000000E+00 0.  1.
</event>
<event>
 7    1  0.3461631E-013  0.5930195E+02  0.7816164E-02  0.1266605E+00
        -11   -1    0    0    0    0  0.00000000000E+00  0.00000000000E+00  0.45593999997E+02  0.45594000000E+02  0.51100000000E-03 0.  1.
         11   -1    0    0    0    0 -0.00000000000E+00 -0.00000000000E+00 -0.45593999997E+02  0.45594000000E+02  0.51100000000E-03 0. -1.
    9900012    2    1    2    0    0  0.28259778664E+02 -0.93378386483E+00  0.14738827047E+02  0.59301951873E+02  0.50000014308E+02 0.  0.
         12    1    1    2    0    0 -0.28259778664E+02  0.93378386483E+00 -0.14738827047E+02  0.31886048127E+02  0.00000000000E+00 0. -1.
         11    1    3    3    0    0  0.79628938274E+01  0.13660173721E+02 -0.82144909512E+01  0.17818133630E+02  0.51100000000E-03 0. -1.
        -11    1    3    3    0    0  0.94092201530E+01 -0.34974953000E+01 -0.36417957312E+01  0.10678416253E+02  0.51100000000E-03 0.  1.
        -12    1    3    3    0    0  0.10887664683E+02 -0.11096462286E+02  0.26595113729E+02  0.30805401990E+02  0.00000000000E+00 0.  1.
</event>
<event>
 7    1  0.3461631E-013  0.5930197E+02  0.7816164E-02  0.1266605E+00
        -11   -1    0    0    0    0  0.00000000000E+00  0.00000000000E+00  0.45593999997E+02  0.45594000000E+02  0.51100000000E-03 0.  1.
         11   -1    0    0    0    0 -0.00000000000E+00 -0.00000000000E+00 -0.45593999997E+02  0.45594000000E+02  0.51100000000E-03 0. -1.
    9900012    2    1    2    0    0 -0.76919454022E-02 -0.17245595994E+02  0.26819922651E+02  0.59301970279E+02  0.50000047876E+02 0.  0.
         12    1    1    2    0    0  0.76919454022E-02  0.17245595994E+02 -0.26819922651E+02  0.31886029721E+02  0.00000000000E+00 0. -1.
         11    1    3    3    0    0 -0.70576646996E+00 -0.23888557787E+02  0.37817054837E+01  0.24196334352E+02  0.51100000000E-03 0. -1.
        -11    1    3    3    0    0  0.43751504092E+00  0.69389946403E+00 -0.56991071195E+01  0.57578414444E+01  0.51100000000E-03 0.  1.
        -12    1    3    3    0    0  0.26055948364E+00  0.59490623287E+01  0.28737324287E+02  0.29347794483E+02  0.00000000000E+00 0.  1.
</event>
<event>
 7    1  0.3461631E-013  0.5930195E+02  0.7816164E-02  0.1266605E+00
        -11   -1    0    0    0    0  0.00000000000E+00  0.00000000000E+00  0.45593999997E+02  0.45594000000E+02  0.51100000000E-03 0.  1.
         11   -1    0    0    0    0 -0.00000000000E+00 -0.00000000000E+00 -0.45593999997E+02  0.45594000000E+02  0.51100000000E-03 0. -1.
    9900012    2    1    2    0    0 -0.74996282735E+01 -0.11734077287E+02  0.28684263634E+02  0.59301953299E+02  0.50000016908E+02 0.  0.
         12    1    1    2    0    0  0.74996282735E+01  0.11734077287E+02 -0.28684263634E+02  0.31886046701E+02  0.00000000000E+00 0. -1.
         11    1    3    3    0    0  0.51550193014E+01 -0.18411310817E+02  0.48984254670E+00  0.19125651257E+02  0.51100000000E-03 0. -1.
        -11    1    3    3    0    0  0.30682538031E+01  0.35807552572E+01 -0.26560696296E+01  0.54120879290E+01  0.51100000000E-03 0.  1.
        -12    1    3    3    0    0 -0.15722901378E+02  0.30964782727E+01  0.30850490717E+02  0.34764214113E+02  0.00000000000E+00 0.  1.
</event>
<event>
 7    1  0.3461631E-013  0.5930191E+02  0.7816164E-02  0.1266605E+00
        -11   -1    0    0    0    0  0.00000000000E+00  0.00000000000E+00  0.45593999997E+02  0.45594000000E+02  0.51100000000E-03 0.  1.
         11   -1    0    0    0    0 -0.00000000000E+00 -0.00000000000E+00 -0.45593999997E+02  0.45594000000E+02  0.51100000000E-03 0. -1.
    9900012    2    1    2    0    0 -0.78220457830E+01  0.10167581166E+02  0.29191756267E+02  0.59301909914E+02  0.49999937785E+02 0.  0.
         12    1    1    2    0    0  0.78220457830E+01 -0.10167581166E+02 -0.29191756267E+02  0.31886090086E+02  0.00000000000E+00 0. -1.
         11    1    3    3    0    0 -0.73140007064E+01  0.15135861175E+02 -0.48373159238E+01  0.17492527703E+02  0.51100000000E-03 0. -1.
        -11    1    3    3    0    0  0.34524918038E+00  0.96452179104E+01  0.13715603850E+02  0.16771023069E+02  0.51100000000E-03 0.  1.
        -12    1    3    3    0    0 -0.85329425702E+00 -0.14613497919E+02  0.20313468340E+02  0.25038359142E+02  0.00000000000E+00 0.  1.
</event>
<event>
 7    1  0.3461631E-013  0.5930195E+02  0.7816164E-02  0.1266605E+00
        -11   -1    0    0    0    0  0.00000000000E+00  0.00000000000E+00  0.45593999997E+02  0.45594000000E+02  0.51100000000E-03 0. -1.
         11   -1    0    0    0    0 -0.00000000000E+00 -0.00000000000E+00 -0.45593999997E+02  0.45594000000E+02  0.51100000000E-03 0.  1.
    9900012    2    1    2    0    0 -0.18809191630E+02  0.31250595472E+01 -0.25557157022E+02  0.59301953491E+02  0.50000017258E+02 0.  0.
         12    1    1    2    0    0  0.18809191630E+02 -0.31250595472E+01  0.25557157022E+02  0.31886046509E+02  0.00000000000E+00 0. -1.
         11    1    3    3    0    0 -0.88398724369E+01  0.85239682291E+01 -0.43202022091E+01  0.13017892551E+02  0.51100000000E-03 0. -1.
        -11    1    3    3    0    0 -0.10440761464E+02  0.15514806006E+02 -0.16259922797E+02  0.24781117710E+02  0.51100000000E-03 0.  1.
         12    1    3    3    0    0  0.47144227079E+00 -0.20913714688E+02 -0.49770320156E+01  0.21502943229E+02  0.00000000000E+00 0. -1.
</event>
<event>
 7    1  0.3461631E-013  0.5930194E+02  0.7816164E-02  0.1266605E+00
        -11   -1    0    0    0    0  0.00000000000E+00  0.00000000000E+00  0.45593999997E+02  0.45594000000E+02  0.51100000000E-03 0. -1.
         11   -1    0    0    0    0 -0.00000000000E+00 -0.00000000000E+00 -0.45593999997E+02  0.45594000000E+02  0.51100000000E-03 0.  1.
    9900012    2    1    2    0    0  0.32392641747E+01 -0.25959088981E+02 -0.18230569204E+02  0.59301940560E+02  0.49999993676E+02 0.  0.
         12    1    1    2    0    0 -0.32392641747E+01  0.25959088981E+02  0.18230569204E+02  0.31886059440E+02  0.00000000000E+00 0. -1.
         11    1    3    3    0    0 -0.77861047139E+01 -0.17829376965E+02 -0.28798687575E+01  0.19667327066E+02  0.51100000000E-03 0. -1.
        -11    1    3    3    0    0 -0.88869085607E+01 -0.98509457645E+01  0.16839138530E+01  0.13373624877E+02  0.51100000000E-03 0.  1.
        -12    1    3    3    0    0  0.19912277449E+02  0.17212337489E+01 -0.17034614299E+02  0.26260988617E+02  0.00000000000E+00 0.  1.
</event>
<event>
 7    1  0.3461631E-013  0.5930193E+02  0.7816164E-02  0.1266605E+00
        -11   -1    0    0    0    0  0.00000000000E+00  0.00000000000E+00  0.45593999997E+02  0.45594000000E+02  0.51100000000E-03 0. -1.
         11   -1    0    0    0    0 -0.00000000000E+00 -0.00000000000E+00 -0.45593999997E+02  0.45594000000E+02  0.51100000000E-03 0.  1.
    9900012    2    1    2    0    0 -0.30227293407E+02  0.53474065263E+01 -0.86277230835E+01  0.59301927352E+02  0.49999969588E+02 0.  0.
         12    1    1    2    0    0  0.30227293407E+02 -0.53474065263E+01  0.86277230835E+01  0.31886072648E+02  0.00000000000E+00 0. -1.
         11    1    3    3    0    0  0.84185962586E+01  0.23233263968E+01 -0.76644222115E+01  0.11619551481E+02  0.51100000000E-03 0. -1.
        -11    1    3    3    0    0 -0.15786698623E+02  0.24445674241E+01 -0.14103063834E+02  0.21309438591E+02  0.51100000000E-03 0.  1.
         12    1    3    3    0    0 -0.22859191043E+02  0.57951270538E+00  0.13139762962E+02  0.26372937281E+02  0.00000000000E+00 0. -1.
</event>
<event>
 7    1  0.3461631E-013  0.5930194E+02  0.7816164E-02  0.1266605E+00
        -11   -1    0    0    0    0  0.00000000000E+00  0.00000000000E+00  0.45593999997E+02  0.45594000000E+02  0.51100000000E-03 0.  1.
         11   -1    0    0    0    0 -0.00000000000E+00 -0.00000000000E+00 -0.45593999997E+02  0.45594000000E+02  0.51100000000E-03 0. -1.
    9900012    2    1    2    0    0 -0.28831027359E+02 -0.29083665425E+01  0.13305405033E+02  0.59301944465E+02  0.50000000797E+02 0.  0.
         12    1    1    2    0    0  0.28831027359E+02  0.29083665425E+01 -0.13305405033E+02  0.31886055535E+02  0.00000000000E+00 0. -1.
         11    1    3    3    0    0 -0.32123092523E+01 -0.21006704909E+01 -0.46120036275E+01  0.60001937439E+01  0.51100000000E-03 0. -1.
        -11    1    3    3    0    0 -0.50520281940E+01 -0.20677132825E+02  0.10624084623E+02  0.23789451130E+02  0.51100000000E-03 0.  1.
         12    1    3    3    0    0 -0.20566689912E+02  0.19869436773E+02  0.72933240373E+01  0.29512299591E+02  0.00000000000E+00 0. -1.
</event>
<event>
 7    1  0.3461631E-013  0.5930196E+02  0.7816164E-02  0.1266605E+00
        -11   -1    0    0    0    0  0.00000000000E+00  0.00000000000E+00  0.45593999997E+02  0.45594000000E+02  0.51100000000E-03 0. -1.
         11   -1    0    0    0    0 -0.00000000000E+00 -0.00000000000E+00 -0.45593999997E+02  0.45594000000E+02  0.51100000000E-03 0.  1.
    9900012    2    1    2    0    0  0.20972923961E+02  0.11282943269E+02 -0.21202619325E+02  0.59301962076E+02  0.50000032915E+02 0.  0.
         12    1    1    2    0    0 -0.20972923961E+02 -0.11282943269E+02  0.21202619325E+02  0.31886037924E+02  0.00000000000E+00 0. -1.
         11    1    3    3    0    0  0.69881013062E+01  0.19233677990E+02 -0.59746787077E+01  0.21318178037E+02  0.51100000000E-03 0. -1.
        -11    1    3    3    0    0 -0.88449195452E+01 -0.42974478187E+01  0.77710147214E+00  0.98643066900E+01  0.51100000000E-03 0.  1.
        -12    1    3    3    0    0  0.22829742200E+02 -0.36532869022E+01 -0.16005042089E+02  0.28119477349E+02  0.00000000000E+00 0.  1.
</event>
<event>
 7    1  0.3461631E-013  0.5930196E+02  0.7816164E-02  0.1266605E+00
        -11   -1    0    0    0    0  0.00000000000E+00  0.00000000000E+00  0.45593999997E+02  0.45594000000E+02  0.51100000000E-03 0.  1.
         11   -1    0    0    0    0 -0.00000000000E+00 -0.00000000000E+00 -0.45593999997E+02  0.45594000000E+02  0.51100000000E-03 0. -1.
    9900012    2    1    2    0    0  0.19578682316E+02 -0.53942046116E+00  0.25161550030E+02  0.59301962687E+02  0.50000034029E+02 0.  0.
         12    1    1    2    0    0 -0.19578682316E+02  0.53942046116E+00 -0.25161550030E+02  0.31886037313E+02  0.00000000000E+00 0. -1.
         11    1    3    3    0    0  0.86706751670E+01  0.82861317803E+01 -0.47365756092E+01  0.12894794938E+02  0.51100000000E-03 0. -1.
        -11    1    3    3    0    0  0.21087065594E+02  0.90179014833E+00  0.20866748843E+02  0.29679938820E+02  0.51100000000E-03 0.  1.
         12    1    3    3    0    0 -0.10179058445E+02 -0.97273423898E+01  0.90313767955E+01  0.16727228928E+02  0.00000000000E+00 0. -1.
</event>
<event>
 7    1  0.3461631E-013  0.5930189E+02  0.7816164E-02  0.1266605E+00
        -11   -1    0    0    0    0  0.00000000000E+00  0.00000000000E+00  0.45593999997E+02  0.45594000000E+02  0.51100000000E-03 0.  1.
         11   -1    0    0    0    0 -0.00000000000E+00 -0.00000000000E+00 -0.45593999997E+02  0.45594000000E+02  0.51100000000E-03 0. -1.
    9900012    2    1    2    0    0  0.14462025265E+02 -0.25139522151E+02  0.13250590299E+02  0.59301891864E+02  0.49999904867E+02 0.  0.
         12    1    1    2    0    0 -0.14462025265E+02  0.25139522151E+02 -0.13250590299E+02  0.31886108136E+02  0.00000000000E+00 0. -1.
         11    1    3    3    0    0 -0.99264969306E+01 -0.71818503824E+01 -0.11018089466E+02  0.16477639757E+02  0.51100000000E-03 0. -1.
        -11    1    3    3    0    0  0.12154929942E+02 -0.35428646774E+01  0.79794222615E+00  0.12685855276E+02  0.51100000000E-03 0.  1.
        -12    1    3    3    0    0  0.12233592253E+02 -0.14414807092E+02  0.23470737539E+02  0.30138396831E+02  0.00000000000E+00 0.  1.
</event>
<event>
 7    1  0.3461631E-013  0.5930199E+02  0.7816164E-02  0.1266605E+00
        -11   -1    0    0    0    0  0.00000000000E+00  0.00000000000E+00  0.45593999997E+02  0.45594000000E+02  0.51100000000E-03 0. -1.
         11   -1    0    0    0    0 -0.00000000000E+00 -0.00000000000E+00 -0.45593999997E+02  0.45594000000E+02  0.51100000000E-03 0.  1.
    9900012    2    1    2    0    0  0.59919644465E+01  0.15558003108E+02 -0.27180183489E+02  0.59301992518E+02  0.50000088434E+02 0.  0.
         12    1    1    2    0    0 -0.59919644465E+01 -0.15558003108E+02  0.27180183489E+02  0.31886007482E+02  0.00000000000E+00 0. -1.
         11    1    3    3    0    0  0.43631462922E+01 -0.52945303963E+01 -0.58793284013E+01  0.90352421327E+01  0.51100000000E-03 0. -1.
        -11    1    3    3    0    0 -0.78648095144E+01 -0.70369242276E+01  0.41448795229E+01  0.11338146136E+02  0.51100000000E-03 0.  1.
        -12    1    3    3    0    0  0.94936276687E+01  0.27889457732E+02 -0.25445734611E+02  0.38928604249E+02  0.00000000000E+00 0.  1.
</event>
<event>
 7    1  0.3461631E-013  0.5930200E+02  0.7816164E-02  0.1266605E+00
        -11   -1    0    0    0    0  0.00000000000E+00  0.00000000000E+00  0.45593999997E+02  0.45594000000E+02  0.51100000000E-03 0.  1.
         11   -1    0    0    0    0 -0.00000000000E+00 -0.00000000000E+00 -0.45593999997E+02  0.45594000000E+02  0.51100000000E-03 0. -1.
    9900012    2    1    2    0    0 -0.22947075847E+02 -0.19928371043E+02  0.96440979386E+01  0.59302001703E+02  0.50000105186E+02 0.  0.
         12    1    1    2    0    0  0.22947075847E+02  0.19928371043E+02 -0.96440979386E+01  0.31885998297E+02  0.00000000000E+00 0. -1.
         11    1    3    3    0    0  0.40437909223E+01 -0.12914900046E+02 -0.80238856560E+01  0.15733074382E+02  0.51100000000E-03 0. -1.
        -11    1    3    3    0    0 -0.51399875717E+01  0.87492982136E+01 -0.18297345795E+01  0.10311043612E+02  0.51100000000E-03 0.  1.
        -12    1    3    3    0    0 -0.21850879197E+02 -0.15762769210E+02  0.19497718174E+02  0.33257883710E+02  0.00000000000E+00 0.  1.
</event>
<event>
 7    1  0.3461631E-013  0.5930199E+02  0.7816164E-02  0.1266605E+00
        -11   -1    0    0    0    0  0.00000000000E+00  0.00000000000E+00  0.45593999997E+02  0.45594000000E+02  0.51100000000E-03 0. -1.
         11   -1    0    0    0    0 -0.00000000000E+00 -0.00000000000E+00 -0.45593999997E+02  0.45594000000E+02  0.51100000000E-03 0.  1.
    9900012    2    1    2    0    0  0.15415554348E+02 -0.13779927846E+02 -0.24273269806E+02  0.59301994380E+02  0.50000091831E+02 0.  0.
         12    1    1    2    0    0 -0.15415554348E+02  0.13779927846E+02  0.24273269806E+02  0.31886005620E+02  0.00000000000E+00 0. -1.
         11    1    3    3    0    0  0.38824212907E+01 -0.19217851592E+02 -0.96393398926E+00  0.19629777989E+02  0.51100000000E-03 0. -1.
        -11    1    3    3    0    0 -0.53201443666E+00 -0.48448409966E+01  0.51530539797E+01  0.70929182444E+01  0.51100000000E-03 0.  1.
        -12    1    3    3    0    0  0.12065147494E+02  0.10282764743E+02 -0.28462389797E+02  0.32579298147E+02  0.00000000000E+00 0.  1.
</event>
<event>
 7    1  0.3461631E-013  0.5930201E+02  0.7816164E-02  0.1266605E+00
        -11   -1    0    0    0    0  0.00000000000E+00  0.00000000000E+00  0.45593999997E+02  0.45594000000E+02  0.51100000000E-03 0.  1.
         11   -1    0    0    0    0 -0.00000000000E+00 -0.00000000000E+00 -0.45593999997E+02  0.45594000000E+02  0.51100000000E-03 0. -1.
    9900012    2    1    2    0    0  0.20198275034E+02 -0.25301727914E+01  0.24542698426E+02  0.59302013505E+02  0.50000126710E+02 0.  0.
         12    1    1    2    0    0 -0.20198275034E+02  0.25301727914E+01 -0.24542698426E+02  0.31885986495E+02  0.00000000000E+00 0. -1.
         11    1    3    3    0    0  0.10167086466E+02  0.33798346550E+01  0.79465772136E+01  0.13339453481E+02  0.51100000000E-03 0. -1.
        -11    1    3    3    0    0  0.20015255841E+02  0.96023905740E+01  0.16250390750E+02  0.27511662452E+02  0.51100000000E-03 0.  1.
         12    1    3    3    0    0 -0.99840672729E+01 -0.15512398020E+02  0.34573046249E+00  0.18450897572E+02  0.00000000000E+00 0. -1.
</event>
<event>
 7    1  0.3461631E-013  0.5930193E+02  0.7816164E-02  0.1266605E+00
        -11   -1    0    0    0    0  0.00000000000E+00  0.00000000000E+00  0.45593999997E+02  0.45594000000E+02  0.51100000000E-03 0.  1.
         11   -1    0    0    0    0 -0.00000000000E+00 -0.00000000000E+00 -0.45593999997E+02  0.45594000000E+02  0.51100000000E-03 0. -1.
    9900012    2    1    2    0    0 -0.45666081974E+01 -0.30923304593E+02  0.62942075920E+01  0.59301925820E+02  0.49999966794E+02 0.  0.
         12    1    1    2    0    0  0.45666081974E+01  0.30923304593E+02 -0.62942075920E+01  0.31886074180E+02  0.00000000000E+00 0. -1.
         11    1    3    3    0    0 -0.83885288993E+01 -0.25820999508E+01  0.26224722560E+00  0.87808559445E+01  0.51100000000E-03 0. -1.
        -11    1    3    3    0    0 -0.95467413020E+01  0.73339966375E+01  0.21077184233E+01  0.12221712375E+02  0.51100000000E-03 0.  1.
         12    1    3    3    0    0  0.13368662004E+02 -0.35675201280E+02  0.39242419431E+01  0.38299357501E+02  0.00000000000E+00 0. -1.
</event>
<event>
 7    1  0.3461631E-013  0.5930187E+02  0.7816164E-02  0.1266605E+00
        -11   -1    0    0    0    0  0.00000000000E+00  0.00000000000E+00  0.45593999997E+02  0.45594000000E+02  0.51100000000E-03 0. -1.
         11   -1    0    0    0    0 -0.00000000000E+00 -0.00000000000E+00 -0.45593999997E+02  0.45594000000E+02  0.51100000000E-03 0.  1.
    9900012    2    1    2    0    0 -0.21525919529E+02 -0.59158584367E+01 -0.22767579590E+02  0.59301870210E+02  0.49999865374E+02 0.  0.
         12    1    1    2    0    0  0.21525919529E+02  0.59158584367E+01  0.22767579590E+02  0.31886129790E+02  0.00000000000E+00 0. -1.
         11    1    3    3    0    0  0.63936467724E+01 -0.85981507105E+01 -0.14434519369E+02  0.17976714504E+02  0.51100000000E-03 0. -1.
        -11    1    3    3    0    0 -0.15534011703E+01  0.31022967885E+01 -0.13940735766E+02  0.14365981154E+02  0.51100000000E-03 0.  1.
        -12    1    3    3    0    0 -0.26366165131E+02 -0.42000451471E+00  0.56076755451E+01  0.26959174552E+02  0.00000000000E+00 0.  1.
</event>
<event>
 7    1  0.3461631E-013  0.5930194E+02  0.7816164E-02  0.1266605E+00
        -11   -1    0    0    0    0  0.00000000000E+00  0.00000000000E+00  0.45593999997E+02  0.45594000000E+02  0.51100000000E-03 0. -1.
         11   -1    0    0    0    0 -0.00000000000E+00 -0.00000000000E+00 -0.45593999997E+02  0.45594000000E+02  0.51100000000E-03 0.  1.
    9900012    2    1    2    0    0  0.12167707970E+02 -0.18692209143E+01 -0.29413836150E+02  0.59301939392E+02  0.49999991545E+02 0.  0.
         12    1    1    2    0    0 -0.12167707970E+02  0.18692209143E+01  0.29413836150E+02  0.31886060608E+02  0.00000000000E+00 0. -1.
         11    1    3    3    0    0  0.23562380487E+01  0.19062249010E+01 -0.30595781072E+00  0.30461716232E+01  0.51100000000E-03 0. -1.
        -11    1    3    3    0    0  0.78447752424E+01  0.17481121531E+02 -0.29179766256E+02  0.34908292246E+02  0.51100000000E-03 0.  1.
         12    1    3    3    0    0  0.19666946785E+01 -0.21256567346E+02  0.71887916087E-01  0.21347475522E+02  0.00000000000E+00 0. -1.
</event>
<event>
 7    1  0.3461631E-013  0.5930194E+02  0.7816164E-02  0.1266605E+00
        -11   -1    0    0    0    0  0.00000000000E+00  0.00000000000E+00  0.45593999997E+02  0.45594000000E+02  0.51100000000E-03 0. -1.
         11   -1    0    0    0    0 -0.00000000000E+00 -0.00000000000E+00 -0.45593999997E+02  0.45594000000E+02  0.51100000000E-03 0.  1.
    9900012    2    1    2    0    0  0.22786949243E+01  0.26036909986E+02 -0.18264923391E+02  0.59301944134E+02  0.50000000195E+02 0.  0.
         12    1    1    2    0    0 -0.22786949243E+01 -0.26036909986E+02  0.18264923391E+02  0.31886055866E+02  0.00000000000E+00 0. -1.
         11    1    3    3    0    0  0.98929928198E+01 -0.94425853998E+01  0.50142695189E+01  0.14566283844E+02  0.51100000000E-03 0. -1.
        -11    1    3    3    0    0  0.18674659447E+01  0.55118333503E+01 -0.35172475791E+00  0.58302183923E+01  0.51100000000E-03 0.  1.
        -12    1    3    3    0    0 -0.94817638402E+01  0.29967662035E+02 -0.22927468152E+02  0.38905441898E+02  0.00000000000E+00 0.  1.
</event>
<event>
 7    1  0.3461631E-013  0.5930196E+02  0.7816164E-02  0.1266605E+00
        -11   -1    0    0    0    0  0.00000000000E+00  0.00000000000E+00  0.45593999997E+02  0.45594000000E+02  0.51100000000E-03 0. -1.
         11   -1    0    0    0    0 -0.00000000000E+00 -0.00000000000E+00 -0.45593999997E+02  0.45594000000E+02  0.51100000000E-03 0.  1.
    9900012    2    1    2    0    0 -0.13653707254E+02  0.22801751617E+02 -0.17617485129E+02  0.59301962604E+02  0.50000033878E+02 0.  0.
         12    1    1    2    0    0  0.13653707254E+02 -0.22801751617E+02  0.17617485129E+02  0.31886037396E+02  0.00000000000E+00 0. -1.
         11    1    3    3    0    0 -0.49820102368E+01  0.24158955704E+02 -0.36204956943E+01  0.24931577488E+02  0.51100000000E-03 0. -1.
        -11    1    3    3    0    0 -0.17633135811E+02 -0.27050575143E+00 -0.17351515716E+02  0.24740164708E+02  0.51100000000E-03 0.  1.
        -12    1    3    3    0    0  0.89614387931E+01 -0.10866983359E+01  0.33545262817E+01  0.96302204072E+01  0.00000000000E+00 0.  1.
</event>
<event>
 7    1  0.3461631E-013  0.5930196E+02  0.7816164E-02  0.1266605E+00
        -11   -1    0    0    0    0  0.00000000000E+00  0.00000000000E+00  0.45593999997E+02  0.45594000000E+02  0.51100000000E-03 0.  1.
         11   -1    0    0    0    0 -0.00000000000E+00 -0.00000000000E+00 -0.45593999997E+02  0.45594000000E+02  0.51100000000E-03 0. -1.
    9900012    2    1    2    0    0 -0.19713976366E+01 -0.91781045537E+01  0.30472868939E+02  0.59301956765E+02  0.50000023230E+02 0.  0.
         12    1    1    2    0    0  0.19713976366E+01  0.91781045537E+01 -0.30472868939E+02  0.31886043235E+02  0.00000000000E+00 0. -1.
         11    1    3    3    0    0 -0.15585030240E+02 -0.44996776804E+01  0.19521276583E+02  0.25381499296E+02  0.51100000000E-03 0. -1.
        -11    1    3    3    0    0  0.45255509155E+01  0.86913435127E+01  0.14373714966E+02  0.17396084195E+02  0.51100000000E-03 0.  1.
         12    1    3    3    0    0  0.90880816884E+01 -0.13369770386E+02 -0.34221226098E+01  0.16524373274E+02  0.00000000000E+00 0. -1.
</event>
<event>
 7    1  0.3461631E-013  0.5930193E+02  0.7816164E-02  0.1266605E+00
        -11   -1    0    0    0    0  0.00000000000E+00  0.00000000000E+00  0.45593999997E+02  0.45594000000E+02  0.51100000000E-03 0.  1.
         11   -1    0    0    0    0 -0.00000000000E+00 -0.00000000000E+00 -0.45593999997E+02  0.45594000000E+02  0.51100000000E-03 0. -1.
    9900012    2    1    2    0    0  0.30889058304E+02 -0.77357349905E+00  0.78733016597E+01  0.59301933797E+02  0.49999981342E+02 0.  0.
         12    1    1    2    0    0 -0.30889058304E+02  0.77357349905E+00 -0.78733016597E+01  0.31886066203E+02  0.00000000000E+00 0. -1.
         11    1    3    3    0    0 -0.73680621035E+01  0.35826435312E+01 -0.43354705096E+01  0.92693030285E+01  0.51100000000E-03 0. -1.
        -11    1    3    3    0    0  0.28025887562E+02  0.10939789655E+02  0.84617808913E+01  0.31252697603E+02  0.51100000000E-03 0.  1.
        -12    1    3    3    0    0  0.10231232845E+02 -0.15296006686E+02  0.37469912780E+01  0.18779933165E+02  0.00000000000E+00 0.  1.
</event>
<event>
 7    1  0.3461631E-013  0.5930194E+02  0.7816164E-02  0.1266605E+00
        -11   -1    0    0    0    0  0.00000000000E+00  0.00000000000E+00  0.45593999997E+02  0.45594000000E+02  0.51100000000E-03 0.  1.
         11   -1    0    0    0    0 -0.00000000000E+00 -0.00000000000E+00 -0.45593999997E+02  0.45594000000E+02  0.51100000000E-03 0. -1.
    9900012    2    1    2    0    0 -0.83535905552E+01 -0.30703338905E+02 -0.20599881153E+01  0.59301936490E+02  0.49999986254E+02 0.  0.
         12    1    1    2    0    0  0.83535905552E+01  0.30703338905E+02  0.20599881153E+01  0.31886063510E+02  0.00000000000E+00 0. -1.
         11    1    3    3    0    0  0.13435723248E+02 -0.42951084141E+01 -0.14040865508E+02  0.19902575711E+02  0.51100000000E-03 0. -1.
        -11    1    3    3    0    0 -0.70493066217E+00 -0.61822008955E+01 -0.26027840479E+01  0.67447031226E+01  0.51100000000E-03 0.  1.
        -12    1    3    3    0    0 -0.21084383141E+02 -0.20226029596E+02  0.14583661440E+02  0.32654657656E+02  0.00000000000E+00 0.  1.
</event>
<event>
 7    1  0.3461631E-013  0.5930192E+02  0.7816164E-02  0.1266605E+00
        -11   -1    0    0    0    0  0.00000000000E+00  0.00000000000E+00  0.45593999997E+02  0.45594000000E+02  0.51100000000E-03 0.  1.
         11   -1    0    0    0    0 -0.00000000000E+00 -0.00000000000E+00 -0.45593999997E+02  0.45594000000E+02  0.51100000000E-03 0. -1.
    9900012    2    1    2    0    0 -0.30783090925E+02  0.19892789620E+01 -0.80725471070E+01  0.59301922561E+02  0.49999960850E+02 0.  0.
         12    1    1    2    0    0  0.30783090925E+02 -0.19892789620E+01  0.80725471070E+01  0.31886077439E+02  0.00000000000E+00 0. -1.
         11    1    3    3    0    0 -0.80650453650E+01 -0.11518710038E+02 -0.11011611030E+02  0.17860045225E+02  0.51100000000E-03 0. -1.
        -11    1    3    3    0    0 -0.18797163119E+02  0.88020304442E+01 -0.12914789841E+02  0.24445876506E+02  0.51100000000E-03 0.  1.
         12    1    3    3    0    0 -0.39208824402E+01  0.47059585560E+01  0.15853853764E+02  0.16996000830E+02  0.00000000000E+00 0. -1.
</event>
<event>
 7    1  0.3461631E-013  0.5930194E+02  0.7816164E-02  0.1266605E+00
        -11   -1    0    0    0    0  0.00000000000E+00  0.00000000000E+00  0.45593999997E+02  0.45594000000E+02  0.51100000000E-03 0.  1.
         11   -1    0    0    0    0 -0.00000000000E+00 -0.00000000000E+00 -0.45593999997E+02  0.45594000000E+02  0.51100000000E-03 0. -1.
    9900012    2    1    2    0    0 -0.13098066162E+02  0.28977409564E+02  0.23391288152E+01  0.59301935240E+02  0.49999983974E+02 0.  0.
         12    1    1    2    0    0  0.13098066162E+02 -0.28977409564E+02 -0.23391288152E+01  0.31886064760E+02  0.00000000000E+00 0. -1.
         11    1    3    3    0    0 -0.16349792340E+02  0.33265263423E+02  0.55015822859E+01  0.37472134555E+02  0.51100000000E-03 0. -1.
        -11    1    3    3    0    0  0.36670245296E+01  0.81939191834E+01 -0.25225716519E+01  0.93247385210E+01  0.51100000000E-03 0.  1.
        -12    1    3    3    0    0 -0.41529835143E+00 -0.12481773042E+02 -0.63988181876E+00  0.12505062165E+02  0.00000000000E+00 0.  1.
</event>
<event>
 7    1  0.6828141E-013  0.5930195E+02  0.7816164E-02  0.1266605E+00
        -11   -1    0    0    0    0  0.00000000000E+00  0.00000000000E+00  0.45593999997E+02  0.45594000000E+02  0.51100000000E-03 0. -1.
         11   -1    0    0    0    0 -0.00000000000E+00 -0.00000000000E+00 -0.45593999997E+02  0.45594000000E+02  0.51100000000E-03 0.  1.
    9900012    2    1    2    0    0  0.15692602731E+01  0.19529756852E+02 -0.25156439448E+02  0.59301946211E+02  0.50000003982E+02 0.  0.
         12    1    1    2    0    0 -0.15692602731E+01 -0.19529756852E+02  0.25156439448E+02  0.31886053789E+02  0.00000000000E+00 0. -1.
         11    1    3    3    0    0  0.86502282996E+01  0.17332669926E+02 -0.45264586972E+00  0.19376604061E+02  0.51100000000E-03 0. -1.
        -11    1    3    3    0    0  0.88910881154E+01  0.36741288274E+01 -0.21519652790E+02  0.23572147271E+02  0.51100000000E-03 0.  1.
         12    1    3    3    0    0 -0.15972056142E+02 -0.14770419013E+01 -0.31841407882E+01  0.16353194879E+02  0.00000000000E+00 0. -1.
</event>
<event>
 7    1  0.3461631E-013  0.5930195E+02  0.7816164E-02  0.1266605E+00
        -11   -1    0    0    0    0  0.00000000000E+00  0.00000000000E+00  0.45593999997E+02  0.45594000000E+02  0.51100000000E-03 0.  1.
         11   -1    0    0    0    0 -0.00000000000E+00 -0.00000000000E+00 -0.45593999997E+02  0.45594000000E+02  0.51100000000E-03 0. -1.
    9900012    2    1    2    0    0 -0.17244961863E+02 -0.26552317239E+02  0.37823502344E+01  0.59301946094E+02  0.50000003768E+02 0.  0.
         12    1    1    2    0    0  0.17244961863E+02  0.26552317239E+02 -0.37823502344E+01  0.31886053906E+02  0.00000000000E+00 0. -1.
         11    1    3    3    0    0 -0.11115909895E+02 -0.23390619101E+01  0.82486074916E+01  0.14038311481E+02  0.51100000000E-03 0. -1.
        -11    1    3    3    0    0 -0.10560268420E+02 -0.11761651548E+01  0.12430272657E+02  0.16352807470E+02  0.51100000000E-03 0.  1.
         12    1    3    3    0    0  0.44312164520E+01 -0.23037090174E+02 -0.16896529914E+02  0.28910827142E+02  0.00000000000E+00 0. -1.
</event>
<event>
 7    1  0.3461631E-013  0.5930195E+02  0.7816164E-02  0.1266605E+00
        -11   -1    0    0    0    0  0.00000000000E+00  0.00000000000E+00  0.45593999997E+02  0.45594000000E+02  0.51100000000E-03 0. -1.
         11   -1    0    0    0    0 -0.00000000000E+00 -0.00000000000E+00 -0.45593999997E+02  0.45594000000E+02  0.51100000000E-03 0.  1.
    9900012    2    1    2    0    0 -0.28370817760E+02 -0.78687517223E+01 -0.12243360581E+02  0.59301946115E+02  0.50000003807E+02 0.  0.
         12    1    1    2    0    0  0.28370817760E+02  0.78687517223E+01  0.12243360581E+02  0.31886053885E+02  0.00000000000E+00 0. -1.
         11    1    3    3    0    0 -0.11329771410E+02 -0.14531622969E+02 -0.11973144838E+02  0.21974712373E+02  0.51100000000E-03 0. -1.
        -11    1    3    3    0    0  0.36562874172E+01 -0.75635852630E+01  0.72644055970E+01  0.11106207663E+02  0.51100000000E-03 0.  1.
        -12    1    3    3    0    0 -0.20697333767E+02  0.14226456510E+02 -0.75346213398E+01  0.26221026079E+02  0.00000000000E+00 0.  1.
</event>
<event>
 7    1  0.3461631E-013  0.5930198E+02  0.7816164E-02  0.1266605E+00
        -11   -1    0    0    0    0  0.00000000000E+00  0.00000000000E+00  0.45593999997E+02  0.45594000000E+02  0.51100000000E-03 0. -1.
         11   -1    0    0    0    0 -0.00000000000E+00 -0.00000000000E+00 -0.45593999997E+02  0.45594000000E+02  0.51100000000E-03 0.  1.
    9900012    2    1    2    0    0 -0.20777587429E+02  0.15511395351E+02 -0.18558199112E+02  0.59301979875E+02  0.50000065377E+02 0.  0.
         12    1    1    2    0    0  0.20777587429E+02 -0.15511395351E+02  0.18558199112E+02  0.31886020125E+02  0.00000000000E+00 0. -1.
         11    1    3    3    0    0  0.22560893348E+01 -0.14188778470E+01  0.10641987472E+02  0.10970644970E+02  0.51100000000E-03 0. -1.
        -11    1    3    3    0    0  0.55550791175E+01  0.40491137664E+01 -0.76417270866E+01  0.10278629258E+02  0.51100000000E-03 0.  1.
        -12    1    3    3    0    0 -0.28588755881E+02  0.12881159432E+02 -0.21558459498E+02  0.38052705647E+02  0.00000000000E+00 0.  1.
</event>
<event>
 7    1  0.3461631E-013  0.5930194E+02  0.7816164E-02  0.1266605E+00
        -11   -1    0    0    0    0  0.00000000000E+00  0.00000000000E+00  0.45593999997E+02  0.45594000000E+02  0.51100000000E-03 0. -1.
         11   -1    0    0    0    0 -0.00000000000E+00 -0.00000000000E+00 -0.45593999997E+02  0.45594000000E+02  0.51100000000E-03 0.  1.
    9900012    2    1    2    0    0 -0.19804727135E+02 -0.24826861038E+02 -0.28496686015E+01  0.59301939456E+02  0.49999991662E+02 0.  0.
         12    1    1    2    0    0  0.19804727135E+02  0.24826861038E+02  0.28496686015E+01  0.31886060544E+02  0.00000000000E+00 0. -1.
         11    1    3    3    0    0 -0.71044557673E+01  0.90407197990E+01 -0.37935086915E+01  0.12107791487E+02  0.51100000000E-03 0. -1.
        -11    1    3    3    0    0 -0.15169775776E+02 -0.21663062952E+01 -0.84140046028E+00  0.15346756500E+02  0.51100000000E-03 0.  1.
        -12    1    3    3    0    0  0.24695044086E+01 -0.31701274542E+02  0.17852405503E+01  0.31847391469E+02  0.00000000000E+00 0.  1.
</event>
<event>
 7    1  0.3461631E-013  0.5930194E+02  0.7816164E-02  0.1266605E+00
        -11   -1    0    0    0    0  0.00000000000E+00  0.00000000000E+00  0.45593999997E+02  0.45594000000E+02  0.51100000000E-03 0.  1.
         11   -1    0    0    0    0 -0.00000000000E+00 -0.00000000000E+00 -0.45593999997E+02  0.45594000000E+02  0.51100000000E-03 0. -1.
    9900012    2    1    2    0    0 -0.91711623973E+01  0.24799053955E+02  0.17821818449E+02  0.59301944904E+02  0.50000001598E+02 0.  0.
         12    1    1    2    0    0  0.91711623973E+01 -0.24799053955E+02 -0.17821818449E+02  0.31886055096E+02  0.00000000000E+00 0. -1.
         11    1    3    3    0    0 -0.35134272072E+01  0.90385225456E+01 -0.12662270982E+02  0.15949049101E+02  0.51100000000E-03 0. -1.
        -11    1    3    3    0    0  0.26033684533E+01  0.67801022474E+01 -0.28911149131E+01  0.78170236977E+01  0.51100000000E-03 0.  1.
        -12    1    3    3    0    0 -0.82611036433E+01  0.89804291617E+01  0.33375204343E+02  0.35535872106E+02  0.00000000000E+00 0.  1.
</event>
<event>
 7    1  0.3461631E-013  0.5930195E+02  0.7816164E-02  0.1266605E+00
        -11   -1    0    0    0    0  0.00000000000E+00  0.00000000000E+00  0.45593999997E+02  0.45594000000E+02  0.51100000000E-03 0.  1.
         11   -1    0    0    0    0 -0.00000000000E+00 -0.00000000000E+00 -0.45593999997E+02  0.45594000000E+02  0.51100000000E-03 0. -1.
    9900012    2    1    2    0    0 -0.18921612317E+02  0.24120515242E+02  0.87688969588E+01  0.59301949412E+02  0.50000009819E+02 0.  0.
         12    1    1    2    0    0  0.18921612317E+02 -0.24120515242E+02 -0.87688969588E+01  0.31886050588E+02  0.00000000000E+00 0. -1.
         11    1    3    3    0    0 -0.16232785883E+02 -0.96958610000E+01  0.74742319408E+01  0.20331679749E+02  0.51100000000E-03 0. -1.
        -11    1    3    3    0    0  0.55626169477E+01  0.27430775848E+01  0.27558012655E+01  0.67868713572E+01  0.51100000000E-03 0.  1.
        -12    1    3    3    0    0 -0.82514433821E+01  0.31073298658E+02 -0.14611362476E+01  0.32183398305E+02  0.00000000000E+00 0.  1.
</event>
<event>
 7    1  0.3461631E-013  0.5930196E+02  0.7816164E-02  0.1266605E+00
        -11   -1    0    0    0    0  0.00000000000E+00  0.00000000000E+00  0.45593999997E+02  0.45594000000E+02  0.51100000000E-03 0. -1.
         11   -1    0    0    0    0 -0.00000000000E+00 -0.00000000000E+00 -0.45593999997E+02  0.45594000000E+02  0.51100000000E-03 0.  1.
    9900012    2    1    2    0    0  0.92563484223E+00 -0.19513713741E+02 -0.25200747595E+02  0.59301960685E+02  0.50000030380E+02 0.  0.
         12    1    1    2    0    0 -0.92563484223E+00  0.19513713741E+02  0.25200747595E+02  0.31886039315E+02  0.00000000000E+00 0. -1.
         11    1    3    3    0    0 -0.19239674049E+02 -0.29581096357E+01 -0.15274713484E+02  0.24743329251E+02  0.51100000000E-03 0. -1.
        -11    1    3    3    0    0  0.10823216894E+02 -0.56752938813E+01  0.55827487446E+01  0.13435701262E+02  0.51100000000E-03 0.  1.
        -12    1    3    3    0    0  0.93420919967E+01 -0.10880310224E+02 -0.15508782856E+02  0.21122930173E+02  0.00000000000E+00 0.  1.
</event>
<event>
 7    1  0.3499692E-013  0.5930194E+02  0.7816164E-02  0.1266605E+00
        -11   -1    0    0    0    0  0.00000000000E+00  0.00000000000E+00  0.45593999997E+02  0.45594000000E+02  0.51100000000E-03 0.  1.
         11   -1    0    0    0    0 -0.00000000000E+00 -0.00000000000E+00 -0.45593999997E+02  0.45594000000E+02  0.51100000000E-03 0. -1.
    9900012    2    1    2    0    0  0.23029894431E+02 -0.20995509412E+02  0.67478339669E+01  0.59301941664E+02  0.49999995689E+02 0.  0.
         12    1    1    2    0    0 -0.23029894431E+02  0.20995509412E+02 -0.67478339669E+01  0.31886058336E+02  0.00000000000E+00 0. -1.
         11    1    3    3    0    0 -0.82621378981E+00 -0.75295968505E+01  0.12402278285E+02  0.14532514059E+02  0.51100000000E-03 0. -1.
        -11    1    3    3    0    0  0.25734315000E+02 -0.20963159332E+02  0.28056741908E+01  0.33310371142E+02  0.51100000000E-03 0.  1.
         12    1    3    3    0    0 -0.18782067788E+01  0.74972467708E+01 -0.84601185088E+01  0.11459056463E+02  0.00000000000E+00 0. -1.
</event>
<event>
 7    1  0.3461631E-013  0.5930197E+02  0.7816164E-02  0.1266605E+00
        -11   -1    0    0    0    0  0.00000000000E+00  0.00000000000E+00  0.45593999997E+02  0.45594000000E+02  0.51100000000E-03 0. -1.
         11   -1    0    0    0    0 -0.00000000000E+00 -0.00000000000E+00 -0.45593999997E+02  0.45594000000E+02  0.51100000000E-03 0.  1.
    9900012    2    1    2    0    0  0.22161413746E+00 -0.29438695335E+02 -0.12248783625E+02  0.59301974908E+02  0.50000056319E+02 0.  0.
         12    1    1    2    0    0 -0.22161413746E+00  0.29438695335E+02  0.12248783625E+02  0.31886025092E+02  0.00000000000E+00 0. -1.
         11    1    3    3    0    0 -0.27648362951E+01 -0.28519711103E+02 -0.17376736899E+02  0.33510733007E+02  0.51100000000E-03 0. -1.
        -11    1    3    3    0    0  0.61043106487E+01 -0.12115256264E+02  0.16896147064E+01  0.13671021942E+02  0.51100000000E-03 0.  1.
         12    1    3    3    0    0 -0.31178602161E+01  0.11196272032E+02  0.34383385680E+01  0.12120219959E+02  0.00000000000E+00 0. -1.
</event>
<event>
 7    1  0.3461631E-013  0.5930197E+02  0.7816164E-02  0.1266605E+00
        -11   -1    0    0    0    0  0.00000000000E+00  0.00000000000E+00  0.45593999997E+02  0.45594000000E+02  0.51100000000E-03 0.  1.
         11   -1    0    0    0    0 -0.00000000000E+00 -0.00000000000E+00 -0.45593999997E+02  0.45594000000E+02  0.51100000000E-03 0. -1.
    9900012    2    1    2    0    0 -0.18714519497E+02  0.17494229781E+02  0.18985194279E+02  0.59301969870E+02  0.50000047131E+02 0.  0.
         12    1    1    2    0    0  0.18714519497E+02 -0.17494229781E+02 -0.18985194279E+02  0.31886030130E+02  0.00000000000E+00 0. -1.
         11    1    3    3    0    0 -0.23624341210E+02 -0.29537395779E+01  0.21031465725E+02  0.31767225656E+02  0.51100000000E-03 0. -1.
        -11    1    3    3    0    0 -0.34549894872E+01  0.18148618856E+02 -0.33080105072E+01  0.18768384387E+02  0.51100000000E-03 0.  1.
        -12    1    3    3    0    0  0.83648112001E+01  0.22993505030E+01  0.12617390608E+01  0.87663598264E+01  0.00000000000E+00 0.  1.
</event>
<event>
 7    1  0.3461631E-013  0.5930195E+02  0.7816164E-02  0.1266605E+00
        -11   -1    0    0    0    0  0.00000000000E+00  0.00000000000E+00  0.45593999997E+02  0.45594000000E+02  0.51100000000E-03 0.  1.
         11   -1    0    0    0    0 -0.00000000000E+00 -0.00000000000E+00 -0.45593999997E+02  0.45594000000E+02  0.51100000000E-03 0. -1.
    9900012    2    1    2    0    0  0.17349022424E+01 -0.29708534698E+01  0.31699910773E+02  0.59301949772E+02  0.50000010476E+02 0.  0.
         12    1    1    2    0    0 -0.17349022424E+01  0.29708534698E+01 -0.31699910773E+02  0.31886050228E+02  0.00000000000E+00 0. -1.
         11    1    3    3    0    0  0.10088763814E+01  0.14427838545E+02  0.21079908908E+02  0.25564485453E+02  0.51100000000E-03 0. -1.
        -11    1    3    3    0    0 -0.14217609437E+01  0.58561435505E+01  0.83164756185E+01  0.10270325625E+02  0.51100000000E-03 0.  1.
         12    1    3    3    0    0  0.21477868047E+01 -0.23254835565E+02  0.23035262470E+01  0.23467138695E+02  0.00000000000E+00 0. -1.
</event>
<event>
 7    1  0.3461631E-013  0.5930194E+02  0.7816164E-02  0.1266605E+00
        -11   -1    0    0    0    0  0.00000000000E+00  0.00000000000E+00  0.45593999997E+02  0.45594000000E+02  0.51100000000E-03 0.  1.
         11   -1    0    0    0    0 -0.00000000000E+00 -0.00000000000E+00 -0.45593999997E+02  0.45594000000E+02  0.51100000000E-03 0. -1.
    9900012    2    1    2    0    0 -0.28576743501E+02  0.94442966805E+01  0.10530707273E+02  0.59301940278E+02  0.49999993162E+02 0.  0.
         12    1    1    2    0    0  0.28576743501E+02 -0.94442966805E+01 -0.10530707273E+02  0.31886059722E+02  0.00000000000E+00 0. -1.
         11    1    3    3    0    0 -0.38348478030E+01  0.76981096372E+01  0.49529525950E+01  0.99246505897E+01  0.51100000000E-03 0. -1.
        -11    1    3    3    0    0 -0.23701894686E+02  0.13960271564E+02  0.17235126584E+02  0.32461031753E+02  0.51100000000E-03 0.  1.
         12    1    3    3    0    0 -0.10400010112E+01 -0.12214084521E+02 -0.11657371906E+02  0.16916257935E+02  0.00000000000E+00 0. -1.
</event>
<event>
 7    1  0.3461631E-013  0.5930197E+02  0.7816164E-02  0.1266605E+00
        -11   -1    0    0    0    0  0.00000000000E+00  0.00000000000E+00  0.45593999997E+02  0.45594000000E+02  0.51100000000E-03 0. -1.
         11   -1    0    0    0    0 -0.00000000000E+00 -0.00000000000E+00 -0.45593999997E+02  0.45594000000E+02  0.51100000000E-03 0.  1.
    9900012    2    1    2    0    0  0.18438143220E+02  0.23826937010E+02 -0.10441773930E+02  0.59301973350E+02  0.50000053477E+02 0.  0.
         12    1    1    2    0    0 -0.18438143220E+02 -0.23826937010E+02  0.10441773930E+02  0.31886026650E+02  0.00000000000E+00 0. -1.
         11    1    3    3    0    0  0.10316700704E+02 -0.42637537888E+01  0.10952336715E+01  0.11216659345E+02  0.51100000000E-03 0. -1.
        -11    1    3    3    0    0  0.11090304036E+02  0.90120558393E-02  0.80629975561E+01  0.13711559163E+02  0.51100000000E-03 0.  1.
        -12    1    3    3    0    0 -0.29688615203E+01  0.28081678743E+02 -0.19600005158E+02  0.34373754842E+02  0.00000000000E+00 0.  1.
</event>
<event>
 7    1  0.3461631E-013  0.5930190E+02  0.7816164E-02  0.1266605E+00
        -11   -1    0    0    0    0  0.00000000000E+00  0.00000000000E+00  0.45593999997E+02  0.45594000000E+02  0.51100000000E-03 0. -1.
         11   -1    0    0    0    0 -0.00000000000E+00 -0.00000000000E+00 -0.45593999997E+02  0.45594000000E+02  0.51100000000E-03 0.  1.
    9900012    2    1    2    0    0 -0.61311425782E+01  0.26699449601E+02 -0.16317829686E+02  0.59301904535E+02  0.49999927975E+02 0.  0.
         12    1    1    2    0    0  0.61311425782E+01 -0.26699449601E+02  0.16317829686E+02  0.31886095465E+02  0.00000000000E+00 0. -1.
         11    1    3    3    0    0 -0.24066577078E+01 -0.18337475742E+01 -0.41300770005E+00  0.30537202082E+01  0.51100000000E-03 0. -1.
        -11    1    3    3    0    0  0.16481603798E+02  0.28381716764E+01  0.49895554673E+01  0.17452625769E+02  0.51100000000E-03 0.  1.
        -12    1    3    3    0    0 -0.20206088668E+02  0.25695025499E+02 -0.20894377453E+02  0.38795558558E+02  0.00000000000E+00 0.  1.
</event>
<event>
 7    1  0.3714213E-013  0.5930204E+02  0.7816164E-02  0.1266604E+00
        -11   -1    0    0    0    0  0.00000000000E+00  0.00000000000E+00  0.45593999997E+02  0.45594000000E+02  0.51100000000E-03 0. -1.
         11   -1    0    0    0    0 -0.00000000000E+00 -0.00000000000E+00 -0.45593999997E+02  0.45594000000E+02  0.51100000000E-03 0.  1.
    9900012    2    1    2    0    0 -0.30838136216E+01  0.31265707717E+02 -0.54461108819E+01  0.59302038994E+02  0.50000173196E+02 0.  0.
         12    1    1    2    0    0  0.30838136216E+01 -0.31265707717E+02  0.54461108819E+01  0.31885961006E+02  0.00000000000E+00 0. -1.
         11    1    3    3    0    0  0.44282248716E+01  0.84654257173E+01  0.14161435547E+02  0.17082706610E+02  0.51100000000E-03 0. -1.
        -11    1    3    3    0    0 -0.85743885708E+00  0.22927321379E+02 -0.15746344848E+01  0.22997320302E+02  0.51100000000E-03 0.  1.
         12    1    3    3    0    0 -0.66545996361E+01 -0.12703937934E+00 -0.18032911944E+02  0.19222012083E+02  0.00000000000E+00 0. -1.
</event>
<event>
 7    1  0.3461631E-013  0.5930194E+02  0.7816164E-02  0.1266605E+00
        -11   -1    0    0    0    0  0.00000000000E+00  0.00000000000E+00  0.45593999997E+02  0.45594000000E+02  0.51100000000E-03 0. -1.
         11   -1    0    0    0    0 -0.00000000000E+00 -0.00000000000E+00 -0.45593999997E+02  0.45594000000E+02  0.51100000000E-03 0.  1.
    9900012    2    1    2    0    0 -0.16660828233E+02 -0.18315146984E+02 -0.20092113274E+02  0.59301940000E+02  0.49999992655E+02 0.  0.
         12    1    1    2    0    0  0.16660828233E+02  0.18315146984E+02  0.20092113274E+02  0.31886060000E+02  0.00000000000E+00 0. -1.
         11    1    3    3    0    0 -0.76935913475E+01 -0.98458457286E+01  0.59712942840E+01  0.13848768235E+02  0.51100000000E-03 0. -1.
        -11    1    3    3    0    0 -0.95231337628E+01 -0.19120380051E+01  0.68517220139E+01  0.11886633704E+02  0.51100000000E-03 0.  1.
        -12    1    3    3    0    0  0.55589687745E+00 -0.65572632506E+01 -0.32915129572E+02  0.33566538062E+02  0.00000000000E+00 0.  1.
</event>
<event>
 7    1  0.3461631E-013  0.5930186E+02  0.7816164E-02  0.1266605E+00
        -11   -1    0    0    0    0  0.00000000000E+00  0.00000000000E+00  0.45593999997E+02  0.45594000000E+02  0.51100000000E-03 0. -1.
         11   -1    0    0    0    0 -0.00000000000E+00 -0.00000000000E+00 -0.45593999997E+02  0.45594000000E+02  0.51100000000E-03 0.  1.
    9900012    2    1    2    0    0 -0.10702818835E+02 -0.31912564262E+01 -0.29866231641E+02  0.59301855030E+02  0.49999837690E+02 0.  0.
         12    1    1    2    0    0  0.10702818835E+02  0.31912564262E+01  0.29866231641E+02  0.31886144970E+02  0.00000000000E+00 0. -1.
         11    1    3    3    0    0  0.38812922585E+01  0.45720375169E+01  0.11822949282E+02  0.13257076851E+02  0.51100000000E-03 0. -1.
        -11    1    3    3    0    0 -0.67051804206E+01  0.19320388116E+01 -0.16947767191E+02  0.18328094049E+02  0.51100000000E-03 0.  1.
        -12    1    3    3    0    0 -0.78789306733E+01 -0.96953327548E+01 -0.24741413731E+02  0.27716684131E+02  0.00000000000E+00 0.  1.
</event>
<event>
 7    1  0.3461631E-013  0.5930194E+02  0.7816164E-02  0.1266605E+00
        -11   -1    0    0    0    0  0.00000000000E+00  0.00000000000E+00  0.45593999997E+02  0.45594000000E+02  0.51100000000E-03 0. -1.
         11   -1    0    0    0    0 -0.00000000000E+00 -0.00000000000E+00 -0.45593999997E+02  0.45594000000E+02  0.51100000000E-03 0.  1.
    9900012    2    1    2    0    0  0.22504944174E+02  0.22582895421E+02  0.51120863573E+00  0.59301937023E+02  0.49999987225E+02 0.  0.
         12    1    1    2    0    0 -0.22504944174E+02 -0.22582895421E+02 -0.51120863573E+00  0.31886062977E+02  0.00000000000E+00 0. -1.
         11    1    3    3    0    0  0.91606236383E+01  0.17303261884E+02  0.14579387092E+02  0.24410621162E+02  0.51100000000E-03 0. -1.
        -11    1    3    3    0    0 -0.41030106893E+01 -0.82089138556E+01 -0.93764843249E+00  0.92249741598E+01  0.51100000000E-03 0.  1.
        -12    1    3    3    0    0  0.17447331225E+02  0.13488547393E+02 -0.13130530023E+02  0.25666341702E+02  0.00000000000E+00 0.  1.
</event>
<event>
 7    1  0.3461631E-013  0.5930193E+02  0.7816164E-02  0.1266605E+00
        -11   -1    0    0    0    0  0.00000000000E+00  0.00000000000E+00  0.45593999997E+02  0.45594000000E+02  0.51100000000E-03 0.  1.
         11   -1    0    0    0    0 -0.00000000000E+00 -0.00000000000E+00 -0.45593999997E+02  0.45594000000E+02  0.51100000000E-03 0. -1.
    9900012    2    1    2    0    0 -0.11320576217E+02  0.20600853354E+02  0.21544619156E+02  0.59301933774E+02  0.49999981300E+02 0.  0.
         12    1    1    2    0    0  0.11320576217E+02 -0.20600853354E+02 -0.21544619156E+02  0.31886066226E+02  0.00000000000E+00 0. -1.
         11    1    3    3    0    0 -0.14582136394E+02  0.29977156064E+02  0.42451956922E+01  0.33604914435E+02  0.51100000000E-03 0. -1.
        -11    1    3    3    0    0  0.39469168668E+01  0.39568823281E+01  0.41803466538E+01  0.69792814042E+01  0.51100000000E-03 0.  1.
         12    1    3    3    0    0 -0.68535668950E+00 -0.13333185038E+02  0.13119076810E+02  0.18717737935E+02  0.00000000000E+00 0. -1.
</event>
<event>
 7    1  0.3461631E-013  0.5930192E+02  0.7816164E-02  0.1266605E+00
        -11   -1    0    0    0    0  0.00000000000E+00  0.00000000000E+00  0.45593999997E+02  0.45594000000E+02  0.51100000000E-03 0.  1.
         11   -1    0    0    0    0 -0.00000000000E+00 -0.00000000000E+00 -0.45593999997E+02  0.45594000000E+02  0.51100000000E-03 0. -1.
    9900012    2    1    2    0    0  0.19227140364E+02 -0.25392767737E+02  0.14987800623E+01  0.59301922763E+02  0.49999961218E+02 0.  0.
         12    1    1    2    0    0 -0.19227140364E+02  0.25392767737E+02 -0.14987800623E+01  0.31886077237E+02  0.00000000000E+00 0. -1.
         11    1    3    3    0    0  0.30037584944E+01  0.41855099503E+01  0.75953122037E+01  0.91776808819E+01  0.51100000000E-03 0.  1.
        -11    1    3    3    0    0  0.16236179477E+02 -0.37844380761E+02 -0.29720562874E+01  0.41287332174E+02  0.51100000000E-03 0. -1.
         12    1    3    3    0    0 -0.12797607355E-01  0.82661030743E+01 -0.31244758540E+01  0.88369097073E+01  0.00000000000E+00 0. -1.
</event>
<event>
 7    1  0.3461631E-013  0.5930193E+02  0.7816164E-02  0.1266605E+00
        -11   -1    0    0    0    0  0.00000000000E+00  0.00000000000E+00  0.45593999997E+02  0.45594000000E+02  0.51100000000E-03 0.  1.
         11   -1    0    0    0    0 -0.00000000000E+00 -0.00000000000E+00 -0.45593999997E+02  0.45594000000E+02  0.51100000000E-03 0. -1.
    9900012    2    1    2    0    0 -0.15002988207E+02 -0.26601433563E+02 -0.91649189548E+01  0.59301926830E+02  0.49999968636E+02 0.  0.
         12    1    1    2    0    0  0.15002988207E+02  0.26601433563E+02  0.91649189548E+01  0.31886073170E+02  0.00000000000E+00 0. -1.
         11    1    3    3    0    0 -0.24549469338E+02 -0.56187682301E+01 -0.67331552426E+01  0.26068800912E+02  0.51100000000E-03 0. -1.
        -11    1    3    3    0    0 -0.74719701842E+01 -0.47731218878E+01  0.25134997687E+01  0.92157860402E+01  0.51100000000E-03 0.  1.
         12    1    3    3    0    0  0.17018451316E+02 -0.16209543445E+02 -0.49452634810E+01  0.24017339878E+02  0.00000000000E+00 0. -1.
</event>
<event>
 7    1  0.3461631E-013  0.5930194E+02  0.7816164E-02  0.1266605E+00
        -11   -1    0    0    0    0  0.00000000000E+00  0.00000000000E+00  0.45593999997E+02  0.45594000000E+02  0.51100000000E-03 0.  1.
         11   -1    0    0    0    0 -0.00000000000E+00 -0.00000000000E+00 -0.45593999997E+02  0.45594000000E+02  0.51100000000E-03 0. -1.
    9900012    2    1    2    0    0  0.11939600241E+02 -0.29130161153E+02  0.50597102291E+01  0.59301937052E+02  0.49999987278E+02 0.  0.
         12    1    1    2    0    0 -0.11939600241E+02  0.29130161153E+02 -0.50597102291E+01  0.31886062948E+02  0.00000000000E+00 0. -1.
         11    1    3    3    0    0 -0.80656554656E+01 -0.12824425525E+02  0.11211719847E+01  0.15191369755E+02  0.51100000000E-03 0. -1.
        -11    1    3    3    0    0  0.23659082078E+02 -0.24841208432E+02  0.81555111737E+00  0.34314762494E+02  0.51100000000E-03 0.  1.
        -12    1    3    3    0    0 -0.36538263723E+01  0.85354728037E+01  0.31229871270E+01  0.97958048029E+01  0.00000000000E+00 0.  1.
</event>
<event>
 7    1  0.3461631E-013  0.5930226E+02  0.7816164E-02  0.1266604E+00
        -11   -1    0    0    0    0  0.00000000000E+00  0.00000000000E+00  0.45593999997E+02  0.45594000000E+02  0.51100000000E-03 0.  1.
         11   -1    0    0    0    0 -0.00000000000E+00 -0.00000000000E+00 -0.45593999997E+02  0.45594000000E+02  0.51100000000E-03 0. -1.
    9900012    2    1    2    0    0  0.62244060910E+01 -0.26832558473E+02  0.16061467080E+02  0.59302264158E+02  0.50000583837E+02 0.  0.
         12    1    1    2    0    0 -0.62244060910E+01  0.26832558473E+02 -0.16061467080E+02  0.31885735842E+02  0.00000000000E+00 0. -1.
         11    1    3    3    0    0  0.88586772671E+01  0.94757925387E+01  0.55341941534E+01  0.14102982392E+02  0.51100000000E-03 0. -1.
        -11    1    3    3    0    0 -0.31393154773E+01 -0.14493836879E+02 -0.77523757997E+01  0.16733975617E+02  0.51100000000E-03 0.  1.
        -12    1    3    3    0    0  0.50504430126E+00 -0.21814514133E+02  0.18279648727E+02  0.28465306150E+02  0.00000000000E+00 0.  1.
</event>
<event>
 7    1  0.3461631E-013  0.5930192E+02  0.7816164E-02  0.1266605E+00
        -11   -1    0    0    0    0  0.00000000000E+00  0.00000000000E+00  0.45593999997E+02  0.45594000000E+02  0.51100000000E-03 0.  1.
         11   -1    0    0    0    0 -0.00000000000E+00 -0.00000000000E+00 -0.45593999997E+02  0.45594000000E+02  0.51100000000E-03 0. -1.
    9900012    2    1    2    0    0 -0.17313706079E+00 -0.15559424732E+02  0.27831576412E+02  0.59301916515E+02  0.49999949824E+02 0.  0.
         12    1    1    2    0    0  0.17313706079E+00  0.15559424732E+02 -0.27831576412E+02  0.31886083485E+02  0.00000000000E+00 0. -1.
         11    1    3    3    0    0 -0.10619030484E+02 -0.99055324158E+01  0.11115459327E+02  0.18287613763E+02  0.51100000000E-03 0. -1.
        -11    1    3    3    0    0 -0.33591610736E+01 -0.21721823588E+00  0.24174784753E+02  0.24408018457E+02  0.51100000000E-03 0.  1.
         12    1    3    3    0    0  0.13805054496E+02 -0.54366740803E+01 -0.74586676681E+01  0.16606284295E+02  0.00000000000E+00 0. -1.
</event>
<event>
 7    1  0.3461631E-013  0.5930198E+02  0.7816164E-02  0.1266605E+00
        -11   -1    0    0    0    0  0.00000000000E+00  0.00000000000E+00  0.45593999997E+02  0.45594000000E+02  0.51100000000E-03 0. -1.
         11   -1    0    0    0    0 -0.00000000000E+00 -0.00000000000E+00 -0.45593999997E+02  0.45594000000E+02  0.51100000000E-03 0.  1.
    9900012    2    1    2    0    0  0.35224108608E+01 -0.31138294080E+01 -0.31537518807E+02  0.59301977916E+02  0.50000061804E+02 0.  0.
         12    1    1    2    0    0 -0.35224108608E+01  0.31138294080E+01  0.31537518807E+02  0.31886022084E+02  0.00000000000E+00 0. -1.
         11    1    3    3    0    0 -0.80925082688E+00  0.29606853702E+01  0.46350831323E+01  0.55591852520E+01  0.51100000000E-03 0. -1.
        -11    1    3    3    0    0  0.18796943506E+02  0.59500560443E+01 -0.11879888988E+02  0.23018688380E+02  0.51100000000E-03 0.  1.
         12    1    3    3    0    0 -0.14465281819E+02 -0.12024570823E+02 -0.24292712951E+02  0.30724104284E+02  0.00000000000E+00 0. -1.
</event>
<event>
 7    1  0.3461631E-013  0.5930195E+02  0.7816164E-02  0.1266605E+00
        -11   -1    0    0    0    0  0.00000000000E+00  0.00000000000E+00  0.45593999997E+02  0.45594000000E+02  0.51100000000E-03 0.  1.
         11   -1    0    0    0    0 -0.00000000000E+00 -0.00000000000E+00 -0.45593999997E+02  0.45594000000E+02  0.51100000000E-03 0. -1.
    9900012    2    1    2    0    0 -0.17520342974E+02 -0.55128644467E+01  0.26064653094E+02  0.59301949238E+02  0.50000009501E+02 0.  0.
         12    1    1    2    0    0  0.17520342974E+02  0.55128644467E+01 -0.26064653094E+02  0.31886050762E+02  0.00000000000E+00 0. -1.
         11    1    3    3    0    0  0.29392623186E+01  0.10782253289E+02  0.74346144660E+01  0.13422732266E+02  0.51100000000E-03 0. -1.
        -11    1    3    3    0    0  0.12131824820E+01  0.84928146326E+01  0.13202481197E+01  0.86800211680E+01  0.51100000000E-03 0.  1.
        -12    1    3    3    0    0 -0.21672787775E+02 -0.24787932368E+02  0.17309790508E+02  0.37199195804E+02  0.00000000000E+00 0.  1.
</event>
<event>
 7    1  0.3461631E-013  0.5930193E+02  0.7816164E-02  0.1266605E+00
        -11   -1    0    0    0    0  0.00000000000E+00  0.00000000000E+00  0.45593999997E+02  0.45594000000E+02  0.51100000000E-03 0.  1.
         11   -1    0    0    0    0 -0.00000000000E+00 -0.00000000000E+00 -0.45593999997E+02  0.45594000000E+02  0.51100000000E-03 0. -1.
    9900012    2    1    2    0    0  0.14460741703E+02  0.24957976383E+02  0.13590732804E+02  0.59301926961E+02  0.49999968874E+02 0.  0.
         12    1    1    2    0    0 -0.14460741703E+02 -0.24957976383E+02 -0.13590732804E+02  0.31886073039E+02  0.00000000000E+00 0. -1.
         11    1    3    3    0    0  0.92958769680E+01  0.95063816375E+00 -0.11422608747E+02  0.14757812587E+02  0.51100000000E-03 0. -1.
        -11    1    3    3    0    0  0.29765138644E+01 -0.13543723373E+01 -0.45041422464E+01  0.55660809237E+01  0.51100000000E-03 0.  1.
        -12    1    3    3    0    0  0.21883508703E+01  0.25361710557E+02  0.29517483797E+02  0.38978033450E+02  0.00000000000E+00 0.  1.
</event>
<event>
 7    1  0.3461631E-013  0.5930194E+02  0.7816164E-02  0.1266605E+00
        -11   -1    0    0    0    0  0.00000000000E+00  0.00000000000E+00  0.45593999997E+02  0.45594000000E+02  0.51100000000E-03 0.  1.
         11   -1    0    0    0    0 -0.00000000000E+00 -0.00000000000E+00 -0.45593999997E+02  0.45594000000E+02  0.51100000000E-03 0. -1.
    9900012    2    1    2    0    0  0.29988798405E+02 -0.62493938042E+01  0.88508742349E+01  0.59301938352E+02  0.49999989650E+02 0.  0.
         12    1    1    2    0    0 -0.29988798405E+02  0.62493938042E+01 -0.88508742349E+01  0.31886061648E+02  0.00000000000E+00 0. -1.
         11    1    3    3    0    0  0.64836927568E+01 -0.12067820130E+02  0.15581525241E+01  0.13787617416E+02  0.51100000000E-03 0. -1.
        -11    1    3    3    0    0  0.50863078787E+01 -0.56191942589E+01 -0.13494943041E+02  0.15477705253E+02  0.51100000000E-03 0.  1.
         12    1    3    3    0    0  0.18418797769E+02  0.11437620585E+02  0.20787664752E+02  0.30036615684E+02  0.00000000000E+00 0. -1.
</event>
<event>
 7    1  0.3461631E-013  0.5930194E+02  0.7816164E-02  0.1266605E+00
        -11   -1    0    0    0    0  0.00000000000E+00  0.00000000000E+00  0.45593999997E+02  0.45594000000E+02  0.51100000000E-03 0.  1.
         11   -1    0    0    0    0 -0.00000000000E+00 -0.00000000000E+00 -0.45593999997E+02  0.45594000000E+02  0.51100000000E-03 0. -1.
    9900012    2    1    2    0    0 -0.12169181880E+02 -0.17748114772E+02  0.23529474014E+02  0.59301941715E+02  0.49999995782E+02 0.  0.
         12    1    1    2    0    0  0.12169181880E+02  0.17748114772E+02 -0.23529474014E+02  0.31886058285E+02  0.00000000000E+00 0. -1.
         11    1    3    3    0    0 -0.15698047274E+02 -0.15336155778E+02  0.15955048061E+02  0.27132820000E+02  0.51100000000E-03 0. -1.
        -11    1    3    3    0    0  0.97580124898E+00 -0.14368117222E+02  0.12421017456E+02  0.19017798387E+02  0.51100000000E-03 0.  1.
         12    1    3    3    0    0  0.25530641442E+01  0.11956158228E+02 -0.48465915032E+01  0.13151323329E+02  0.00000000000E+00 0. -1.
</event>
<event>
 7    1  0.3461631E-013  0.5930194E+02  0.7816164E-02  0.1266605E+00
        -11   -1    0    0    0    0  0.00000000000E+00  0.00000000000E+00  0.45593999997E+02  0.45594000000E+02  0.51100000000E-03 0.  1.
         11   -1    0    0    0    0 -0.00000000000E+00 -0.00000000000E+00 -0.45593999997E+02  0.45594000000E+02  0.51100000000E-03 0. -1.
    9900012    2    1    2    0    0  0.24864300086E+02  0.19608123289E+02  0.37428328448E+01  0.59301941677E+02  0.49999995712E+02 0.  0.
         12    1    1    2    0    0 -0.24864300086E+02 -0.19608123289E+02 -0.37428328448E+01  0.31886058323E+02  0.00000000000E+00 0. -1.
         11    1    3    3    0    0  0.25905466881E+02  0.66005119380E+01  0.31332020736E+01  0.26916109074E+02  0.51100000000E-03 0. -1.
        -11    1    3    3    0    0 -0.11536452394E+02  0.12374936064E+02  0.87886666532E+01  0.19064874462E+02  0.51100000000E-03 0.  1.
         12    1    3    3    0    0  0.10495285599E+02  0.63267528670E+00 -0.81790358820E+01  0.13320958141E+02  0.00000000000E+00 0. -1.
</event>
<event>
 7    1  0.3461631E-013  0.5930194E+02  0.7816164E-02  0.1266605E+00
        -11   -1    0    0    0    0  0.00000000000E+00  0.00000000000E+00  0.45593999997E+02  0.45594000000E+02  0.51100000000E-03 0.  1.
         11   -1    0    0    0    0 -0.00000000000E+00 -0.00000000000E+00 -0.45593999997E+02  0.45594000000E+02  0.51100000000E-03 0. -1.
    9900012    2    1    2    0    0 -0.31269381026E+02 -0.61784825715E+01 -0.87913269079E+00  0.59301941747E+02  0.49999995840E+02 0.  0.
         12    1    1    2    0    0  0.31269381026E+02  0.61784825715E+01  0.87913269079E+00  0.31886058253E+02  0.00000000000E+00 0. -1.
         11    1    3    3    0    0 -0.11261503976E+02 -0.12841183018E+02 -0.78935476543E+01  0.18815566639E+02  0.51100000000E-03 0. -1.
        -11    1    3    3    0    0 -0.21800698234E+02  0.36020562255E+01 -0.91658185847E+01  0.23921903836E+02  0.51100000000E-03 0.  1.
         12    1    3    3    0    0  0.17928211843E+01  0.30606442211E+01  0.16180233548E+02  0.16564471272E+02  0.00000000000E+00 0. -1.
</event>
<event>
 7    1  0.3461631E-013  0.5930196E+02  0.7816164E-02  0.1266605E+00
        -11   -1    0    0    0    0  0.00000000000E+00  0.00000000000E+00  0.45593999997E+02  0.45594000000E+02  0.51100000000E-03 0. -1.
         11   -1    0    0    0    0 -0.00000000000E+00 -0.00000000000E+00 -0.45593999997E+02  0.45594000000E+02  0.51100000000E-03 0.  1.
    9900012    2    1    2    0    0  0.38939140013E+01  0.13920987332E+02 -0.28421170459E+02  0.59301962542E+02  0.50000033766E+02 0.  0.
         12    1    1    2    0    0 -0.38939140013E+01 -0.13920987332E+02  0.28421170459E+02  0.31886037458E+02  0.00000000000E+00 0. -1.
         11    1    3    3    0    0 -0.10076947288E+02  0.69756802869E+01 -0.12899461626E+02  0.17793287853E+02  0.51100000000E-03 0. -1.
        -11    1    3    3    0    0 -0.11609873758E+02  0.30600186725E+01 -0.84620784330E+01  0.14688759465E+02  0.51100000000E-03 0.  1.
         12    1    3    3    0    0  0.25580735047E+02  0.38852883722E+01 -0.70596303997E+01  0.26819915225E+02  0.00000000000E+00 0. -1.
</event>
<event>
 7    1  0.3461631E-013  0.5930197E+02  0.7816164E-02  0.1266605E+00
        -11   -1    0    0    0    0  0.00000000000E+00  0.00000000000E+00  0.45593999997E+02  0.45594000000E+02  0.51100000000E-03 0.  1.
         11   -1    0    0    0    0 -0.00000000000E+00 -0.00000000000E+00 -0.45593999997E+02  0.45594000000E+02  0.51100000000E-03 0. -1.
    9900012    2    1    2    0    0 -0.17521088323E+02 -0.24574409027E+01  0.26527184555E+02  0.59301967443E+02  0.50000042704E+02 0.  0.
         12    1    1    2    0    0  0.17521088323E+02  0.24574409027E+01 -0.26527184555E+02  0.31886032557E+02  0.00000000000E+00 0. -1.
         11    1    3    3    0    0 -0.39585351048E+01 -0.52010446773E+01 -0.63569969760E+01  0.91176903175E+01  0.51100000000E-03 0. -1.
        -11    1    3    3    0    0 -0.60755944863E+01 -0.15216063883E+02  0.70360811539E+01  0.17831093256E+02  0.51100000000E-03 0.  1.
        -12    1    3    3    0    0 -0.74869587318E+01  0.17959667657E+02  0.25848100377E+02  0.32353183870E+02  0.00000000000E+00 0.  1.
</event>
<event>
 7    1  0.3461631E-013  0.5930191E+02  0.7816164E-02  0.1266605E+00
        -11   -1    0    0    0    0  0.00000000000E+00  0.00000000000E+00  0.45593999997E+02  0.45594000000E+02  0.51100000000E-03 0.  1.
         11   -1    0    0    0    0 -0.00000000000E+00 -0.00000000000E+00 -0.45593999997E+02  0.45594000000E+02  0.51100000000E-03 0. -1.
    9900012    2    1    2    0    0 -0.14238613432E+02  0.17497562021E+01  0.28476710975E+02  0.59301908562E+02  0.49999935320E+02 0.  0.
         12    1    1    2    0    0  0.14238613432E+02 -0.17497562021E+01 -0.28476710975E+02  0.31886091438E+02  0.00000000000E+00 0. -1.
         11    1    3    3    0    0 -0.21339226376E+01  0.40061031810E+01  0.14735311360E+01  0.47721884697E+01  0.51100000000E-03 0. -1.
        -11    1    3    3    0    0 -0.60693468903E+01  0.92335893088E+01  0.36700878585E+02  0.38328196310E+02  0.51100000000E-03 0.  1.
         12    1    3    3    0    0 -0.60353439037E+01 -0.11489936288E+02 -0.96976987457E+01  0.16201523783E+02  0.00000000000E+00 0. -1.
</event>
<event>
 7    1  0.3461631E-013  0.5930212E+02  0.7816164E-02  0.1266604E+00
        -11   -1    0    0    0    0  0.00000000000E+00  0.00000000000E+00  0.45593999997E+02  0.45594000000E+02  0.51100000000E-03 0.  1.
         11   -1    0    0    0    0 -0.00000000000E+00 -0.00000000000E+00 -0.45593999997E+02  0.45594000000E+02  0.51100000000E-03 0. -1.
    9900012    2    1    2    0    0  0.10027521066E+02  0.11699409185E+02  0.27915619621E+02  0.59302122674E+02  0.50000325807E+02 0.  0.
         12    1    1    2    0    0 -0.10027521066E+02 -0.11699409185E+02 -0.27915619621E+02  0.31885877326E+02  0.00000000000E+00 0. -1.
         11    1    3    3    0    0  0.23855132616E+02  0.18620475260E+02  0.19832301726E+02  0.36181620238E+02  0.51100000000E-03 0. -1.
        -11    1    3    3    0    0  0.23160105247E+01  0.15340919288E+01  0.32324303103E+01  0.42621530673E+01  0.51100000000E-03 0.  1.
         12    1    3    3    0    0 -0.16143622074E+02 -0.84551580042E+01  0.48508875848E+01  0.18858349369E+02  0.00000000000E+00 0. -1.
</event>
<event>
 7    1  0.3461631E-013  0.5930196E+02  0.7816164E-02  0.1266605E+00
        -11   -1    0    0    0    0  0.00000000000E+00  0.00000000000E+00  0.45593999997E+02  0.45594000000E+02  0.51100000000E-03 0.  1.
         11   -1    0    0    0    0 -0.00000000000E+00 -0.00000000000E+00 -0.45593999997E+02  0.45594000000E+02  0.51100000000E-03 0. -1.
    9900012    2    1    2    0    0 -0.33383873837E+01 -0.17589066394E+02  0.26385596594E+02  0.59301956117E+02  0.50000022048E+02 0.  0.
         12    1    1    2    0    0  0.33383873837E+01  0.17589066394E+02 -0.26385596594E+02  0.31886043883E+02  0.00000000000E+00 0. -1.
         11    1    3    3    0    0 -0.24622796888E+01 -0.10638316646E+02  0.48138989994E+01  0.11933575582E+02  0.51100000000E-03 0. -1.
        -11    1    3    3    0    0  0.96272348936E+01 -0.21717401309E+02  0.94470001930E+01  0.25565112639E+02  0.51100000000E-03 0.  1.
        -12    1    3    3    0    0 -0.10503342589E+02  0.14766651562E+02  0.12124697401E+02  0.21803267896E+02  0.00000000000E+00 0.  1.
</event>
<event>
 7    1  0.3461631E-013  0.5930193E+02  0.7816164E-02  0.1266605E+00
        -11   -1    0    0    0    0  0.00000000000E+00  0.00000000000E+00  0.45593999997E+02  0.45594000000E+02  0.51100000000E-03 0. -1.
         11   -1    0    0    0    0 -0.00000000000E+00 -0.00000000000E+00 -0.45593999997E+02  0.45594000000E+02  0.51100000000E-03 0.  1.
    9900012    2    1    2    0    0  0.72911776205E+00 -0.31813043504E+02  0.20298333342E+01  0.59301928228E+02  0.49999971185E+02 0.  0.
         12    1    1    2    0    0 -0.72911776205E+00  0.31813043504E+02 -0.20298333342E+01  0.31886071772E+02  0.00000000000E+00 0. -1.
         11    1    3    3    0    0  0.62917817039E+01 -0.25739970328E+01 -0.98943842372E+01  0.12004616505E+02  0.51100000000E-03 0. -1.
        -11    1    3    3    0    0  0.11427870124E+02 -0.25644847166E+02  0.46032057762E+01  0.28450727678E+02  0.51100000000E-03 0.  1.
         12    1    3    3    0    0 -0.16990534066E+02 -0.35941993051E+01  0.73210117951E+01  0.18846584045E+02  0.00000000000E+00 0. -1.
</event>
<event>
 7    1  0.3461631E-013  0.5930194E+02  0.7816164E-02  0.1266605E+00
        -11   -1    0    0    0    0  0.00000000000E+00  0.00000000000E+00  0.45593999997E+02  0.45594000000E+02  0.51100000000E-03 0. -1.
         11   -1    0    0    0    0 -0.00000000000E+00 -0.00000000000E+00 -0.45593999997E+02  0.45594000000E+02  0.51100000000E-03 0.  1.
    9900012    2    1    2    0    0 -0.38251537094E+00  0.27285496033E+02  0.16494729913E+02  0.59301941500E+02  0.49999995390E+02 0.  0.
         12    1    1    2    0    0  0.38251537094E+00 -0.27285496033E+02 -0.16494729913E+02  0.31886058500E+02  0.00000000000E+00 0. -1.
         11    1    3    3    0    0  0.79520089026E+00  0.49496026453E+01  0.18580051265E+02  0.19244459360E+02  0.51100000000E-03 0. -1.
        -11    1    3    3    0    0  0.11179216937E+02 -0.29005862602E+01  0.18067815370E+01  0.11689856790E+02  0.51100000000E-03 0.  1.
         12    1    3    3    0    0 -0.12356933198E+02  0.25236479648E+02 -0.38921028887E+01  0.28367625350E+02  0.00000000000E+00 0. -1.
</event>
<event>
 7    1  0.3461631E-013  0.5930193E+02  0.7816164E-02  0.1266605E+00
        -11   -1    0    0    0    0  0.00000000000E+00  0.00000000000E+00  0.45593999997E+02  0.45594000000E+02  0.51100000000E-03 0.  1.
         11   -1    0    0    0    0 -0.00000000000E+00 -0.00000000000E+00 -0.45593999997E+02  0.45594000000E+02  0.51100000000E-03 0. -1.
    9900012    2    1    2    0    0  0.21929659741E+02 -0.22471470984E+02 -0.55537917453E+01  0.59301928005E+02  0.49999970779E+02 0.  0.
         12    1    1    2    0    0 -0.21929659741E+02  0.22471470984E+02  0.55537917453E+01  0.31886071995E+02  0.00000000000E+00 0. -1.
         11    1    3    3    0    0 -0.73802993429E+01 -0.10481464426E+02  0.35381509088E+01  0.13298437014E+02  0.51100000000E-03 0. -1.
        -11    1    3    3    0    0  0.19153615146E+02 -0.18324268834E+02  0.55596301183E+01  0.27084115064E+02  0.51100000000E-03 0.  1.
         12    1    3    3    0    0  0.10156343937E+02  0.63342622770E+01 -0.14651572772E+02  0.18919375927E+02  0.00000000000E+00 0. -1.
</event>
<event>
 7    1  0.3461631E-013  0.5930197E+02  0.7816164E-02  0.1266605E+00
        -11   -1    0    0    0    0  0.00000000000E+00  0.00000000000E+00  0.45593999997E+02  0.45594000000E+02  0.51100000000E-03 0. -1.
         11   -1    0    0    0    0 -0.00000000000E+00 -0.00000000000E+00 -0.45593999997E+02  0.45594000000E+02  0.51100000000E-03 0.  1.
    9900012    2    1    2    0    0 -0.26601502613E+02  0.17579733360E+02  0.17790354625E+00  0.59301974598E+02  0.50000055752E+02 0.  0.
         12    1    1    2    0    0  0.26601502613E+02 -0.17579733360E+02 -0.17790354625E+00  0.31886025402E+02  0.00000000000E+00 0. -1.
         11    1    3    3    0    0 -0.14640643371E+02  0.49651341999E+01  0.63316075650E+01  0.16705994450E+02  0.51100000000E-03 0. -1.
        -11    1    3    3    0    0 -0.52641695646E+01 -0.13600108381E+02 -0.53301372026E+01  0.15526905424E+02  0.51100000000E-03 0.  1.
        -12    1    3    3    0    0 -0.66966896769E+01  0.26214707541E+02 -0.82356681622E+00  0.27069074724E+02  0.00000000000E+00 0.  1.
</event>
<event>
 7    1  0.3461631E-013  0.5930190E+02  0.7816164E-02  0.1266605E+00
        -11   -1    0    0    0    0  0.00000000000E+00  0.00000000000E+00  0.45593999997E+02  0.45594000000E+02  0.51100000000E-03 0.  1.
         11   -1    0    0    0    0 -0.00000000000E+00 -0.00000000000E+00 -0.45593999997E+02  0.45594000000E+02  0.51100000000E-03 0. -1.
    9900012    2    1    2    0    0 -0.20027251263E+02 -0.22707377909E+02 -0.10000365240E+02  0.59301904134E+02  0.49999927244E+02 0.  0.
         12    1    1    2    0    0  0.20027251263E+02  0.22707377909E+02  0.10000365240E+02  0.31886095866E+02  0.00000000000E+00 0. -1.
         11    1    3    3    0    0 -0.13976099740E+02  0.91563072702E+01 -0.13669984009E+01  0.16764188368E+02  0.51100000000E-03 0. -1.
        -11    1    3    3    0    0 -0.48959645587E+01 -0.38464976430E+01 -0.12756829154E+02  0.14195164790E+02  0.51100000000E-03 0.  1.
        -12    1    3    3    0    0 -0.11551869643E+01 -0.28017187536E+02  0.41234623157E+01  0.28342550976E+02  0.00000000000E+00 0.  1.
</event>
<event>
 7    1  0.3461631E-013  0.5930196E+02  0.7816164E-02  0.1266605E+00
        -11   -1    0    0    0    0  0.00000000000E+00  0.00000000000E+00  0.45593999997E+02  0.45594000000E+02  0.51100000000E-03 0. -1.
         11   -1    0    0    0    0 -0.00000000000E+00 -0.00000000000E+00 -0.45593999997E+02  0.45594000000E+02  0.51100000000E-03 0.  1.
    9900012    2    1    2    0    0  0.20998294830E+02 -0.98551910788E+01 -0.21878449828E+02  0.59301956911E+02  0.50000023496E+02 0.  0.
         12    1    1    2    0    0 -0.20998294830E+02  0.98551910788E+01  0.21878449828E+02  0.31886043089E+02  0.00000000000E+00 0. -1.
         11    1    3    3    0    0  0.51760381452E+01  0.68544520130E+01 -0.20069606251E+02  0.21830345361E+02  0.51100000000E-03 0. -1.
        -11    1    3    3    0    0 -0.77050913052E+01 -0.22626115675E+00  0.31364978486E+01  0.83220937959E+01  0.51100000000E-03 0.  1.
         12    1    3    3    0    0  0.23527347990E+02 -0.16483381935E+02 -0.49453414259E+01  0.29149517754E+02  0.00000000000E+00 0. -1.
</event>
<event>
 7    1  0.3461631E-013  0.5930193E+02  0.7816164E-02  0.1266605E+00
        -11   -1    0    0    0    0  0.00000000000E+00  0.00000000000E+00  0.45593999997E+02  0.45594000000E+02  0.51100000000E-03 0. -1.
         11   -1    0    0    0    0 -0.00000000000E+00 -0.00000000000E+00 -0.45593999997E+02  0.45594000000E+02  0.51100000000E-03 0.  1.
    9900012    2    1    2    0    0 -0.93575681406E+01 -0.20916574797E+02 -0.22173278273E+02  0.59301930124E+02  0.49999974643E+02 0.  0.
         12    1    1    2    0    0  0.93575681406E+01  0.20916574797E+02  0.22173278273E+02  0.31886069876E+02  0.00000000000E+00 0. -1.
         11    1    3    3    0    0  0.65214887035E+01 -0.19694806467E+02 -0.51420163440E+01  0.21374179494E+02  0.51100000000E-03 0. -1.
        -11    1    3    3    0    0  0.84593406347E+01  0.33708787915E+01 -0.50762768164E+01  0.10425538565E+02  0.51100000000E-03 0.  1.
        -12    1    3    3    0    0 -0.24338397479E+02 -0.45926471218E+01 -0.11954985113E+02  0.27502212065E+02  0.00000000000E+00 0.  1.
</event>
<event>
 7    1  0.3461631E-013  0.5930196E+02  0.7816164E-02  0.1266605E+00
        -11   -1    0    0    0    0  0.00000000000E+00  0.00000000000E+00  0.45593999997E+02  0.45594000000E+02  0.51100000000E-03 0.  1.
         11   -1    0    0    0    0 -0.00000000000E+00 -0.00000000000E+00 -0.45593999997E+02  0.45594000000E+02  0.51100000000E-03 0. -1.
    9900012    2    1    2    0    0  0.15055986761E+02 -0.15225646802E+02  0.23626607911E+02  0.59301958238E+02  0.50000025917E+02 0.  0.
         12    1    1    2    0    0 -0.15055986761E+02  0.15225646802E+02 -0.23626607911E+02  0.31886041762E+02  0.00000000000E+00 0. -1.
         11    1    3    3    0    0  0.19046099822E+01 -0.13093446851E+02  0.94815488270E+01  0.16277765757E+02  0.51100000000E-03 0.  1.
        -11    1    3    3    0    0 -0.11707029235E+02  0.67375528722E+01  0.87242154287E+01  0.16079834804E+02  0.51100000000E-03 0. -1.
        -12    1    3    3    0    0  0.24858406014E+02 -0.88697528234E+01  0.54208436550E+01  0.26944357677E+02  0.00000000000E+00 0.  1.
</event>
<event>
 7    1  0.3461631E-013  0.5930187E+02  0.7816164E-02  0.1266605E+00
        -11   -1    0    0    0    0  0.00000000000E+00  0.00000000000E+00  0.45593999997E+02  0.45594000000E+02  0.51100000000E-03 0.  1.
         11   -1    0    0    0    0 -0.00000000000E+00 -0.00000000000E+00 -0.45593999997E+02  0.45594000000E+02  0.51100000000E-03 0. -1.
    9900012    2    1    2    0    0  0.19427142575E+00 -0.25966000655E+02  0.18505530451E+02  0.59301865260E+02  0.49999856346E+02 0.  0.
         12    1    1    2    0    0 -0.19427142575E+00  0.25966000655E+02 -0.18505530451E+02  0.31886134740E+02  0.00000000000E+00 0. -1.
         11    1    3    3    0    0  0.25531048711E+01 -0.25902739409E+02  0.24322097802E+02  0.35623513234E+02  0.51100000000E-03 0. -1.
        -11    1    3    3    0    0 -0.46556845735E+01 -0.10903446992E+02 -0.25626288617E+01  0.12129617558E+02  0.51100000000E-03 0.  1.
         12    1    3    3    0    0  0.22968511282E+01  0.10840185746E+02 -0.32539384896E+01  0.11548734468E+02  0.00000000000E+00 0. -1.
</event>
<event>
 7    1  0.3461631E-013  0.5930195E+02  0.7816164E-02  0.1266605E+00
        -11   -1    0    0    0    0  0.00000000000E+00  0.00000000000E+00  0.45593999997E+02  0.45594000000E+02  0.51100000000E-03 0.  1.
         11   -1    0    0    0    0 -0.00000000000E+00 -0.00000000000E+00 -0.45593999997E+02  0.45594000000E+02  0.51100000000E-03 0. -1.
    9900012    2    1    2    0    0  0.22718528807E+02 -0.21111136930E+02 -0.74100328144E+01  0.59301949132E+02  0.50000009308E+02 0.  0.
         12    1    1    2    0    0 -0.22718528807E+02  0.21111136930E+02  0.74100328144E+01  0.31886050868E+02  0.00000000000E+00 0. -1.
         11    1    3    3    0    0 -0.31351514347E+01  0.59226157558E+01  0.11935522021E+01  0.68066966312E+01  0.51100000000E-03 0. -1.
        -11    1    3    3    0    0 -0.19307817773E+01 -0.10755754168E+02  0.10415612919E+02  0.15096329313E+02  0.51100000000E-03 0.  1.
        -12    1    3    3    0    0  0.27784462019E+02 -0.16277998518E+02 -0.19019197935E+02  0.37398923187E+02  0.00000000000E+00 0.  1.
</event>
<event>
 7    1  0.3461631E-013  0.5930194E+02  0.7816164E-02  0.1266605E+00
        -11   -1    0    0    0    0  0.00000000000E+00  0.00000000000E+00  0.45593999997E+02  0.45594000000E+02  0.51100000000E-03 0. -1.
         11   -1    0    0    0    0 -0.00000000000E+00 -0.00000000000E+00 -0.45593999997E+02  0.45594000000E+02  0.51100000000E-03 0.  1.
    9900012    2    1    2    0    0 -0.21930427751E+02  0.22753871905E+02  0.42471399397E+01  0.59301944338E+02  0.50000000565E+02 0.  0.
         12    1    1    2    0    0  0.21930427751E+02 -0.22753871905E+02 -0.42471399397E+01  0.31886055662E+02  0.00000000000E+00 0. -1.
         11    1    3    3    0    0  0.63553541806E+01 -0.12895689162E+01  0.11895352254E+02  0.13548170366E+02  0.51100000000E-03 0. -1.
        -11    1    3    3    0    0 -0.17125773078E+02 -0.14626351378E+01 -0.15897338346E+01  0.17261479050E+02  0.51100000000E-03 0.  1.
         12    1    3    3    0    0 -0.11160008854E+02  0.25506075959E+02 -0.60584784796E+01  0.28492294922E+02  0.00000000000E+00 0. -1.
</event>
<event>
 7    1  0.3461631E-013  0.5930197E+02  0.7816164E-02  0.1266605E+00
        -11   -1    0    0    0    0  0.00000000000E+00  0.00000000000E+00  0.45593999997E+02  0.45594000000E+02  0.51100000000E-03 0.  1.
         11   -1    0    0    0    0 -0.00000000000E+00 -0.00000000000E+00 -0.45593999997E+02  0.45594000000E+02  0.51100000000E-03 0. -1.
    9900012    2    1    2    0    0  0.12453142954E+02 -0.38748056081E+01  0.29096802235E+02  0.59301971896E+02  0.50000050825E+02 0.  0.
         12    1    1    2    0    0 -0.12453142954E+02  0.38748056081E+01 -0.29096802235E+02  0.31886028104E+02  0.00000000000E+00 0. -1.
         11    1    3    3    0    0 -0.28818967056E+01 -0.56412392922E+01 -0.57412899797E+01  0.85493461894E+01  0.51100000000E-03 0. -1.
        -11    1    3    3    0    0 -0.80287847003E+00 -0.46968966689E+01 -0.52304083695E+01  0.70754946208E+01  0.51100000000E-03 0.  1.
        -12    1    3    3    0    0  0.16137918130E+02  0.64633303530E+01  0.40068500584E+02  0.43677131086E+02  0.00000000000E+00 0.  1.
</event>
<event>
 7    1  0.3461631E-013  0.5930189E+02  0.7816164E-02  0.1266605E+00
        -11   -1    0    0    0    0  0.00000000000E+00  0.00000000000E+00  0.45593999997E+02  0.45594000000E+02  0.51100000000E-03 0.  1.
         11   -1    0    0    0    0 -0.00000000000E+00 -0.00000000000E+00 -0.45593999997E+02  0.45594000000E+02  0.51100000000E-03 0. -1.
    9900012    2    1    2    0    0 -0.58494768241E+01  0.12385870139E+02  0.28794061756E+02  0.59301887809E+02  0.49999897470E+02 0.  0.
         12    1    1    2    0    0  0.58494768241E+01 -0.12385870139E+02 -0.28794061756E+02  0.31886112191E+02  0.00000000000E+00 0. -1.
         11    1    3    3    0    0  0.14085490595E+01  0.16496996884E+02  0.11671313636E+02  0.20257208072E+02  0.51100000000E-03 0. -1.
        -11    1    3    3    0    0 -0.10990551852E+02  0.21573288588E+01  0.25550655427E+02  0.27897711211E+02  0.51100000000E-03 0.  1.
         12    1    3    3    0    0  0.37325259681E+01 -0.62684556035E+01 -0.84279073058E+01  0.11146968526E+02  0.00000000000E+00 0. -1.
</event>
<event>
 7    1  0.3461631E-013  0.5930190E+02  0.7816164E-02  0.1266605E+00
        -11   -1    0    0    0    0  0.00000000000E+00  0.00000000000E+00  0.45593999997E+02  0.45594000000E+02  0.51100000000E-03 0.  1.
         11   -1    0    0    0    0 -0.00000000000E+00 -0.00000000000E+00 -0.45593999997E+02  0.45594000000E+02  0.51100000000E-03 0. -1.
    9900012    2    1    2    0    0  0.19665301636E+02  0.86444888999E+01  0.23564213034E+02  0.59301899381E+02  0.49999918575E+02 0.  0.
         12    1    1    2    0    0 -0.19665301636E+02 -0.86444888999E+01 -0.23564213034E+02  0.31886100619E+02  0.00000000000E+00 0. -1.
         11    1    3    3    0    0  0.10290615612E+01  0.26669814438E+00  0.17802913498E+01  0.20735315643E+01  0.51100000000E-03 0. -1.
        -11    1    3    3    0    0  0.21948736543E+02  0.21111679997E+02  0.29143724679E+02  0.42152185668E+02  0.51100000000E-03 0.  1.
         12    1    3    3    0    0 -0.33124964674E+01 -0.12733889241E+02 -0.73598029956E+01  0.15076182149E+02  0.00000000000E+00 0. -1.
</event>
<event>
 7    1  0.3461631E-013  0.5930203E+02  0.7816164E-02  0.1266604E+00
        -11   -1    0    0    0    0  0.00000000000E+00  0.00000000000E+00  0.45593999997E+02  0.45594000000E+02  0.51100000000E-03 0. -1.
         11   -1    0    0    0    0 -0.00000000000E+00 -0.00000000000E+00 -0.45593999997E+02  0.45594000000E+02  0.51100000000E-03 0.  1.
    9900012    2    1    2    0    0 -0.19553413913E+02  0.39588999117E+01 -0.24873802638E+02  0.59302032211E+02  0.50000160825E+02 0.  0.
         12    1    1    2    0    0  0.19553413913E+02 -0.39588999117E+01  0.24873802638E+02  0.31885967789E+02  0.00000000000E+00 0. -1.
         11    1    3    3    0    0 -0.78976515375E+01  0.16231807180E+02 -0.13873890745E+02  0.22766846703E+02  0.51100000000E-03 0. -1.
        -11    1    3    3    0    0 -0.13214401669E+02 -0.70766235648E+01 -0.20618846959E+02  0.25491878368E+02  0.51100000000E-03 0.  1.
         12    1    3    3    0    0  0.15586392936E+01 -0.51962837035E+01  0.96189350666E+01  0.11043307140E+02  0.00000000000E+00 0. -1.
</event>
<event>
 7    1  0.3461631E-013  0.5930193E+02  0.7816164E-02  0.1266605E+00
        -11   -1    0    0    0    0  0.00000000000E+00  0.00000000000E+00  0.45593999997E+02  0.45594000000E+02  0.51100000000E-03 0. -1.
         11   -1    0    0    0    0 -0.00000000000E+00 -0.00000000000E+00 -0.45593999997E+02  0.45594000000E+02  0.51100000000E-03 0.  1.
    9900012    2    1    2    0    0  0.50378453095E+01 -0.25868360848E+02 -0.17949084240E+02  0.59301927752E+02  0.49999970317E+02 0.  0.
         12    1    1    2    0    0 -0.50378453095E+01  0.25868360848E+02  0.17949084240E+02  0.31886072248E+02  0.00000000000E+00 0. -1.
         11    1    3    3    0    0 -0.50579125392E+01 -0.10313670773E+02  0.70217638446E+01  0.13463263045E+02  0.51100000000E-03 0. -1.
        -11    1    3    3    0    0  0.63022138648E+01 -0.25753562016E+02 -0.12575433894E+02  0.29344597357E+02  0.51100000000E-03 0.  1.
        -12    1    3    3    0    0  0.37935439839E+01  0.10198871941E+02 -0.12395414191E+02  0.16494067351E+02  0.00000000000E+00 0.  1.
</event>
<event>
 7    1  0.3461631E-013  0.5930195E+02  0.7816164E-02  0.1266605E+00
        -11   -1    0    0    0    0  0.00000000000E+00  0.00000000000E+00  0.45593999997E+02  0.45594000000E+02  0.51100000000E-03 0. -1.
         11   -1    0    0    0    0 -0.00000000000E+00 -0.00000000000E+00 -0.45593999997E+02  0.45594000000E+02  0.51100000000E-03 0.  1.
    9900012    2    1    2    0    0 -0.81667362199E+01 -0.13058703183E+02 -0.27919438729E+02  0.59301947120E+02  0.50000005640E+02 0.  0.
         12    1    1    2    0    0  0.81667362199E+01  0.13058703183E+02  0.27919438729E+02  0.31886052880E+02  0.00000000000E+00 0. -1.
         11    1    3    3    0    0  0.73168401372E+01 -0.21759433432E+01 -0.72760411363E+01  0.10545693619E+02  0.51100000000E-03 0. -1.
        -11    1    3    3    0    0  0.11986064423E+02 -0.11339397656E+02 -0.55410414263E+01  0.17405482467E+02  0.51100000000E-03 0.  1.
         12    1    3    3    0    0 -0.27469640780E+02  0.45663781601E+00 -0.15102356167E+02  0.31350771034E+02  0.00000000000E+00 0. -1.
</event>
<event>
 7    1  0.3461631E-013  0.5930195E+02  0.7816164E-02  0.1266605E+00
        -11   -1    0    0    0    0  0.00000000000E+00  0.00000000000E+00  0.45593999997E+02  0.45594000000E+02  0.51100000000E-03 0.  1.
         11   -1    0    0    0    0 -0.00000000000E+00 -0.00000000000E+00 -0.45593999997E+02  0.45594000000E+02  0.51100000000E-03 0. -1.
    9900012    2    1    2    0    0 -0.28758709536E+02 -0.44852771828E+01  0.13020717063E+02  0.59301950411E+02  0.50000011641E+02 0.  0.
         12    1    1    2    0    0  0.28758709536E+02  0.44852771828E+01 -0.13020717063E+02  0.31886049589E+02  0.00000000000E+00 0. -1.
         11    1    3    3    0    0 -0.23450830390E+02 -0.86541414948E+01 -0.12558110411E+02  0.27973947672E+02  0.51100000000E-03 0. -1.
        -11    1    3    3    0    0  0.50654253528E+00  0.64495449364E+01  0.17608781616E+01  0.67047675118E+01  0.51100000000E-03 0.  1.
        -12    1    3    3    0    0 -0.58144216810E+01 -0.22806806244E+01  0.23817949312E+02  0.24623235227E+02  0.00000000000E+00 0.  1.
</event>
<event>
 7    1  0.3461631E-013  0.5930192E+02  0.7816164E-02  0.1266605E+00
        -11   -1    0    0    0    0  0.00000000000E+00  0.00000000000E+00  0.45593999997E+02  0.45594000000E+02  0.51100000000E-03 0.  1.
         11   -1    0    0    0    0 -0.00000000000E+00 -0.00000000000E+00 -0.45593999997E+02  0.45594000000E+02  0.51100000000E-03 0. -1.
    9900012    2    1    2    0    0  0.30846164789E+02  0.45247935235E+01 -0.66904768265E+01  0.59301919670E+02  0.49999955577E+02 0.  0.
         12    1    1    2    0    0 -0.30846164789E+02 -0.45247935235E+01  0.66904768265E+01  0.31886080330E+02  0.00000000000E+00 0. -1.
         11    1    3    3    0    0  0.15864912285E+01 -0.13990590496E+02 -0.56366500217E+01  0.15166588297E+02  0.51100000000E-03 0. -1.
        -11    1    3    3    0    0 -0.83516441183E+00  0.28983337357E+01 -0.88457696365E+01  0.93458803096E+01  0.51100000000E-03 0.  1.
        -12    1    3    3    0    0  0.30094837973E+02  0.15617050284E+02  0.77919428318E+01  0.34789451063E+02  0.00000000000E+00 0.  1.
</event>
<event>
 7    1  0.3461631E-013  0.5930190E+02  0.7816164E-02  0.1266605E+00
        -11   -1    0    0    0    0  0.00000000000E+00  0.00000000000E+00  0.45593999997E+02  0.45594000000E+02  0.51100000000E-03 0.  1.
         11   -1    0    0    0    0 -0.00000000000E+00 -0.00000000000E+00 -0.45593999997E+02  0.45594000000E+02  0.51100000000E-03 0. -1.
    9900012    2    1    2    0    0  0.20826134845E+02 -0.15741284621E+02  0.18308679425E+02  0.59301895246E+02  0.49999911034E+02 0.  0.
         12    1    1    2    0    0 -0.20826134845E+02  0.15741284621E+02 -0.18308679425E+02  0.31886104754E+02  0.00000000000E+00 0. -1.
         11    1    3    3    0    0  0.21402157714E+02  0.33455534489E+01  0.10846967784E+02  0.24226056077E+02  0.51100000000E-03 0.  1.
        -11    1    3    3    0    0  0.80356625896E+01  0.18666388552E+01 -0.45637334253E+01  0.94278246117E+01  0.51100000000E-03 0. -1.
        -12    1    3    3    0    0 -0.86116854583E+01 -0.20953476925E+02  0.12025445066E+02  0.25648014557E+02  0.00000000000E+00 0.  1.
</event>
<event>
 7    1  0.3461631E-013  0.5930196E+02  0.7816164E-02  0.1266605E+00
        -11   -1    0    0    0    0  0.00000000000E+00  0.00000000000E+00  0.45593999997E+02  0.45594000000E+02  0.51100000000E-03 0. -1.
         11   -1    0    0    0    0 -0.00000000000E+00 -0.00000000000E+00 -0.45593999997E+02  0.45594000000E+02  0.51100000000E-03 0.  1.
    9900012    2    1    2    0    0 -0.18524524997E+01 -0.27697430722E+02 -0.15688856326E+02  0.59301961336E+02  0.50000031566E+02 0.  0.
         12    1    1    2    0    0  0.18524524997E+01  0.27697430722E+02  0.15688856326E+02  0.31886038664E+02  0.00000000000E+00 0. -1.
         11    1    3    3    0    0  0.38404180554E+01 -0.17852261026E+02  0.37325802960E+01  0.18638245371E+02  0.51100000000E-03 0. -1.
        -11    1    3    3    0    0 -0.85300070389E+00 -0.21178436337E+01  0.97949960807E+01  0.10057575271E+02  0.51100000000E-03 0.  1.
        -12    1    3    3    0    0 -0.48398698512E+01 -0.77273260625E+01 -0.29216432703E+02  0.30606140693E+02  0.00000000000E+00 0.  1.
</event>
<event>
 7    1  0.3461631E-013  0.5930196E+02  0.7816164E-02  0.1266605E+00
        -11   -1    0    0    0    0  0.00000000000E+00  0.00000000000E+00  0.45593999997E+02  0.45594000000E+02  0.51100000000E-03 0. -1.
         11   -1    0    0    0    0 -0.00000000000E+00 -0.00000000000E+00 -0.45593999997E+02  0.45594000000E+02  0.51100000000E-03 0.  1.
    9900012    2    1    2    0    0  0.26849211900E+02  0.11745833892E+02  0.12564821481E+02  0.59301960229E+02  0.50000029547E+02 0.  0.
         12    1    1    2    0    0 -0.26849211900E+02 -0.11745833892E+02 -0.12564821481E+02  0.31886039771E+02  0.00000000000E+00 0. -1.
         11    1    3    3    0    0 -0.47262441535E+01  0.18878219426E+01  0.15319590225E+01  0.53148992646E+01  0.51100000000E-03 0. -1.
        -11    1    3    3    0    0  0.76994715116E+01  0.67487013081E+01 -0.15233766028E+02  0.18354684921E+02  0.51100000000E-03 0.  1.
         12    1    3    3    0    0  0.23875984541E+02  0.31093106411E+01  0.26266628486E+02  0.35632376043E+02  0.00000000000E+00 0. -1.
</event>
<event>
 7    1  0.3461631E-013  0.5930193E+02  0.7816164E-02  0.1266605E+00
        -11   -1    0    0    0    0  0.00000000000E+00  0.00000000000E+00  0.45593999997E+02  0.45594000000E+02  0.51100000000E-03 0.  1.
         11   -1    0    0    0    0 -0.00000000000E+00 -0.00000000000E+00 -0.45593999997E+02  0.45594000000E+02  0.51100000000E-03 0. -1.
    9900012    2    1    2    0    0  0.45502089600E+01 -0.98125181868E+01  0.29995530220E+02  0.59301925486E+02  0.49999966184E+02 0.  0.
         12    1    1    2    0    0 -0.45502089600E+01  0.98125181868E+01 -0.29995530220E+02  0.31886074514E+02  0.00000000000E+00 0. -1.
         11    1    3    3    0    0  0.14332460182E+02  0.34963964306E+01  0.16877511354E+02  0.22416391160E+02  0.51100000000E-03 0. -1.
        -11    1    3    3    0    0  0.34632735184E+01  0.65648772944E+01 -0.30709088489E+01  0.80325810779E+01  0.51100000000E-03 0.  1.
         12    1    3    3    0    0 -0.13245524740E+02 -0.19873791912E+02  0.16188927714E+02  0.28852953248E+02  0.00000000000E+00 0. -1.
</event>
<event>
 7    1  0.3461631E-013  0.5930194E+02  0.7816164E-02  0.1266605E+00
        -11   -1    0    0    0    0  0.00000000000E+00  0.00000000000E+00  0.45593999997E+02  0.45594000000E+02  0.51100000000E-03 0. -1.
         11   -1    0    0    0    0 -0.00000000000E+00 -0.00000000000E+00 -0.45593999997E+02  0.45594000000E+02  0.51100000000E-03 0.  1.
    9900012    2    1    2    0    0  0.21584493999E+01  0.29655922252E+02  0.11514694154E+02  0.59301940195E+02  0.49999993010E+02 0.  0.
         12    1    1    2    0    0 -0.21584493999E+01 -0.29655922252E+02 -0.11514694154E+02  0.31886059805E+02  0.00000000000E+00 0. -1.
         11    1    3    3    0    0  0.12602384519E+02  0.44801541959E+01  0.14295771725E+02  0.19577052042E+02  0.51100000000E-03 0. -1.
        -11    1    3    3    0    0  0.27779683950E+01  0.15554611099E+01 -0.10987235109E+02  0.11439226515E+02  0.51100000000E-03 0.  1.
        -12    1    3    3    0    0 -0.13221903514E+02  0.23620306946E+02  0.82061575373E+01  0.28285661638E+02  0.00000000000E+00 0.  1.
</event>
<event>
 7    1  0.3461631E-013  0.5930191E+02  0.7816164E-02  0.1266605E+00
        -11   -1    0    0    0    0  0.00000000000E+00  0.00000000000E+00  0.45593999997E+02  0.45594000000E+02  0.51100000000E-03 0. -1.
         11   -1    0    0    0    0 -0.00000000000E+00 -0.00000000000E+00 -0.45593999997E+02  0.45594000000E+02  0.51100000000E-03 0.  1.
    9900012    2    1    2    0    0  0.16682310153E+02 -0.21094539212E+02  0.17130200508E+02  0.59301908580E+02  0.49999935352E+02 0.  0.
         12    1    1    2    0    0 -0.16682310153E+02  0.21094539212E+02 -0.17130200508E+02  0.31886091420E+02  0.00000000000E+00 0. -1.
         11    1    3    3    0    0 -0.88307238026E+01 -0.26516513344E+01 -0.56617944473E+01  0.10819836149E+02  0.51100000000E-03 0.  1.
        -11    1    3    3    0    0 -0.59458414004E+01 -0.57619961715E+01  0.14442050532E+01  0.84047223830E+01  0.51100000000E-03 0. -1.
         12    1    3    3    0    0  0.31458875356E+02 -0.12680891706E+02  0.21347789903E+02  0.40077350048E+02  0.00000000000E+00 0. -1.
</event>
<event>
 7    1  0.3760083E-013  0.5930195E+02  0.7816164E-02  0.1266605E+00
        -11   -1    0    0    0    0  0.00000000000E+00  0.00000000000E+00  0.45593999997E+02  0.45594000000E+02  0.51100000000E-03 0.  1.
         11   -1    0    0    0    0 -0.00000000000E+00 -0.00000000000E+00 -0.45593999997E+02  0.45594000000E+02  0.51100000000E-03 0. -1.
    9900012    2    1    2    0    0  0.20595666737E+02  0.68255733836E+01 -0.23365582900E+02  0.59301946550E+02  0.50000004600E+02 0.  0.
         12    1    1    2    0    0 -0.20595666737E+02 -0.68255733836E+01  0.23365582900E+02  0.31886053450E+02  0.00000000000E+00 0. -1.
         11    1    3    3    0    0  0.23035840981E+01  0.12077047113E+02  0.15578958384E+01  0.12393087040E+02  0.51100000000E-03 0. -1.
        -11    1    3    3    0    0  0.28360514068E+02 -0.17682403754E+00 -0.16275607418E+02  0.32699318373E+02  0.51100000000E-03 0.  1.
         12    1    3    3    0    0 -0.10068431430E+02 -0.50746496922E+01 -0.86478713202E+01  0.14209541137E+02  0.00000000000E+00 0. -1.
</event>
<event>
 7    1  0.3461631E-013  0.5930200E+02  0.7816164E-02  0.1266605E+00
        -11   -1    0    0    0    0  0.00000000000E+00  0.00000000000E+00  0.45593999997E+02  0.45594000000E+02  0.51100000000E-03 0.  1.
         11   -1    0    0    0    0 -0.00000000000E+00 -0.00000000000E+00 -0.45593999997E+02  0.45594000000E+02  0.51100000000E-03 0. -1.
    9900012    2    1    2    0    0 -0.72878725757E+01  0.13282388444E+02  0.28056764039E+02  0.59302000913E+02  0.50000103745E+02 0.  0.
         12    1    1    2    0    0  0.72878725757E+01 -0.13282388444E+02 -0.28056764039E+02  0.31885999087E+02  0.00000000000E+00 0. -1.
         11    1    3    3    0    0  0.17806003574E+01  0.13920876354E+02 -0.59112412018E+01  0.15228398107E+02  0.51100000000E-03 0. -1.
        -11    1    3    3    0    0 -0.10563478735E+02 -0.97388210896E+01  0.78438692598E+01  0.16369422849E+02  0.51100000000E-03 0.  1.
        -12    1    3    3    0    0  0.14950058015E+01  0.91003331798E+01  0.26124135981E+02  0.27704179957E+02  0.00000000000E+00 0.  1.
</event>
<event>
 7    1  0.3461631E-013  0.5930192E+02  0.7816164E-02  0.1266605E+00
        -11   -1    0    0    0    0  0.00000000000E+00  0.00000000000E+00  0.45593999997E+02  0.45594000000E+02  0.51100000000E-03 0. -1.
         11   -1    0    0    0    0 -0.00000000000E+00 -0.00000000000E+00 -0.45593999997E+02  0.45594000000E+02  0.51100000000E-03 0.  1.
    9900012    2    1    2    0    0  0.15580116814E+02  0.11558535933E+02 -0.25305776678E+02  0.59301919555E+02  0.49999955368E+02 0.  0.
         12    1    1    2    0    0 -0.15580116814E+02 -0.11558535933E+02  0.25305776678E+02  0.31886080445E+02  0.00000000000E+00 0. -1.
         11    1    3    3    0    0  0.12152863576E+02  0.19793948889E+01 -0.19107936150E+02  0.22731549032E+02  0.51100000000E-03 0.  1.
        -11    1    3    3    0    0 -0.10756386868E+02 -0.23191929729E+01 -0.12832361591E+02  0.16904082902E+02  0.51100000000E-03 0. -1.
         12    1    3    3    0    0  0.14183640106E+02  0.11898334017E+02  0.66345210636E+01  0.19666287621E+02  0.00000000000E+00 0. -1.
</event>
<event>
 7    1  0.3461631E-013  0.5930196E+02  0.7816164E-02  0.1266605E+00
        -11   -1    0    0    0    0  0.00000000000E+00  0.00000000000E+00  0.45593999997E+02  0.45594000000E+02  0.51100000000E-03 0.  1.
         11   -1    0    0    0    0 -0.00000000000E+00 -0.00000000000E+00 -0.45593999997E+02  0.45594000000E+02  0.51100000000E-03 0. -1.
    9900012    2    1    2    0    0 -0.95446782810E+01  0.27444978164E+02  0.13129802625E+02  0.59301961882E+02  0.50000032562E+02 0.  0.
         12    1    1    2    0    0  0.95446782810E+01 -0.27444978164E+02 -0.13129802625E+02  0.31886038118E+02  0.00000000000E+00 0. -1.
         11    1    3    3    0    0 -0.73145947616E+01 -0.67205989613E+01  0.15009006495E+01  0.10046016621E+02  0.51100000000E-03 0. -1.
        -11    1    3    3    0    0  0.12525944573E+02  0.17360462499E+02  0.15669768520E+02  0.26529730330E+02  0.51100000000E-03 0.  1.
         12    1    3    3    0    0 -0.14756028093E+02  0.16805114626E+02 -0.40408665449E+01  0.22726214932E+02  0.00000000000E+00 0. -1.
</event>
<event>
 7    1  0.3461631E-013  0.5930186E+02  0.7816164E-02  0.1266605E+00
        -11   -1    0    0    0    0  0.00000000000E+00  0.00000000000E+00  0.45593999997E+02  0.45594000000E+02  0.51100000000E-03 0.  1.
         11   -1    0    0    0    0 -0.00000000000E+00 -0.00000000000E+00 -0.45593999997E+02  0.45594000000E+02  0.51100000000E-03 0. -1.
    9900012    2    1    2    0    0  0.12007474824E+02 -0.83036254090E+01  0.28347771316E+02  0.59301862179E+02  0.49999850727E+02 0.  0.
         12    1    1    2    0    0 -0.12007474824E+02  0.83036254090E+01 -0.28347771316E+02  0.31886137821E+02  0.00000000000E+00 0. -1.
         11    1    3    3    0    0  0.82151863545E+01  0.25891510707E+01  0.11818875366E+02  0.14624595902E+02  0.51100000000E-03 0. -1.
        -11    1    3    3    0    0 -0.14960000541E+02 -0.12114354856E+02  0.17283029922E+02  0.25870105011E+02  0.51100000000E-03 0.  1.
         12    1    3    3    0    0  0.18752289010E+02  0.12215783765E+01 -0.75413397172E+00  0.18807161266E+02  0.00000000000E+00 0. -1.
</event>
<event>
 7    1  0.3461631E-013  0.5930192E+02  0.7816164E-02  0.1266605E+00
        -11   -1    0    0    0    0  0.00000000000E+00  0.00000000000E+00  0.45593999997E+02  0.45594000000E+02  0.51100000000E-03 0.  1.
         11   -1    0    0    0    0 -0.00000000000E+00 -0.00000000000E+00 -0.45593999997E+02  0.45594000000E+02  0.51100000000E-03 0. -1.
    9900012    2    1    2    0    0  0.23420232919E+02  0.13726545177E+02  0.16727124509E+02  0.59301920799E+02  0.49999957636E+02 0.  0.
         12    1    1    2    0    0 -0.23420232919E+02 -0.13726545177E+02 -0.16727124509E+02  0.31886079201E+02  0.00000000000E+00 0. -1.
         11    1    3    3    0    0  0.17354009441E+02  0.96482059691E+01  0.10998711213E+02  0.22698483885E+02  0.51100000000E-03 0. -1.
        -11    1    3    3    0    0  0.15936593404E+02 -0.97614420632E+01  0.59189458128E+01  0.19603435421E+02  0.51100000000E-03 0.  1.
         12    1    3    3    0    0 -0.98703699264E+01  0.13839781271E+02 -0.19053251646E+00  0.17000001493E+02  0.00000000000E+00 0. -1.
</event>
<event>
 7    1  0.3461631E-013  0.5930190E+02  0.7816164E-02  0.1266605E+00
        -11   -1    0    0    0    0  0.00000000000E+00  0.00000000000E+00  0.45593999997E+02  0.45594000000E+02  0.51100000000E-03 0. -1.
         11   -1    0    0    0    0 -0.00000000000E+00 -0.00000000000E+00 -0.45593999997E+02  0.45594000000E+02  0.51100000000E-03 0.  1.
    9900012    2    1    2    0    0 -0.16779090004E+02  0.23379887439E+02 -0.13731935880E+02  0.59301904895E+02  0.49999928631E+02 0.  0.
         12    1    1    2    0    0  0.16779090004E+02 -0.23379887439E+02  0.13731935880E+02  0.31886095105E+02  0.00000000000E+00 0. -1.
         11    1    3    3    0    0 -0.19188737122E+02  0.18495470994E+02  0.12148488839E+02  0.29289517936E+02  0.51100000000E-03 0. -1.
        -11    1    3    3    0    0 -0.12776008281E+01  0.11797861796E+01  0.14020038194E+01  0.22337802659E+01  0.51100000000E-03 0.  1.
        -12    1    3    3    0    0  0.36872479454E+01  0.37046302659E+01 -0.27282428539E+02  0.27778606693E+02  0.00000000000E+00 0.  1.
</event>
<event>
 7    1  0.3461631E-013  0.5930189E+02  0.7816164E-02  0.1266605E+00
        -11   -1    0    0    0    0  0.00000000000E+00  0.00000000000E+00  0.45593999997E+02  0.45594000000E+02  0.51100000000E-03 0.  1.
         11   -1    0    0    0    0 -0.00000000000E+00 -0.00000000000E+00 -0.45593999997E+02  0.45594000000E+02  0.51100000000E-03 0. -1.
    9900012    2    1    2    0    0 -0.30334233302E+02  0.98154542217E+01  0.46366808249E+00  0.59301892686E+02  0.49999906364E+02 0.  0.
         12    1    1    2    0    0  0.30334233302E+02 -0.98154542217E+01 -0.46366808249E+00  0.31886107314E+02  0.00000000000E+00 0. -1.
         11    1    3    3    0    0 -0.11298440103E+02  0.49726125871E+01  0.87234085420E+01  0.15115537753E+02  0.51100000000E-03 0. -1.
        -11    1    3    3    0    0 -0.18177676168E+02  0.20791744553E+01  0.13181947863E+02  0.22550268890E+02  0.51100000000E-03 0.  1.
         12    1    3    3    0    0 -0.85811703076E+00  0.27636671792E+01 -0.21441688323E+02  0.21636086043E+02  0.00000000000E+00 0. -1.
</event>
<event>
 7    1  0.3461631E-013  0.5930193E+02  0.7816164E-02  0.1266605E+00
        -11   -1    0    0    0    0  0.00000000000E+00  0.00000000000E+00  0.45593999997E+02  0.45594000000E+02  0.51100000000E-03 0.  1.
         11   -1    0    0    0    0 -0.00000000000E+00 -0.00000000000E+00 -0.45593999997E+02  0.45594000000E+02  0.51100000000E-03 0. -1.
    9900012    2    1    2    0    0  0.16800574449E+02 -0.20342877747E+02  0.17906130273E+02  0.59301929715E+02  0.49999973897E+02 0.  0.
         12    1    1    2    0    0 -0.16800574449E+02  0.20342877747E+02 -0.17906130273E+02  0.31886070285E+02  0.00000000000E+00 0. -1.
         11    1    3    3    0    0  0.82792351793E+01 -0.49360568122E+01  0.18272203930E+02  0.20658747027E+02  0.51100000000E-03 0. -1.
        -11    1    3    3    0    0  0.10069427098E+02  0.11704265180E+01  0.13564944781E+02  0.16934313907E+02  0.51100000000E-03 0.  1.
         12    1    3    3    0    0 -0.15480878284E+01 -0.16577247453E+02 -0.13931018438E+02  0.21708868782E+02  0.00000000000E+00 0. -1.
</event>
<event>
 7    1  0.3461631E-013  0.5930194E+02  0.7816164E-02  0.1266605E+00
        -11   -1    0    0    0    0  0.00000000000E+00  0.00000000000E+00  0.45593999997E+02  0.45594000000E+02  0.51100000000E-03 0. -1.
         11   -1    0    0    0    0 -0.00000000000E+00 -0.00000000000E+00 -0.45593999997E+02  0.45594000000E+02  0.51100000000E-03 0.  1.
    9900012    2    1    2    0    0 -0.20172847739E+02 -0.60368881813E+01 -0.23944371233E+02  0.59301941627E+02  0.49999995622E+02 0.  0.
         12    1    1    2    0    0  0.20172847739E+02  0.60368881813E+01  0.23944371233E+02  0.31886058373E+02  0.00000000000E+00 0. -1.
         11    1    3    3    0    0  0.72203357350E+01 -0.16610910731E+02 -0.65558247773E+01  0.19262254338E+02  0.51100000000E-03 0. -1.
        -11    1    3    3    0    0 -0.90567995147E+01 -0.18385912531E+01 -0.15200312055E+02  0.17789196780E+02  0.51100000000E-03 0.  1.
        -12    1    3    3    0    0 -0.18336383959E+02  0.12412613802E+02 -0.21882344008E+01  0.22250490509E+02  0.00000000000E+00 0.  1.
</event>
<event>
 7    1  0.3461631E-013  0.5930192E+02  0.7816164E-02  0.1266605E+00
        -11   -1    0    0    0    0  0.00000000000E+00  0.00000000000E+00  0.45593999997E+02  0.45594000000E+02  0.51100000000E-03 0. -1.
         11   -1    0    0    0    0 -0.00000000000E+00 -0.00000000000E+00 -0.45593999997E+02  0.45594000000E+02  0.51100000000E-03 0.  1.
    9900012    2    1    2    0    0 -0.24530869800E+02 -0.19908629052E+02  0.43133513767E+01  0.59301920217E+02  0.49999956574E+02 0.  0.
         12    1    1    2    0    0  0.24530869800E+02  0.19908629052E+02 -0.43133513767E+01  0.31886079783E+02  0.00000000000E+00 0. -1.
         11    1    3    3    0    0  0.83708217276E+01  0.32620827825E+00  0.29586412803E+01  0.88842910084E+01  0.51100000000E-03 0. -1.
        -11    1    3    3    0    0 -0.23032504870E+02  0.47579466046E+01  0.13596606997E+00  0.23519201167E+02  0.51100000000E-03 0.  1.
         12    1    3    3    0    0 -0.98691866566E+01 -0.24992783935E+02  0.12187440264E+01  0.26898428041E+02  0.00000000000E+00 0. -1.
</event>
<event>
 7    1  0.3461631E-013  0.5930195E+02  0.7816164E-02  0.1266605E+00
        -11   -1    0    0    0    0  0.00000000000E+00  0.00000000000E+00  0.45593999997E+02  0.45594000000E+02  0.51100000000E-03 0. -1.
         11   -1    0    0    0    0 -0.00000000000E+00 -0.00000000000E+00 -0.45593999997E+02  0.45594000000E+02  0.51100000000E-03 0.  1.
    9900012    2    1    2    0    0  0.34055470458E+01  0.31540863364E+02  0.32088264553E+01  0.59301946942E+02  0.50000005315E+02 0.  0.
         12    1    1    2    0    0 -0.34055470458E+01 -0.31540863364E+02 -0.32088264553E+01  0.31886053058E+02  0.00000000000E+00 0. -1.
         11    1    3    3    0    0  0.24622802471E+01  0.14875025065E+02  0.13543595401E+02  0.20267169791E+02  0.51100000000E-03 0. -1.
        -11    1    3    3    0    0  0.52772189446E+01 -0.12528282482E+00  0.10605262823E+02  0.11846363804E+02  0.51100000000E-03 0.  1.
        -12    1    3    3    0    0 -0.43339521459E+01  0.16791121124E+02 -0.20940031769E+02  0.27188413346E+02  0.00000000000E+00 0.  1.
</event>
<event>
 7    1  0.3461631E-013  0.5930192E+02  0.7816164E-02  0.1266605E+00
        -11   -1    0    0    0    0  0.00000000000E+00  0.00000000000E+00  0.45593999997E+02  0.45594000000E+02  0.51100000000E-03 0.  1.
         11   -1    0    0    0    0 -0.00000000000E+00 -0.00000000000E+00 -0.45593999997E+02  0.45594000000E+02  0.51100000000E-03 0. -1.
    9900012    2    1    2    0    0 -0.16324474423E+02 -0.95048322010E+01  0.25688364333E+02  0.59301915850E+02  0.49999948610E+02 0.  0.
         12    1    1    2    0    0  0.16324474423E+02  0.95048322010E+01 -0.25688364333E+02  0.31886084150E+02  0.00000000000E+00 0. -1.
         11    1    3    3    0    0 -0.38258600990E+01  0.92814069703E+01  0.48897179905E+01  0.11166515264E+02  0.51100000000E-03 0. -1.
        -11    1    3    3    0    0 -0.12078974508E+02  0.23837676356E+01  0.23754842442E+02  0.26755868759E+02  0.51100000000E-03 0.  1.
         12    1    3    3    0    0 -0.41963981586E+00 -0.21170006807E+02 -0.29561961000E+01  0.21379531827E+02  0.00000000000E+00 0. -1.
</event>
<event>
 7    1  0.3461631E-013  0.5930191E+02  0.7816164E-02  0.1266605E+00
        -11   -1    0    0    0    0  0.00000000000E+00  0.00000000000E+00  0.45593999997E+02  0.45594000000E+02  0.51100000000E-03 0.  1.
         11   -1    0    0    0    0 -0.00000000000E+00 -0.00000000000E+00 -0.45593999997E+02  0.45594000000E+02  0.51100000000E-03 0. -1.
    9900012    2    1    2    0    0  0.12628854082E+02  0.26522980383E+01  0.29158186282E+02  0.59301914201E+02  0.49999945603E+02 0.  0.
         12    1    1    2    0    0 -0.12628854082E+02 -0.26522980383E+01 -0.29158186282E+02  0.31886085799E+02  0.00000000000E+00 0. -1.
         11    1    3    3    0    0 -0.24402030103E+01  0.51573607483E+01 -0.94114063967E+01  0.11005795348E+02  0.51100000000E-03 0. -1.
        -11    1    3    3    0    0 -0.37947105677E+01  0.40032427859E+01  0.79264486643E+00  0.55726176292E+01  0.51100000000E-03 0.  1.
        -12    1    3    3    0    0  0.18863767660E+02 -0.65083054959E+01  0.37776947813E+02  0.42723501224E+02  0.00000000000E+00 0.  1.
</event>
<event>
 7    1  0.3461631E-013  0.5930194E+02  0.7816164E-02  0.1266605E+00
        -11   -1    0    0    0    0  0.00000000000E+00  0.00000000000E+00  0.45593999997E+02  0.45594000000E+02  0.51100000000E-03 0.  1.
         11   -1    0    0    0    0 -0.00000000000E+00 -0.00000000000E+00 -0.45593999997E+02  0.45594000000E+02  0.51100000000E-03 0. -1.
    9900012    2    1    2    0    0 -0.12483896496E+02  0.29199482040E+02  0.28746322197E+01  0.59301938256E+02  0.49999989474E+02 0.  0.
         12    1    1    2    0    0  0.12483896496E+02 -0.29199482040E+02 -0.28746322197E+01  0.31886061744E+02  0.00000000000E+00 0. -1.
         11    1    3    3    0    0 -0.95730507601E+01  0.25654720069E+01  0.22499588230E+02  0.24585695399E+02  0.51100000000E-03 0. -1.
        -11    1    3    3    0    0 -0.43473873411E+01  0.22169124461E+02 -0.11537124059E+02  0.25366810755E+02  0.51100000000E-03 0.  1.
        -12    1    3    3    0    0  0.14365416050E+01  0.44648855725E+01 -0.80878319512E+01  0.93494321020E+01  0.00000000000E+00 0.  1.
</event>
<event>
 7    1  0.3461631E-013  0.5930194E+02  0.7816164E-02  0.1266605E+00
        -11   -1    0    0    0    0  0.00000000000E+00  0.00000000000E+00  0.45593999997E+02  0.45594000000E+02  0.51100000000E-03 0.  1.
         11   -1    0    0    0    0 -0.00000000000E+00 -0.00000000000E+00 -0.45593999997E+02  0.45594000000E+02  0.51100000000E-03 0. -1.
    9900012    2    1    2    0    0 -0.31338856731E+02  0.16413746524E+01  0.56482278359E+01  0.59301944590E+02  0.50000001025E+02 0.  0.
         12    1    1    2    0    0  0.31338856731E+02 -0.16413746524E+01 -0.56482278359E+01  0.31886055410E+02  0.00000000000E+00 0. -1.
         11    1    3    3    0    0 -0.15268680831E+02  0.22060194921E+01  0.93407378358E+01  0.18034647762E+02  0.51100000000E-03 0. -1.
        -11    1    3    3    0    0 -0.75639958389E+01 -0.14640974971E+02  0.10502670172E+02  0.19541705713E+02  0.51100000000E-03 0.  1.
         12    1    3    3    0    0 -0.85061800607E+01  0.14076330132E+02 -0.14195180171E+02  0.21725591115E+02  0.00000000000E+00 0. -1.
</event>
<event>
 7    1  0.3461631E-013  0.5930216E+02  0.7816164E-02  0.1266604E+00
        -11   -1    0    0    0    0  0.00000000000E+00  0.00000000000E+00  0.45593999997E+02  0.45594000000E+02  0.51100000000E-03 0.  1.
         11   -1    0    0    0    0 -0.00000000000E+00 -0.00000000000E+00 -0.45593999997E+02  0.45594000000E+02  0.51100000000E-03 0. -1.
    9900012    2    1    2    0    0  0.49061674230E+01 -0.14185812494E+02  0.28131820069E+02  0.59302155879E+02  0.50000386364E+02 0.  0.
         12    1    1    2    0    0 -0.49061674230E+01  0.14185812494E+02 -0.28131820069E+02  0.31885844121E+02  0.00000000000E+00 0. -1.
         11    1    3    3    0    0  0.43891438455E+01 -0.75428511370E+01 -0.18736590419E+01  0.89257932666E+01  0.51100000000E-03 0. -1.
        -11    1    3    3    0    0  0.15941439797E+02  0.76563368166E+01  0.65173449649E+01  0.18847407830E+02  0.51100000000E-03 0.  1.
         12    1    3    3    0    0 -0.15424416220E+02 -0.14299298174E+02  0.23488134146E+02  0.31528954782E+02  0.00000000000E+00 0. -1.
</event>
<event>
 7    1  0.3461631E-013  0.5930196E+02  0.7816164E-02  0.1266605E+00
        -11   -1    0    0    0    0  0.00000000000E+00  0.00000000000E+00  0.45593999997E+02  0.45594000000E+02  0.51100000000E-03 0.  1.
         11   -1    0    0    0    0 -0.00000000000E+00 -0.00000000000E+00 -0.45593999997E+02  0.45594000000E+02  0.51100000000E-03 0. -1.
    9900012    2    1    2    0    0  0.26547176340E+02  0.12868857628E+02  0.12097906839E+02  0.59301962019E+02  0.50000032811E+02 0.  0.
         12    1    1    2    0    0 -0.26547176340E+02 -0.12868857628E+02 -0.12097906839E+02  0.31886037981E+02  0.00000000000E+00 0. -1.
         11    1    3    3    0    0  0.22518467822E+01  0.53857000014E+01 -0.33984261250E+01  0.67546930962E+01  0.51100000000E-03 0. -1.
        -11    1    3    3    0    0  0.30118309826E+02  0.99651116841E+01 -0.40685672495E+01  0.31983890904E+02  0.51100000000E-03 0.  1.
         12    1    3    3    0    0 -0.58229802685E+01 -0.24819540579E+01  0.19564900214E+02  0.20563378018E+02  0.00000000000E+00 0. -1.
</event>
<event>
 7    1  0.3461631E-013  0.5930196E+02  0.7816164E-02  0.1266605E+00
        -11   -1    0    0    0    0  0.00000000000E+00  0.00000000000E+00  0.45593999997E+02  0.45594000000E+02  0.51100000000E-03 0.  1.
         11   -1    0    0    0    0 -0.00000000000E+00 -0.00000000000E+00 -0.45593999997E+02  0.45594000000E+02  0.51100000000E-03 0. -1.
    9900012    2    1    2    0    0 -0.12430027918E+02  0.23609045765E+02  0.17459299683E+02  0.59301956323E+02  0.50000022423E+02 0.  0.
         12    1    1    2    0    0  0.12430027918E+02 -0.23609045765E+02 -0.17459299683E+02  0.31886043677E+02  0.00000000000E+00 0. -1.
         11    1    3    3    0    0  0.45299407071E+01  0.66864376461E+01  0.60239642396E+01  0.10075562348E+02  0.51100000000E-03 0. -1.
        -11    1    3    3    0    0 -0.27949541606E+01  0.22789269141E+02  0.21033555529E+02  0.31137967422E+02  0.51100000000E-03 0.  1.
         12    1    3    3    0    0 -0.14165014465E+02 -0.58666610229E+01 -0.95982200853E+01  0.18088426553E+02  0.00000000000E+00 0. -1.
</event>
<event>
 7    1  0.3461631E-013  0.5930201E+02  0.7816164E-02  0.1266605E+00
        -11   -1    0    0    0    0  0.00000000000E+00  0.00000000000E+00  0.45593999997E+02  0.45594000000E+02  0.51100000000E-03 0.  1.
         11   -1    0    0    0    0 -0.00000000000E+00 -0.00000000000E+00 -0.45593999997E+02  0.45594000000E+02  0.51100000000E-03 0. -1.
    9900012    2    1    2    0    0  0.31183462361E+02 -0.54970034796E+01  0.37537998397E+01  0.59302009576E+02  0.50000119545E+02 0.  0.
         12    1    1    2    0    0 -0.31183462361E+02  0.54970034796E+01 -0.37537998397E+01  0.31885990424E+02  0.00000000000E+00 0. -1.
         11    1    3    3    0    0 -0.35066492419E+01 -0.74462941805E+01 -0.12914911399E+02  0.15314660383E+02  0.51100000000E-03 0. -1.
        -11    1    3    3    0    0  0.23366121259E+02 -0.46385685094E+01  0.13923552635E+01  0.23862744895E+02  0.51100000000E-03 0.  1.
        -12    1    3    3    0    0  0.11323990344E+02  0.65878592103E+01  0.15276355975E+02  0.20124604298E+02  0.00000000000E+00 0.  1.
</event>
<event>
 7    1  0.3461631E-013  0.5930190E+02  0.7816164E-02  0.1266605E+00
        -11   -1    0    0    0    0  0.00000000000E+00  0.00000000000E+00  0.45593999997E+02  0.45594000000E+02  0.51100000000E-03 0.  1.
         11   -1    0    0    0    0 -0.00000000000E+00 -0.00000000000E+00 -0.45593999997E+02  0.45594000000E+02  0.51100000000E-03 0. -1.
    9900012    2    1    2    0    0  0.17885515324E+02 -0.23763529426E+02  0.11494614992E+02  0.59301903296E+02  0.49999925716E+02 0.  0.
         12    1    1    2    0    0 -0.17885515324E+02  0.23763529426E+02 -0.11494614992E+02  0.31886096704E+02  0.00000000000E+00 0. -1.
         11    1    3    3    0    0 -0.76858197145E+01 -0.57113395053E+01 -0.65999404171E+01  0.11629722155E+02  0.51100000000E-03 0. -1.
        -11    1    3    3    0    0 -0.49475726530E+00 -0.45738841151E+01 -0.74571445068E+01  0.87620890835E+01  0.51100000000E-03 0.  1.
        -12    1    3    3    0    0  0.26066092304E+02 -0.13478305805E+02  0.25551699916E+02  0.38910092058E+02  0.00000000000E+00 0.  1.
</event>
<event>
 7    1  0.3461631E-013  0.5930194E+02  0.7816164E-02  0.1266605E+00
        -11   -1    0    0    0    0  0.00000000000E+00  0.00000000000E+00  0.45593999997E+02  0.45594000000E+02  0.51100000000E-03 0.  1.
         11   -1    0    0    0    0 -0.00000000000E+00 -0.00000000000E+00 -0.45593999997E+02  0.45594000000E+02  0.51100000000E-03 0. -1.
    9900012    2    1    2    0    0 -0.11472648272E+01 -0.23880350745E+02  0.21098191701E+02  0.59301936252E+02  0.49999985819E+02 0.  0.
         12    1    1    2    0    0  0.11472648272E+01  0.23880350745E+02 -0.21098191701E+02  0.31886063748E+02  0.00000000000E+00 0. -1.
         11    1    3    3    0    0 -0.38659983116E+01 -0.50244366367E+01  0.22572721067E+00  0.63436471762E+01  0.51100000000E-03 0. -1.
        -11    1    3    3    0    0  0.16719258714E+02 -0.18882409823E+02 -0.28821992223E+01  0.25384760887E+02  0.51100000000E-03 0.  1.
        -12    1    3    3    0    0 -0.14000525229E+02  0.26495714704E-01  0.23754663712E+02  0.27573528189E+02  0.00000000000E+00 0.  1.
</event>
<event>
 7    1  0.3461631E-013  0.5930196E+02  0.7816164E-02  0.1266605E+00
        -11   -1    0    0    0    0  0.00000000000E+00  0.00000000000E+00  0.45593999997E+02  0.45594000000E+02  0.51100000000E-03 0.  1.
         11   -1    0    0    0    0 -0.00000000000E+00 -0.00000000000E+00 -0.45593999997E+02  0.45594000000E+02  0.51100000000E-03 0. -1.
    9900012    2    1    2    0    0  0.37493451825E+01 -0.31048560013E+02 -0.62168399110E+01  0.59301956554E+02  0.50000022844E+02 0.  0.
         12    1    1    2    0    0 -0.37493451825E+01  0.31048560013E+02  0.62168399110E+01  0.31886043446E+02  0.00000000000E+00 0. -1.
         11    1    3    3    0    0  0.63546884896E+01  0.37404846254E+01 -0.15972698626E+02  0.17592623247E+02  0.51100000000E-03 0. -1.
        -11    1    3    3    0    0  0.87277334884E+01 -0.17297170568E+02  0.20270543646E+01  0.19480102442E+02  0.51100000000E-03 0.  1.
        -12    1    3    3    0    0 -0.11333076796E+02 -0.17491874071E+02  0.77288043506E+01  0.22229230865E+02  0.00000000000E+00 0.  1.
</event>
<event>
 7    1  0.3461631E-013  0.5930196E+02  0.7816164E-02  0.1266605E+00
        -11   -1    0    0    0    0  0.00000000000E+00  0.00000000000E+00  0.45593999997E+02  0.45594000000E+02  0.51100000000E-03 0.  1.
         11   -1    0    0    0    0 -0.00000000000E+00 -0.00000000000E+00 -0.45593999997E+02  0.45594000000E+02  0.51100000000E-03 0. -1.
    9900012    2    1    2    0    0  0.18518912529E+02  0.20801618496E+02  0.15526177954E+02  0.59301958302E+02  0.50000026032E+02 0.  0.
         12    1    1    2    0    0 -0.18518912529E+02 -0.20801618496E+02 -0.15526177954E+02  0.31886041698E+02  0.00000000000E+00 0. -1.
         11    1    3    3    0    0  0.37468987101E+01  0.42069595925E+01  0.15729553304E+02  0.16707980319E+02  0.51100000000E-03 0. -1.
        -11    1    3    3    0    0  0.22973550260E+01  0.15067632274E+02  0.15993497244E+02  0.22093060829E+02  0.51100000000E-03 0.  1.
         12    1    3    3    0    0  0.12474658793E+02  0.15270266302E+01 -0.16196872593E+02  0.20500917153E+02  0.00000000000E+00 0. -1.
</event>
<event>
 7    1  0.3461631E-013  0.5930193E+02  0.7816164E-02  0.1266605E+00
        -11   -1    0    0    0    0  0.00000000000E+00  0.00000000000E+00  0.45593999997E+02  0.45594000000E+02  0.51100000000E-03 0. -1.
         11   -1    0    0    0    0 -0.00000000000E+00 -0.00000000000E+00 -0.45593999997E+02  0.45594000000E+02  0.51100000000E-03 0.  1.
    9900012    2    1    2    0    0 -0.61764585504E+01  0.10606859867E+02 -0.29429021835E+02  0.59301930273E+02  0.49999974915E+02 0.  0.
         12    1    1    2    0    0  0.61764585504E+01 -0.10606859867E+02  0.29429021835E+02  0.31886069727E+02  0.00000000000E+00 0. -1.
         11    1    3    3    0    0 -0.11311903393E+02  0.77343829791E+00  0.96581465014E+01  0.14894198847E+02  0.51100000000E-03 0. -1.
        -11    1    3    3    0    0 -0.34378057086E+00 -0.44534673754E+01 -0.16727496846E+02  0.17313598926E+02  0.51100000000E-03 0.  1.
        -12    1    3    3    0    0  0.54792254137E+01  0.14286888944E+02 -0.22359671490E+02  0.27094132501E+02  0.00000000000E+00 0.  1.
</event>
<event>
 7    1  0.3461631E-013  0.5930195E+02  0.7816164E-02  0.1266605E+00
        -11   -1    0    0    0    0  0.00000000000E+00  0.00000000000E+00  0.45593999997E+02  0.45594000000E+02  0.51100000000E-03 0.  1.
         11   -1    0    0    0    0 -0.00000000000E+00 -0.00000000000E+00 -0.45593999997E+02  0.45594000000E+02  0.51100000000E-03 0. -1.
    9900012    2    1    2    0    0 -0.12452398906E+02  0.13595168512E+02  0.26015945652E+02  0.59301948605E+02  0.50000008347E+02 0.  0.
         12    1    1    2    0    0  0.12452398906E+02 -0.13595168512E+02 -0.26015945652E+02  0.31886051395E+02  0.00000000000E+00 0. -1.
         11    1    3    3    0    0 -0.48218889794E+01  0.79341890801E+00  0.11526132329E+02  0.12519259308E+02  0.51100000000E-03 0. -1.
        -11    1    3    3    0    0 -0.79192579917E+01  0.86905241398E+01  0.29214717088E+02  0.31491896604E+02  0.51100000000E-03 0.  1.
         12    1    3    3    0    0  0.28874806509E+00  0.41112254646E+01 -0.14724903765E+02  0.15290792692E+02  0.00000000000E+00 0. -1.
</event>
<event>
 7    1  0.3461631E-013  0.5930196E+02  0.7816164E-02  0.1266605E+00
        -11   -1    0    0    0    0  0.00000000000E+00  0.00000000000E+00  0.45593999997E+02  0.45594000000E+02  0.51100000000E-03 0. -1.
         11   -1    0    0    0    0 -0.00000000000E+00 -0.00000000000E+00 -0.45593999997E+02  0.45594000000E+02  0.51100000000E-03 0.  1.
    9900012    2    1    2    0    0 -0.33001225118E+01  0.25934929030E+02 -0.18253991577E+02  0.59301959780E+02  0.50000028729E+02 0.  0.
         12    1    1    2    0    0  0.33001225118E+01 -0.25934929030E+02  0.18253991577E+02  0.31886040220E+02  0.00000000000E+00 0. -1.
         11    1    3    3    0    0 -0.78124968144E+01  0.83877302673E+01  0.51561725439E+01  0.12568820194E+02  0.51100000000E-03 0. -1.
        -11    1    3    3    0    0 -0.11211059963E+02  0.20498944196E+02 -0.19064222308E+02  0.30155250805E+02  0.51100000000E-03 0.  1.
        -12    1    3    3    0    0  0.15723434265E+02 -0.29517454329E+01 -0.43459418125E+01  0.16577888781E+02  0.00000000000E+00 0.  1.
</event>
<event>
 7    1  0.3461631E-013  0.5930195E+02  0.7816164E-02  0.1266605E+00
        -11   -1    0    0    0    0  0.00000000000E+00  0.00000000000E+00  0.45593999997E+02  0.45594000000E+02  0.51100000000E-03 0. -1.
         11   -1    0    0    0    0 -0.00000000000E+00 -0.00000000000E+00 -0.45593999997E+02  0.45594000000E+02  0.51100000000E-03 0.  1.
    9900012    2    1    2    0    0  0.17564501268E+02 -0.19759828072E+02 -0.17825756698E+02  0.59301951137E+02  0.50000012966E+02 0.  0.
         12    1    1    2    0    0 -0.17564501268E+02  0.19759828072E+02  0.17825756698E+02  0.31886048863E+02  0.00000000000E+00 0. -1.
         11    1    3    3    0    0  0.94926614446E+01 -0.24146294383E+01 -0.21159758118E+02  0.23316869869E+02  0.51100000000E-03 0. -1.
        -11    1    3    3    0    0  0.13569139967E+02  0.36971497299E+01  0.75388645053E+00  0.14083991643E+02  0.51100000000E-03 0.  1.
        -12    1    3    3    0    0 -0.54973001433E+01 -0.21042348363E+02  0.25801149693E+01  0.21901089625E+02  0.00000000000E+00 0.  1.
</event>
<event>
 7    1  0.3461631E-013  0.5930200E+02  0.7816164E-02  0.1266605E+00
        -11   -1    0    0    0    0  0.00000000000E+00  0.00000000000E+00  0.45593999997E+02  0.45594000000E+02  0.51100000000E-03 0.  1.
         11   -1    0    0    0    0 -0.00000000000E+00 -0.00000000000E+00 -0.45593999997E+02  0.45594000000E+02  0.51100000000E-03 0. -1.
    9900012    2    1    2    0    0 -0.73293227742E+01  0.13029388154E+01  0.31004848766E+02  0.59301995721E+02  0.50000094276E+02 0.  0.
         12    1    1    2    0    0  0.73293227742E+01 -0.13029388154E+01 -0.31004848766E+02  0.31886004279E+02  0.00000000000E+00 0. -1.
         11    1    3    3    0    0  0.17650757390E+02  0.20865666986E+01  0.29554686742E+01  0.18017707745E+02  0.51100000000E-03 0. -1.
        -11    1    3    3    0    0 -0.10706970706E+01 -0.32055088322E+01  0.11800227113E+02  0.12274650271E+02  0.51100000000E-03 0.  1.
        -12    1    3    3    0    0 -0.23909383094E+02  0.24218809491E+01  0.16249152978E+02  0.29009637705E+02  0.00000000000E+00 0.  1.
</event>
<event>
 7    1  0.3461631E-013  0.5930197E+02  0.7816164E-02  0.1266605E+00
        -11   -1    0    0    0    0  0.00000000000E+00  0.00000000000E+00  0.45593999997E+02  0.45594000000E+02  0.51100000000E-03 0.  1.
         11   -1    0    0    0    0 -0.00000000000E+00 -0.00000000000E+00 -0.45593999997E+02  0.45594000000E+02  0.51100000000E-03 0. -1.
    9900012    2    1    2    0    0 -0.11349823948E+02  0.18185454757E+02  0.23604863539E+02  0.59301970911E+02  0.50000049029E+02 0.  0.
         12    1    1    2    0    0  0.11349823948E+02 -0.18185454757E+02 -0.23604863539E+02  0.31886029089E+02  0.00000000000E+00 0. -1.
         11    1    3    3    0    0 -0.10018882404E+02  0.25226969888E+02  0.87172122121E+01  0.28509082823E+02  0.51100000000E-03 0. -1.
        -11    1    3    3    0    0 -0.24309050477E+01 -0.61281776130E+01 -0.65583765579E+01  0.92992560748E+01  0.51100000000E-03 0.  1.
        -12    1    3    3    0    0  0.10999635040E+01 -0.91333751809E+00  0.21446027884E+02  0.21493632014E+02  0.00000000000E+00 0.  1.
</event>
<event>
 7    1  0.3618433E-013  0.5930193E+02  0.7816164E-02  0.1266605E+00
        -11   -1    0    0    0    0  0.00000000000E+00  0.00000000000E+00  0.45593999997E+02  0.45594000000E+02  0.51100000000E-03 0.  1.
         11   -1    0    0    0    0 -0.00000000000E+00 -0.00000000000E+00 -0.45593999997E+02  0.45594000000E+02  0.51100000000E-03 0. -1.
    9900012    2    1    2    0    0 -0.44258220748E+01 -0.30285824408E+02  0.89388198128E+01  0.59301928420E+02  0.49999971536E+02 0.  0.
         12    1    1    2    0    0  0.44258220748E+01  0.30285824408E+02 -0.89388198128E+01  0.31886071580E+02  0.00000000000E+00 0. -1.
         11    1    3    3    0    0 -0.96665003944E+01 -0.13860980642E+02 -0.30181373967E+01  0.17166163457E+02  0.51100000000E-03 0. -1.
        -11    1    3    3    0    0  0.50180986934E+01 -0.22918782868E+02  0.20668927321E+02  0.31267498773E+02  0.51100000000E-03 0.  1.
         12    1    3    3    0    0  0.22257962617E+00  0.64939391018E+01 -0.87119701117E+01  0.10868266190E+02  0.00000000000E+00 0. -1.
</event>
<event>
 7    1  0.3461631E-013  0.5930196E+02  0.7816164E-02  0.1266605E+00
        -11   -1    0    0    0    0  0.00000000000E+00  0.00000000000E+00  0.45593999997E+02  0.45594000000E+02  0.51100000000E-03 0. -1.
         11   -1    0    0    0    0 -0.00000000000E+00 -0.00000000000E+00 -0.45593999997E+02  0.45594000000E+02  0.51100000000E-03 0.  1.
    9900012    2    1    2    0    0 -0.23493608813E+02 -0.13767280964E+02 -0.16590119959E+02  0.59301956651E+02  0.50000023022E+02 0.  0.
         12    1    1    2    0    0  0.23493608813E+02  0.13767280964E+02  0.16590119959E+02  0.31886043349E+02  0.00000000000E+00 0. -1.
         11    1    3    3    0    0 -0.16703876313E+01 -0.85344070660E+00 -0.22343689345E+01  0.29173550821E+01  0.51100000000E-03 0. -1.
        -11    1    3    3    0    0 -0.10817252445E+02 -0.18597045209E+02 -0.29694368171E+02  0.36669040651E+02  0.51100000000E-03 0.  1.
         12    1    3    3    0    0 -0.11005968737E+02  0.56832049512E+01  0.15338617146E+02  0.19715560918E+02  0.00000000000E+00 0. -1.
</event>
<event>
 7    1  0.3461631E-013  0.5930226E+02  0.7816164E-02  0.1266604E+00
        -11   -1    0    0    0    0  0.00000000000E+00  0.00000000000E+00  0.45593999997E+02  0.45594000000E+02  0.51100000000E-03 0.  1.
         11   -1    0    0    0    0 -0.00000000000E+00 -0.00000000000E+00 -0.45593999997E+02  0.45594000000E+02  0.51100000000E-03 0. -1.
    9900012    2    1    2    0    0  0.72348139505E+01 -0.37374595124E+01  0.30828383506E+02  0.59302260773E+02  0.50000577664E+02 0.  0.
         12    1    1    2    0    0 -0.72348139505E+01  0.37374595124E+01 -0.30828383506E+02  0.31885739227E+02  0.00000000000E+00 0. -1.
         11    1    3    3    0    0 -0.36130282707E+01 -0.71895187298E+01  0.74579019258E+01  0.10971027949E+02  0.51100000000E-03 0. -1.
        -11    1    3    3    0    0  0.95077030291E+01 -0.89997428628E+01  0.31010765362E+02  0.33660947061E+02  0.51100000000E-03 0.  1.
         12    1    3    3    0    0  0.13401391921E+01  0.12451802080E+02 -0.76402837818E+01  0.14670285763E+02  0.00000000000E+00 0. -1.
</event>
<event>
 7    1  0.3461631E-013  0.5930195E+02  0.7816164E-02  0.1266605E+00
        -11   -1    0    0    0    0  0.00000000000E+00  0.00000000000E+00  0.45593999997E+02  0.45594000000E+02  0.51100000000E-03 0. -1.
         11   -1    0    0    0    0 -0.00000000000E+00 -0.00000000000E+00 -0.45593999997E+02  0.45594000000E+02  0.51100000000E-03 0.  1.
    9900012    2    1    2    0    0  0.14645764408E+02 -0.15443660215E+02 -0.23742686860E+02  0.59301949206E+02  0.50000009444E+02 0.  0.
         12    1    1    2    0    0 -0.14645764408E+02  0.15443660215E+02  0.23742686860E+02  0.31886050794E+02  0.00000000000E+00 0. -1.
         11    1    3    3    0    0 -0.11150182260E+02 -0.94187811128E+01 -0.76575172044E+01  0.16482644572E+02  0.51100000000E-03 0. -1.
        -11    1    3    3    0    0 -0.53039771785E+01 -0.63865245138E+01 -0.13784080082E+01  0.84154547217E+01  0.51100000000E-03 0.  1.
        -12    1    3    3    0    0  0.31099923846E+02  0.36164541145E+00 -0.14706761647E+02  0.34403849912E+02  0.00000000000E+00 0.  1.
</event>
<event>
 7    1  0.3461631E-013  0.5930192E+02  0.7816164E-02  0.1266605E+00
        -11   -1    0    0    0    0  0.00000000000E+00  0.00000000000E+00  0.45593999997E+02  0.45594000000E+02  0.51100000000E-03 0. -1.
         11   -1    0    0    0    0 -0.00000000000E+00 -0.00000000000E+00 -0.45593999997E+02  0.45594000000E+02  0.51100000000E-03 0.  1.
    9900012    2    1    2    0    0 -0.86150948036E-01 -0.22830332279E+02  0.22259621045E+02  0.59301918036E+02  0.49999952597E+02 0.  0.
         12    1    1    2    0    0  0.86150948036E-01  0.22830332279E+02 -0.22259621045E+02  0.31886081964E+02  0.00000000000E+00 0. -1.
         11    1    3    3    0    0  0.38049671691E+01 -0.22664957377E+02 -0.16553857134E+01  0.23041665960E+02  0.51100000000E-03 0. -1.
        -11    1    3    3    0    0  0.15908604125E+01 -0.72456935405E+01 -0.29187706237E+01  0.79718337884E+01  0.51100000000E-03 0.  1.
         12    1    3    3    0    0 -0.54819785296E+01  0.70803186387E+01  0.26833777382E+02  0.28288418288E+02  0.00000000000E+00 0. -1.
</event>
<event>
 7    1  0.3461631E-013  0.5930195E+02  0.7816164E-02  0.1266605E+00
        -11   -1    0    0    0    0  0.00000000000E+00  0.00000000000E+00  0.45593999997E+02  0.45594000000E+02  0.51100000000E-03 0.  1.
         11   -1    0    0    0    0 -0.00000000000E+00 -0.00000000000E+00 -0.45593999997E+02  0.45594000000E+02  0.51100000000E-03 0. -1.
    9900012    2    1    2    0    0  0.49521031852E+01 -0.23847674801E+02  0.20578757560E+02  0.59301950040E+02  0.50000010964E+02 0.  0.
         12    1    1    2    0    0 -0.49521031852E+01  0.23847674801E+02 -0.20578757560E+02  0.31886049960E+02  0.00000000000E+00 0. -1.
         11    1    3    3    0    0  0.17315105119E+01 -0.19363731763E+02  0.75512049309E+01  0.20856004713E+02  0.51100000000E-03 0. -1.
        -11    1    3    3    0    0  0.14521562693E+01 -0.11521438930E+02 -0.93578704502E+01  0.14913820855E+02  0.51100000000E-03 0.  1.
        -12    1    3    3    0    0  0.17684364040E+01  0.70374958920E+01  0.22385423079E+02  0.23532124472E+02  0.00000000000E+00 0.  1.
</event>
<event>
 7    1  0.3461631E-013  0.5930196E+02  0.7816164E-02  0.1266605E+00
        -11   -1    0    0    0    0  0.00000000000E+00  0.00000000000E+00  0.45593999997E+02  0.45594000000E+02  0.51100000000E-03 0. -1.
         11   -1    0    0    0    0 -0.00000000000E+00 -0.00000000000E+00 -0.45593999997E+02  0.45594000000E+02  0.51100000000E-03 0.  1.
    9900012    2    1    2    0    0 -0.23922440937E+02 -0.12485255903E+02  0.16986890345E+02  0.59301964828E+02  0.50000037936E+02 0.  0.
         12    1    1    2    0    0  0.23922440937E+02  0.12485255903E+02 -0.16986890345E+02  0.31886035172E+02  0.00000000000E+00 0. -1.
         11    1    3    3    0    0 -0.90275649188E+01  0.82545895961E+01  0.25074966806E+00  0.12235115587E+02  0.51100000000E-03 0. -1.
        -11    1    3    3    0    0 -0.16402980861E+02  0.53436606983E+01  0.28709856946E+01  0.17488712071E+02  0.51100000000E-03 0.  1.
        -12    1    3    3    0    0  0.15081048430E+01 -0.26083506198E+02  0.13865154983E+02  0.29578137170E+02  0.00000000000E+00 0.  1.
</event>
<event>
 7    1  0.3461631E-013  0.5930187E+02  0.7816164E-02  0.1266605E+00
        -11   -1    0    0    0    0  0.00000000000E+00  0.00000000000E+00  0.45593999997E+02  0.45594000000E+02  0.51100000000E-03 0. -1.
         11   -1    0    0    0    0 -0.00000000000E+00 -0.00000000000E+00 -0.45593999997E+02  0.45594000000E+02  0.51100000000E-03 0.  1.
    9900012    2    1    2    0    0 -0.17396231025E+01 -0.26965791469E+02 -0.16927645282E+02  0.59301868644E+02  0.49999862518E+02 0.  0.
         12    1    1    2    0    0  0.17396231025E+01  0.26965791469E+02  0.16927645282E+02  0.31886131356E+02  0.00000000000E+00 0. -1.
         11    1    3    3    0    0 -0.20672734398E+00 -0.21080927957E+02 -0.84568982221E+01  0.22714915529E+02  0.51100000000E-03 0.  1.
        -11    1    3    3    0    0  0.50550437072E+01  0.82020796267E+01 -0.16483495527E+02  0.19092752607E+02  0.51100000000E-03 0. -1.
         12    1    3    3    0    0 -0.65879394657E+01 -0.14086943139E+02  0.80127484672E+01  0.17494200507E+02  0.00000000000E+00 0. -1.
</event>
<event>
 7    1  0.3461631E-013  0.5930193E+02  0.7816164E-02  0.1266605E+00
        -11   -1    0    0    0    0  0.00000000000E+00  0.00000000000E+00  0.45593999997E+02  0.45594000000E+02  0.51100000000E-03 0.  1.
         11   -1    0    0    0    0 -0.00000000000E+00 -0.00000000000E+00 -0.45593999997E+02  0.45594000000E+02  0.51100000000E-03 0. -1.
    9900012    2    1    2    0    0  0.26815782314E+02 -0.21430571770E-01  0.17252102961E+02  0.59301926285E+02  0.49999967642E+02 0.  0.
         12    1    1    2    0    0 -0.26815782314E+02  0.21430571770E-01 -0.17252102961E+02  0.31886073715E+02  0.00000000000E+00 0. -1.
         11    1    3    3    0    0 -0.73056333963E+01  0.60471543293E+01  0.63120302878E+01  0.11392193881E+02  0.51100000000E-03 0. -1.
        -11    1    3    3    0    0  0.10347281062E+02  0.10531814266E+02  0.11800496199E+02  0.18900715539E+02  0.51100000000E-03 0.  1.
        -12    1    3    3    0    0  0.23774134649E+02 -0.16600399168E+02 -0.86042352544E+00  0.29009016865E+02  0.00000000000E+00 0.  1.
</event>
<event>
 7    1  0.3461631E-013  0.5930183E+02  0.7816164E-02  0.1266605E+00
        -11   -1    0    0    0    0  0.00000000000E+00  0.00000000000E+00  0.45593999997E+02  0.45594000000E+02  0.51100000000E-03 0.  1.
         11   -1    0    0    0    0 -0.00000000000E+00 -0.00000000000E+00 -0.45593999997E+02  0.45594000000E+02  0.51100000000E-03 0. -1.
    9900012    2    1    2    0    0 -0.24662681140E+02  0.20027128078E+02  0.27192711150E+01  0.59301825324E+02  0.49999783512E+02 0.  0.
         12    1    1    2    0    0  0.24662681140E+02 -0.20027128078E+02 -0.27192711150E+01  0.31886174676E+02  0.00000000000E+00 0. -1.
         11    1    3    3    0    0 -0.14252245468E+02  0.14453275849E+02  0.15652805883E+02  0.25632674771E+02  0.51100000000E-03 0. -1.
        -11    1    3    3    0    0 -0.16798956757E+02  0.20742227729E+01 -0.18067345046E+02  0.24757550475E+02  0.51100000000E-03 0.  1.
         12    1    3    3    0    0  0.63885210852E+01  0.34996294557E+01  0.51338102773E+01  0.89116000778E+01  0.00000000000E+00 0. -1.
</event>
<event>
 7    1  0.3461631E-013  0.5930193E+02  0.7816164E-02  0.1266605E+00
        -11   -1    0    0    0    0  0.00000000000E+00  0.00000000000E+00  0.45593999997E+02  0.45594000000E+02  0.51100000000E-03 0.  1.
         11   -1    0    0    0    0 -0.00000000000E+00 -0.00000000000E+00 -0.45593999997E+02  0.45594000000E+02  0.51100000000E-03 0. -1.
    9900012    2    1    2    0    0 -0.59058816596E+01 -0.26613834847E+02  0.16539211594E+02  0.59301934648E+02  0.49999982894E+02 0.  0.
         12    1    1    2    0    0  0.59058816596E+01  0.26613834847E+02 -0.16539211594E+02  0.31886065352E+02  0.00000000000E+00 0. -1.
         11    1    3    3    0    0  0.80792788709E+01  0.66857923259E+01  0.62400915123E+01  0.12203004075E+02  0.51100000000E-03 0. -1.
        -11    1    3    3    0    0  0.42687553625E+01  0.23606732189E+01 -0.18800308714E+01  0.52277688099E+01  0.51100000000E-03 0.  1.
        -12    1    3    3    0    0 -0.18253915893E+02 -0.35660300392E+02  0.12179150953E+02  0.41871161764E+02  0.00000000000E+00 0.  1.
</event>
<event>
 7    1  0.3461631E-013  0.5930194E+02  0.7816164E-02  0.1266605E+00
        -11   -1    0    0    0    0  0.00000000000E+00  0.00000000000E+00  0.45593999997E+02  0.45594000000E+02  0.51100000000E-03 0.  1.
         11   -1    0    0    0    0 -0.00000000000E+00 -0.00000000000E+00 -0.45593999997E+02  0.45594000000E+02  0.51100000000E-03 0. -1.
    9900012    2    1    2    0    0  0.22129874757E+02  0.62541770837E+01  0.22087889500E+02  0.59301937993E+02  0.49999988994E+02 0.  0.
         12    1    1    2    0    0 -0.22129874757E+02 -0.62541770837E+01 -0.22087889500E+02  0.31886062007E+02  0.00000000000E+00 0. -1.
         11    1    3    3    0    0  0.19300068927E+02 -0.15208983241E+02  0.30442425612E+01  0.24760315928E+02  0.51100000000E-03 0. -1.
        -11    1    3    3    0    0  0.74127127114E+01  0.59470275499E+01 -0.65140899214E-01  0.95036671879E+01  0.51100000000E-03 0.  1.
        -12    1    3    3    0    0 -0.45829068814E+01  0.15516132775E+02  0.19108787838E+02  0.25037954877E+02  0.00000000000E+00 0.  1.
</event>
<event>
 7    1  0.3461631E-013  0.5930195E+02  0.7816164E-02  0.1266605E+00
        -11   -1    0    0    0    0  0.00000000000E+00  0.00000000000E+00  0.45593999997E+02  0.45594000000E+02  0.51100000000E-03 0.  1.
         11   -1    0    0    0    0 -0.00000000000E+00 -0.00000000000E+00 -0.45593999997E+02  0.45594000000E+02  0.51100000000E-03 0. -1.
    9900012    2    1    2    0    0  0.10293176013E+02  0.16835492028E+02  0.25046696934E+02  0.59301948323E+02  0.50000007834E+02 0.  0.
         12    1    1    2    0    0 -0.10293176013E+02 -0.16835492028E+02 -0.25046696934E+02  0.31886051677E+02  0.00000000000E+00 0. -1.
         11    1    3    3    0    0 -0.65091354407E+01  0.45001190422E+00  0.10527892433E+02  0.12385793242E+02  0.51100000000E-03 0. -1.
        -11    1    3    3    0    0 -0.26831779576E+01  0.97565062199E+01  0.22633212088E+02  0.24792158988E+02  0.51100000000E-03 0.  1.
         12    1    3    3    0    0  0.19485489411E+02  0.66289739038E+01 -0.81144075880E+01  0.22123996093E+02  0.00000000000E+00 0. -1.
</event>
<event>
 7    1  0.3461631E-013  0.5930195E+02  0.7816164E-02  0.1266605E+00
        -11   -1    0    0    0    0  0.00000000000E+00  0.00000000000E+00  0.45593999997E+02  0.45594000000E+02  0.51100000000E-03 0.  1.
         11   -1    0    0    0    0 -0.00000000000E+00 -0.00000000000E+00 -0.45593999997E+02  0.45594000000E+02  0.51100000000E-03 0. -1.
    9900012    2    1    2    0    0  0.44311743723E+01  0.29031879412E+02  0.12419139165E+02  0.59301947467E+02  0.50000006273E+02 0.  0.
         12    1    1    2    0    0 -0.44311743723E+01 -0.29031879412E+02 -0.12419139165E+02  0.31886052533E+02  0.00000000000E+00 0. -1.
         11    1    3    3    0    0  0.89826532822E-01  0.20758636484E+02  0.17156718740E+01  0.20829608439E+02  0.51100000000E-03 0. -1.
        -11    1    3    3    0    0  0.15292168811E+02  0.15175352180E+02 -0.20423733716E+00  0.21544917124E+02  0.51100000000E-03 0.  1.
        -12    1    3    3    0    0 -0.10950820972E+02 -0.69021092516E+01  0.10907704628E+02  0.16927421904E+02  0.00000000000E+00 0.  1.
</event>
<event>
 7    1  0.3461631E-013  0.5930203E+02  0.7816164E-02  0.1266604E+00
        -11   -1    0    0    0    0  0.00000000000E+00  0.00000000000E+00  0.45593999997E+02  0.45594000000E+02  0.51100000000E-03 0.  1.
         11   -1    0    0    0    0 -0.00000000000E+00 -0.00000000000E+00 -0.45593999997E+02  0.45594000000E+02  0.51100000000E-03 0. -1.
    9900012    2    1    2    0    0  0.21668304019E+02 -0.16459046682E+02  0.16622250516E+02  0.59302033981E+02  0.50000164054E+02 0.  0.
         12    1    1    2    0    0 -0.21668304019E+02  0.16459046682E+02 -0.16622250516E+02  0.31885966019E+02  0.00000000000E+00 0. -1.
         11    1    3    3    0    0 -0.98430815382E+01 -0.48142915852E+01 -0.59282268483E+01  0.12458231474E+02  0.51100000000E-03 0. -1.
        -11    1    3    3    0    0  0.17581022696E+02  0.15710969073E+01  0.57421583509E+00  0.17660419832E+02  0.51100000000E-03 0.  1.
         12    1    3    3    0    0  0.13930362861E+02 -0.13215852004E+02  0.21976261529E+02  0.29183382676E+02  0.00000000000E+00 0. -1.
</event>
<event>
 7    1  0.3461631E-013  0.5930190E+02  0.7816164E-02  0.1266605E+00
        -11   -1    0    0    0    0  0.00000000000E+00  0.00000000000E+00  0.45593999997E+02  0.45594000000E+02  0.51100000000E-03 0. -1.
         11   -1    0    0    0    0 -0.00000000000E+00 -0.00000000000E+00 -0.45593999997E+02  0.45594000000E+02  0.51100000000E-03 0.  1.
    9900012    2    1    2    0    0  0.12654190292E+02 -0.24707934540E+02 -0.15687982631E+02  0.59301900204E+02  0.49999920076E+02 0.  0.
         12    1    1    2    0    0 -0.12654190292E+02  0.24707934540E+02  0.15687982631E+02  0.31886099796E+02  0.00000000000E+00 0. -1.
         11    1    3    3    0    0  0.37377377011E+01 -0.42124521008E+01  0.83684281018E+01  0.10086923465E+02  0.51100000000E-03 0. -1.
        -11    1    3    3    0    0  0.10995709559E+02 -0.48723414662E+01  0.73363915325E+01  0.14087866447E+02  0.51100000000E-03 0.  1.
        -12    1    3    3    0    0 -0.20792569675E+01 -0.15623140973E+02 -0.31392802265E+02  0.35127110292E+02  0.00000000000E+00 0.  1.
</event>
<event>
 7    1  0.3461631E-013  0.5930194E+02  0.7816164E-02  0.1266605E+00
        -11   -1    0    0    0    0  0.00000000000E+00  0.00000000000E+00  0.45593999997E+02  0.45594000000E+02  0.51100000000E-03 0.  1.
         11   -1    0    0    0    0 -0.00000000000E+00 -0.00000000000E+00 -0.45593999997E+02  0.45594000000E+02  0.51100000000E-03 0. -1.
    9900012    2    1    2    0    0 -0.29518300304E+02  0.72967268442E+01  0.95994096199E+01  0.59301938147E+02  0.49999989275E+02 0.  0.
         12    1    1    2    0    0  0.29518300304E+02 -0.72967268442E+01 -0.95994096199E+01  0.31886061853E+02  0.00000000000E+00 0. -1.
         11    1    3    3    0    0  0.41867877545E+01  0.18903803348E+00 -0.34463389661E+01  0.54260648365E+01  0.51100000000E-03 0. -1.
        -11    1    3    3    0    0 -0.18756169110E+02 -0.15975457223E+02  0.80914745845E+01  0.25932240057E+02  0.51100000000E-03 0.  1.
        -12    1    3    3    0    0 -0.14948918948E+02  0.23083146033E+02  0.49542740015E+01  0.27943633253E+02  0.00000000000E+00 0.  1.
</event>
<event>
 7    1  0.3461631E-013  0.5930196E+02  0.7816164E-02  0.1266605E+00
        -11   -1    0    0    0    0  0.00000000000E+00  0.00000000000E+00  0.45593999997E+02  0.45594000000E+02  0.51100000000E-03 0.  1.
         11   -1    0    0    0    0 -0.00000000000E+00 -0.00000000000E+00 -0.45593999997E+02  0.45594000000E+02  0.51100000000E-03 0. -1.
    9900012    2    1    2    0    0 -0.12518917209E+02 -0.24841233018E+02  0.15585545133E+02  0.59301962883E+02  0.50000034388E+02 0.  0.
         12    1    1    2    0    0  0.12518917209E+02  0.24841233018E+02 -0.15585545133E+02  0.31886037117E+02  0.00000000000E+00 0. -1.
         11    1    3    3    0    0 -0.15487309014E+01 -0.20266396886E+01 -0.31776218716E+01  0.40746922402E+01  0.51100000000E-03 0. -1.
        -11    1    3    3    0    0 -0.19640551428E+02 -0.24442297814E+02  0.28298344589E+02  0.42237110337E+02  0.51100000000E-03 0.  1.
         12    1    3    3    0    0  0.86703651208E+01  0.16277044850E+01 -0.95351775849E+01  0.12990160307E+02  0.00000000000E+00 0. -1.
</event>
<event>
 7    1  0.3461631E-013  0.5930193E+02  0.7816164E-02  0.1266605E+00
        -11   -1    0    0    0    0  0.00000000000E+00  0.00000000000E+00  0.45593999997E+02  0.45594000000E+02  0.51100000000E-03 0.  1.
         11   -1    0    0    0    0 -0.00000000000E+00 -0.00000000000E+00 -0.45593999997E+02  0.45594000000E+02  0.51100000000E-03 0. -1.
    9900012    2    1    2    0    0 -0.30731189610E+02  0.25626178816E+01 -0.81085296675E+01  0.59301932845E+02  0.49999979606E+02 0.  0.
         12    1    1    2    0    0  0.30731189610E+02 -0.25626178816E+01  0.81085296675E+01  0.31886067155E+02  0.00000000000E+00 0. -1.
         11    1    3    3    0    0  0.17713714981E+01 -0.18473016728E+00 -0.26547653399E+01  0.31968205283E+01  0.51100000000E-03 0. -1.
        -11    1    3    3    0    0 -0.37535958933E+02 -0.63659028552E+01 -0.15989545246E+02  0.41293322579E+02  0.51100000000E-03 0.  1.
         12    1    3    3    0    0  0.50333978251E+01  0.91132509040E+01  0.10535780918E+02  0.14811789738E+02  0.00000000000E+00 0. -1.
</event>
<event>
 7    1  0.3461631E-013  0.5930194E+02  0.7816164E-02  0.1266605E+00
        -11   -1    0    0    0    0  0.00000000000E+00  0.00000000000E+00  0.45593999997E+02  0.45594000000E+02  0.51100000000E-03 0.  1.
         11   -1    0    0    0    0 -0.00000000000E+00 -0.00000000000E+00 -0.45593999997E+02  0.45594000000E+02  0.51100000000E-03 0. -1.
    9900012    2    1    2    0    0  0.13577136198E+02 -0.16043511445E+01  0.28806397032E+02  0.59301935961E+02  0.49999985288E+02 0.  0.
         12    1    1    2    0    0 -0.13577136198E+02  0.16043511445E+01 -0.28806397032E+02  0.31886064039E+02  0.00000000000E+00 0. -1.
         11    1    3    3    0    0  0.84086887393E+01  0.42348038501E+01 -0.55004763765E+01  0.10903891534E+02  0.51100000000E-03 0. -1.
        -11    1    3    3    0    0 -0.12468731217E+02 -0.55254019254E+01  0.56821899263E+01  0.14774525617E+02  0.51100000000E-03 0.  1.
        -12    1    3    3    0    0  0.17637178675E+02 -0.31375306924E+00  0.28624683483E+02  0.33623518809E+02  0.00000000000E+00 0.  1.
</event>
<event>
 7    1  0.3461631E-013  0.5930194E+02  0.7816164E-02  0.1266605E+00
        -11   -1    0    0    0    0  0.00000000000E+00  0.00000000000E+00  0.45593999997E+02  0.45594000000E+02  0.51100000000E-03 0.  1.
         11   -1    0    0    0    0 -0.00000000000E+00 -0.00000000000E+00 -0.45593999997E+02  0.45594000000E+02  0.51100000000E-03 0. -1.
    9900012    2    1    2    0    0 -0.30209035882E+02 -0.28915030557E+01  0.97864179418E+01  0.59301943251E+02  0.49999998584E+02 0.  0.
         12    1    1    2    0    0  0.30209035882E+02  0.28915030557E+01 -0.97864179418E+01  0.31886056749E+02  0.00000000000E+00 0. -1.
         11    1    3    3    0    0 -0.11739021929E+01  0.31052539739E+01 -0.13045059432E+02  0.13460840406E+02  0.51100000000E-03 0. -1.
        -11    1    3    3    0    0 -0.50756495901E+01 -0.13676854194E+02  0.86148946911E+01  0.16942106427E+02  0.51100000000E-03 0.  1.
        -12    1    3    3    0    0 -0.23959484099E+02  0.76800971642E+01  0.14216582683E+02  0.28898996417E+02  0.00000000000E+00 0.  1.
</event>
<event>
 7    1  0.3461631E-013  0.5930194E+02  0.7816164E-02  0.1266605E+00
        -11   -1    0    0    0    0  0.00000000000E+00  0.00000000000E+00  0.45593999997E+02  0.45594000000E+02  0.51100000000E-03 0.  1.
         11   -1    0    0    0    0 -0.00000000000E+00 -0.00000000000E+00 -0.45593999997E+02  0.45594000000E+02  0.51100000000E-03 0. -1.
    9900012    2    1    2    0    0 -0.30038759987E+02 -0.12587716642E+01  0.10621173080E+02  0.59301938386E+02  0.49999989711E+02 0.  0.
         12    1    1    2    0    0  0.30038759987E+02  0.12587716642E+01 -0.10621173080E+02  0.31886061614E+02  0.00000000000E+00 0. -1.
         11    1    3    3    0    0 -0.55463972840E+01  0.10385086407E+02  0.29133657255E+01  0.12128488884E+02  0.51100000000E-03 0. -1.
        -11    1    3    3    0    0 -0.45073931933E+00  0.11273834807E+02 -0.39770859193E+01  0.11963265853E+02  0.51100000000E-03 0.  1.
        -12    1    3    3    0    0 -0.24041623383E+02 -0.22917692878E+02  0.11684893274E+02  0.35210183649E+02  0.00000000000E+00 0.  1.
</event>
<event>
 7    1  0.3461631E-013  0.5930193E+02  0.7816164E-02  0.1266605E+00
        -11   -1    0    0    0    0  0.00000000000E+00  0.00000000000E+00  0.45593999997E+02  0.45594000000E+02  0.51100000000E-03 0.  1.
         11   -1    0    0    0    0 -0.00000000000E+00 -0.00000000000E+00 -0.45593999997E+02  0.45594000000E+02  0.51100000000E-03 0. -1.
    9900012    2    1    2    0    0 -0.25314328340E+02  0.19311713943E+02  0.17215332181E+01  0.59301934214E+02  0.49999982101E+02 0.  0.
         12    1    1    2    0    0  0.25314328340E+02 -0.19311713943E+02 -0.17215332181E+01  0.31886065786E+02  0.00000000000E+00 0. -1.
         11    1    3    3    0    0 -0.51139356875E+01 -0.81044518049E+01  0.32529841448E+01  0.10120097993E+02  0.51100000000E-03 0.  1.
        -11    1    3    3    0    0 -0.45891748750E+01 -0.72731290922E+01 -0.65524008682E+01  0.10811701542E+02  0.51100000000E-03 0. -1.
         12    1    3    3    0    0 -0.15611217777E+02  0.34689294840E+02  0.50209499415E+01  0.38370134679E+02  0.00000000000E+00 0. -1.
</event>
<event>
 7    1  0.3461631E-013  0.5930193E+02  0.7816164E-02  0.1266605E+00
        -11   -1    0    0    0    0  0.00000000000E+00  0.00000000000E+00  0.45593999997E+02  0.45594000000E+02  0.51100000000E-03 0. -1.
         11   -1    0    0    0    0 -0.00000000000E+00 -0.00000000000E+00 -0.45593999997E+02  0.45594000000E+02  0.51100000000E-03 0.  1.
    9900012    2    1    2    0    0  0.76097500518E+01  0.82838924920E+01 -0.29836054767E+02  0.59301931965E+02  0.49999978001E+02 0.  0.
         12    1    1    2    0    0 -0.76097500518E+01 -0.82838924920E+01  0.29836054767E+02  0.31886068035E+02  0.00000000000E+00 0. -1.
         11    1    3    3    0    0  0.70374861379E+01  0.92080667197E+01 -0.79680677738E+01  0.14064309729E+02  0.51100000000E-03 0. -1.
        -11    1    3    3    0    0  0.13895678512E+02 -0.14843355397E+02 -0.11141676337E+02  0.23185168376E+02  0.51100000000E-03 0.  1.
         12    1    3    3    0    0 -0.13323414598E+02  0.13919181169E+02 -0.10726310656E+02  0.22052453860E+02  0.00000000000E+00 0. -1.
</event>
<event>
 7    1  0.3461631E-013  0.5930205E+02  0.7816164E-02  0.1266604E+00
        -11   -1    0    0    0    0  0.00000000000E+00  0.00000000000E+00  0.45593999997E+02  0.45594000000E+02  0.51100000000E-03 0. -1.
         11   -1    0    0    0    0 -0.00000000000E+00 -0.00000000000E+00 -0.45593999997E+02  0.45594000000E+02  0.51100000000E-03 0.  1.
    9900012    2    1    2    0    0 -0.18013571329E+02 -0.24112972467E+02 -0.10525655709E+02  0.59302052918E+02  0.50000198589E+02 0.  0.
         12    1    1    2    0    0  0.18013571329E+02  0.24112972467E+02  0.10525655709E+02  0.31885947082E+02  0.00000000000E+00 0. -1.
         11    1    3    3    0    0 -0.19360916101E+02 -0.69806196450E+01 -0.73982651773E+01  0.21870264077E+02  0.51100000000E-03 0. -1.
        -11    1    3    3    0    0 -0.91882435665E+01 -0.30272353110E+01 -0.13793162714E+02  0.16847531314E+02  0.51100000000E-03 0.  1.
         12    1    3    3    0    0  0.10535588339E+02 -0.14105117511E+02  0.10665772183E+02  0.20584257526E+02  0.00000000000E+00 0. -1.
</event>
<event>
 7    1  0.3461631E-013  0.5930196E+02  0.7816164E-02  0.1266605E+00
        -11   -1    0    0    0    0  0.00000000000E+00  0.00000000000E+00  0.45593999997E+02  0.45594000000E+02  0.51100000000E-03 0.  1.
         11   -1    0    0    0    0 -0.00000000000E+00 -0.00000000000E+00 -0.45593999997E+02  0.45594000000E+02  0.51100000000E-03 0. -1.
    9900012    2    1    2    0    0  0.11301498807E+02 -0.27397860418E+02  0.11762353691E+02  0.59301959244E+02  0.50000027750E+02 0.  0.
         12    1    1    2    0    0 -0.11301498807E+02  0.27397860418E+02 -0.11762353691E+02  0.31886040756E+02  0.00000000000E+00 0. -1.
         11    1    3    3    0    0  0.10627043713E+02 -0.75154108444E+01  0.37030965253E+00  0.13021236030E+02  0.51100000000E-03 0. -1.
        -11    1    3    3    0    0  0.25629029265E+01 -0.11127034405E+02  0.26422364665E+02  0.28784035867E+02  0.51100000000E-03 0.  1.
         12    1    3    3    0    0 -0.18884478331E+01 -0.87554151684E+01 -0.15030320626E+02  0.17496687347E+02  0.00000000000E+00 0. -1.
</event>
<event>
 7    1  0.3461631E-013  0.5930195E+02  0.7816164E-02  0.1266605E+00
        -11   -1    0    0    0    0  0.00000000000E+00  0.00000000000E+00  0.45593999997E+02  0.45594000000E+02  0.51100000000E-03 0.  1.
         11   -1    0    0    0    0 -0.00000000000E+00 -0.00000000000E+00 -0.45593999997E+02  0.45594000000E+02  0.51100000000E-03 0. -1.
    9900012    2    1    2    0    0 -0.14665963966E+01  0.30808506570E+02  0.80873660554E+01  0.59301945496E+02  0.50000002679E+02 0.  0.
         12    1    1    2    0    0  0.14665963966E+01 -0.30808506570E+02 -0.80873660554E+01  0.31886054504E+02  0.00000000000E+00 0. -1.
         11    1    3    3    0    0  0.98714825948E+01  0.14529917858E+02 -0.86478896103E+01  0.19579343109E+02  0.51100000000E-03 0. -1.
        -11    1    3    3    0    0 -0.10299375797E+02 -0.14009509263E+00 -0.58001085988E+01  0.11821084065E+02  0.51100000000E-03 0.  1.
         12    1    3    3    0    0 -0.10387031945E+01  0.16418683805E+02  0.22535364265E+02  0.27901518323E+02  0.00000000000E+00 0. -1.
</event>
<event>
 7    1  0.3461631E-013  0.5930174E+02  0.7816164E-02  0.1266605E+00
        -11   -1    0    0    0    0  0.00000000000E+00  0.00000000000E+00  0.45593999997E+02  0.45594000000E+02  0.51100000000E-03 0. -1.
         11   -1    0    0    0    0 -0.00000000000E+00 -0.00000000000E+00 -0.45593999997E+02  0.45594000000E+02  0.51100000000E-03 0.  1.
    9900012    2    1    2    0    0  0.27457901129E+02  0.86795201140E+01 -0.13691729004E+02  0.59301735764E+02  0.49999620175E+02 0.  0.
         12    1    1    2    0    0 -0.27457901129E+02 -0.86795201140E+01  0.13691729004E+02  0.31886264236E+02  0.00000000000E+00 0. -1.
         11    1    3    3    0    0 -0.14939770978E+00  0.11389775707E+02 -0.51503627062E+01  0.12501021822E+02  0.51100000000E-03 0. -1.
        -11    1    3    3    0    0  0.12091145731E+02  0.11882803573E+02 -0.16882618968E+02  0.23925293088E+02  0.51100000000E-03 0.  1.
        -12    1    3    3    0    0  0.15516153108E+02 -0.14593059166E+02  0.83412526708E+01  0.22875420854E+02  0.00000000000E+00 0.  1.
</event>
<event>
 7    1  0.3461631E-013  0.5930191E+02  0.7816164E-02  0.1266605E+00
        -11   -1    0    0    0    0  0.00000000000E+00  0.00000000000E+00  0.45593999997E+02  0.45594000000E+02  0.51100000000E-03 0. -1.
         11   -1    0    0    0    0 -0.00000000000E+00 -0.00000000000E+00 -0.45593999997E+02  0.45594000000E+02  0.51100000000E-03 0.  1.
    9900012    2    1    2    0    0  0.30416733206E+02 -0.63177890910E+01  0.71854313326E+01  0.59301913045E+02  0.49999943494E+02 0.  0.
         12    1    1    2    0    0 -0.30416733206E+02  0.63177890910E+01 -0.71854313326E+01  0.31886086955E+02  0.00000000000E+00 0. -1.
         11    1    3    3    0    0  0.63580560412E+01  0.47768367597E+01  0.11144946993E+01  0.80302643013E+01  0.51100000000E-03 0. -1.
        -11    1    3    3    0    0  0.29291999110E+02 -0.15253314417E+02 -0.94680412971E+01  0.34355910973E+02  0.51100000000E-03 0.  1.
         12    1    3    3    0    0 -0.52333219454E+01  0.41586885664E+01  0.15538977930E+02  0.16915737770E+02  0.00000000000E+00 0. -1.
</event>
<event>
 7    1  0.3461631E-013  0.5930219E+02  0.7816164E-02  0.1266604E+00
        -11   -1    0    0    0    0  0.00000000000E+00  0.00000000000E+00  0.45593999997E+02  0.45594000000E+02  0.51100000000E-03 0. -1.
         11   -1    0    0    0    0 -0.00000000000E+00 -0.00000000000E+00 -0.45593999997E+02  0.45594000000E+02  0.51100000000E-03 0.  1.
    9900012    2    1    2    0    0 -0.26791839900E+02  0.11488445679E+02 -0.12919679437E+02  0.59302185190E+02  0.50000439819E+02 0.  0.
         12    1    1    2    0    0  0.26791839900E+02 -0.11488445679E+02  0.12919679437E+02  0.31885814810E+02  0.00000000000E+00 0. -1.
         11    1    3    3    0    0 -0.55692857881E+01  0.70615098455E+01 -0.80581713545E+01  0.12075429240E+02  0.51100000000E-03 0. -1.
        -11    1    3    3    0    0 -0.29802259616E+02  0.92711057250E+01  0.68173828294E+01  0.31946905773E+02  0.51100000000E-03 0.  1.
        -12    1    3    3    0    0  0.85797055040E+01 -0.48441698911E+01 -0.11678890912E+02  0.15279850176E+02  0.00000000000E+00 0.  1.
</event>
<event>
 7    1  0.3461631E-013  0.5930193E+02  0.7816164E-02  0.1266605E+00
        -11   -1    0    0    0    0  0.00000000000E+00  0.00000000000E+00  0.45593999997E+02  0.45594000000E+02  0.51100000000E-03 0.  1.
         11   -1    0    0    0    0 -0.00000000000E+00 -0.00000000000E+00 -0.45593999997E+02  0.45594000000E+02  0.51100000000E-03 0. -1.
    9900012    2    1    2    0    0 -0.18557184127E+02 -0.25596121252E+02  0.41461978300E+01  0.59301929965E+02  0.49999974352E+02 0.  0.
         12    1    1    2    0    0  0.18557184127E+02  0.25596121252E+02 -0.41461978300E+01  0.31886070035E+02  0.00000000000E+00 0. -1.
         11    1    3    3    0    0  0.10750192351E+02  0.65254217841E+01  0.62699458568E+01  0.14052045629E+02  0.51100000000E-03 0. -1.
        -11    1    3    3    0    0 -0.50585198442E+01 -0.13874971910E+02 -0.19956119638E+01  0.14902547966E+02  0.51100000000E-03 0.  1.
        -12    1    3    3    0    0 -0.24248856633E+02 -0.18246571126E+02 -0.12813606294E+00  0.30347336370E+02  0.00000000000E+00 0.  1.
</event>
<event>
 7    1  0.3461631E-013  0.5930192E+02  0.7816164E-02  0.1266605E+00
        -11   -1    0    0    0    0  0.00000000000E+00  0.00000000000E+00  0.45593999997E+02  0.45594000000E+02  0.51100000000E-03 0. -1.
         11   -1    0    0    0    0 -0.00000000000E+00 -0.00000000000E+00 -0.45593999997E+02  0.45594000000E+02  0.51100000000E-03 0.  1.
    9900012    2    1    2    0    0 -0.28026588977E+02  0.14959285877E+02 -0.27298740452E+01  0.59301919402E+02  0.49999955088E+02 0.  0.
         12    1    1    2    0    0  0.28026588977E+02 -0.14959285877E+02  0.27298740452E+01  0.31886080598E+02  0.00000000000E+00 0. -1.
         11    1    3    3    0    0 -0.21652711714E+02  0.18489053970E+02  0.16019274565E+02  0.32669591353E+02  0.51100000000E-03 0. -1.
        -11    1    3    3    0    0 -0.67979400292E+01  0.60743412279E+01 -0.10984760199E+02  0.14274962938E+02  0.51100000000E-03 0.  1.
        -12    1    3    3    0    0  0.42406276663E+00 -0.96041093211E+01 -0.77643884112E+01  0.12357365111E+02  0.00000000000E+00 0.  1.
</event>
<event>
 7    1  0.3461631E-013  0.5930192E+02  0.7816164E-02  0.1266605E+00
        -11   -1    0    0    0    0  0.00000000000E+00  0.00000000000E+00  0.45593999997E+02  0.45594000000E+02  0.51100000000E-03 0.  1.
         11   -1    0    0    0    0 -0.00000000000E+00 -0.00000000000E+00 -0.45593999997E+02  0.45594000000E+02  0.51100000000E-03 0. -1.
    9900012    2    1    2    0    0  0.13705041968E+02 -0.85997138810E+01  0.27476151532E+02  0.59301919068E+02  0.49999954480E+02 0.  0.
         12    1    1    2    0    0 -0.13705041968E+02  0.85997138810E+01 -0.27476151532E+02  0.31886080932E+02  0.00000000000E+00 0. -1.
         11    1    3    3    0    0  0.12011679925E+02  0.55077217340E+01  0.27269913058E+02  0.30302864745E+02  0.51100000000E-03 0.  1.
        -11    1    3    3    0    0 -0.39898726665E+00  0.24811703089E+01  0.95295122766E+01  0.98553032136E+01  0.51100000000E-03 0. -1.
         12    1    3    3    0    0  0.20923493094E+01 -0.16588605924E+02 -0.93232738027E+01  0.19143751109E+02  0.00000000000E+00 0. -1.
</event>
<event>
 7    1  0.3461631E-013  0.5930196E+02  0.7816164E-02  0.1266605E+00
        -11   -1    0    0    0    0  0.00000000000E+00  0.00000000000E+00  0.45593999997E+02  0.45594000000E+02  0.51100000000E-03 0.  1.
         11   -1    0    0    0    0 -0.00000000000E+00 -0.00000000000E+00 -0.45593999997E+02  0.45594000000E+02  0.51100000000E-03 0. -1.
    9900012    2    1    2    0    0 -0.31784728970E+02  0.55897970792E+00  0.24774572462E+01  0.59301964680E+02  0.50000037664E+02 0.  0.
         12    1    1    2    0    0  0.31784728970E+02 -0.55897970792E+00 -0.24774572462E+01  0.31886035320E+02  0.00000000000E+00 0. -1.
         11    1    3    3    0    0  0.67526384203E+01  0.78788859929E+01 -0.52855441619E+01  0.11645254290E+02  0.51100000000E-03 0. -1.
        -11    1    3    3    0    0 -0.27905727313E+02  0.38047785850E+01 -0.37855483070E+01  0.28417183766E+02  0.51100000000E-03 0.  1.
        -12    1    3    3    0    0 -0.10631640078E+02 -0.11124684870E+02  0.11548549715E+02  0.19239526624E+02  0.00000000000E+00 0.  1.
</event>
<event>
 7    1  0.3461631E-013  0.5930205E+02  0.7816164E-02  0.1266604E+00
        -11   -1    0    0    0    0  0.00000000000E+00  0.00000000000E+00  0.45593999997E+02  0.45594000000E+02  0.51100000000E-03 0. -1.
         11   -1    0    0    0    0 -0.00000000000E+00 -0.00000000000E+00 -0.45593999997E+02  0.45594000000E+02  0.51100000000E-03 0.  1.
    9900012    2    1    2    0    0  0.25911710337E+02 -0.51320378986E+01 -0.17859434102E+02  0.59302048046E+02  0.50000189704E+02 0.  0.
         12    1    1    2    0    0 -0.25911710337E+02  0.51320378986E+01  0.17859434102E+02  0.31885951954E+02  0.00000000000E+00 0. -1.
         11    1    3    3    0    0  0.10590299074E+02  0.22253482831E+01  0.95334660169E+01  0.14421982666E+02  0.51100000000E-03 0.  1.
        -11    1    3    3    0    0  0.19052798527E+02 -0.10197054164E+01 -0.28905777830E+01  0.19297781505E+02  0.51100000000E-03 0. -1.
        -12    1    3    3    0    0 -0.37313872639E+01 -0.63376807654E+01 -0.24502322336E+02  0.25582283875E+02  0.00000000000E+00 0.  1.
</event>
<event>
 7    1  0.3461631E-013  0.5930196E+02  0.7816164E-02  0.1266605E+00
        -11   -1    0    0    0    0  0.00000000000E+00  0.00000000000E+00  0.45593999997E+02  0.45594000000E+02  0.51100000000E-03 0. -1.
         11   -1    0    0    0    0 -0.00000000000E+00 -0.00000000000E+00 -0.45593999997E+02  0.45594000000E+02  0.51100000000E-03 0.  1.
    9900012    2    1    2    0    0  0.13444731040E+02  0.14955773543E+02 -0.24744364944E+02  0.59301959927E+02  0.50000028997E+02 0.  0.
         12    1    1    2    0    0 -0.13444731040E+02 -0.14955773543E+02  0.24744364944E+02  0.31886040073E+02  0.00000000000E+00 0. -1.
         11    1    3    3    0    0  0.22731437936E+02  0.40741726660E+01 -0.21430662455E+02  0.31505403458E+02  0.51100000000E-03 0.  1.
        -11    1    3    3    0    0  0.68362388682E+01  0.17222520980E+01 -0.57457755974E+01  0.90947375789E+01  0.51100000000E-03 0. -1.
         12    1    3    3    0    0 -0.16122945765E+02  0.91593487792E+01  0.24320731078E+01  0.18701818890E+02  0.00000000000E+00 0. -1.
</event>
<event>
 7    1  0.3461631E-013  0.5930197E+02  0.7816164E-02  0.1266605E+00
        -11   -1    0    0    0    0  0.00000000000E+00  0.00000000000E+00  0.45593999997E+02  0.45594000000E+02  0.51100000000E-03 0.  1.
         11   -1    0    0    0    0 -0.00000000000E+00 -0.00000000000E+00 -0.45593999997E+02  0.45594000000E+02  0.51100000000E-03 0. -1.
    9900012    2    1    2    0    0  0.16623294865E+02 -0.25990229689E+02  0.80556297119E+01  0.59301966356E+02  0.50000040722E+02 0.  0.
         12    1    1    2    0    0 -0.16623294865E+02  0.25990229689E+02 -0.80556297119E+01  0.31886033644E+02  0.00000000000E+00 0. -1.
         11    1    3    3    0    0  0.72885926673E+01  0.37681557216E+01 -0.33086776476E+01  0.88470293686E+01  0.51100000000E-03 0. -1.
        -11    1    3    3    0    0  0.22892856784E+02 -0.11012598257E+02  0.19528965603E+01  0.25478893566E+02  0.51100000000E-03 0.  1.
         12    1    3    3    0    0 -0.13558154586E+02 -0.18745787154E+02  0.94114107992E+01  0.24976043422E+02  0.00000000000E+00 0. -1.
</event>
<event>
 7    1  0.3461631E-013  0.5930193E+02  0.7816164E-02  0.1266605E+00
        -11   -1    0    0    0    0  0.00000000000E+00  0.00000000000E+00  0.45593999997E+02  0.45594000000E+02  0.51100000000E-03 0.  1.
         11   -1    0    0    0    0 -0.00000000000E+00 -0.00000000000E+00 -0.45593999997E+02  0.45594000000E+02  0.51100000000E-03 0. -1.
    9900012    2    1    2    0    0 -0.19262283881E+02  0.45394557147E+01  0.25001582812E+02  0.59301931230E+02  0.49999976661E+02 0.  0.
         12    1    1    2    0    0  0.19262283881E+02 -0.45394557147E+01 -0.25001582812E+02  0.31886068770E+02  0.00000000000E+00 0. -1.
         11    1    3    3    0    0 -0.18322816433E+02  0.63524968685E+01 -0.68472360875E+01  0.20566099796E+02  0.51100000000E-03 0. -1.
        -11    1    3    3    0    0  0.97151580258E+00 -0.30216062178E+01 -0.26672015745E+01  0.41458306273E+01  0.51100000000E-03 0.  1.
        -12    1    3    3    0    0 -0.19109832503E+01  0.12085650641E+01  0.34516020474E+02  0.34590000807E+02  0.00000000000E+00 0.  1.
</event>
<event>
 7    1  0.3461631E-013  0.5930188E+02  0.7816164E-02  0.1266605E+00
        -11   -1    0    0    0    0  0.00000000000E+00  0.00000000000E+00  0.45593999997E+02  0.45594000000E+02  0.51100000000E-03 0.  1.
         11   -1    0    0    0    0 -0.00000000000E+00 -0.00000000000E+00 -0.45593999997E+02  0.45594000000E+02  0.51100000000E-03 0. -1.
    9900012    2    1    2    0    0  0.29965928721E+02 -0.32081270347E+01  0.10415178546E+02  0.59301875943E+02  0.49999875830E+02 0.  0.
         12    1    1    2    0    0 -0.29965928721E+02  0.32081270347E+01 -0.10415178546E+02  0.31886124057E+02  0.00000000000E+00 0. -1.
         11    1    3    3    0    0  0.27609061702E+02 -0.10947507725E+02  0.69453861792E+01  0.30501583613E+02  0.51100000000E-03 0. -1.
        -11    1    3    3    0    0  0.99729026713E+01 -0.66207978042E+01  0.37465155345E+01  0.12543130796E+02  0.51100000000E-03 0.  1.
         12    1    3    3    0    0 -0.76160356522E+01  0.14360178494E+02 -0.27672316739E+00  0.16257161534E+02  0.00000000000E+00 0. -1.
</event>
<event>
 7    1  0.3461631E-013  0.5930193E+02  0.7816164E-02  0.1266605E+00
        -11   -1    0    0    0    0  0.00000000000E+00  0.00000000000E+00  0.45593999997E+02  0.45594000000E+02  0.51100000000E-03 0.  1.
         11   -1    0    0    0    0 -0.00000000000E+00 -0.00000000000E+00 -0.45593999997E+02  0.45594000000E+02  0.51100000000E-03 0. -1.
    9900012    2    1    2    0    0 -0.16483397606E+02 -0.12111466140E+02  0.24460818155E+02  0.59301927280E+02  0.49999969456E+02 0.  0.
         12    1    1    2    0    0  0.16483397606E+02  0.12111466140E+02 -0.24460818155E+02  0.31886072720E+02  0.00000000000E+00 0. -1.
         11    1    3    3    0    0 -0.34142228634E+01 -0.67669046998E+01  0.96908114275E+01  0.12302834769E+02  0.51100000000E-03 0. -1.
        -11    1    3    3    0    0 -0.16864083917E+02 -0.17610839540E+02  0.21494715408E+02  0.32504796360E+02  0.51100000000E-03 0.  1.
         12    1    3    3    0    0  0.37949091742E+01  0.12266278100E+02 -0.67247086800E+01  0.14494296151E+02  0.00000000000E+00 0. -1.
</event>
<event>
 7    1  0.3461631E-013  0.5930194E+02  0.7816164E-02  0.1266605E+00
        -11   -1    0    0    0    0  0.00000000000E+00  0.00000000000E+00  0.45593999997E+02  0.45594000000E+02  0.51100000000E-03 0.  1.
         11   -1    0    0    0    0 -0.00000000000E+00 -0.00000000000E+00 -0.45593999997E+02  0.45594000000E+02  0.51100000000E-03 0. -1.
    9900012    2    1    2    0    0  0.22719622537E+02  0.17549606492E+02  0.13876273126E+02  0.59301938906E+02  0.49999990659E+02 0.  0.
         12    1    1    2    0    0 -0.22719622537E+02 -0.17549606492E+02 -0.13876273126E+02  0.31886061094E+02  0.00000000000E+00 0. -1.
         11    1    3    3    0    0  0.16216454868E+00 -0.78438298731E+01  0.11838485194E+01  0.79343217730E+01  0.51100000000E-03 0. -1.
        -11    1    3    3    0    0  0.36771818421E+01 -0.91324483025E+01  0.57734372499E+01  0.11412968774E+02  0.51100000000E-03 0.  1.
        -12    1    3    3    0    0  0.18880276146E+02  0.34525884668E+02  0.69189873568E+01  0.39954648359E+02  0.00000000000E+00 0.  1.
</event>
<event>
 7    1  0.3461631E-013  0.5930193E+02  0.7816164E-02  0.1266605E+00
        -11   -1    0    0    0    0  0.00000000000E+00  0.00000000000E+00  0.45593999997E+02  0.45594000000E+02  0.51100000000E-03 0.  1.
         11   -1    0    0    0    0 -0.00000000000E+00 -0.00000000000E+00 -0.45593999997E+02  0.45594000000E+02  0.51100000000E-03 0. -1.
    9900012    2    1    2    0    0  0.18548048414E+02 -0.25728609481E+02  0.32756777124E+01  0.59301929212E+02  0.49999972980E+02 0.  0.
         12    1    1    2    0    0 -0.18548048414E+02  0.25728609481E+02 -0.32756777124E+01  0.31886070788E+02  0.00000000000E+00 0. -1.
         11    1    3    3    0    0  0.15956166494E+02 -0.13466215084E+02 -0.15706585245E+01  0.20938127097E+02  0.51100000000E-03 0. -1.
        -11    1    3    3    0    0 -0.32133682644E+01  0.28240041889E+01  0.17386563776E+02  0.17905120370E+02  0.51100000000E-03 0.  1.
         12    1    3    3    0    0  0.58052501843E+01 -0.15086398587E+02 -0.12540227539E+02  0.20458681745E+02  0.00000000000E+00 0. -1.
</event>
<event>
 7    1  0.3461631E-013  0.5930195E+02  0.7816164E-02  0.1266605E+00
        -11   -1    0    0    0    0  0.00000000000E+00  0.00000000000E+00  0.45593999997E+02  0.45594000000E+02  0.51100000000E-03 0.  1.
         11   -1    0    0    0    0 -0.00000000000E+00 -0.00000000000E+00 -0.45593999997E+02  0.45594000000E+02  0.51100000000E-03 0. -1.
    9900012    2    1    2    0    0  0.14856496203E+02  0.26433232494E+02  0.98635038435E+01  0.59301953403E+02  0.50000017098E+02 0.  0.
         12    1    1    2    0    0 -0.14856496203E+02 -0.26433232494E+02 -0.98635038435E+01  0.31886046597E+02  0.00000000000E+00 0. -1.
         11    1    3    3    0    0 -0.63675281295E+00 -0.12645360286E+01  0.60429643181E+01  0.62066032194E+01  0.51100000000E-03 0. -1.
        -11    1    3    3    0    0  0.16687365446E+02  0.95404879796E+01  0.20719032070E+02  0.28262472762E+02  0.51100000000E-03 0.  1.
         12    1    3    3    0    0 -0.11941164304E+01  0.18157280543E+02 -0.16898492545E+02  0.24832877422E+02  0.00000000000E+00 0. -1.
</event>
<event>
 7    1  0.3461631E-013  0.5930194E+02  0.7816164E-02  0.1266605E+00
        -11   -1    0    0    0    0  0.00000000000E+00  0.00000000000E+00  0.45593999997E+02  0.45594000000E+02  0.51100000000E-03 0.  1.
         11   -1    0    0    0    0 -0.00000000000E+00 -0.00000000000E+00 -0.45593999997E+02  0.45594000000E+02  0.51100000000E-03 0. -1.
    9900012    2    1    2    0    0 -0.25443554188E+02 -0.81630726441E+01 -0.17398579579E+02  0.59301940725E+02  0.49999993977E+02 0.  0.
         12    1    1    2    0    0  0.25443554188E+02  0.81630726441E+01  0.17398579579E+02  0.31886059275E+02  0.00000000000E+00 0. -1.
         11    1    3    3    0    0  0.11641002379E+01  0.96263318370E+01 -0.12152961362E+02  0.15547214031E+02  0.51100000000E-03 0. -1.
        -11    1    3    3    0    0  0.97180065680E+00 -0.53617577522E+01 -0.11625413672E+02  0.12839123257E+02  0.51100000000E-03 0.  1.
        -12    1    3    3    0    0 -0.27579455082E+02 -0.12427646729E+02  0.63797954542E+01  0.30915603437E+02  0.00000000000E+00 0.  1.
</event>
<event>
 7    1  0.3461631E-013  0.5930195E+02  0.7816164E-02  0.1266605E+00
        -11   -1    0    0    0    0  0.00000000000E+00  0.00000000000E+00  0.45593999997E+02  0.45594000000E+02  0.51100000000E-03 0. -1.
         11   -1    0    0    0    0 -0.00000000000E+00 -0.00000000000E+00 -0.45593999997E+02  0.45594000000E+02  0.51100000000E-03 0.  1.
    9900012    2    1    2    0    0  0.17473076267E+02  0.23403215770E+02 -0.12794583706E+02  0.59301948585E+02  0.50000008312E+02 0.  0.
         12    1    1    2    0    0 -0.17473076267E+02 -0.23403215770E+02  0.12794583706E+02  0.31886051415E+02  0.00000000000E+00 0. -1.
         11    1    3    3    0    0  0.11573319848E+01  0.81690377511E+01  0.11971931936E+02  0.14539592486E+02  0.51100000000E-03 0. -1.
        -11    1    3    3    0    0 -0.43279550049E+01  0.59732316536E+01 -0.20435131009E+02  0.21725682280E+02  0.51100000000E-03 0.  1.
         12    1    3    3    0    0  0.20643699287E+02  0.92609463651E+01 -0.43313846326E+01  0.23036673820E+02  0.00000000000E+00 0. -1.
</event>
<event>
 7    1  0.3461631E-013  0.5930195E+02  0.7816164E-02  0.1266605E+00
        -11   -1    0    0    0    0  0.00000000000E+00  0.00000000000E+00  0.45593999997E+02  0.45594000000E+02  0.51100000000E-03 0.  1.
         11   -1    0    0    0    0 -0.00000000000E+00 -0.00000000000E+00 -0.45593999997E+02  0.45594000000E+02  0.51100000000E-03 0. -1.
    9900012    2    1    2    0    0  0.21963449513E+02 -0.13321202995E+02  0.18891075788E+02  0.59301948062E+02  0.50000007358E+02 0.  0.
         12    1    1    2    0    0 -0.21963449513E+02  0.13321202995E+02 -0.18891075788E+02  0.31886051938E+02  0.00000000000E+00 0. -1.
         11    1    3    3    0    0 -0.60371510793E+01  0.40474477152E+01  0.17732788841E+02  0.19164572171E+02  0.51100000000E-03 0. -1.
        -11    1    3    3    0    0  0.12347502706E+02 -0.32682598834E+01  0.11025913011E+02  0.16873443742E+02  0.51100000000E-03 0.  1.
        -12    1    3    3    0    0  0.15653097887E+02 -0.14100390827E+02 -0.98676260630E+01  0.23263932149E+02  0.00000000000E+00 0.  1.
</event>
<event>
 7    1  0.3461631E-013  0.5930195E+02  0.7816164E-02  0.1266605E+00
        -11   -1    0    0    0    0  0.00000000000E+00  0.00000000000E+00  0.45593999997E+02  0.45594000000E+02  0.51100000000E-03 0.  1.
         11   -1    0    0    0    0 -0.00000000000E+00 -0.00000000000E+00 -0.45593999997E+02  0.45594000000E+02  0.51100000000E-03 0. -1.
    9900012    2    1    2    0    0  0.22440735310E+01  0.20195480912E+02  0.24572886893E+02  0.59301951554E+02  0.50000013725E+02 0.  0.
         12    1    1    2    0    0 -0.22440735310E+01 -0.20195480912E+02 -0.24572886893E+02  0.31886048446E+02  0.00000000000E+00 0. -1.
         11    1    3    3    0    0  0.94788140081E+01  0.13979292135E+02  0.31854376982E+01  0.17187656535E+02  0.51100000000E-03 0. -1.
        -11    1    3    3    0    0 -0.18896994186E+02  0.65096228577E+01  0.28180434109E+01  0.20184472942E+02  0.51100000000E-03 0.  1.
         12    1    3    3    0    0  0.11662253709E+02 -0.29343407996E+00  0.18569405783E+02  0.21929822076E+02  0.00000000000E+00 0. -1.
</event>
<event>
 7    1  0.3461631E-013  0.5930195E+02  0.7816164E-02  0.1266605E+00
        -11   -1    0    0    0    0  0.00000000000E+00  0.00000000000E+00  0.45593999997E+02  0.45594000000E+02  0.51100000000E-03 0.  1.
         11   -1    0    0    0    0 -0.00000000000E+00 -0.00000000000E+00 -0.45593999997E+02  0.45594000000E+02  0.51100000000E-03 0. -1.
    9900012    2    1    2    0    0 -0.13505916943E+02 -0.26618688982E+02  0.11214086116E+02  0.59301950966E+02  0.50000012653E+02 0.  0.
         12    1    1    2    0    0  0.13505916943E+02  0.26618688982E+02 -0.11214086116E+02  0.31886049034E+02  0.00000000000E+00 0. -1.
         11    1    3    3    0    0  0.68089345911E+01  0.21864912397E+01 -0.54835888821E+01  0.90117746030E+01  0.51100000000E-03 0. -1.
        -11    1    3    3    0    0  0.29941510547E+00 -0.19305846430E+02 -0.38327348237E+01  0.19684898076E+02  0.51100000000E-03 0.  1.
         12    1    3    3    0    0 -0.20614266639E+02 -0.94993337923E+01  0.20530409822E+02  0.30605278287E+02  0.00000000000E+00 0. -1.
</event>
<event>
 7    1  0.3461631E-013  0.5930194E+02  0.7816164E-02  0.1266605E+00
        -11   -1    0    0    0    0  0.00000000000E+00  0.00000000000E+00  0.45593999997E+02  0.45594000000E+02  0.51100000000E-03 0. -1.
         11   -1    0    0    0    0 -0.00000000000E+00 -0.00000000000E+00 -0.45593999997E+02  0.45594000000E+02  0.51100000000E-03 0.  1.
    9900012    2    1    2    0    0  0.35967287775E+01 -0.13013872455E+02 -0.28886387792E+02  0.59301941388E+02  0.49999995185E+02 0.  0.
         12    1    1    2    0    0 -0.35967287775E+01  0.13013872455E+02  0.28886387792E+02  0.31886058612E+02  0.00000000000E+00 0. -1.
         11    1    3    3    0    0 -0.81408497709E+01  0.15107176894E+02 -0.17683230803E+02  0.24641365234E+02  0.51100000000E-03 0.  1.
        -11    1    3    3    0    0  0.70616168877E+01 -0.98153635205E+01  0.10571185054E+01  0.12137763134E+02  0.51100000000E-03 0. -1.
        -12    1    3    3    0    0  0.46759616607E+01 -0.18305685829E+02 -0.12260275494E+02  0.22522813019E+02  0.00000000000E+00 0.  1.
</event>
<event>
 7    1  0.3461631E-013  0.5930197E+02  0.7816164E-02  0.1266605E+00
        -11   -1    0    0    0    0  0.00000000000E+00  0.00000000000E+00  0.45593999997E+02  0.45594000000E+02  0.51100000000E-03 0. -1.
         11   -1    0    0    0    0 -0.00000000000E+00 -0.00000000000E+00 -0.45593999997E+02  0.45594000000E+02  0.51100000000E-03 0.  1.
    9900012    2    1    2    0    0  0.15106866436E+02 -0.20680277134E+02 -0.18995456381E+02  0.59301974237E+02  0.50000055094E+02 0.  0.
         12    1    1    2    0    0 -0.15106866436E+02  0.20680277134E+02  0.18995456381E+02  0.31886025763E+02  0.00000000000E+00 0. -1.
         11    1    3    3    0    0  0.18383289717E+02 -0.10273895576E+02 -0.20037877476E+01  0.21154513389E+02  0.51100000000E-03 0. -1.
        -11    1    3    3    0    0  0.13781017080E+02 -0.99139420711E+01 -0.69226673586E+01  0.18333739465E+02  0.51100000000E-03 0.  1.
         12    1    3    3    0    0 -0.17057440362E+02 -0.49243948733E+00 -0.10069001275E+02  0.19813721383E+02  0.00000000000E+00 0. -1.
</event>
<event>
 7    1  0.3461631E-013  0.5930194E+02  0.7816164E-02  0.1266605E+00
        -11   -1    0    0    0    0  0.00000000000E+00  0.00000000000E+00  0.45593999997E+02  0.45594000000E+02  0.51100000000E-03 0. -1.
         11   -1    0    0    0    0 -0.00000000000E+00 -0.00000000000E+00 -0.45593999997E+02  0.45594000000E+02  0.51100000000E-03 0.  1.
    9900012    2    1    2    0    0  0.16499609098E+01  0.18662643780E+02 -0.25801240874E+02  0.59301942317E+02  0.49999996881E+02 0.  0.
         12    1    1    2    0    0 -0.16499609098E+01 -0.18662643780E+02  0.25801240874E+02  0.31886057683E+02  0.00000000000E+00 0. -1.
         11    1    3    3    0    0  0.94097773653E+00  0.15634257719E+02  0.76092904563E+01  0.17413120198E+02  0.51100000000E-03 0. -1.
        -11    1    3    3    0    0 -0.18964877323E+01  0.69520166783E+01  0.89505328740E+00  0.72614270128E+01  0.51100000000E-03 0.  1.
        -12    1    3    3    0    0  0.26054709055E+01 -0.39236306171E+01 -0.34305584618E+02  0.34627395106E+02  0.00000000000E+00 0.  1.
</event>
<event>
 7    1  0.3461631E-013  0.5930196E+02  0.7816164E-02  0.1266605E+00
        -11   -1    0    0    0    0  0.00000000000E+00  0.00000000000E+00  0.45593999997E+02  0.45594000000E+02  0.51100000000E-03 0.  1.
         11   -1    0    0    0    0 -0.00000000000E+00 -0.00000000000E+00 -0.45593999997E+02  0.45594000000E+02  0.51100000000E-03 0. -1.
    9900012    2    1    2    0    0 -0.83655542650E+01  0.23277316382E+02 -0.20122211501E+02  0.59301963059E+02  0.50000034708E+02 0.  0.
         12    1    1    2    0    0  0.83655542650E+01 -0.23277316382E+02  0.20122211501E+02  0.31886036941E+02  0.00000000000E+00 0. -1.
         11    1    3    3    0    0  0.18802491015E+01  0.20144146205E+02 -0.20944250603E+02  0.29120157908E+02  0.51100000000E-03 0. -1.
        -11    1    3    3    0    0 -0.39858728451E+01  0.72578635301E+00 -0.13646052596E+02  0.14234770806E+02  0.51100000000E-03 0.  1.
        -12    1    3    3    0    0 -0.62599305213E+01  0.24073838238E+01  0.14468091698E+02  0.15947034345E+02  0.00000000000E+00 0.  1.
</event>
<event>
 7    1  0.3461631E-013  0.5930195E+02  0.7816164E-02  0.1266605E+00
        -11   -1    0    0    0    0  0.00000000000E+00  0.00000000000E+00  0.45593999997E+02  0.45594000000E+02  0.51100000000E-03 0.  1.
         11   -1    0    0    0    0 -0.00000000000E+00 -0.00000000000E+00 -0.45593999997E+02  0.45594000000E+02  0.51100000000E-03 0. -1.
    9900012    2    1    2    0    0 -0.13713598856E+02 -0.18090500429E+01  0.28729506195E+02  0.59301953180E+02  0.50000016691E+02 0.  0.
         12    1    1    2    0    0  0.13713598856E+02  0.18090500429E+01 -0.28729506195E+02  0.31886046820E+02  0.00000000000E+00 0. -1.
         11    1    3    3    0    0  0.84401654133E+01  0.70968727176E+00  0.98501685511E+00  0.85270338743E+01  0.51100000000E-03 0. -1.
        -11    1    3    3    0    0 -0.16206112011E+01  0.14504540744E+02  0.41728129179E+01  0.15179606410E+02  0.51100000000E-03 0.  1.
        -12    1    3    3    0    0 -0.20533153068E+02 -0.17023278059E+02  0.23571676422E+02  0.35595312895E+02  0.00000000000E+00 0.  1.
</event>
<event>
 7    1  0.3461631E-013  0.5930193E+02  0.7816164E-02  0.1266605E+00
        -11   -1    0    0    0    0  0.00000000000E+00  0.00000000000E+00  0.45593999997E+02  0.45594000000E+02  0.51100000000E-03 0.  1.
         11   -1    0    0    0    0 -0.00000000000E+00 -0.00000000000E+00 -0.45593999997E+02  0.45594000000E+02  0.51100000000E-03 0. -1.
    9900012    2    1    2    0    0  0.16611738744E+02  0.73493742707E+01  0.26206072803E+02  0.59301930659E+02  0.49999975619E+02 0.  0.
         12    1    1    2    0    0 -0.16611738744E+02 -0.73493742707E+01 -0.26206072803E+02  0.31886069341E+02  0.00000000000E+00 0. -1.
         11    1    3    3    0    0 -0.78013008689E+01  0.12993883607E+02  0.30321572710E+01  0.15456237719E+02  0.51100000000E-03 0. -1.
        -11    1    3    3    0    0  0.55105784304E+01  0.10056570149E+02  0.12764140022E+02  0.17158797993E+02  0.51100000000E-03 0.  1.
         12    1    3    3    0    0  0.18902461183E+02 -0.15701079485E+02  0.10409775509E+02  0.26686894947E+02  0.00000000000E+00 0. -1.
</event>
<event>
 7    1  0.3461631E-013  0.5930197E+02  0.7816164E-02  0.1266605E+00
        -11   -1    0    0    0    0  0.00000000000E+00  0.00000000000E+00  0.45593999997E+02  0.45594000000E+02  0.51100000000E-03 0. -1.
         11   -1    0    0    0    0 -0.00000000000E+00 -0.00000000000E+00 -0.45593999997E+02  0.45594000000E+02  0.51100000000E-03 0.  1.
    9900012    2    1    2    0    0 -0.31209445410E+02 -0.57197606541E+01 -0.31580985706E+01  0.59301972789E+02  0.50000052454E+02 0.  0.
         12    1    1    2    0    0  0.31209445410E+02  0.57197606541E+01  0.31580985706E+01  0.31886027211E+02  0.00000000000E+00 0. -1.
         11    1    3    3    0    0 -0.27510581376E+02 -0.17725695182E+01 -0.29954766681E+01  0.27729893095E+02  0.51100000000E-03 0. -1.
        -11    1    3    3    0    0 -0.99782267256E+01  0.11217440302E+02  0.14328652666E+01  0.15081415008E+02  0.51100000000E-03 0.  1.
        -12    1    3    3    0    0  0.62793626918E+01 -0.15164631438E+02 -0.15954871691E+01  0.16490664686E+02  0.00000000000E+00 0.  1.
</event>
<event>
 7    1  0.3461631E-013  0.5930194E+02  0.7816164E-02  0.1266605E+00
        -11   -1    0    0    0    0  0.00000000000E+00  0.00000000000E+00  0.45593999997E+02  0.45594000000E+02  0.51100000000E-03 0. -1.
         11   -1    0    0    0    0 -0.00000000000E+00 -0.00000000000E+00 -0.45593999997E+02  0.45594000000E+02  0.51100000000E-03 0.  1.
    9900012    2    1    2    0    0 -0.24174509210E+02 -0.17467478020E+02 -0.11278353329E+02  0.59301938190E+02  0.49999989353E+02 0.  0.
         12    1    1    2    0    0  0.24174509210E+02  0.17467478020E+02  0.11278353329E+02  0.31886061810E+02  0.00000000000E+00 0. -1.
         11    1    3    3    0    0 -0.80955791673E+01 -0.11060390787E+02  0.50968185150E+01  0.14623549694E+02  0.51100000000E-03 0. -1.
        -11    1    3    3    0    0  0.17493214197E+01  0.29365980766E+01  0.10533606090E+02  0.11074321253E+02  0.51100000000E-03 0.  1.
        -12    1    3    3    0    0 -0.17828251463E+02 -0.93436853097E+01 -0.26908777934E+02  0.33604067243E+02  0.00000000000E+00 0.  1.
</event>
<event>
 7    1  0.3461631E-013  0.5930161E+02  0.7816164E-02  0.1266606E+00
        -11   -1    0    0    0    0  0.00000000000E+00  0.00000000000E+00  0.45593999997E+02  0.45594000000E+02  0.51100000000E-03 0. -1.
         11   -1    0    0    0    0 -0.00000000000E+00 -0.00000000000E+00 -0.45593999997E+02  0.45594000000E+02  0.51100000000E-03 0.  1.
    9900012    2    1    2    0    0 -0.25020846201E+02 -0.14531796633E+02 -0.13398730580E+02  0.59301610440E+02  0.49999391612E+02 0.  0.
         12    1    1    2    0    0  0.25020846201E+02  0.14531796633E+02  0.13398730580E+02  0.31886389560E+02  0.00000000000E+00 0. -1.
         11    1    3    3    0    0 -0.67319613813E+01  0.65903568316E+01  0.60630641720E+01  0.11203251966E+02  0.51100000000E-03 0. -1.
        -11    1    3    3    0    0 -0.42130700537E+01  0.90494047849E+01 -0.10083365716E+01  0.10032867444E+02  0.51100000000E-03 0.  1.
         12    1    3    3    0    0 -0.14075814766E+02 -0.30171558249E+02 -0.18453458180E+02  0.38065491030E+02  0.00000000000E+00 0. -1.
</event>
<event>
 7    1  0.3461631E-013  0.5930194E+02  0.7816164E-02  0.1266605E+00
        -11   -1    0    0    0    0  0.00000000000E+00  0.00000000000E+00  0.45593999997E+02  0.45594000000E+02  0.51100000000E-03 0. -1.
         11   -1    0    0    0    0 -0.00000000000E+00 -0.00000000000E+00 -0.45593999997E+02  0.45594000000E+02  0.51100000000E-03 0.  1.
    9900012    2    1    2    0    0  0.17204288046E+02 -0.26808812985E+02  0.14216292843E+01  0.59301937047E+02  0.49999987269E+02 0.  0.
         12    1    1    2    0    0 -0.17204288046E+02  0.26808812985E+02 -0.14216292843E+01  0.31886062953E+02  0.00000000000E+00 0. -1.
         11    1    3    3    0    0  0.16543989600E+00 -0.58223799424E+01 -0.71537632922E+01  0.92251725217E+01  0.51100000000E-03 0. -1.
        -11    1    3    3    0    0  0.28348464075E+02 -0.13157242226E+02 -0.39145086742E+01  0.31497171568E+02  0.51100000000E-03 0.  1.
         12    1    3    3    0    0 -0.11309615925E+02 -0.78291908165E+01  0.12489901251E+02  0.18579592957E+02  0.00000000000E+00 0. -1.
</event>
<event>
 7    1  0.3461631E-013  0.5930195E+02  0.7816164E-02  0.1266605E+00
        -11   -1    0    0    0    0  0.00000000000E+00  0.00000000000E+00  0.45593999997E+02  0.45594000000E+02  0.51100000000E-03 0.  1.
         11   -1    0    0    0    0 -0.00000000000E+00 -0.00000000000E+00 -0.45593999997E+02  0.45594000000E+02  0.51100000000E-03 0. -1.
    9900012    2    1    2    0    0  0.76851212034E+01  0.61044098211E-01  0.30946003630E+02  0.59301953601E+02  0.50000017459E+02 0.  0.
         12    1    1    2    0    0 -0.76851212034E+01 -0.61044098211E-01 -0.30946003630E+02  0.31886046399E+02  0.00000000000E+00 0. -1.
         11    1    3    3    0    0  0.17020245388E+01 -0.17422664624E+01 -0.42025668395E+01  0.48573602150E+01  0.51100000000E-03 0. -1.
        -11    1    3    3    0    0  0.19256650309E+02  0.10703961815E+02  0.90001862490E+01  0.23799091001E+02  0.51100000000E-03 0.  1.
        -12    1    3    3    0    0 -0.13273553645E+02 -0.89006512546E+01  0.26148384220E+02  0.30645502385E+02  0.00000000000E+00 0.  1.
</event>
<event>
 7    1  0.3461631E-013  0.5930195E+02  0.7816164E-02  0.1266605E+00
        -11   -1    0    0    0    0  0.00000000000E+00  0.00000000000E+00  0.45593999997E+02  0.45594000000E+02  0.51100000000E-03 0. -1.
         11   -1    0    0    0    0 -0.00000000000E+00 -0.00000000000E+00 -0.45593999997E+02  0.45594000000E+02  0.51100000000E-03 0.  1.
    9900012    2    1    2    0    0 -0.16019820744E+02  0.47973071042E+01 -0.27149056411E+02  0.59301951701E+02  0.50000013995E+02 0.  0.
         12    1    1    2    0    0  0.16019820744E+02 -0.47973071042E+01  0.27149056411E+02  0.31886048299E+02  0.00000000000E+00 0. -1.
         11    1    3    3    0    0 -0.56356264701E+01 -0.13941548362E+02 -0.25669435675E+01  0.15255040347E+02  0.51100000000E-03 0.  1.
        -11    1    3    3    0    0  0.77848970322E+01 -0.23447912800E+01 -0.90820757645E+01  0.12189617238E+02  0.51100000000E-03 0. -1.
        -12    1    3    3    0    0 -0.18169091306E+02  0.21083646746E+02 -0.15500037079E+02  0.31857294117E+02  0.00000000000E+00 0.  1.
</event>
<event>
 7    1  0.3461631E-013  0.5930186E+02  0.7816164E-02  0.1266605E+00
        -11   -1    0    0    0    0  0.00000000000E+00  0.00000000000E+00  0.45593999997E+02  0.45594000000E+02  0.51100000000E-03 0.  1.
         11   -1    0    0    0    0 -0.00000000000E+00 -0.00000000000E+00 -0.45593999997E+02  0.45594000000E+02  0.51100000000E-03 0. -1.
    9900012    2    1    2    0    0  0.24796525553E+02  0.19950920458E+02  0.19542909985E+01  0.59301856302E+02  0.49999840009E+02 0.  0.
         12    1    1    2    0    0 -0.24796525553E+02 -0.19950920458E+02 -0.19542909985E+01  0.31886143698E+02  0.00000000000E+00 0. -1.
         11    1    3    3    0    0  0.18830056646E+02  0.13305678088E+02  0.17390852620E+02  0.28879990613E+02  0.51100000000E-03 0.  1.
        -11    1    3    3    0    0  0.15535552881E+02  0.57103131306E+01 -0.88685469641E+01  0.18777971266E+02  0.51100000000E-03 0. -1.
        -12    1    3    3    0    0 -0.95690839741E+01  0.93492923936E+00 -0.65680146575E+01  0.11643894423E+02  0.00000000000E+00 0.  1.
</event>
<event>
 7    1  0.3461631E-013  0.5930174E+02  0.7816164E-02  0.1266605E+00
        -11   -1    0    0    0    0  0.00000000000E+00  0.00000000000E+00  0.45593999997E+02  0.45594000000E+02  0.51100000000E-03 0. -1.
         11   -1    0    0    0    0 -0.00000000000E+00 -0.00000000000E+00 -0.45593999997E+02  0.45594000000E+02  0.51100000000E-03 0.  1.
    9900012    2    1    2    0    0  0.18806447148E+02 -0.19413699550E+02  0.16916252763E+02  0.59301736624E+02  0.49999621744E+02 0.  0.
         12    1    1    2    0    0 -0.18806447148E+02  0.19413699550E+02 -0.16916252763E+02  0.31886263376E+02  0.00000000000E+00 0. -1.
         11    1    3    3    0    0  0.31735736418E+02 -0.46617618224E+01  0.15801931834E+02  0.35757377410E+02  0.51100000000E-03 0.  1.
        -11    1    3    3    0    0 -0.55757260061E+01 -0.78214355925E+01 -0.58734059415E+01  0.11258795355E+02  0.51100000000E-03 0. -1.
        -12    1    3    3    0    0 -0.73535632639E+01 -0.69305021353E+01  0.69877268699E+01  0.12285563859E+02  0.00000000000E+00 0.  1.
</event>
<event>
 7    1  0.3461631E-013  0.5930196E+02  0.7816164E-02  0.1266605E+00
        -11   -1    0    0    0    0  0.00000000000E+00  0.00000000000E+00  0.45593999997E+02  0.45594000000E+02  0.51100000000E-03 0.  1.
         11   -1    0    0    0    0 -0.00000000000E+00 -0.00000000000E+00 -0.45593999997E+02  0.45594000000E+02  0.51100000000E-03 0. -1.
    9900012    2    1    2    0    0  0.22918243535E+02 -0.21264962795E+02  0.62669800461E+01  0.59301959664E+02  0.50000028516E+02 0.  0.
         12    1    1    2    0    0 -0.22918243535E+02  0.21264962795E+02 -0.62669800461E+01  0.31886040336E+02  0.00000000000E+00 0. -1.
         11    1    3    3    0    0  0.11743444327E+02  0.33213163143E+01  0.31373950147E+00  0.12208114492E+02  0.51100000000E-03 0. -1.
        -11    1    3    3    0    0  0.11831014137E+02  0.72228681629E+01 -0.27002422376E+01  0.14122111330E+02  0.51100000000E-03 0.  1.
        -12    1    3    3    0    0 -0.65621492873E+00 -0.31809147273E+02  0.86534827822E+01  0.32971733841E+02  0.00000000000E+00 0.  1.
</event>
<event>
 7    1  0.3461631E-013  0.5930193E+02  0.7816164E-02  0.1266605E+00
        -11   -1    0    0    0    0  0.00000000000E+00  0.00000000000E+00  0.45593999997E+02  0.45594000000E+02  0.51100000000E-03 0.  1.
         11   -1    0    0    0    0 -0.00000000000E+00 -0.00000000000E+00 -0.45593999997E+02  0.45594000000E+02  0.51100000000E-03 0. -1.
    9900012    2    1    2    0    0  0.19692987259E+02  0.23636323300E+02  0.83804392336E+01  0.59301932696E+02  0.49999979334E+02 0.  0.
         12    1    1    2    0    0 -0.19692987259E+02 -0.23636323300E+02 -0.83804392336E+01  0.31886067304E+02  0.00000000000E+00 0. -1.
         11    1    3    3    0    0  0.37552335070E+01  0.26344300268E+02 -0.46170130587E+01  0.27008160714E+02  0.51100000000E-03 0. -1.
        -11    1    3    3    0    0  0.14145497811E+02  0.38960468283E+01 -0.29269946713E+01  0.14961336413E+02  0.51100000000E-03 0.  1.
        -12    1    3    3    0    0  0.17922559414E+01 -0.66040237960E+01  0.15924446964E+02  0.17332435569E+02  0.00000000000E+00 0.  1.
</event>
<event>
 7    1  0.3461631E-013  0.5930192E+02  0.7816164E-02  0.1266605E+00
        -11   -1    0    0    0    0  0.00000000000E+00  0.00000000000E+00  0.45593999997E+02  0.45594000000E+02  0.51100000000E-03 0. -1.
         11   -1    0    0    0    0 -0.00000000000E+00 -0.00000000000E+00 -0.45593999997E+02  0.45594000000E+02  0.51100000000E-03 0.  1.
    9900012    2    1    2    0    0 -0.21551335507E+02 -0.22767152988E+00 -0.23499156917E+02  0.59301917264E+02  0.49999951189E+02 0.  0.
         12    1    1    2    0    0  0.21551335507E+02  0.22767152988E+00  0.23499156917E+02  0.31886082736E+02  0.00000000000E+00 0. -1.
         11    1    3    3    0    0 -0.28169709154E+01  0.11198124007E+02  0.54340583730E+00  0.11559783587E+02  0.51100000000E-03 0. -1.
        -11    1    3    3    0    0 -0.19359271431E+02  0.39643545950E+01 -0.25511168405E+02  0.32269447026E+02  0.51100000000E-03 0.  1.
        -12    1    3    3    0    0  0.62490683982E+00 -0.15390150132E+02  0.14686056506E+01  0.15472686651E+02  0.00000000000E+00 0.  1.
</event>
<event>
 7    1  0.3461631E-013  0.5930234E+02  0.7816164E-02  0.1266603E+00
        -11   -1    0    0    0    0  0.00000000000E+00  0.00000000000E+00  0.45593999997E+02  0.45594000000E+02  0.51100000000E-03 0.  1.
         11   -1    0    0    0    0 -0.00000000000E+00 -0.00000000000E+00 -0.45593999997E+02  0.45594000000E+02  0.51100000000E-03 0. -1.
    9900012    2    1    2    0    0  0.26491937725E+01 -0.22633300301E+02  0.22302708437E+02  0.59302339998E+02  0.50000722150E+02 0.  0.
         12    1    1    2    0    0 -0.26491937725E+01  0.22633300301E+02 -0.22302708437E+02  0.31885660002E+02  0.00000000000E+00 0. -1.
         11    1    3    3    0    0 -0.40520939036E+00 -0.16940477072E+00  0.11448704081E+02  0.11457125208E+02  0.51100000000E-03 0. -1.
        -11    1    3    3    0    0 -0.85269130671E+01 -0.30921461609E+02  0.94347124534E+01  0.33434395969E+02  0.51100000000E-03 0.  1.
         12    1    3    3    0    0  0.11581316230E+02  0.84575660785E+01  0.14192919018E+01  0.14410818821E+02  0.00000000000E+00 0. -1.
</event>
<event>
 7    1  0.3461631E-013  0.5930191E+02  0.7816164E-02  0.1266605E+00
        -11   -1    0    0    0    0  0.00000000000E+00  0.00000000000E+00  0.45593999997E+02  0.45594000000E+02  0.51100000000E-03 0.  1.
         11   -1    0    0    0    0 -0.00000000000E+00 -0.00000000000E+00 -0.45593999997E+02  0.45594000000E+02  0.51100000000E-03 0. -1.
    9900012    2    1    2    0    0 -0.27404011648E+02 -0.12540398489E+02 -0.10415433984E+02  0.59301910341E+02  0.49999938563E+02 0.  0.
         12    1    1    2    0    0  0.27404011648E+02  0.12540398489E+02  0.10415433984E+02  0.31886089659E+02  0.00000000000E+00 0. -1.
         11    1    3    3    0    0 -0.22338312314E+02 -0.29597889257E+01 -0.12804281159E+02  0.25917371853E+02  0.51100000000E-03 0. -1.
        -11    1    3    3    0    0 -0.10814697203E+02  0.48757656402E+01 -0.83268508765E+01  0.14493695593E+02  0.51100000000E-03 0.  1.
        -12    1    3    3    0    0  0.57489978683E+01 -0.14456375204E+02  0.10715698052E+02  0.18890842894E+02  0.00000000000E+00 0.  1.
</event>
<event>
 7    1  0.3461631E-013  0.5930194E+02  0.7816164E-02  0.1266605E+00
        -11   -1    0    0    0    0  0.00000000000E+00  0.00000000000E+00  0.45593999997E+02  0.45594000000E+02  0.51100000000E-03 0.  1.
         11   -1    0    0    0    0 -0.00000000000E+00 -0.00000000000E+00 -0.45593999997E+02  0.45594000000E+02  0.51100000000E-03 0. -1.
    9900012    2    1    2    0    0  0.18857347964E+02 -0.25709529552E+02 -0.37555436008E+00  0.59301944692E+02  0.50000001212E+02 0.  0.
         12    1    1    2    0    0 -0.18857347964E+02  0.25709529552E+02  0.37555436008E+00  0.31886055308E+02  0.00000000000E+00 0. -1.
         11    1    3    3    0    0  0.15486767514E+02 -0.82510372143E+01 -0.19518320227E+02  0.26246607550E+02  0.51100000000E-03 0. -1.
        -11    1    3    3    0    0  0.97182109409E+01 -0.10782495510E+02  0.35481057713E+01  0.14943054846E+02  0.51100000000E-03 0.  1.
        -12    1    3    3    0    0 -0.63476304906E+01 -0.66759968278E+01  0.15594660095E+02  0.18112282296E+02  0.00000000000E+00 0.  1.
</event>
<event>
 7    1  0.3461631E-013  0.5930194E+02  0.7816164E-02  0.1266605E+00
        -11   -1    0    0    0    0  0.00000000000E+00  0.00000000000E+00  0.45593999997E+02  0.45594000000E+02  0.51100000000E-03 0. -1.
         11   -1    0    0    0    0 -0.00000000000E+00 -0.00000000000E+00 -0.45593999997E+02  0.45594000000E+02  0.51100000000E-03 0.  1.
    9900012    2    1    2    0    0  0.19597485130E+01 -0.14745869822E+02 -0.28203532452E+02  0.59301944524E+02  0.50000000905E+02 0.  0.
         12    1    1    2    0    0 -0.19597485130E+01  0.14745869822E+02  0.28203532452E+02  0.31886055476E+02  0.00000000000E+00 0. -1.
         11    1    3    3    0    0  0.12734776936E+02  0.85905596030E+00  0.46438836292E+01  0.13582274337E+02  0.51100000000E-03 0. -1.
        -11    1    3    3    0    0  0.16968383445E+01 -0.90472927149E+01  0.80117907244E+00  0.92398405833E+01  0.51100000000E-03 0.  1.
        -12    1    3    3    0    0 -0.12471866767E+02 -0.65576330670E+01 -0.33648595154E+02  0.36479829604E+02  0.00000000000E+00 0.  1.
</event>
<event>
 7    1  0.3461631E-013  0.5930189E+02  0.7816164E-02  0.1266605E+00
        -11   -1    0    0    0    0  0.00000000000E+00  0.00000000000E+00  0.45593999997E+02  0.45594000000E+02  0.51100000000E-03 0.  1.
         11   -1    0    0    0    0 -0.00000000000E+00 -0.00000000000E+00 -0.45593999997E+02  0.45594000000E+02  0.51100000000E-03 0. -1.
    9900012    2    1    2    0    0 -0.29781003663E+02 -0.95590974873E+01 -0.61999450191E+01  0.59301892646E+02  0.49999906293E+02 0.  0.
         12    1    1    2    0    0  0.29781003663E+02  0.95590974873E+01  0.61999450191E+01  0.31886107354E+02  0.00000000000E+00 0. -1.
         11    1    3    3    0    0 -0.25549399390E+02 -0.21447303337E+01 -0.48134198883E+00  0.25643778345E+02  0.51100000000E-03 0. -1.
        -11    1    3    3    0    0 -0.91370967581E+00 -0.17282593905E+02 -0.12397404444E+02  0.21288930332E+02  0.51100000000E-03 0.  1.
         12    1    3    3    0    0 -0.33178945964E+01  0.98682267512E+01  0.66788014138E+01  0.12369183970E+02  0.00000000000E+00 0. -1.
</event>
<event>
 7    1  0.3461631E-013  0.5930201E+02  0.7816164E-02  0.1266605E+00
        -11   -1    0    0    0    0  0.00000000000E+00  0.00000000000E+00  0.45593999997E+02  0.45594000000E+02  0.51100000000E-03 0. -1.
         11   -1    0    0    0    0 -0.00000000000E+00 -0.00000000000E+00 -0.45593999997E+02  0.45594000000E+02  0.51100000000E-03 0.  1.
    9900012    2    1    2    0    0  0.83769752515E+01 -0.25414274357E+02  0.17339481203E+02  0.59302005209E+02  0.50000111580E+02 0.  0.
         12    1    1    2    0    0 -0.83769752515E+01  0.25414274357E+02 -0.17339481203E+02  0.31885994791E+02  0.00000000000E+00 0. -1.
         11    1    3    3    0    0  0.11072347404E+02 -0.17025255968E+02  0.11756425712E+02  0.23466353862E+02  0.51100000000E-03 0. -1.
        -11    1    3    3    0    0  0.33992267808E+01 -0.18882114225E+02 -0.48982941130E+01  0.19801067289E+02  0.51100000000E-03 0.  1.
         12    1    3    3    0    0 -0.60945989330E+01  0.10493095836E+02  0.10481349604E+02  0.16034584058E+02  0.00000000000E+00 0. -1.
</event>
<event>
 7    1  0.3461631E-013  0.5930194E+02  0.7816164E-02  0.1266605E+00
        -11   -1    0    0    0    0  0.00000000000E+00  0.00000000000E+00  0.45593999997E+02  0.45594000000E+02  0.51100000000E-03 0. -1.
         11   -1    0    0    0    0 -0.00000000000E+00 -0.00000000000E+00 -0.45593999997E+02  0.45594000000E+02  0.51100000000E-03 0.  1.
    9900012    2    1    2    0    0  0.10352006809E+02  0.29959809296E+02 -0.34592672270E+01  0.59301941169E+02  0.49999994785E+02 0.  0.
         12    1    1    2    0    0 -0.10352006809E+02 -0.29959809296E+02  0.34592672270E+01  0.31886058831E+02  0.00000000000E+00 0. -1.
         11    1    3    3    0    0 -0.39126075808E+01  0.18595783252E+02 -0.15032532073E+01  0.19062303725E+02  0.51100000000E-03 0. -1.
        -11    1    3    3    0    0  0.92011183367E+01  0.19367287598E+02 -0.13477169830E+02  0.25325609853E+02  0.51100000000E-03 0.  1.
         12    1    3    3    0    0  0.50634960533E+01 -0.80032615530E+01  0.11521155810E+02  0.14914027591E+02  0.00000000000E+00 0. -1.
</event>
<event>
 7    1  0.3461631E-013  0.5930195E+02  0.7816164E-02  0.1266605E+00
        -11   -1    0    0    0    0  0.00000000000E+00  0.00000000000E+00  0.45593999997E+02  0.45594000000E+02  0.51100000000E-03 0.  1.
         11   -1    0    0    0    0 -0.00000000000E+00 -0.00000000000E+00 -0.45593999997E+02  0.45594000000E+02  0.51100000000E-03 0. -1.
    9900012    2    1    2    0    0  0.26177351176E+02  0.17152473077E+02 -0.61040150474E+01  0.59301952159E+02  0.50000014829E+02 0.  0.
         12    1    1    2    0    0 -0.26177351176E+02 -0.17152473077E+02  0.61040150474E+01  0.31886047841E+02  0.00000000000E+00 0. -1.
         11    1    3    3    0    0  0.19304093668E+01  0.18076333634E+02  0.85916970555E+01  0.20107152373E+02  0.51100000000E-03 0. -1.
        -11    1    3    3    0    0  0.85665370122E+01  0.94615077537E+01  0.32801633055E+01  0.13178207652E+02  0.51100000000E-03 0.  1.
         12    1    3    3    0    0  0.15680404797E+02 -0.10385368311E+02 -0.17975875408E+02  0.26016592134E+02  0.00000000000E+00 0. -1.
</event>
<event>
 7    1  0.3461631E-013  0.5930192E+02  0.7816164E-02  0.1266605E+00
        -11   -1    0    0    0    0  0.00000000000E+00  0.00000000000E+00  0.45593999997E+02  0.45594000000E+02  0.51100000000E-03 0.  1.
         11   -1    0    0    0    0 -0.00000000000E+00 -0.00000000000E+00 -0.45593999997E+02  0.45594000000E+02  0.51100000000E-03 0. -1.
    9900012    2    1    2    0    0 -0.13745590901E+02 -0.89298550593E+01  0.27350292183E+02  0.59301920544E+02  0.49999957171E+02 0.  0.
         12    1    1    2    0    0  0.13745590901E+02  0.89298550593E+01 -0.27350292183E+02  0.31886079456E+02  0.00000000000E+00 0. -1.
         11    1    3    3    0    0 -0.49458025829E+01  0.25995723271E+01 -0.38620740654E+01  0.67922276037E+01  0.51100000000E-03 0. -1.
        -11    1    3    3    0    0 -0.66116093202E+01  0.11782077805E+02  0.24787322320E+02  0.28230162650E+02  0.51100000000E-03 0.  1.
         12    1    3    3    0    0 -0.21881789980E+01 -0.23311505191E+02  0.64250439281E+01  0.24279530290E+02  0.00000000000E+00 0. -1.
</event>
<event>
 7    1  0.3461631E-013  0.5930200E+02  0.7816164E-02  0.1266605E+00
        -11   -1    0    0    0    0  0.00000000000E+00  0.00000000000E+00  0.45593999997E+02  0.45594000000E+02  0.51100000000E-03 0.  1.
         11   -1    0    0    0    0 -0.00000000000E+00 -0.00000000000E+00 -0.45593999997E+02  0.45594000000E+02  0.51100000000E-03 0. -1.
    9900012    2    1    2    0    0  0.21670342800E+02 -0.23341569075E+02  0.15114855157E+01  0.59301996920E+02  0.50000096462E+02 0.  0.
         12    1    1    2    0    0 -0.21670342800E+02  0.23341569075E+02 -0.15114855157E+01  0.31886003080E+02  0.00000000000E+00 0. -1.
         11    1    3    3    0    0  0.19940226287E+02 -0.11346978172E+02 -0.80189507453E+00  0.22956689090E+02  0.51100000000E-03 0. -1.
        -11    1    3    3    0    0  0.17516432471E+02 -0.24112838821E+01  0.26237484254E+01  0.17875227342E+02  0.51100000000E-03 0.  1.
        -12    1    3    3    0    0 -0.15786315958E+02 -0.95833070215E+01 -0.31036783518E+00  0.18470080487E+02  0.00000000000E+00 0.  1.
</event>
<event>
 7    1  0.3461631E-013  0.5930193E+02  0.7816164E-02  0.1266605E+00
        -11   -1    0    0    0    0  0.00000000000E+00  0.00000000000E+00  0.45593999997E+02  0.45594000000E+02  0.51100000000E-03 0.  1.
         11   -1    0    0    0    0 -0.00000000000E+00 -0.00000000000E+00 -0.45593999997E+02  0.45594000000E+02  0.51100000000E-03 0. -1.
    9900012    2    1    2    0    0  0.36877501417E+01 -0.28247406264E+02  0.14325018865E+02  0.59301927379E+02  0.49999969636E+02 0.  0.
         12    1    1    2    0    0 -0.36877501417E+01  0.28247406264E+02 -0.14325018865E+02  0.31886072621E+02  0.00000000000E+00 0. -1.
         11    1    3    3    0    0 -0.18929600183E+01 -0.91002781958E+01  0.60415795600E+01  0.11085984156E+02  0.51100000000E-03 0. -1.
        -11    1    3    3    0    0  0.11265308297E+02 -0.26321533847E+02  0.18817009837E+02  0.34260913218E+02  0.51100000000E-03 0.  1.
         12    1    3    3    0    0 -0.56845981365E+01  0.71744057793E+01 -0.10533570532E+02  0.13955030004E+02  0.00000000000E+00 0. -1.
</event>
<event>
 7    1  0.3461631E-013  0.5930194E+02  0.7816164E-02  0.1266605E+00
        -11   -1    0    0    0    0  0.00000000000E+00  0.00000000000E+00  0.45593999997E+02  0.45594000000E+02  0.51100000000E-03 0.  1.
         11   -1    0    0    0    0 -0.00000000000E+00 -0.00000000000E+00 -0.45593999997E+02  0.45594000000E+02  0.51100000000E-03 0. -1.
    9900012    2    1    2    0    0  0.21764532744E+02  0.16372592877E+01  0.23245332726E+02  0.59301937259E+02  0.49999987656E+02 0.  0.
         12    1    1    2    0    0 -0.21764532744E+02 -0.16372592877E+01 -0.23245332726E+02  0.31886062741E+02  0.00000000000E+00 0. -1.
         11    1    3    3    0    0  0.52162007446E+01  0.78618492650E+01  0.19475933447E+01  0.96338229261E+01  0.51100000000E-03 0. -1.
        -11    1    3    3    0    0  0.53424423654E+01  0.15710808848E+02  0.18540755150E+02  0.24882339256E+02  0.51100000000E-03 0.  1.
         12    1    3    3    0    0  0.11205889634E+02 -0.21935398825E+02  0.27569842316E+01  0.24785775077E+02  0.00000000000E+00 0. -1.
</event>
<event>
 7    1  0.3461631E-013  0.5930193E+02  0.7816164E-02  0.1266605E+00
        -11   -1    0    0    0    0  0.00000000000E+00  0.00000000000E+00  0.45593999997E+02  0.45594000000E+02  0.51100000000E-03 0. -1.
         11   -1    0    0    0    0 -0.00000000000E+00 -0.00000000000E+00 -0.45593999997E+02  0.45594000000E+02  0.51100000000E-03 0.  1.
    9900012    2    1    2    0    0  0.25251336672E+02 -0.16920858770E+02 -0.96320347516E+01  0.59301928453E+02  0.49999971596E+02 0.  0.
         12    1    1    2    0    0 -0.25251336672E+02  0.16920858770E+02  0.96320347516E+01  0.31886071547E+02  0.00000000000E+00 0. -1.
         11    1    3    3    0    0  0.14084048164E+01 -0.21326681955E+02  0.11454555143E+02  0.24249078356E+02  0.51100000000E-03 0. -1.
        -11    1    3    3    0    0  0.14709097692E+01 -0.28163066279E+01  0.40222069322E+00  0.32026458309E+01  0.51100000000E-03 0.  1.
        -12    1    3    3    0    0  0.22372022087E+02  0.72221298136E+01 -0.21488810588E+02  0.31850204266E+02  0.00000000000E+00 0.  1.
</event>
<event>
 7    1  0.3461631E-013  0.5930195E+02  0.7816164E-02  0.1266605E+00
        -11   -1    0    0    0    0  0.00000000000E+00  0.00000000000E+00  0.45593999997E+02  0.45594000000E+02  0.51100000000E-03 0.  1.
         11   -1    0    0    0    0 -0.00000000000E+00 -0.00000000000E+00 -0.45593999997E+02  0.45594000000E+02  0.51100000000E-03 0. -1.
    9900012    2    1    2    0    0  0.47411162990E+01 -0.31511925880E+02  0.11138288735E+01  0.59301948642E+02  0.50000008416E+02 0.  0.
         12    1    1    2    0    0 -0.47411162990E+01  0.31511925880E+02 -0.11138288735E+01  0.31886051358E+02  0.00000000000E+00 0. -1.
         11    1    3    3    0    0 -0.20461425217E+02 -0.13058515224E+02 -0.44404136366E+01  0.24676142634E+02  0.51100000000E-03 0.  1.
        -11    1    3    3    0    0  0.74709224295E+01 -0.46665287116E+01 -0.46444060438E+01  0.99579957785E+01  0.51100000000E-03 0. -1.
        -12    1    3    3    0    0  0.17731619087E+02 -0.13786881944E+02  0.10198648554E+02  0.24667810229E+02  0.00000000000E+00 0.  1.
</event>
<event>
 7    1  0.3461631E-013  0.5930193E+02  0.7816164E-02  0.1266605E+00
        -11   -1    0    0    0    0  0.00000000000E+00  0.00000000000E+00  0.45593999997E+02  0.45594000000E+02  0.51100000000E-03 0.  1.
         11   -1    0    0    0    0 -0.00000000000E+00 -0.00000000000E+00 -0.45593999997E+02  0.45594000000E+02  0.51100000000E-03 0. -1.
    9900012    2    1    2    0    0 -0.15560556093E+02  0.14758905918E+02  0.23595875020E+02  0.59301928938E+02  0.49999972480E+02 0.  0.
         12    1    1    2    0    0  0.15560556093E+02 -0.14758905918E+02 -0.23595875020E+02  0.31886071062E+02  0.00000000000E+00 0. -1.
         11    1    3    3    0    0 -0.13701532307E+02  0.25965054248E+01  0.16200845690E+02  0.21376183694E+02  0.51100000000E-03 0. -1.
        -11    1    3    3    0    0 -0.14402418790E+02 -0.51735625678E+01  0.61456670238E+01  0.16491350462E+02  0.51100000000E-03 0.  1.
         12    1    3    3    0    0  0.12543395004E+02  0.17335963061E+02  0.12493623060E+01  0.21434394782E+02  0.00000000000E+00 0. -1.
</event>
<event>
 7    1  0.3461631E-013  0.5930194E+02  0.7816164E-02  0.1266605E+00
        -11   -1    0    0    0    0  0.00000000000E+00  0.00000000000E+00  0.45593999997E+02  0.45594000000E+02  0.51100000000E-03 0.  1.
         11   -1    0    0    0    0 -0.00000000000E+00 -0.00000000000E+00 -0.45593999997E+02  0.45594000000E+02  0.51100000000E-03 0. -1.
    9900012    2    1    2    0    0  0.11479156062E+00  0.15961345320E+02  0.27603321928E+02  0.59301935599E+02  0.49999984627E+02 0.  0.
         12    1    1    2    0    0 -0.11479156062E+00 -0.15961345320E+02 -0.27603321928E+02  0.31886064401E+02  0.00000000000E+00 0. -1.
         11    1    3    3    0    0  0.42041970368E+01  0.58313528094E+01 -0.12488180790E+02  0.14409531846E+02  0.51100000000E-03 0. -1.
        -11    1    3    3    0    0 -0.16775867423E+01  0.10735428903E+02  0.10217627871E+02  0.14915215405E+02  0.51100000000E-03 0.  1.
        -12    1    3    3    0    0 -0.24118187339E+01 -0.60543639258E+00  0.29873874847E+02  0.29977188348E+02  0.00000000000E+00 0.  1.
</event>
<event>
 7    1  0.3461631E-013  0.5930196E+02  0.7816164E-02  0.1266605E+00
        -11   -1    0    0    0    0  0.00000000000E+00  0.00000000000E+00  0.45593999997E+02  0.45594000000E+02  0.51100000000E-03 0. -1.
         11   -1    0    0    0    0 -0.00000000000E+00 -0.00000000000E+00 -0.45593999997E+02  0.45594000000E+02  0.51100000000E-03 0.  1.
    9900012    2    1    2    0    0 -0.18814363331E+01  0.31616340416E+02 -0.36860198573E+01  0.59301960322E+02  0.50000029716E+02 0.  0.
         12    1    1    2    0    0  0.18814363331E+01 -0.31616340416E+02  0.36860198573E+01  0.31886039678E+02  0.00000000000E+00 0. -1.
         11    1    3    3    0    0 -0.19582366265E+01  0.60521925524E+00 -0.46825164137E+01  0.51114519716E+01  0.51100000000E-03 0.  1.
        -11    1    3    3    0    0  0.13657667085E+02  0.23804351627E+02 -0.15599215627E+02  0.31567618774E+02  0.51100000000E-03 0. -1.
         12    1    3    3    0    0 -0.13580866791E+02  0.72067695335E+01  0.16595712184E+02  0.22622889576E+02  0.00000000000E+00 0. -1.
</event>
<event>
 7    1  0.3461631E-013  0.5930200E+02  0.7816164E-02  0.1266605E+00
        -11   -1    0    0    0    0  0.00000000000E+00  0.00000000000E+00  0.45593999997E+02  0.45594000000E+02  0.51100000000E-03 0.  1.
         11   -1    0    0    0    0 -0.00000000000E+00 -0.00000000000E+00 -0.45593999997E+02  0.45594000000E+02  0.51100000000E-03 0. -1.
    9900012    2    1    2    0    0 -0.29725531795E+02  0.91088865731E+01  0.70808299908E+01  0.59301996669E+02  0.50000096004E+02 0.  0.
         12    1    1    2    0    0  0.29725531795E+02 -0.91088865731E+01 -0.70808299908E+01  0.31886003331E+02  0.00000000000E+00 0. -1.
         11    1    3    3    0    0 -0.21559546404E+02  0.14224330820E+02 -0.13888445744E+02  0.29326345730E+02  0.51100000000E-03 0. -1.
        -11    1    3    3    0    0  0.29146114634E+00  0.63438832322E+01  0.29359160961E+01  0.69963853272E+01  0.51100000000E-03 0.  1.
        -12    1    3    3    0    0 -0.84574465375E+01 -0.11459327479E+02  0.18033359639E+02  0.22979265612E+02  0.00000000000E+00 0.  1.
</event>
<event>
 7    1  0.3461631E-013  0.5930188E+02  0.7816164E-02  0.1266605E+00
        -11   -1    0    0    0    0  0.00000000000E+00  0.00000000000E+00  0.45593999997E+02  0.45594000000E+02  0.51100000000E-03 0.  1.
         11   -1    0    0    0    0 -0.00000000000E+00 -0.00000000000E+00 -0.45593999997E+02  0.45594000000E+02  0.51100000000E-03 0. -1.
    9900012    2    1    2    0    0 -0.31245633749E+01  0.31138696038E+02  0.61109090295E+01  0.59301882387E+02  0.49999887583E+02 0.  0.
         12    1    1    2    0    0  0.31245633749E+01 -0.31138696038E+02 -0.61109090295E+01  0.31886117613E+02  0.00000000000E+00 0. -1.
         11    1    3    3    0    0  0.19349455131E+02  0.13395131978E+02  0.14029708238E+02  0.27398242426E+02  0.51100000000E-03 0.  1.
        -11    1    3    3    0    0 -0.52580329677E+00  0.34446734452E+01 -0.41818339014E+01  0.54433426579E+01  0.51100000000E-03 0. -1.
        -12    1    3    3    0    0 -0.21948215209E+02  0.14298890615E+02 -0.37369653068E+01  0.26460297303E+02  0.00000000000E+00 0.  1.
</event>
<event>
 7    1  0.3461631E-013  0.5930195E+02  0.7816164E-02  0.1266605E+00
        -11   -1    0    0    0    0  0.00000000000E+00  0.00000000000E+00  0.45593999997E+02  0.45594000000E+02  0.51100000000E-03 0.  1.
         11   -1    0    0    0    0 -0.00000000000E+00 -0.00000000000E+00 -0.45593999997E+02  0.45594000000E+02  0.51100000000E-03 0. -1.
    9900012    2    1    2    0    0  0.23333906352E+02  0.16167331492E+02  0.14521243917E+02  0.59301947906E+02  0.50000007074E+02 0.  0.
         12    1    1    2    0    0 -0.23333906352E+02 -0.16167331492E+02 -0.14521243917E+02  0.31886052094E+02  0.00000000000E+00 0. -1.
         11    1    3    3    0    0 -0.34916481583E+01  0.54382740264E-01 -0.89197469848E+01  0.95789587575E+01  0.51100000000E-03 0. -1.
        -11    1    3    3    0    0  0.15276058897E+02  0.18903988939E+02  0.99380239329E+00  0.24325016274E+02  0.51100000000E-03 0.  1.
        -12    1    3    3    0    0  0.11549495613E+02 -0.27910401876E+01  0.22447188508E+02  0.25397972875E+02  0.00000000000E+00 0.  1.
</event>
<event>
 7    1  0.3461631E-013  0.5930194E+02  0.7816164E-02  0.1266605E+00
        -11   -1    0    0    0    0  0.00000000000E+00  0.00000000000E+00  0.45593999997E+02  0.45594000000E+02  0.51100000000E-03 0.  1.
         11   -1    0    0    0    0 -0.00000000000E+00 -0.00000000000E+00 -0.45593999997E+02  0.45594000000E+02  0.51100000000E-03 0. -1.
    9900012    2    1    2    0    0  0.21039157984E+02 -0.19193506108E+02 -0.14341675940E+02  0.59301944832E+02  0.50000001467E+02 0.  0.
         12    1    1    2    0    0 -0.21039157984E+02  0.19193506108E+02  0.14341675940E+02  0.31886055168E+02  0.00000000000E+00 0. -1.
         11    1    3    3    0    0 -0.83055569448E+01 -0.11797786176E+02 -0.10056171231E+02  0.17586830724E+02  0.51100000000E-03 0. -1.
        -11    1    3    3    0    0  0.79839838518E+01 -0.33576118567E+01 -0.15120538224E+02  0.17425505214E+02  0.51100000000E-03 0.  1.
        -12    1    3    3    0    0  0.21360731077E+02 -0.40381080757E+01  0.10835033515E+02  0.24289608894E+02  0.00000000000E+00 0.  1.
</event>
<event>
 7    1  0.3461631E-013  0.5930197E+02  0.7816164E-02  0.1266605E+00
        -11   -1    0    0    0    0  0.00000000000E+00  0.00000000000E+00  0.45593999997E+02  0.45594000000E+02  0.51100000000E-03 0.  1.
         11   -1    0    0    0    0 -0.00000000000E+00 -0.00000000000E+00 -0.45593999997E+02  0.45594000000E+02  0.51100000000E-03 0. -1.
    9900012    2    1    2    0    0  0.21414642345E+02  0.16603200097E+02  0.16806717109E+02  0.59301970141E+02  0.50000047623E+02 0.  0.
         12    1    1    2    0    0 -0.21414642345E+02 -0.16603200097E+02 -0.16806717109E+02  0.31886029859E+02  0.00000000000E+00 0. -1.
         11    1    3    3    0    0 -0.67187967622E+01  0.13299117961E+02  0.76118073959E+01  0.16731658034E+02  0.51100000000E-03 0. -1.
        -11    1    3    3    0    0  0.11762216407E+02  0.16686383248E+02  0.41766888650E+01  0.20838182523E+02  0.51100000000E-03 0.  1.
         12    1    3    3    0    0  0.16371222701E+02 -0.13382301112E+02  0.50182208477E+01  0.21732129584E+02  0.00000000000E+00 0. -1.
</event>
<event>
 7    1  0.3461631E-013  0.5930196E+02  0.7816164E-02  0.1266605E+00
        -11   -1    0    0    0    0  0.00000000000E+00  0.00000000000E+00  0.45593999997E+02  0.45594000000E+02  0.51100000000E-03 0.  1.
         11   -1    0    0    0    0 -0.00000000000E+00 -0.00000000000E+00 -0.45593999997E+02  0.45594000000E+02  0.51100000000E-03 0. -1.
    9900012    2    1    2    0    0  0.13091394697E+02  0.60715069808E+01  0.28433634204E+02  0.59301962834E+02  0.50000034298E+02 0.  0.
         12    1    1    2    0    0 -0.13091394697E+02 -0.60715069808E+01 -0.28433634204E+02  0.31886037166E+02  0.00000000000E+00 0. -1.
         11    1    3    3    0    0  0.49243522283E+01  0.41895512122E+01  0.15565946861E+02  0.16855274729E+02  0.51100000000E-03 0. -1.
        -11    1    3    3    0    0  0.11223143438E+02 -0.12951820042E+02  0.19458400513E+02  0.25929480169E+02  0.51100000000E-03 0.  1.
         12    1    3    3    0    0 -0.30561009700E+01  0.14833775810E+02 -0.65907131707E+01  0.16517207937E+02  0.00000000000E+00 0. -1.
</event>
<event>
 7    1  0.3461631E-013  0.5930194E+02  0.7816164E-02  0.1266605E+00
        -11   -1    0    0    0    0  0.00000000000E+00  0.00000000000E+00  0.45593999997E+02  0.45594000000E+02  0.51100000000E-03 0.  1.
         11   -1    0    0    0    0 -0.00000000000E+00 -0.00000000000E+00 -0.45593999997E+02  0.45594000000E+02  0.51100000000E-03 0. -1.
    9900012    2    1    2    0    0  0.16120682992E+02 -0.12540485730E+02  0.24486330957E+02  0.59301943389E+02  0.49999998836E+02 0.  0.
         12    1    1    2    0    0 -0.16120682992E+02  0.12540485730E+02 -0.24486330957E+02  0.31886056611E+02  0.00000000000E+00 0. -1.
         11    1    3    3    0    0  0.10320643138E+02  0.65477994788E+01 -0.24884951405E+01  0.12473249822E+02  0.51100000000E-03 0. -1.
        -11    1    3    3    0    0  0.18381703059E+02 -0.61974527974E+01  0.18918007279E+02  0.27095874744E+02  0.51100000000E-03 0.  1.
        -12    1    3    3    0    0 -0.12581663204E+02 -0.12890832411E+02  0.80568188184E+01  0.19732818823E+02  0.00000000000E+00 0.  1.
</event>
<event>
 7    1  0.3461631E-013  0.5930194E+02  0.7816164E-02  0.1266605E+00
        -11   -1    0    0    0    0  0.00000000000E+00  0.00000000000E+00  0.45593999997E+02  0.45594000000E+02  0.51100000000E-03 0.  1.
         11   -1    0    0    0    0 -0.00000000000E+00 -0.00000000000E+00 -0.45593999997E+02  0.45594000000E+02  0.51100000000E-03 0. -1.
    9900012    2    1    2    0    0  0.81163028233E+01 -0.28764822395E+02  0.11109981426E+02  0.59301936176E+02  0.49999985680E+02 0.  0.
         12    1    1    2    0    0 -0.81163028233E+01  0.28764822395E+02 -0.11109981426E+02  0.31886063824E+02  0.00000000000E+00 0. -1.
         11    1    3    3    0    0 -0.65845412045E+00 -0.20864790493E+02 -0.11198985013E+00  0.20875478105E+02  0.51100000000E-03 0. -1.
        -11    1    3    3    0    0  0.15807838492E+02 -0.18142177712E+02  0.95554330667E+01  0.25890783520E+02  0.51100000000E-03 0.  1.
         12    1    3    3    0    0 -0.70330815483E+01  0.10242145809E+02  0.16665382092E+01  0.12535674551E+02  0.00000000000E+00 0. -1.
</event>
<event>
 7    1  0.3461631E-013  0.5930194E+02  0.7816164E-02  0.1266605E+00
        -11   -1    0    0    0    0  0.00000000000E+00  0.00000000000E+00  0.45593999997E+02  0.45594000000E+02  0.51100000000E-03 0. -1.
         11   -1    0    0    0    0 -0.00000000000E+00 -0.00000000000E+00 -0.45593999997E+02  0.45594000000E+02  0.51100000000E-03 0.  1.
    9900012    2    1    2    0    0  0.33996491057E+01  0.17524253008E+02 -0.26420896123E+02  0.59301940202E+02  0.49999993022E+02 0.  0.
         12    1    1    2    0    0 -0.33996491057E+01 -0.17524253008E+02  0.26420896123E+02  0.31886059798E+02  0.00000000000E+00 0. -1.
         11    1    3    3    0    0  0.93995368731E+01  0.11816107405E+02 -0.24515807101E+02  0.28792299070E+02  0.51100000000E-03 0.  1.
        -11    1    3    3    0    0 -0.63270598091E+01  0.16903238224E+02  0.29761163044E+01  0.18292304852E+02  0.51100000000E-03 0. -1.
         12    1    3    3    0    0  0.32717204176E+00 -0.11195092621E+02 -0.48812053258E+01  0.12217336280E+02  0.00000000000E+00 0. -1.
</event>
<event>
 7    1  0.3461631E-013  0.5930191E+02  0.7816164E-02  0.1266605E+00
        -11   -1    0    0    0    0  0.00000000000E+00  0.00000000000E+00  0.45593999997E+02  0.45594000000E+02  0.51100000000E-03 0.  1.
         11   -1    0    0    0    0 -0.00000000000E+00 -0.00000000000E+00 -0.45593999997E+02  0.45594000000E+02  0.51100000000E-03 0. -1.
    9900012    2    1    2    0    0  0.74706686333E+00 -0.20742341557E+02  0.24205781915E+02  0.59301910238E+02  0.49999938375E+02 0.  0.
         12    1    1    2    0    0 -0.74706686333E+00  0.20742341557E+02 -0.24205781915E+02  0.31886089762E+02  0.00000000000E+00 0. -1.
         11    1    3    3    0    0  0.12258986231E+01 -0.18516606998E+02 -0.56384608924E+01  0.19394839614E+02  0.51100000000E-03 0. -1.
        -11    1    3    3    0    0 -0.27629957210E+01 -0.64115291858E+01  0.33296206987E+02  0.34020277069E+02  0.51100000000E-03 0.  1.
         12    1    3    3    0    0  0.22841639612E+01  0.41857946267E+01 -0.34519641794E+01  0.58867935546E+01  0.00000000000E+00 0. -1.
</event>
<event>
 7    1  0.3461631E-013  0.5930192E+02  0.7816164E-02  0.1266605E+00
        -11   -1    0    0    0    0  0.00000000000E+00  0.00000000000E+00  0.45593999997E+02  0.45594000000E+02  0.51100000000E-03 0. -1.
         11   -1    0    0    0    0 -0.00000000000E+00 -0.00000000000E+00 -0.45593999997E+02  0.45594000000E+02  0.51100000000E-03 0.  1.
    9900012    2    1    2    0    0  0.16525172664E+02  0.16559913313E+02 -0.21665876135E+02  0.59301917625E+02  0.49999951849E+02 0.  0.
         12    1    1    2    0    0 -0.16525172664E+02 -0.16559913313E+02  0.21665876135E+02  0.31886082375E+02  0.00000000000E+00 0. -1.
         11    1    3    3    0    0  0.68010018918E+01 -0.94836316199E+01 -0.15848389395E+02  0.19681573670E+02  0.51100000000E-03 0. -1.
        -11    1    3    3    0    0 -0.29273123170E+01  0.31503815502E+01 -0.11996493191E+02  0.12744014691E+02  0.51100000000E-03 0.  1.
         12    1    3    3    0    0  0.12651483089E+02  0.22893163382E+02  0.61790064510E+01  0.26876329265E+02  0.00000000000E+00 0. -1.
</event>
<event>
 7    1  0.3461631E-013  0.5930190E+02  0.7816164E-02  0.1266605E+00
        -11   -1    0    0    0    0  0.00000000000E+00  0.00000000000E+00  0.45593999997E+02  0.45594000000E+02  0.51100000000E-03 0.  1.
         11   -1    0    0    0    0 -0.00000000000E+00 -0.00000000000E+00 -0.45593999997E+02  0.45594000000E+02  0.51100000000E-03 0. -1.
    9900012    2    1    2    0    0 -0.56379840729E+01  0.61367957906E+01  0.30777857587E+02  0.59301895744E+02  0.49999911942E+02 0.  0.
         12    1    1    2    0    0  0.56379840729E+01 -0.61367957906E+01 -0.30777857587E+02  0.31886104256E+02  0.00000000000E+00 0. -1.
         11    1    3    3    0    0 -0.74575082373E+01  0.10124765925E+02  0.38281408491E+00  0.12580614493E+02  0.51100000000E-03 0. -1.
        -11    1    3    3    0    0 -0.16672418537E+02 -0.62411370293E+00  0.13982237997E+02  0.21768372412E+02  0.51100000000E-03 0.  1.
        -12    1    3    3    0    0  0.18491942702E+02 -0.33638564313E+01  0.16412805505E+02  0.24952908839E+02  0.00000000000E+00 0.  1.
</event>
<event>
 7    1  0.3461631E-013  0.5930195E+02  0.7816164E-02  0.1266605E+00
        -11   -1    0    0    0    0  0.00000000000E+00  0.00000000000E+00  0.45593999997E+02  0.45594000000E+02  0.51100000000E-03 0. -1.
         11   -1    0    0    0    0 -0.00000000000E+00 -0.00000000000E+00 -0.45593999997E+02  0.45594000000E+02  0.51100000000E-03 0.  1.
    9900012    2    1    2    0    0  0.98339097165E+01  0.60465588365E+01 -0.29722945032E+02  0.59301951085E+02  0.50000012870E+02 0.  0.
         12    1    1    2    0    0 -0.98339097165E+01 -0.60465588365E+01  0.29722945032E+02  0.31886048915E+02  0.00000000000E+00 0. -1.
         11    1    3    3    0    0  0.89930206481E+01  0.64962262405E+01 -0.22822221905E+02  0.25375759864E+02  0.51100000000E-03 0. -1.
        -11    1    3    3    0    0 -0.49251199039E+01 -0.13535600840E+02 -0.11996661471E+02  0.18745377640E+02  0.51100000000E-03 0.  1.
         12    1    3    3    0    0  0.57660089723E+01  0.13085933436E+02  0.50959383439E+01  0.15180813580E+02  0.00000000000E+00 0. -1.
</event>
<event>
 7    1  0.3461631E-013  0.5930198E+02  0.7816164E-02  0.1266605E+00
        -11   -1    0    0    0    0  0.00000000000E+00  0.00000000000E+00  0.45593999997E+02  0.45594000000E+02  0.51100000000E-03 0.  1.
         11   -1    0    0    0    0 -0.00000000000E+00 -0.00000000000E+00 -0.45593999997E+02  0.45594000000E+02  0.51100000000E-03 0. -1.
    9900012    2    1    2    0    0  0.21069834268E+01 -0.10637440630E+02  0.29985396131E+02  0.59301976362E+02  0.50000058970E+02 0.  0.
         12    1    1    2    0    0 -0.21069834268E+01  0.10637440630E+02 -0.29985396131E+02  0.31886023638E+02  0.00000000000E+00 0. -1.
         11    1    3    3    0    0 -0.37024208525E+00 -0.89810296280E+01  0.69849613698E+01  0.11383569650E+02  0.51100000000E-03 0. -1.
        -11    1    3    3    0    0 -0.52140504366E+01 -0.50344413460E+01  0.33611846457E+02  0.34384417170E+02  0.51100000000E-03 0.  1.
        -12    1    3    3    0    0  0.76912759487E+01  0.33780303442E+01 -0.10611411696E+02  0.13533989541E+02  0.00000000000E+00 0.  1.
</event>
<event>
 7    1  0.3461631E-013  0.5930193E+02  0.7816164E-02  0.1266605E+00
        -11   -1    0    0    0    0  0.00000000000E+00  0.00000000000E+00  0.45593999997E+02  0.45594000000E+02  0.51100000000E-03 0. -1.
         11   -1    0    0    0    0 -0.00000000000E+00 -0.00000000000E+00 -0.45593999997E+02  0.45594000000E+02  0.51100000000E-03 0.  1.
    9900012    2    1    2    0    0  0.16658214100E+02 -0.24642978110E+02  0.11486916078E+02  0.59301926110E+02  0.49999967322E+02 0.  0.
         12    1    1    2    0    0 -0.16658214100E+02  0.24642978110E+02 -0.11486916078E+02  0.31886073890E+02  0.00000000000E+00 0. -1.
         11    1    3    3    0    0  0.57267881825E+00 -0.35859855365E+01 -0.92725201324E+01  0.99582570344E+01  0.51100000000E-03 0. -1.
        -11    1    3    3    0    0 -0.36061315748E+01  0.25267173765E+01 -0.67796529903E+01  0.80840695547E+01  0.51100000000E-03 0.  1.
         12    1    3    3    0    0  0.19691666857E+02 -0.23583709950E+02  0.27539089201E+02  0.41259599521E+02  0.00000000000E+00 0. -1.
</event>
<event>
 7    1  0.3461631E-013  0.5930196E+02  0.7816164E-02  0.1266605E+00
        -11   -1    0    0    0    0  0.00000000000E+00  0.00000000000E+00  0.45593999997E+02  0.45594000000E+02  0.51100000000E-03 0. -1.
         11   -1    0    0    0    0 -0.00000000000E+00 -0.00000000000E+00 -0.45593999997E+02  0.45594000000E+02  0.51100000000E-03 0.  1.
    9900012    2    1    2    0    0 -0.99603030125E+01 -0.27104653752E+02 -0.13522198969E+02  0.59301956720E+02  0.50000023147E+02 0.  0.
         12    1    1    2    0    0  0.99603030125E+01  0.27104653752E+02  0.13522198969E+02  0.31886043280E+02  0.00000000000E+00 0. -1.
         11    1    3    3    0    0 -0.52291368401E+01  0.10957425097E+02 -0.13516386041E+02  0.18168701900E+02  0.51100000000E-03 0. -1.
        -11    1    3    3    0    0 -0.24128790219E+01 -0.19035696412E+01 -0.35874460896E+01  0.47239106956E+01  0.51100000000E-03 0.  1.
         12    1    3    3    0    0 -0.23182871505E+01 -0.36158509208E+02  0.35816331617E+01  0.36409344124E+02  0.00000000000E+00 0. -1.
</event>
<event>
 7    1  0.3461631E-013  0.5930203E+02  0.7816164E-02  0.1266604E+00
        -11   -1    0    0    0    0  0.00000000000E+00  0.00000000000E+00  0.45593999997E+02  0.45594000000E+02  0.51100000000E-03 0.  1.
         11   -1    0    0    0    0 -0.00000000000E+00 -0.00000000000E+00 -0.45593999997E+02  0.45594000000E+02  0.51100000000E-03 0. -1.
    9900012    2    1    2    0    0  0.91065164170E+01 -0.40569579052E+00  0.30555223908E+02  0.59302032265E+02  0.50000160923E+02 0.  0.
         12    1    1    2    0    0 -0.91065164170E+01  0.40569579052E+00 -0.30555223908E+02  0.31885967735E+02  0.00000000000E+00 0. -1.
         11    1    3    3    0    0  0.30687323891E+01  0.48761613670E+01  0.11631535145E+02  0.12980241841E+02  0.51100000000E-03 0. -1.
        -11    1    3    3    0    0  0.46459374367E+01 -0.12887800638E+01  0.32112096356E+02  0.32472025211E+02  0.51100000000E-03 0.  1.
         12    1    3    3    0    0  0.13918465912E+01 -0.39930770937E+01 -0.13188407593E+02  0.13849765212E+02  0.00000000000E+00 0. -1.
</event>
<event>
 7    1  0.4917538E-013  0.5930193E+02  0.7816164E-02  0.1266605E+00
        -11   -1    0    0    0    0  0.00000000000E+00  0.00000000000E+00  0.45593999997E+02  0.45594000000E+02  0.51100000000E-03 0. -1.
         11   -1    0    0    0    0 -0.00000000000E+00 -0.00000000000E+00 -0.45593999997E+02  0.45594000000E+02  0.51100000000E-03 0.  1.
    9900012    2    1    2    0    0  0.31884224270E+02 -0.32529496352E+00 -0.10768053912E+00  0.59301934560E+02  0.49999982734E+02 0.  0.
         12    1    1    2    0    0 -0.31884224270E+02  0.32529496352E+00  0.10768053912E+00  0.31886065440E+02  0.00000000000E+00 0. -1.
         11    1    3    3    0    0  0.14710893280E+02 -0.58429315018E+01  0.10336136697E+02  0.18904654234E+02  0.51100000000E-03 0. -1.
        -11    1    3    3    0    0  0.27731905996E+02  0.59851201814E+01 -0.64159067260E+01  0.29086837799E+02  0.51100000000E-03 0.  1.
         12    1    3    3    0    0 -0.10558575005E+02 -0.46748364314E+00 -0.40279105099E+01  0.11310442528E+02  0.00000000000E+00 0. -1.
</event>
<event>
 7    1  0.3461631E-013  0.5930195E+02  0.7816164E-02  0.1266605E+00
        -11   -1    0    0    0    0  0.00000000000E+00  0.00000000000E+00  0.45593999997E+02  0.45594000000E+02  0.51100000000E-03 0. -1.
         11   -1    0    0    0    0 -0.00000000000E+00 -0.00000000000E+00 -0.45593999997E+02  0.45594000000E+02  0.51100000000E-03 0.  1.
    9900012    2    1    2    0    0 -0.15056950178E+02 -0.21098178714E+02 -0.18570819043E+02  0.59301949545E+02  0.50000010062E+02 0.  0.
         12    1    1    2    0    0  0.15056950178E+02  0.21098178714E+02  0.18570819043E+02  0.31886050455E+02  0.00000000000E+00 0. -1.
         11    1    3    3    0    0  0.12134779129E+02 -0.74866816801E+01 -0.17789475899E+02  0.22798436791E+02  0.51100000000E-03 0. -1.
        -11    1    3    3    0    0  0.33278350935E+01 -0.15980936849E+01 -0.25426761968E+00  0.37004110743E+01  0.51100000000E-03 0.  1.
        -12    1    3    3    0    0 -0.30519564400E+02 -0.12013403350E+02 -0.52707552432E+00  0.32803101680E+02  0.00000000000E+00 0.  1.
</event>
<event>
 7    1  0.3461631E-013  0.5930201E+02  0.7816164E-02  0.1266605E+00
        -11   -1    0    0    0    0  0.00000000000E+00  0.00000000000E+00  0.45593999997E+02  0.45594000000E+02  0.51100000000E-03 0.  1.
         11   -1    0    0    0    0 -0.00000000000E+00 -0.00000000000E+00 -0.45593999997E+02  0.45594000000E+02  0.51100000000E-03 0. -1.
    9900012    2    1    2    0    0 -0.29556124454E+02  0.33427060684E+01  0.11488163550E+02  0.59302014390E+02  0.50000128323E+02 0.  0.
         12    1    1    2    0    0  0.29556124454E+02 -0.33427060684E+01 -0.11488163550E+02  0.31885985610E+02  0.00000000000E+00 0. -1.
         11    1    3    3    0    0 -0.97856940740E+01  0.23625427905E+01 -0.71738198894E+01  0.12361436365E+02  0.51100000000E-03 0. -1.
        -11    1    3    3    0    0 -0.29210395264E+02 -0.75510630139E+01  0.11151552211E+02  0.32165553953E+02  0.51100000000E-03 0.  1.
         12    1    3    3    0    0  0.94399648845E+01  0.85312262918E+01  0.75104312288E+01  0.14775024071E+02  0.00000000000E+00 0. -1.
</event>
<event>
 7    1  0.3461631E-013  0.5930194E+02  0.7816164E-02  0.1266605E+00
        -11   -1    0    0    0    0  0.00000000000E+00  0.00000000000E+00  0.45593999997E+02  0.45594000000E+02  0.51100000000E-03 0.  1.
         11   -1    0    0    0    0 -0.00000000000E+00 -0.00000000000E+00 -0.45593999997E+02  0.45594000000E+02  0.51100000000E-03 0. -1.
    9900012    2    1    2    0    0 -0.59754187510E+01  0.31217566533E+02  0.25453362772E+01  0.59301939938E+02  0.49999992542E+02 0.  0.
         12    1    1    2    0    0  0.59754187510E+01 -0.31217566533E+02 -0.25453362772E+01  0.31886060062E+02  0.00000000000E+00 0. -1.
         11    1    3    3    0    0  0.93428448946E+01 -0.73007473016E+00 -0.75325557806E+01  0.12023358794E+02  0.51100000000E-03 0.  1.
        -11    1    3    3    0    0 -0.94219176559E+01  0.64598594741E+01  0.16755121035E+02  0.20278964418E+02  0.51100000000E-03 0. -1.
        -12    1    3    3    0    0 -0.58963459897E+01  0.25487781789E+02 -0.66772289768E+01  0.26999616726E+02  0.00000000000E+00 0.  1.
</event>
<event>
 7    1  0.3461631E-013  0.5930189E+02  0.7816164E-02  0.1266605E+00
        -11   -1    0    0    0    0  0.00000000000E+00  0.00000000000E+00  0.45593999997E+02  0.45594000000E+02  0.51100000000E-03 0. -1.
         11   -1    0    0    0    0 -0.00000000000E+00 -0.00000000000E+00 -0.45593999997E+02  0.45594000000E+02  0.51100000000E-03 0.  1.
    9900012    2    1    2    0    0  0.48332861090E+01 -0.29878966653E+02  0.10030482493E+02  0.59301892023E+02  0.49999905156E+02 0.  0.
         12    1    1    2    0    0 -0.48332861090E+01  0.29878966653E+02 -0.10030482493E+02  0.31886107977E+02  0.00000000000E+00 0. -1.
         11    1    3    3    0    0  0.77027128011E+01  0.42734489664E+01  0.12429301724E+02  0.15234227653E+02  0.51100000000E-03 0. -1.
        -11    1    3    3    0    0 -0.26644942663E+01 -0.28099879467E+01  0.97202218028E+01  0.10463186614E+02  0.51100000000E-03 0.  1.
        -12    1    3    3    0    0 -0.20493242587E+00 -0.31342427673E+02 -0.12119041034E+02  0.33604477757E+02  0.00000000000E+00 0.  1.
</event>
<event>
 7    1  0.3461631E-013  0.5930195E+02  0.7816164E-02  0.1266605E+00
        -11   -1    0    0    0    0  0.00000000000E+00  0.00000000000E+00  0.45593999997E+02  0.45594000000E+02  0.51100000000E-03 0. -1.
         11   -1    0    0    0    0 -0.00000000000E+00 -0.00000000000E+00 -0.45593999997E+02  0.45594000000E+02  0.51100000000E-03 0.  1.
    9900012    2    1    2    0    0  0.28125438944E+02  0.14308473177E+02 -0.45768573214E+01  0.59301947510E+02  0.50000006351E+02 0.  0.
         12    1    1    2    0    0 -0.28125438944E+02 -0.14308473177E+02  0.45768573214E+01  0.31886052490E+02  0.00000000000E+00 0. -1.
         11    1    3    3    0    0  0.28851263982E+01  0.11084439125E+02 -0.30265781954E+00  0.11457763615E+02  0.51100000000E-03 0. -1.
        -11    1    3    3    0    0 -0.15120766676E+01  0.16217635758E+02 -0.74943798983E+01  0.17929412031E+02  0.51100000000E-03 0.  1.
         12    1    3    3    0    0  0.26752389213E+02 -0.12993601706E+02  0.32201803964E+01  0.29914771865E+02  0.00000000000E+00 0. -1.
</event>
<event>
 7    1  0.3461631E-013  0.5930172E+02  0.7816164E-02  0.1266606E+00
        -11   -1    0    0    0    0  0.00000000000E+00  0.00000000000E+00  0.45593999997E+02  0.45594000000E+02  0.51100000000E-03 0.  1.
         11   -1    0    0    0    0 -0.00000000000E+00 -0.00000000000E+00 -0.45593999997E+02  0.45594000000E+02  0.51100000000E-03 0. -1.
    9900012    2    1    2    0    0  0.30223181915E+02  0.48688234450E+01  0.89212453690E+01  0.59301721043E+02  0.49999593327E+02 0.  0.
         12    1    1    2    0    0 -0.30223181915E+02 -0.48688234450E+01 -0.89212453690E+01  0.31886278957E+02  0.00000000000E+00 0. -1.
         11    1    3    3    0    0  0.76676205377E+01 -0.50731442724E+01 -0.17147933433E+02  0.19457153410E+02  0.51100000000E-03 0. -1.
        -11    1    3    3    0    0  0.54372113764E+01  0.11436111869E+02  0.83878342314E+01  0.15188932997E+02  0.51100000000E-03 0.  1.
        -12    1    3    3    0    0  0.17118350001E+02 -0.14941441512E+01  0.17681344571E+02  0.24655634636E+02  0.00000000000E+00 0.  1.
</event>
<event>
 7    1  0.3461631E-013  0.5930195E+02  0.7816164E-02  0.1266605E+00
        -11   -1    0    0    0    0  0.00000000000E+00  0.00000000000E+00  0.45593999997E+02  0.45594000000E+02  0.51100000000E-03 0.  1.
         11   -1    0    0    0    0 -0.00000000000E+00 -0.00000000000E+00 -0.45593999997E+02  0.45594000000E+02  0.51100000000E-03 0. -1.
    9900012    2    1    2    0    0 -0.19029367745E+02 -0.21677701985E+02  0.13589735068E+02  0.59301945065E+02  0.50000001891E+02 0.  0.
         12    1    1    2    0    0  0.19029367745E+02  0.21677701985E+02 -0.13589735068E+02  0.31886054935E+02  0.00000000000E+00 0. -1.
         11    1    3    3    0    0 -0.18528569094E+02 -0.23056175489E+02 -0.71809159504E+01  0.30437816200E+02  0.51100000000E-03 0. -1.
        -11    1    3    3    0    0  0.21658341028E+01 -0.83093137470E+01  0.14980769993E+02  0.17267281262E+02  0.51100000000E-03 0.  1.
        -12    1    3    3    0    0 -0.26666327537E+01  0.96877872508E+01  0.57898810247E+01  0.11596847604E+02  0.00000000000E+00 0.  1.
</event>
<event>
 7    1  0.3461631E-013  0.5930195E+02  0.7816164E-02  0.1266605E+00
        -11   -1    0    0    0    0  0.00000000000E+00  0.00000000000E+00  0.45593999997E+02  0.45594000000E+02  0.51100000000E-03 0.  1.
         11   -1    0    0    0    0 -0.00000000000E+00 -0.00000000000E+00 -0.45593999997E+02  0.45594000000E+02  0.51100000000E-03 0. -1.
    9900012    2    1    2    0    0 -0.16510376321E+02  0.27002594117E+02  0.38714168973E+01  0.59301945304E+02  0.50000002328E+02 0.  0.
         12    1    1    2    0    0  0.16510376321E+02 -0.27002594117E+02 -0.38714168973E+01  0.31886054696E+02  0.00000000000E+00 0. -1.
         11    1    3    3    0    0 -0.53494786450E+01 -0.72391296130E+00 -0.71364421657E+00  0.54452052374E+01  0.51100000000E-03 0. -1.
        -11    1    3    3    0    0  0.71544254456E+01  0.18859101594E+02 -0.15367636949E+02  0.25357755856E+02  0.51100000000E-03 0.  1.
         12    1    3    3    0    0 -0.18315323121E+02  0.88674054837E+01  0.19952698063E+02  0.28498984210E+02  0.00000000000E+00 0. -1.
</event>
<event>
 7    1  0.3461631E-013  0.5930197E+02  0.7816164E-02  0.1266605E+00
        -11   -1    0    0    0    0  0.00000000000E+00  0.00000000000E+00  0.45593999997E+02  0.45594000000E+02  0.51100000000E-03 0.  1.
         11   -1    0    0    0    0 -0.00000000000E+00 -0.00000000000E+00 -0.45593999997E+02  0.45594000000E+02  0.51100000000E-03 0. -1.
    9900012    2    1    2    0    0 -0.17296798028E+02 -0.12072509130E+02  0.23912213334E+02  0.59301974139E+02  0.50000054915E+02 0.  0.
         12    1    1    2    0    0  0.17296798028E+02  0.12072509130E+02 -0.23912213334E+02  0.31886025861E+02  0.00000000000E+00 0. -1.
         11    1    3    3    0    0 -0.87122429235E+01 -0.51614273665E+01 -0.39566148419E+01  0.10871904639E+02  0.51100000000E-03 0. -1.
        -11    1    3    3    0    0 -0.22594859887E+02 -0.65558912358E+01  0.24599787844E+02  0.34039050595E+02  0.51100000000E-03 0.  1.
        -12    1    3    3    0    0  0.14010304782E+02 -0.35519052727E+00  0.32690403317E+01  0.14391018904E+02  0.00000000000E+00 0.  1.
</event>
<event>
 7    1  0.3461631E-013  0.5930194E+02  0.7816164E-02  0.1266605E+00
        -11   -1    0    0    0    0  0.00000000000E+00  0.00000000000E+00  0.45593999997E+02  0.45594000000E+02  0.51100000000E-03 0.  1.
         11   -1    0    0    0    0 -0.00000000000E+00 -0.00000000000E+00 -0.45593999997E+02  0.45594000000E+02  0.51100000000E-03 0. -1.
    9900012    2    1    2    0    0 -0.22828454794E+02  0.13972443229E+02  0.17330705667E+02  0.59301939143E+02  0.49999991091E+02 0.  0.
         12    1    1    2    0    0  0.22828454794E+02 -0.13972443229E+02 -0.17330705667E+02  0.31886060857E+02  0.00000000000E+00 0. -1.
         11    1    3    3    0    0 -0.58093718663E+01  0.22361580660E+02  0.24735437640E+02  0.33847170732E+02  0.51100000000E-03 0.  1.
        -11    1    3    3    0    0 -0.31637717934E+01  0.44292172562E+01 -0.22361114065E+01  0.58845230858E+01  0.51100000000E-03 0. -1.
        -12    1    3    3    0    0 -0.13855311134E+02 -0.12818354687E+02 -0.51686205660E+01  0.19570245325E+02  0.00000000000E+00 0.  1.
</event>
<event>
 7    1  0.3461631E-013  0.5930196E+02  0.7816164E-02  0.1266605E+00
        -11   -1    0    0    0    0  0.00000000000E+00  0.00000000000E+00  0.45593999997E+02  0.45594000000E+02  0.51100000000E-03 0.  1.
         11   -1    0    0    0    0 -0.00000000000E+00 -0.00000000000E+00 -0.45593999997E+02  0.45594000000E+02  0.51100000000E-03 0. -1.
    9900012    2    1    2    0    0  0.20274838005E+02  0.12041816274E+01  0.24580491898E+02  0.59301957732E+02  0.50000024994E+02 0.  0.
         12    1    1    2    0    0 -0.20274838005E+02 -0.12041816274E+01 -0.24580491898E+02  0.31886042268E+02  0.00000000000E+00 0. -1.
         11    1    3    3    0    0  0.17690209872E+02 -0.97414746723E+00 -0.63317605388E+01  0.18814454029E+02  0.51100000000E-03 0. -1.
        -11    1    3    3    0    0  0.50157546181E+01  0.34497888385E+01 -0.27739131331E+01  0.66898005763E+01  0.51100000000E-03 0.  1.
        -12    1    3    3    0    0 -0.24311264854E+01 -0.12714597439E+01  0.33686165570E+02  0.33797703128E+02  0.00000000000E+00 0.  1.
</event>
<event>
 7    1  0.3461631E-013  0.5930194E+02  0.7816164E-02  0.1266605E+00
        -11   -1    0    0    0    0  0.00000000000E+00  0.00000000000E+00  0.45593999997E+02  0.45594000000E+02  0.51100000000E-03 0. -1.
         11   -1    0    0    0    0 -0.00000000000E+00 -0.00000000000E+00 -0.45593999997E+02  0.45594000000E+02  0.51100000000E-03 0.  1.
    9900012    2    1    2    0    0 -0.19632772803E+02  0.17909437100E+02  0.17621771077E+02  0.59301944724E+02  0.50000001271E+02 0.  0.
         12    1    1    2    0    0  0.19632772803E+02 -0.17909437100E+02 -0.17621771077E+02  0.31886055276E+02  0.00000000000E+00 0. -1.
         11    1    3    3    0    0 -0.48055108428E+01  0.19457829680E+02  0.22602087406E+01  0.20169497121E+02  0.51100000000E-03 0. -1.
        -11    1    3    3    0    0 -0.74205182616E+01  0.15619475402E+02  0.75433854821E+01  0.18866233538E+02  0.51100000000E-03 0.  1.
         12    1    3    3    0    0 -0.74067436981E+01 -0.17167867982E+02  0.78181768542E+01  0.20266214066E+02  0.00000000000E+00 0. -1.
</event>
<event>
 7    1  0.3461631E-013  0.5930200E+02  0.7816164E-02  0.1266605E+00
        -11   -1    0    0    0    0  0.00000000000E+00  0.00000000000E+00  0.45593999997E+02  0.45594000000E+02  0.51100000000E-03 0.  1.
         11   -1    0    0    0    0 -0.00000000000E+00 -0.00000000000E+00 -0.45593999997E+02  0.45594000000E+02  0.51100000000E-03 0. -1.
    9900012    2    1    2    0    0 -0.17373123990E+02  0.14334688727E+02  0.22570078361E+02  0.59301997188E+02  0.50000096952E+02 0.  0.
         12    1    1    2    0    0  0.17373123990E+02 -0.14334688727E+02 -0.22570078361E+02  0.31886002812E+02  0.00000000000E+00 0. -1.
         11    1    3    3    0    0  0.81590084487E+01 -0.82369845470E+01  0.67967462529E+01  0.13439237076E+02  0.51100000000E-03 0. -1.
        -11    1    3    3    0    0  0.49640927491E+01  0.31483149654E+00  0.37863257747E+01  0.62512077894E+01  0.51100000000E-03 0.  1.
        -12    1    3    3    0    0 -0.30496225187E+02  0.22256841778E+02  0.11987006334E+02  0.39611552323E+02  0.00000000000E+00 0.  1.
</event>
<event>
 7    1  0.3461631E-013  0.5930190E+02  0.7816164E-02  0.1266605E+00
        -11   -1    0    0    0    0  0.00000000000E+00  0.00000000000E+00  0.45593999997E+02  0.45594000000E+02  0.51100000000E-03 0. -1.
         11   -1    0    0    0    0 -0.00000000000E+00 -0.00000000000E+00 -0.45593999997E+02  0.45594000000E+02  0.51100000000E-03 0.  1.
    9900012    2    1    2    0    0  0.23733000925E+02 -0.10405051622E+02 -0.18579642031E+02  0.59301897539E+02  0.49999915215E+02 0.  0.
         12    1    1    2    0    0 -0.23733000925E+02  0.10405051622E+02  0.18579642031E+02  0.31886102461E+02  0.00000000000E+00 0. -1.
         11    1    3    3    0    0  0.15103561800E+01  0.10831400267E+02 -0.76327403500E+01  0.13336383807E+02  0.51100000000E-03 0. -1.
        -11    1    3    3    0    0  0.11135574254E+02 -0.13636361074E+02 -0.22271114992E+02  0.28389327582E+02  0.51100000000E-03 0.  1.
         12    1    3    3    0    0  0.11087070491E+02 -0.76000908155E+01  0.11324213311E+02  0.17576186151E+02  0.00000000000E+00 0. -1.
</event>
<event>
 7    1  0.3461631E-013  0.5930193E+02  0.7816164E-02  0.1266605E+00
        -11   -1    0    0    0    0  0.00000000000E+00  0.00000000000E+00  0.45593999997E+02  0.45594000000E+02  0.51100000000E-03 0. -1.
         11   -1    0    0    0    0 -0.00000000000E+00 -0.00000000000E+00 -0.45593999997E+02  0.45594000000E+02  0.51100000000E-03 0.  1.
    9900012    2    1    2    0    0  0.21209398501E+02  0.11997778880E+02  0.20565410851E+02  0.59301930843E+02  0.49999975954E+02 0.  0.
         12    1    1    2    0    0 -0.21209398501E+02 -0.11997778880E+02 -0.20565410851E+02  0.31886069157E+02  0.00000000000E+00 0. -1.
         11    1    3    3    0    0  0.64784290518E+01  0.19105378069E+02  0.11675599776E+01  0.20207639909E+02  0.51100000000E-03 0. -1.
        -11    1    3    3    0    0  0.94893748059E+01  0.83919710445E+01  0.18865186043E+02  0.22723746542E+02  0.51100000000E-03 0.  1.
        -12    1    3    3    0    0  0.52415946435E+01 -0.15499570234E+02  0.53266483008E+00  0.16370544391E+02  0.00000000000E+00 0.  1.
</event>
<event>
 7    1  0.3461631E-013  0.5930226E+02  0.7816164E-02  0.1266604E+00
        -11   -1    0    0    0    0  0.00000000000E+00  0.00000000000E+00  0.45593999997E+02  0.45594000000E+02  0.51100000000E-03 0.  1.
         11   -1    0    0    0    0 -0.00000000000E+00 -0.00000000000E+00 -0.45593999997E+02  0.45594000000E+02  0.51100000000E-03 0. -1.
    9900012    2    1    2    0    0  0.48011517124E+01 -0.10147931262E+02  0.29844080352E+02  0.59302255556E+02  0.50000568150E+02 0.  0.
         12    1    1    2    0    0 -0.48011517124E+01  0.10147931262E+02 -0.29844080352E+02  0.31885744444E+02  0.00000000000E+00 0. -1.
         11    1    3    3    0    0  0.15278808173E+02 -0.53685762749E+01  0.14631487388E+02  0.21825306730E+02  0.51100000000E-03 0. -1.
        -11    1    3    3    0    0  0.10933586627E+00  0.12708777343E+02  0.10529333516E+02  0.16504297636E+02  0.51100000000E-03 0.  1.
         12    1    3    3    0    0 -0.10586992327E+02 -0.17488132330E+02  0.46832594482E+01  0.20972651191E+02  0.00000000000E+00 0. -1.
</event>
<event>
 7    1  0.3461631E-013  0.5930195E+02  0.7816164E-02  0.1266605E+00
        -11   -1    0    0    0    0  0.00000000000E+00  0.00000000000E+00  0.45593999997E+02  0.45594000000E+02  0.51100000000E-03 0. -1.
         11   -1    0    0    0    0 -0.00000000000E+00 -0.00000000000E+00 -0.45593999997E+02  0.45594000000E+02  0.51100000000E-03 0.  1.
    9900012    2    1    2    0    0  0.17824202544E+02  0.68704949381E+01 -0.25530656519E+02  0.59301947888E+02  0.50000007040E+02 0.  0.
         12    1    1    2    0    0 -0.17824202544E+02 -0.68704949381E+01  0.25530656519E+02  0.31886052112E+02  0.00000000000E+00 0. -1.
         11    1    3    3    0    0 -0.51330726276E+01 -0.90809599324E+01 -0.39230727417E+01  0.11144629554E+02  0.51100000000E-03 0. -1.
        -11    1    3    3    0    0  0.12944494185E+01 -0.90881035350E+01 -0.11858583233E+01  0.92561053033E+01  0.51100000000E-03 0.  1.
         12    1    3    3    0    0  0.21662825753E+02  0.25039558406E+02 -0.20421725454E+02  0.38901213031E+02  0.00000000000E+00 0. -1.
</event>
<event>
 7    1  0.3461631E-013  0.5930195E+02  0.7816164E-02  0.1266605E+00
        -11   -1    0    0    0    0  0.00000000000E+00  0.00000000000E+00  0.45593999997E+02  0.45594000000E+02  0.51100000000E-03 0.  1.
         11   -1    0    0    0    0 -0.00000000000E+00 -0.00000000000E+00 -0.45593999997E+02  0.45594000000E+02  0.51100000000E-03 0. -1.
    9900012    2    1    2    0    0  0.30045671867E+02  0.30679194011E+01  0.10225733536E+02  0.59301950484E+02  0.50000011774E+02 0.  0.
         12    1    1    2    0    0 -0.30045671867E+02 -0.30679194011E+01 -0.10225733536E+02  0.31886049516E+02  0.00000000000E+00 0. -1.
         11    1    3    3    0    0  0.24721169317E+02  0.84961048616E+01 -0.78051623987E+01  0.27280772910E+02  0.51100000000E-03 0. -1.
        -11    1    3    3    0    0  0.94750505846E+01  0.76753223877E+01  0.11659965619E+02  0.16871335330E+02  0.51100000000E-03 0.  1.
         12    1    3    3    0    0 -0.41505480342E+01 -0.13103507848E+02  0.63709303159E+01  0.15149842244E+02  0.00000000000E+00 0. -1.
</event>
<event>
 7    1  0.3461631E-013  0.5930192E+02  0.7816164E-02  0.1266605E+00
        -11   -1    0    0    0    0  0.00000000000E+00  0.00000000000E+00  0.45593999997E+02  0.45594000000E+02  0.51100000000E-03 0.  1.
         11   -1    0    0    0    0 -0.00000000000E+00 -0.00000000000E+00 -0.45593999997E+02  0.45594000000E+02  0.51100000000E-03 0. -1.
    9900012    2    1    2    0    0  0.13929238108E+02  0.20981270786E+02  0.19557219035E+02  0.59301918171E+02  0.49999952843E+02 0.  0.
         12    1    1    2    0    0 -0.13929238108E+02 -0.20981270786E+02 -0.19557219035E+02  0.31886081829E+02  0.00000000000E+00 0. -1.
         11    1    3    3    0    0  0.95483424341E+01  0.20909403270E+01  0.20620402470E+02  0.22819813167E+02  0.51100000000E-03 0. -1.
        -11    1    3    3    0    0  0.15144637288E+02  0.75611519687E+00 -0.23973651629E+01  0.15351843823E+02  0.51100000000E-03 0.  1.
        -12    1    3    3    0    0 -0.10763741613E+02  0.18134215262E+02  0.13341817272E+01  0.21130261181E+02  0.00000000000E+00 0.  1.
</event>
<event>
 7    1  0.3461631E-013  0.5930177E+02  0.7816164E-02  0.1266605E+00
        -11   -1    0    0    0    0  0.00000000000E+00  0.00000000000E+00  0.45593999997E+02  0.45594000000E+02  0.51100000000E-03 0. -1.
         11   -1    0    0    0    0 -0.00000000000E+00 -0.00000000000E+00 -0.45593999997E+02  0.45594000000E+02  0.51100000000E-03 0.  1.
    9900012    2    1    2    0    0 -0.99517129396E+01 -0.17176362555E+02 -0.24953311693E+02  0.59301768088E+02  0.49999679128E+02 0.  0.
         12    1    1    2    0    0  0.99517129396E+01  0.17176362555E+02  0.24953311693E+02  0.31886231912E+02  0.00000000000E+00 0. -1.
         11    1    3    3    0    0 -0.85249630826E+01 -0.17390057223E+02 -0.87976300218E+01  0.21271750752E+02  0.51100000000E-03 0. -1.
        -11    1    3    3    0    0 -0.12766232310E+02 -0.11989219415E+02 -0.10592154182E+02  0.20467334952E+02  0.51100000000E-03 0.  1.
         12    1    3    3    0    0  0.11339482453E+02  0.12202914083E+02 -0.55635274897E+01  0.17562682385E+02  0.00000000000E+00 0. -1.
</event>
<event>
 7    1  0.3461631E-013  0.5930191E+02  0.7816164E-02  0.1266605E+00
        -11   -1    0    0    0    0  0.00000000000E+00  0.00000000000E+00  0.45593999997E+02  0.45594000000E+02  0.51100000000E-03 0. -1.
         11   -1    0    0    0    0 -0.00000000000E+00 -0.00000000000E+00 -0.45593999997E+02  0.45594000000E+02  0.51100000000E-03 0.  1.
    9900012    2    1    2    0    0 -0.14648328089E+02  0.25990968067E+02 -0.11252497217E+02  0.59301911647E+02  0.49999940945E+02 0.  0.
         12    1    1    2    0    0  0.14648328089E+02 -0.25990968067E+02  0.11252497217E+02  0.31886088353E+02  0.00000000000E+00 0. -1.
         11    1    3    3    0    0 -0.11886676416E+02  0.13129910320E+02 -0.16840525793E+02  0.24439536216E+02  0.51100000000E-03 0. -1.
        -11    1    3    3    0    0 -0.93731026124E+01 -0.48929047652E+01 -0.64791490303E+01  0.12400602487E+02  0.51100000000E-03 0.  1.
         12    1    3    3    0    0  0.66114509393E+01  0.17753962512E+02  0.12067177606E+02  0.22461772944E+02  0.00000000000E+00 0. -1.
</event>
<event>
 7    1  0.3461631E-013  0.5930195E+02  0.7816164E-02  0.1266605E+00
        -11   -1    0    0    0    0  0.00000000000E+00  0.00000000000E+00  0.45593999997E+02  0.45594000000E+02  0.51100000000E-03 0.  1.
         11   -1    0    0    0    0 -0.00000000000E+00 -0.00000000000E+00 -0.45593999997E+02  0.45594000000E+02  0.51100000000E-03 0. -1.
    9900012    2    1    2    0    0  0.25721898329E+02 -0.12967212300E+02  0.13673168850E+02  0.59301949839E+02  0.50000010598E+02 0.  0.
         12    1    1    2    0    0 -0.25721898329E+02  0.12967212300E+02 -0.13673168850E+02  0.31886050161E+02  0.00000000000E+00 0. -1.
         11    1    3    3    0    0  0.12263121645E+02 -0.30398730289E+01  0.42337646303E+00  0.12641369720E+02  0.51100000000E-03 0. -1.
        -11    1    3    3    0    0  0.18053326184E+01 -0.24739486465E+02  0.12553440463E+02  0.27800904377E+02  0.51100000000E-03 0.  1.
         12    1    3    3    0    0  0.11653444066E+02  0.14812147194E+02  0.69635192332E+00  0.18859675742E+02  0.00000000000E+00 0. -1.
</event>
<event>
 7    1  0.3461631E-013  0.5930194E+02  0.7816164E-02  0.1266605E+00
        -11   -1    0    0    0    0  0.00000000000E+00  0.00000000000E+00  0.45593999997E+02  0.45594000000E+02  0.51100000000E-03 0.  1.
         11   -1    0    0    0    0 -0.00000000000E+00 -0.00000000000E+00 -0.45593999997E+02  0.45594000000E+02  0.51100000000E-03 0. -1.
    9900012    2    1    2    0    0 -0.21930837354E+02  0.10270629977E+02  0.20743034396E+02  0.59301938105E+02  0.49999989199E+02 0.  0.
         12    1    1    2    0    0  0.21930837354E+02 -0.10270629977E+02 -0.20743034396E+02  0.31886061895E+02  0.00000000000E+00 0. -1.
         11    1    3    3    0    0  0.67893421125E+01 -0.19517211909E+01  0.68645185992E+01  0.98501775510E+01  0.51100000000E-03 0. -1.
        -11    1    3    3    0    0 -0.27124801496E+02 -0.47378471678E+01  0.16671654492E+02  0.32189223597E+02  0.51100000000E-03 0.  1.
         12    1    3    3    0    0 -0.15953779707E+01  0.16960198336E+02 -0.27931386951E+01  0.17262536958E+02  0.00000000000E+00 0. -1.
</event>
<event>
 7    1  0.3461631E-013  0.5930195E+02  0.7816164E-02  0.1266605E+00
        -11   -1    0    0    0    0  0.00000000000E+00  0.00000000000E+00  0.45593999997E+02  0.45594000000E+02  0.51100000000E-03 0. -1.
         11   -1    0    0    0    0 -0.00000000000E+00 -0.00000000000E+00 -0.45593999997E+02  0.45594000000E+02  0.51100000000E-03 0.  1.
    9900012    2    1    2    0    0  0.37097205003E+01 -0.13875258779E+02 -0.28468144465E+02  0.59301951614E+02  0.50000013836E+02 0.  0.
         12    1    1    2    0    0 -0.37097205003E+01  0.13875258779E+02  0.28468144465E+02  0.31886048386E+02  0.00000000000E+00 0. -1.
         11    1    3    3    0    0 -0.38643900888E+01 -0.34825992314E+01 -0.54824273455E+01  0.75577124862E+01  0.51100000000E-03 0. -1.
        -11    1    3    3    0    0 -0.12535501783E+01 -0.11265145591E+02 -0.35011609533E+02  0.36800648032E+02  0.51100000000E-03 0.  1.
         12    1    3    3    0    0  0.88276607674E+01  0.87248604428E+00  0.12025892413E+02  0.14943591096E+02  0.00000000000E+00 0. -1.
</event>
<event>
 7    1  0.3461631E-013  0.5930193E+02  0.7816164E-02  0.1266605E+00
        -11   -1    0    0    0    0  0.00000000000E+00  0.00000000000E+00  0.45593999997E+02  0.45594000000E+02  0.51100000000E-03 0.  1.
         11   -1    0    0    0    0 -0.00000000000E+00 -0.00000000000E+00 -0.45593999997E+02  0.45594000000E+02  0.51100000000E-03 0. -1.
    9900012    2    1    2    0    0  0.24738387179E+02 -0.35940543624E+01  0.19794357518E+02  0.59301927547E+02  0.49999969942E+02 0.  0.
         12    1    1    2    0    0 -0.24738387179E+02  0.35940543624E+01 -0.19794357518E+02  0.31886072453E+02  0.00000000000E+00 0. -1.
         11    1    3    3    0    0  0.66319252566E+00 -0.27864966199E+01  0.18806159921E+02  0.19023039688E+02  0.51100000000E-03 0. -1.
        -11    1    3    3    0    0 -0.79354706567E+01 -0.21552958951E+01 -0.48419871260E-01  0.82230979371E+01  0.51100000000E-03 0.  1.
        -12    1    3    3    0    0  0.32010665310E+02  0.13477381526E+01  0.10366174677E+01  0.32055789921E+02  0.00000000000E+00 0.  1.
</event>
<event>
 7    1  0.3461631E-013  0.5930196E+02  0.7816164E-02  0.1266605E+00
        -11   -1    0    0    0    0  0.00000000000E+00  0.00000000000E+00  0.45593999997E+02  0.45594000000E+02  0.51100000000E-03 0. -1.
         11   -1    0    0    0    0 -0.00000000000E+00 -0.00000000000E+00 -0.45593999997E+02  0.45594000000E+02  0.51100000000E-03 0.  1.
    9900012    2    1    2    0    0 -0.18856204526E+02 -0.23308165481E+02 -0.10857831298E+02  0.59301960300E+02  0.50000029677E+02 0.  0.
         12    1    1    2    0    0  0.18856204526E+02  0.23308165481E+02  0.10857831298E+02  0.31886039700E+02  0.00000000000E+00 0. -1.
         11    1    3    3    0    0  0.92060095375E+01 -0.20155517635E+01  0.14206843266E+01  0.95305511243E+01  0.51100000000E-03 0. -1.
        -11    1    3    3    0    0  0.20518389715E+01 -0.12948343568E+02  0.50389853459E+01  0.14044964147E+02  0.51100000000E-03 0.  1.
        -12    1    3    3    0    0 -0.30114053035E+02 -0.83442701501E+01 -0.17317500970E+02  0.35726445029E+02  0.00000000000E+00 0.  1.
</event>
<event>
 7    1  0.3461631E-013  0.5930196E+02  0.7816164E-02  0.1266605E+00
        -11   -1    0    0    0    0  0.00000000000E+00  0.00000000000E+00  0.45593999997E+02  0.45594000000E+02  0.51100000000E-03 0. -1.
         11   -1    0    0    0    0 -0.00000000000E+00 -0.00000000000E+00 -0.45593999997E+02  0.45594000000E+02  0.51100000000E-03 0.  1.
    9900012    2    1    2    0    0 -0.42302393404E+01 -0.60068224680E+01 -0.31028100482E+02  0.59301955081E+02  0.50000020159E+02 0.  0.
         12    1    1    2    0    0  0.42302393404E+01  0.60068224680E+01  0.31028100482E+02  0.31886044919E+02  0.00000000000E+00 0. -1.
         11    1    3    3    0    0  0.61755279646E+01 -0.19194191557E+02 -0.21980741265E+02  0.29827958730E+02  0.51100000000E-03 0. -1.
        -11    1    3    3    0    0 -0.12948872433E+02 -0.11651326038E+01 -0.69669054403E+01  0.14750206878E+02  0.51100000000E-03 0.  1.
         12    1    3    3    0    0  0.25431051279E+01  0.14352501693E+02 -0.20804537769E+01  0.14723789473E+02  0.00000000000E+00 0. -1.
</event>
<event>
 7    1  0.3461631E-013  0.5930195E+02  0.7816164E-02  0.1266605E+00
        -11   -1    0    0    0    0  0.00000000000E+00  0.00000000000E+00  0.45593999997E+02  0.45594000000E+02  0.51100000000E-03 0. -1.
         11   -1    0    0    0    0 -0.00000000000E+00 -0.00000000000E+00 -0.45593999997E+02  0.45594000000E+02  0.51100000000E-03 0.  1.
    9900012    2    1    2    0    0 -0.27968245310E+02  0.18997301764E+01  0.15195023435E+02  0.59301945718E+02  0.50000003083E+02 0.  0.
         12    1    1    2    0    0  0.27968245310E+02 -0.18997301764E+01 -0.15195023435E+02  0.31886054282E+02  0.00000000000E+00 0. -1.
         11    1    3    3    0    0 -0.20527203585E+02 -0.14701583344E+01  0.16217786174E+02  0.26201985444E+02  0.51100000000E-03 0. -1.
        -11    1    3    3    0    0 -0.82866509799E+01  0.15668071843E+02 -0.74161342593E+01  0.19213435595E+02  0.51100000000E-03 0.  1.
         12    1    3    3    0    0  0.84560925494E+00 -0.12298183332E+02  0.63933715199E+01  0.13886524679E+02  0.00000000000E+00 0. -1.
</event>
<event>
 7    1  0.3461631E-013  0.5930196E+02  0.7816164E-02  0.1266605E+00
        -11   -1    0    0    0    0  0.00000000000E+00  0.00000000000E+00  0.45593999997E+02  0.45594000000E+02  0.51100000000E-03 0.  1.
         11   -1    0    0    0    0 -0.00000000000E+00 -0.00000000000E+00 -0.45593999997E+02  0.45594000000E+02  0.51100000000E-03 0. -1.
    9900012    2    1    2    0    0  0.27469489753E+02 -0.29183347366E+01 -0.15925757920E+02  0.59301963710E+02  0.50000035896E+02 0.  0.
         12    1    1    2    0    0 -0.27469489753E+02  0.29183347366E+01  0.15925757920E+02  0.31886036290E+02  0.00000000000E+00 0. -1.
         11    1    3    3    0    0 -0.63542427506E+01 -0.91274997905E+01 -0.14455065497E+02  0.18238327011E+02  0.51100000000E-03 0. -1.
        -11    1    3    3    0    0  0.57383116418E+01 -0.12531405588E+00  0.87908337732E+01  0.10498699100E+02  0.51100000000E-03 0.  1.
        -12    1    3    3    0    0  0.28085420862E+02  0.63344791098E+01 -0.10261526196E+02  0.30564937599E+02  0.00000000000E+00 0.  1.
</event>
<event>
 7    1  0.3461631E-013  0.5930193E+02  0.7816164E-02  0.1266605E+00
        -11   -1    0    0    0    0  0.00000000000E+00  0.00000000000E+00  0.45593999997E+02  0.45594000000E+02  0.51100000000E-03 0.  1.
         11   -1    0    0    0    0 -0.00000000000E+00 -0.00000000000E+00 -0.45593999997E+02  0.45594000000E+02  0.51100000000E-03 0. -1.
    9900012    2    1    2    0    0  0.51080914151E+01  0.24157912984E+02  0.20174845305E+02  0.59301925599E+02  0.49999966390E+02 0.  0.
         12    1    1    2    0    0 -0.51080914151E+01 -0.24157912984E+02 -0.20174845305E+02  0.31886074401E+02  0.00000000000E+00 0. -1.
         11    1    3    3    0    0  0.30838047061E+01 -0.61783872297E+01  0.13801848451E+02  0.15432865617E+02  0.51100000000E-03 0.  1.
        -11    1    3    3    0    0  0.32435561998E+01 -0.43726181292E+01 -0.49310033547E+01  0.73454230968E+01  0.51100000000E-03 0. -1.
        -12    1    3    3    0    0 -0.12192694907E+01  0.34708918343E+02  0.11304000209E+02  0.36523636885E+02  0.00000000000E+00 0.  1.
</event>
<event>
 7    1  0.3461631E-013  0.5930187E+02  0.7816164E-02  0.1266605E+00
        -11   -1    0    0    0    0  0.00000000000E+00  0.00000000000E+00  0.45593999997E+02  0.45594000000E+02  0.51100000000E-03 0.  1.
         11   -1    0    0    0    0 -0.00000000000E+00 -0.00000000000E+00 -0.45593999997E+02  0.45594000000E+02  0.51100000000E-03 0. -1.
    9900012    2    1    2    0    0  0.26912174714E+02  0.16076703874E+02  0.58309525712E+01  0.59301865660E+02  0.49999857075E+02 0.  0.
         12    1    1    2    0    0 -0.26912174714E+02 -0.16076703874E+02 -0.58309525712E+01  0.31886134340E+02  0.00000000000E+00 0. -1.
         11    1    3    3    0    0  0.75770813546E+01  0.19968632967E+02  0.64679927636E+00  0.21367658130E+02  0.51100000000E-03 0. -1.
        -11    1    3    3    0    0  0.61244745205E+01 -0.76629117394E+01 -0.12278013416E+02  0.15715566111E+02  0.51100000000E-03 0.  1.
         12    1    3    3    0    0  0.13210618839E+02  0.37709826470E+01  0.17462166711E+02  0.22218641418E+02  0.00000000000E+00 0. -1.
</event>
<event>
 7    1  0.3461631E-013  0.5930197E+02  0.7816164E-02  0.1266605E+00
        -11   -1    0    0    0    0  0.00000000000E+00  0.00000000000E+00  0.45593999997E+02  0.45594000000E+02  0.51100000000E-03 0.  1.
         11   -1    0    0    0    0 -0.00000000000E+00 -0.00000000000E+00 -0.45593999997E+02  0.45594000000E+02  0.51100000000E-03 0. -1.
    9900012    2    1    2    0    0 -0.17171327702E+02 -0.80273715180E+01  0.25640316534E+02  0.59301968254E+02  0.50000044184E+02 0.  0.
         12    1    1    2    0    0  0.17171327702E+02  0.80273715180E+01 -0.25640316534E+02  0.31886031746E+02  0.00000000000E+00 0. -1.
         11    1    3    3    0    0 -0.18921214592E+02 -0.62358061135E+01  0.22815768038E+02  0.30289551184E+02  0.51100000000E-03 0. -1.
        -11    1    3    3    0    0 -0.10336153666E+02 -0.49175641544E+01  0.94827300917E+01  0.14864073468E+02  0.51100000000E-03 0.  1.
         12    1    3    3    0    0  0.12086040556E+02  0.31259987499E+01 -0.66581815959E+01  0.14148343602E+02  0.00000000000E+00 0. -1.
</event>
<event>
 7    1  0.3461631E-013  0.5930193E+02  0.7816164E-02  0.1266605E+00
        -11   -1    0    0    0    0  0.00000000000E+00  0.00000000000E+00  0.45593999997E+02  0.45594000000E+02  0.51100000000E-03 0.  1.
         11   -1    0    0    0    0 -0.00000000000E+00 -0.00000000000E+00 -0.45593999997E+02  0.45594000000E+02  0.51100000000E-03 0. -1.
    9900012    2    1    2    0    0  0.41498262212E+01 -0.27396534822E+02 -0.15777522445E+02  0.59301931060E+02  0.49999976351E+02 0.  0.
         12    1    1    2    0    0 -0.41498262212E+01  0.27396534822E+02  0.15777522445E+02  0.31886068940E+02  0.00000000000E+00 0. -1.
         11    1    3    3    0    0 -0.91637299376E+01 -0.11170608575E+02 -0.13452603603E+02  0.19741554809E+02  0.51100000000E-03 0. -1.
        -11    1    3    3    0    0  0.65282713091E+01  0.56187697379E+01 -0.11960804831E+02  0.14739394564E+02  0.51100000000E-03 0.  1.
        -12    1    3    3    0    0  0.67852848496E+01 -0.21844695984E+02  0.96358859885E+01  0.24820981687E+02  0.00000000000E+00 0.  1.
</event>
<event>
 7    1  0.4805084E-013  0.5930194E+02  0.7816164E-02  0.1266605E+00
        -11   -1    0    0    0    0  0.00000000000E+00  0.00000000000E+00  0.45593999997E+02  0.45594000000E+02  0.51100000000E-03 0. -1.
         11   -1    0    0    0    0 -0.00000000000E+00 -0.00000000000E+00 -0.45593999997E+02  0.45594000000E+02  0.51100000000E-03 0.  1.
    9900012    2    1    2    0    0 -0.18980550215E+02  0.53512985539E+01 -0.25056396866E+02  0.59301941815E+02  0.49999995964E+02 0.  0.
         12    1    1    2    0    0  0.18980550215E+02 -0.53512985539E+01  0.25056396866E+02  0.31886058185E+02  0.00000000000E+00 0. -1.
         11    1    3    3    0    0 -0.22402262775E+02  0.32308463275E+01 -0.13690551356E+02  0.26452427906E+02  0.51100000000E-03 0. -1.
        -11    1    3    3    0    0 -0.28097426774E+01 -0.31284784795E+01 -0.20315823909E+02  0.20746439041E+02  0.51100000000E-03 0.  1.
         12    1    3    3    0    0  0.62314552371E+01  0.52489307059E+01  0.89499783983E+01  0.12103074868E+02  0.00000000000E+00 0. -1.
</event>
<event>
 7    1  0.3461631E-013  0.5930198E+02  0.7816164E-02  0.1266605E+00
        -11   -1    0    0    0    0  0.00000000000E+00  0.00000000000E+00  0.45593999997E+02  0.45594000000E+02  0.51100000000E-03 0.  1.
         11   -1    0    0    0    0 -0.00000000000E+00 -0.00000000000E+00 -0.45593999997E+02  0.45594000000E+02  0.51100000000E-03 0. -1.
    9900012    2    1    2    0    0 -0.39244901023E+01 -0.30905573122E+02 -0.67942575605E+01  0.59301984125E+02  0.50000073128E+02 0.  0.
         12    1    1    2    0    0  0.39244901023E+01  0.30905573122E+02  0.67942575605E+01  0.31886015875E+02  0.00000000000E+00 0. -1.
         11    1    3    3    0    0  0.78723261830E+01 -0.50897635509E+01 -0.15299720617E+02  0.17943262350E+02  0.51100000000E-03 0. -1.
        -11    1    3    3    0    0 -0.14561432483E+02 -0.80519869739E+01 -0.65771225149E+01  0.17892130980E+02  0.51100000000E-03 0.  1.
        -12    1    3    3    0    0  0.27646161975E+01 -0.17763822597E+02  0.15082585572E+02  0.23466590795E+02  0.00000000000E+00 0.  1.
</event>
<event>
 7    1  0.3461631E-013  0.5930211E+02  0.7816164E-02  0.1266604E+00
        -11   -1    0    0    0    0  0.00000000000E+00  0.00000000000E+00  0.45593999997E+02  0.45594000000E+02  0.51100000000E-03 0.  1.
         11   -1    0    0    0    0 -0.00000000000E+00 -0.00000000000E+00 -0.45593999997E+02  0.45594000000E+02  0.51100000000E-03 0. -1.
    9900012    2    1    2    0    0 -0.10368825096E+02  0.25966421902E+02  0.15327824290E+02  0.59302112875E+02  0.50000307937E+02 0.  0.
         12    1    1    2    0    0  0.10368825096E+02 -0.25966421902E+02 -0.15327824290E+02  0.31885887125E+02  0.00000000000E+00 0. -1.
         11    1    3    3    0    0 -0.14262975268E+01 -0.98483217778E+01  0.94152182456E+00  0.99955104963E+01  0.51100000000E-03 0. -1.
        -11    1    3    3    0    0 -0.12272406344E+02  0.24639026614E+01  0.88641981294E+01  0.15338082753E+02  0.51100000000E-03 0.  1.
         12    1    3    3    0    0  0.33298787753E+01  0.33350841018E+02  0.55221043358E+01  0.33968519626E+02  0.00000000000E+00 0. -1.
</event>
<event>
 7    1  0.3461631E-013  0.5930191E+02  0.7816164E-02  0.1266605E+00
        -11   -1    0    0    0    0  0.00000000000E+00  0.00000000000E+00  0.45593999997E+02  0.45594000000E+02  0.51100000000E-03 0.  1.
         11   -1    0    0    0    0 -0.00000000000E+00 -0.00000000000E+00 -0.45593999997E+02  0.45594000000E+02  0.51100000000E-03 0. -1.
    9900012    2    1    2    0    0  0.23991423918E+02  0.17479541118E+02  0.11644750413E+02  0.59301905986E+02  0.49999930620E+02 0.  0.
         12    1    1    2    0    0 -0.23991423918E+02 -0.17479541118E+02 -0.11644750413E+02  0.31886094014E+02  0.00000000000E+00 0. -1.
         11    1    3    3    0    0  0.59313261814E+01  0.12839855853E+02 -0.15640715166E+01  0.14229857644E+02  0.51100000000E-03 0. -1.
        -11    1    3    3    0    0 -0.11898687364E+02  0.32433766619E+01  0.80148852472E-01  0.12333072499E+02  0.51100000000E-03 0.  1.
        -12    1    3    3    0    0  0.29958785101E+02  0.13963086031E+01  0.13128673077E+02  0.32738975842E+02  0.00000000000E+00 0.  1.
</event>
<event>
 7    1  0.3461631E-013  0.5930194E+02  0.7816164E-02  0.1266605E+00
        -11   -1    0    0    0    0  0.00000000000E+00  0.00000000000E+00  0.45593999997E+02  0.45594000000E+02  0.51100000000E-03 0. -1.
         11   -1    0    0    0    0 -0.00000000000E+00 -0.00000000000E+00 -0.45593999997E+02  0.45594000000E+02  0.51100000000E-03 0.  1.
    9900012    2    1    2    0    0  0.22689369154E+01 -0.35227810763E+01 -0.31609540543E+02  0.59301935418E+02  0.49999984297E+02 0.  0.
         12    1    1    2    0    0 -0.22689369154E+01  0.35227810763E+01  0.31609540543E+02  0.31886064582E+02  0.00000000000E+00 0. -1.
         11    1    3    3    0    0  0.53317137084E+00  0.54589078078E+01 -0.21585782577E+01  0.58943537832E+01  0.51100000000E-03 0. -1.
        -11    1    3    3    0    0  0.16808019026E+02  0.66924354878E+01 -0.17277700525E+01  0.18173700392E+02  0.51100000000E-03 0.  1.
         12    1    3    3    0    0 -0.15072253481E+02 -0.15674124372E+02 -0.27723192232E+02  0.35233881242E+02  0.00000000000E+00 0. -1.
</event>
<event>
 7    1  0.3461631E-013  0.5930188E+02  0.7816164E-02  0.1266605E+00
        -11   -1    0    0    0    0  0.00000000000E+00  0.00000000000E+00  0.45593999997E+02  0.45594000000E+02  0.51100000000E-03 0.  1.
         11   -1    0    0    0    0 -0.00000000000E+00 -0.00000000000E+00 -0.45593999997E+02  0.45594000000E+02  0.51100000000E-03 0. -1.
    9900012    2    1    2    0    0 -0.48424520704E+01 -0.28908418549E+02  0.12553042325E+02  0.59301876425E+02  0.49999876709E+02 0.  0.
         12    1    1    2    0    0  0.48424520704E+01  0.28908418549E+02 -0.12553042325E+02  0.31886123575E+02  0.00000000000E+00 0. -1.
         11    1    3    3    0    0  0.12422407298E+02 -0.16846194546E+01 -0.57755572101E+01  0.13802579727E+02  0.51100000000E-03 0. -1.
        -11    1    3    3    0    0  0.18211735958E-01 -0.22733396689E+02  0.15261220703E+02  0.27380878625E+02  0.51100000000E-03 0.  1.
        -12    1    3    3    0    0 -0.17283071104E+02 -0.44904024053E+01  0.30673788316E+01  0.18118418073E+02  0.00000000000E+00 0.  1.
</event>
<event>
 7    1  0.3461631E-013  0.5930191E+02  0.7816164E-02  0.1266605E+00
        -11   -1    0    0    0    0  0.00000000000E+00  0.00000000000E+00  0.45593999997E+02  0.45594000000E+02  0.51100000000E-03 0. -1.
         11   -1    0    0    0    0 -0.00000000000E+00 -0.00000000000E+00 -0.45593999997E+02  0.45594000000E+02  0.51100000000E-03 0.  1.
    9900012    2    1    2    0    0 -0.79546039920E+01 -0.13003895325E+02 -0.28006178450E+02  0.59301905074E+02  0.49999928958E+02 0.  0.
         12    1    1    2    0    0  0.79546039920E+01  0.13003895325E+02  0.28006178450E+02  0.31886094926E+02  0.00000000000E+00 0. -1.
         11    1    3    3    0    0  0.56858294476E+01 -0.11999901435E+02 -0.17387802205E+01  0.13392148740E+02  0.51100000000E-03 0. -1.
        -11    1    3    3    0    0  0.49658801403E+01  0.54042462214E+01 -0.25150121652E+02  0.26199130943E+02  0.51100000000E-03 0.  1.
        -12    1    3    3    0    0 -0.18606313580E+02 -0.64082401107E+01 -0.11172765770E+01  0.19710625391E+02  0.00000000000E+00 0.  1.
</event>
<event>
 7    1  0.3461631E-013  0.5930194E+02  0.7816164E-02  0.1266605E+00
        -11   -1    0    0    0    0  0.00000000000E+00  0.00000000000E+00  0.45593999997E+02  0.45594000000E+02  0.51100000000E-03 0.  1.
         11   -1    0    0    0    0 -0.00000000000E+00 -0.00000000000E+00 -0.45593999997E+02  0.45594000000E+02  0.51100000000E-03 0. -1.
    9900012    2    1    2    0    0 -0.18094651965E+01 -0.14989394784E+02  0.28084951983E+02  0.59301942731E+02  0.49999997634E+02 0.  0.
         12    1    1    2    0    0  0.18094651965E+01  0.14989394784E+02 -0.28084951983E+02  0.31886057269E+02  0.00000000000E+00 0. -1.
         11    1    3    3    0    0 -0.82164455815E+01 -0.31228577197E+00  0.63446035272E+01  0.10385638862E+02  0.51100000000E-03 0. -1.
        -11    1    3    3    0    0 -0.87122937595E+00 -0.98444459579E+01  0.33123811051E+02  0.34566732788E+02  0.51100000000E-03 0.  1.
         12    1    3    3    0    0  0.72782097610E+01 -0.48326630545E+01 -0.11383462595E+02  0.14349571080E+02  0.00000000000E+00 0. -1.
</event>
<event>
 7    1  0.3461631E-013  0.5930194E+02  0.7816164E-02  0.1266605E+00
        -11   -1    0    0    0    0  0.00000000000E+00  0.00000000000E+00  0.45593999997E+02  0.45594000000E+02  0.51100000000E-03 0. -1.
         11   -1    0    0    0    0 -0.00000000000E+00 -0.00000000000E+00 -0.45593999997E+02  0.45594000000E+02  0.51100000000E-03 0.  1.
    9900012    2    1    2    0    0 -0.32451064035E+01 -0.19733845116E+02 -0.24834757005E+02  0.59301944833E+02  0.50000001468E+02 0.  0.
         12    1    1    2    0    0  0.32451064035E+01  0.19733845116E+02  0.24834757005E+02  0.31886055167E+02  0.00000000000E+00 0. -1.
         11    1    3    3    0    0  0.21823724821E+01 -0.91350935441E+01  0.38130294615E+01  0.10136660083E+02  0.51100000000E-03 0. -1.
        -11    1    3    3    0    0 -0.10896654728E+02 -0.23516907187E+02 -0.18070243210E+02  0.31596134223E+02  0.51100000000E-03 0.  1.
        -12    1    3    3    0    0  0.54691758422E+01  0.12918155615E+02 -0.10577543256E+02  0.17569150526E+02  0.00000000000E+00 0.  1.
</event>
<event>
 7    1  0.3461631E-013  0.5930195E+02  0.7816164E-02  0.1266605E+00
        -11   -1    0    0    0    0  0.00000000000E+00  0.00000000000E+00  0.45593999997E+02  0.45594000000E+02  0.51100000000E-03 0.  1.
         11   -1    0    0    0    0 -0.00000000000E+00 -0.00000000000E+00 -0.45593999997E+02  0.45594000000E+02  0.51100000000E-03 0. -1.
    9900012    2    1    2    0    0  0.26417603852E+02  0.13383000565E+02 -0.11820551403E+02  0.59301953947E+02  0.50000018091E+02 0.  0.
         12    1    1    2    0    0 -0.26417603852E+02 -0.13383000565E+02  0.11820551403E+02  0.31886046053E+02  0.00000000000E+00 0. -1.
         11    1    3    3    0    0  0.13737207220E+02  0.61983019439E+01 -0.16252750836E+02  0.22164875799E+02  0.51100000000E-03 0. -1.
        -11    1    3    3    0    0  0.91637596734E+01  0.10046373477E+02 -0.13188107957E+02  0.18942816663E+02  0.51100000000E-03 0.  1.
        -12    1    3    3    0    0  0.35166369588E+01 -0.28616748560E+01  0.17620307390E+02  0.18194261485E+02  0.00000000000E+00 0.  1.
</event>
<event>
 7    1  0.3461631E-013  0.5930196E+02  0.7816164E-02  0.1266605E+00
        -11   -1    0    0    0    0  0.00000000000E+00  0.00000000000E+00  0.45593999997E+02  0.45594000000E+02  0.51100000000E-03 0.  1.
         11   -1    0    0    0    0 -0.00000000000E+00 -0.00000000000E+00 -0.45593999997E+02  0.45594000000E+02  0.51100000000E-03 0. -1.
    9900012    2    1    2    0    0  0.24189114697E+02  0.75220909969E+00  0.20761510327E+02  0.59301962312E+02  0.50000033346E+02 0.  0.
         12    1    1    2    0    0 -0.24189114697E+02 -0.75220909969E+00 -0.20761510327E+02  0.31886037688E+02  0.00000000000E+00 0. -1.
         11    1    3    3    0    0  0.15268766669E+02 -0.58508597145E+01 -0.54895640963E+01  0.17248278443E+02  0.51100000000E-03 0. -1.
        -11    1    3    3    0    0 -0.11231394727E+02  0.29194379891E+01  0.53200575846E+01  0.12765984437E+02  0.51100000000E-03 0.  1.
        -12    1    3    3    0    0  0.20151742755E+02  0.36836308251E+01  0.20931016839E+02  0.29287699432E+02  0.00000000000E+00 0.  1.
</event>
<event>
 7    1  0.3461631E-013  0.5930192E+02  0.7816164E-02  0.1266605E+00
        -11   -1    0    0    0    0  0.00000000000E+00  0.00000000000E+00  0.45593999997E+02  0.45594000000E+02  0.51100000000E-03 0.  1.
         11   -1    0    0    0    0 -0.00000000000E+00 -0.00000000000E+00 -0.45593999997E+02  0.45594000000E+02  0.51100000000E-03 0. -1.
    9900012    2    1    2    0    0 -0.10039617027E+02  0.16441571990E+02  0.25408713956E+02  0.59301922404E+02  0.49999960563E+02 0.  0.
         12    1    1    2    0    0  0.10039617027E+02 -0.16441571990E+02 -0.25408713956E+02  0.31886077596E+02  0.00000000000E+00 0. -1.
         11    1    3    3    0    0  0.54066494353E+01  0.55009114947E+00  0.63147471979E+00  0.54711259327E+01  0.51100000000E-03 0. -1.
        -11    1    3    3    0    0 -0.16116744757E+02  0.55937798964E+01  0.35229410907E+02  0.39142703384E+02  0.51100000000E-03 0.  1.
         12    1    3    3    0    0  0.67047829411E+00  0.10297700945E+02 -0.10452171671E+02  0.14688093087E+02  0.00000000000E+00 0. -1.
</event>
<event>
 7    1  0.3461631E-013  0.5930198E+02  0.7816164E-02  0.1266605E+00
        -11   -1    0    0    0    0  0.00000000000E+00  0.00000000000E+00  0.45593999997E+02  0.45594000000E+02  0.51100000000E-03 0. -1.
         11   -1    0    0    0    0 -0.00000000000E+00 -0.00000000000E+00 -0.45593999997E+02  0.45594000000E+02  0.51100000000E-03 0.  1.
    9900012    2    1    2    0    0 -0.15108985157E+02 -0.28078388373E+02 -0.20263576113E+00  0.59301978182E+02  0.50000062289E+02 0.  0.
         12    1    1    2    0    0  0.15108985157E+02  0.28078388373E+02  0.20263576113E+00  0.31886021818E+02  0.00000000000E+00 0. -1.
         11    1    3    3    0    0 -0.20836251104E+02 -0.10794362899E+02 -0.92440638226E+01  0.25221426341E+02  0.51100000000E-03 0. -1.
        -11    1    3    3    0    0  0.58759097089E+01  0.17294718778E+01 -0.69298391224E+01  0.92487868614E+01  0.51100000000E-03 0.  1.
         12    1    3    3    0    0 -0.14864376190E+00 -0.19013497352E+02  0.15971267184E+02  0.24831764980E+02  0.00000000000E+00 0. -1.
</event>
<event>
 7    1  0.3461631E-013  0.5930195E+02  0.7816164E-02  0.1266605E+00
        -11   -1    0    0    0    0  0.00000000000E+00  0.00000000000E+00  0.45593999997E+02  0.45594000000E+02  0.51100000000E-03 0. -1.
         11   -1    0    0    0    0 -0.00000000000E+00 -0.00000000000E+00 -0.45593999997E+02  0.45594000000E+02  0.51100000000E-03 0.  1.
    9900012    2    1    2    0    0 -0.28746160463E+02  0.42477372150E+01 -0.13127652221E+02  0.59301948729E+02  0.50000008574E+02 0.  0.
         12    1    1    2    0    0  0.28746160463E+02 -0.42477372150E+01  0.13127652221E+02  0.31886051271E+02  0.00000000000E+00 0. -1.
         11    1    3    3    0    0  0.43050932785E+00 -0.37868978263E+01  0.98873653618E-01  0.38125725815E+01  0.51100000000E-03 0. -1.
        -11    1    3    3    0    0  0.11470151374E+02 -0.12887343461E+01 -0.65038471303E+01  0.13248593756E+02  0.51100000000E-03 0.  1.
         12    1    3    3    0    0 -0.40646821165E+02  0.93233693874E+01 -0.67226787444E+01  0.42240782392E+02  0.00000000000E+00 0. -1.
</event>
<event>
 7    1  0.3461631E-013  0.5930189E+02  0.7816164E-02  0.1266605E+00
        -11   -1    0    0    0    0  0.00000000000E+00  0.00000000000E+00  0.45593999997E+02  0.45594000000E+02  0.51100000000E-03 0.  1.
         11   -1    0    0    0    0 -0.00000000000E+00 -0.00000000000E+00 -0.45593999997E+02  0.45594000000E+02  0.51100000000E-03 0. -1.
    9900012    2    1    2    0    0 -0.19084388877E+02  0.23330277827E+02  0.10402325194E+02  0.59301888106E+02  0.49999898012E+02 0.  0.
         12    1    1    2    0    0  0.19084388877E+02 -0.23330277827E+02 -0.10402325194E+02  0.31886111894E+02  0.00000000000E+00 0. -1.
         11    1    3    3    0    0 -0.14792286575E+02  0.32336505505E+01  0.91471813230E+01  0.17690086614E+02  0.51100000000E-03 0. -1.
        -11    1    3    3    0    0 -0.13495113962E+02  0.12119754087E+02  0.14790062123E+02  0.23404112413E+02  0.51100000000E-03 0.  1.
         12    1    3    3    0    0  0.92030116599E+01  0.79768731890E+01 -0.13534918252E+02  0.18207689079E+02  0.00000000000E+00 0. -1.
</event>
<event>
 7    1  0.3461631E-013  0.5930198E+02  0.7816164E-02  0.1266605E+00
        -11   -1    0    0    0    0  0.00000000000E+00  0.00000000000E+00  0.45593999997E+02  0.45594000000E+02  0.51100000000E-03 0.  1.
         11   -1    0    0    0    0 -0.00000000000E+00 -0.00000000000E+00 -0.45593999997E+02  0.45594000000E+02  0.51100000000E-03 0. -1.
    9900012    2    1    2    0    0 -0.15458703357E+02 -0.25466384499E+02  0.11367049196E+02  0.59301983372E+02  0.50000071755E+02 0.  0.
         12    1    1    2    0    0  0.15458703357E+02  0.25466384499E+02 -0.11367049196E+02  0.31886016628E+02  0.00000000000E+00 0. -1.
         11    1    3    3    0    0  0.11807268505E+01  0.69407872694E+00 -0.49258653622E+01  0.51127302884E+01  0.51100000000E-03 0. -1.
        -11    1    3    3    0    0  0.13891150491E+02 -0.62596711140E+01  0.49971631094E+01  0.16034936352E+02  0.51100000000E-03 0.  1.
         12    1    3    3    0    0 -0.30530580699E+02 -0.19900792112E+02  0.11295751449E+02  0.38154316732E+02  0.00000000000E+00 0. -1.
</event>
<event>
 7    1  0.3461631E-013  0.5930192E+02  0.7816164E-02  0.1266605E+00
        -11   -1    0    0    0    0  0.00000000000E+00  0.00000000000E+00  0.45593999997E+02  0.45594000000E+02  0.51100000000E-03 0.  1.
         11   -1    0    0    0    0 -0.00000000000E+00 -0.00000000000E+00 -0.45593999997E+02  0.45594000000E+02  0.51100000000E-03 0. -1.
    9900012    2    1    2    0    0 -0.16256864709E+02  0.14178013383E+02  0.23482341436E+02  0.59301920389E+02  0.49999956889E+02 0.  0.
         12    1    1    2    0    0  0.16256864709E+02 -0.14178013383E+02 -0.23482341436E+02  0.31886079611E+02  0.00000000000E+00 0. -1.
         11    1    3    3    0    0 -0.91141800401E+01  0.14540350524E+02  0.69195898609E+01  0.18503264449E+02  0.51100000000E-03 0.  1.
        -11    1    3    3    0    0  0.32101082104E+01  0.12961583813E+02 -0.42427834517E+01  0.14011019283E+02  0.51100000000E-03 0. -1.
        -12    1    3    3    0    0 -0.10352792879E+02 -0.13323920954E+02  0.20805535026E+02  0.26787636658E+02  0.00000000000E+00 0.  1.
</event>
<event>
 7    1  0.3461631E-013  0.5930194E+02  0.7816164E-02  0.1266605E+00
        -11   -1    0    0    0    0  0.00000000000E+00  0.00000000000E+00  0.45593999997E+02  0.45594000000E+02  0.51100000000E-03 0. -1.
         11   -1    0    0    0    0 -0.00000000000E+00 -0.00000000000E+00 -0.45593999997E+02  0.45594000000E+02  0.51100000000E-03 0.  1.
    9900012    2    1    2    0    0 -0.22752760763E+02 -0.20105082702E+02  0.97374608539E+01  0.59301943225E+02  0.49999998536E+02 0.  0.
         12    1    1    2    0    0  0.22752760763E+02  0.20105082702E+02 -0.97374608539E+01  0.31886056775E+02  0.00000000000E+00 0. -1.
         11    1    3    3    0    0 -0.25167906391E+02 -0.46215758394E+01  0.15926422603E+02  0.30140229139E+02  0.51100000000E-03 0. -1.
        -11    1    3    3    0    0 -0.73907907132E+01  0.26654312271E+01 -0.20870960541E+01  0.81292238986E+01  0.51100000000E-03 0.  1.
         12    1    3    3    0    0  0.98059363413E+01 -0.18148938090E+02 -0.41018656952E+01  0.21032490188E+02  0.00000000000E+00 0. -1.
</event>
<event>
 7    1  0.3461631E-013  0.5930194E+02  0.7816164E-02  0.1266605E+00
        -11   -1    0    0    0    0  0.00000000000E+00  0.00000000000E+00  0.45593999997E+02  0.45594000000E+02  0.51100000000E-03 0.  1.
         11   -1    0    0    0    0 -0.00000000000E+00 -0.00000000000E+00 -0.45593999997E+02  0.45594000000E+02  0.51100000000E-03 0. -1.
    9900012    2    1    2    0    0  0.28417666600E+02 -0.11941183899E+02  0.81587480166E+01  0.59301940082E+02  0.49999992804E+02 0.  0.
         12    1    1    2    0    0 -0.28417666600E+02  0.11941183899E+02 -0.81587480166E+01  0.31886059918E+02  0.00000000000E+00 0. -1.
         11    1    3    3    0    0 -0.27145390097E+01  0.34274734004E+01 -0.43278464228E+01  0.61519550442E+01  0.51100000000E-03 0. -1.
        -11    1    3    3    0    0 -0.21718231097E+00  0.75045074461E+01 -0.65155123993E+01  0.99406590451E+01  0.51100000000E-03 0.  1.
        -12    1    3    3    0    0  0.31349387920E+02 -0.22873164745E+02  0.19002106839E+02  0.43209325993E+02  0.00000000000E+00 0.  1.
</event>
<event>
 7    1  0.3461631E-013  0.5930192E+02  0.7816164E-02  0.1266605E+00
        -11   -1    0    0    0    0  0.00000000000E+00  0.00000000000E+00  0.45593999997E+02  0.45594000000E+02  0.51100000000E-03 0. -1.
         11   -1    0    0    0    0 -0.00000000000E+00 -0.00000000000E+00 -0.45593999997E+02  0.45594000000E+02  0.51100000000E-03 0.  1.
    9900012    2    1    2    0    0  0.38746457231E+00 -0.45609669568E+01 -0.31555812842E+02  0.59301923532E+02  0.49999962621E+02 0.  0.
         12    1    1    2    0    0 -0.38746457231E+00  0.45609669568E+01  0.31555812842E+02  0.31886076468E+02  0.00000000000E+00 0. -1.
         11    1    3    3    0    0 -0.12859937817E+02 -0.44275825292E+01 -0.38139384273E+02  0.40491901915E+02  0.51100000000E-03 0.  1.
        -11    1    3    3    0    0 -0.10772928802E+01 -0.84591524016E+00  0.40113870971E+01  0.42387921921E+01  0.51100000000E-03 0. -1.
        -12    1    3    3    0    0  0.14324695269E+02  0.71253081256E+00  0.25721843331E+01  0.14571229425E+02  0.00000000000E+00 0.  1.
</event>
<event>
 7    1  0.3461631E-013  0.5930195E+02  0.7816164E-02  0.1266605E+00
        -11   -1    0    0    0    0  0.00000000000E+00  0.00000000000E+00  0.45593999997E+02  0.45594000000E+02  0.51100000000E-03 0.  1.
         11   -1    0    0    0    0 -0.00000000000E+00 -0.00000000000E+00 -0.45593999997E+02  0.45594000000E+02  0.51100000000E-03 0. -1.
    9900012    2    1    2    0    0 -0.23818357165E+02 -0.54536110289E+01  0.20485704246E+02  0.59301951487E+02  0.50000013605E+02 0.  0.
         12    1    1    2    0    0  0.23818357165E+02  0.54536110289E+01 -0.20485704246E+02  0.31886048513E+02  0.00000000000E+00 0. -1.
         11    1    3    3    0    0 -0.13355612594E+02 -0.96129457437E+00  0.62724418944E+01  0.14786480399E+02  0.51100000000E-03 0. -1.
        -11    1    3    3    0    0 -0.11199392489E+02  0.14346112410E+02  0.17649143117E+02  0.25352112070E+02  0.51100000000E-03 0.  1.
         12    1    3    3    0    0  0.73664791737E+00 -0.18838428864E+02 -0.34358807659E+01  0.19163359018E+02  0.00000000000E+00 0. -1.
</event>
<event>
 7    1  0.3461631E-013  0.5930193E+02  0.7816164E-02  0.1266605E+00
        -11   -1    0    0    0    0  0.00000000000E+00  0.00000000000E+00  0.45593999997E+02  0.45594000000E+02  0.51100000000E-03 0.  1.
         11   -1    0    0    0    0 -0.00000000000E+00 -0.00000000000E+00 -0.45593999997E+02  0.45594000000E+02  0.51100000000E-03 0. -1.
    9900012    2    1    2    0    0 -0.12933931839E+02 -0.28979131930E+02 -0.31056164444E+01  0.59301928845E+02  0.49999972310E+02 0.  0.
         12    1    1    2    0    0  0.12933931839E+02  0.28979131930E+02  0.31056164444E+01  0.31886071155E+02  0.00000000000E+00 0. -1.
         11    1    3    3    0    0  0.18804969913E+01  0.39489916431E+01 -0.65087182603E+01  0.78418248886E+01  0.51100000000E-03 0. -1.
        -11    1    3    3    0    0 -0.20318563868E+02 -0.85077091962E+01 -0.86639541369E+01  0.23670429970E+02  0.51100000000E-03 0.  1.
         12    1    3    3    0    0  0.55041350380E+01 -0.24420414377E+02  0.12067055953E+02  0.27789673986E+02  0.00000000000E+00 0. -1.
</event>
<event>
 7    1  0.3461631E-013  0.5930193E+02  0.7816164E-02  0.1266605E+00
        -11   -1    0    0    0    0  0.00000000000E+00  0.00000000000E+00  0.45593999997E+02  0.45594000000E+02  0.51100000000E-03 0. -1.
         11   -1    0    0    0    0 -0.00000000000E+00 -0.00000000000E+00 -0.45593999997E+02  0.45594000000E+02  0.51100000000E-03 0.  1.
    9900012    2    1    2    0    0  0.93849349859E+00  0.11665917244E+02 -0.29660531774E+02  0.59301928742E+02  0.49999972122E+02 0.  0.
         12    1    1    2    0    0 -0.93849349859E+00 -0.11665917244E+02  0.29660531774E+02  0.31886071258E+02  0.00000000000E+00 0. -1.
         11    1    3    3    0    0 -0.16501728192E+02  0.72441024340E+01 -0.12157759391E+02  0.21739254060E+02  0.51100000000E-03 0. -1.
        -11    1    3    3    0    0  0.59456705288E+01 -0.93585253168E+01 -0.16119384119E+02  0.19564445782E+02  0.51100000000E-03 0.  1.
         12    1    3    3    0    0  0.11494551162E+02  0.13780340127E+02 -0.13833882637E+01  0.17998228900E+02  0.00000000000E+00 0. -1.
</event>
<event>
 7    1  0.3461631E-013  0.5930198E+02  0.7816164E-02  0.1266605E+00
        -11   -1    0    0    0    0  0.00000000000E+00  0.00000000000E+00  0.45593999997E+02  0.45594000000E+02  0.51100000000E-03 0. -1.
         11   -1    0    0    0    0 -0.00000000000E+00 -0.00000000000E+00 -0.45593999997E+02  0.45594000000E+02  0.51100000000E-03 0.  1.
    9900012    2    1    2    0    0 -0.19941533628E+02 -0.17850805673E+02 -0.17332119899E+02  0.59301977877E+02  0.50000061733E+02 0.  0.
         12    1    1    2    0    0  0.19941533628E+02  0.17850805673E+02  0.17332119899E+02  0.31886022123E+02  0.00000000000E+00 0. -1.
         11    1    3    3    0    0 -0.11552323152E+02 -0.15304380297E+02  0.60671153578E+01  0.20111939625E+02  0.51100000000E-03 0. -1.
        -11    1    3    3    0    0 -0.78540402056E+01 -0.38516693695E+01  0.54498948759E+01  0.10306437741E+02  0.51100000000E-03 0.  1.
        -12    1    3    3    0    0 -0.53517027113E+00  0.13052439929E+01 -0.28849130132E+02  0.28883600511E+02  0.00000000000E+00 0.  1.
</event>
<event>
 7    1  0.3461631E-013  0.5930194E+02  0.7816164E-02  0.1266605E+00
        -11   -1    0    0    0    0  0.00000000000E+00  0.00000000000E+00  0.45593999997E+02  0.45594000000E+02  0.51100000000E-03 0.  1.
         11   -1    0    0    0    0 -0.00000000000E+00 -0.00000000000E+00 -0.45593999997E+02  0.45594000000E+02  0.51100000000E-03 0. -1.
    9900012    2    1    2    0    0 -0.16393030798E+01 -0.12028156971E+02  0.29484859211E+02  0.59301940391E+02  0.49999993367E+02 0.  0.
         12    1    1    2    0    0  0.16393030798E+01  0.12028156971E+02 -0.29484859211E+02  0.31886059609E+02  0.00000000000E+00 0. -1.
         11    1    3    3    0    0  0.10449038138E+02  0.16604389187E+01  0.20342139220E+02  0.22929066351E+02  0.51100000000E-03 0. -1.
        -11    1    3    3    0    0  0.88227191299E+00 -0.83517013874E+01  0.17945677282E+02  0.19813547213E+02  0.51100000000E-03 0.  1.
         12    1    3    3    0    0 -0.12970613131E+02 -0.53368945019E+01 -0.88029572906E+01  0.16559326827E+02  0.00000000000E+00 0. -1.
</event>
<event>
 7    1  0.3461631E-013  0.5930184E+02  0.7816164E-02  0.1266605E+00
        -11   -1    0    0    0    0  0.00000000000E+00  0.00000000000E+00  0.45593999997E+02  0.45594000000E+02  0.51100000000E-03 0. -1.
         11   -1    0    0    0    0 -0.00000000000E+00 -0.00000000000E+00 -0.45593999997E+02  0.45594000000E+02  0.51100000000E-03 0.  1.
    9900012    2    1    2    0    0  0.32941914590E+01 -0.31614813886E+02 -0.25257335140E+01  0.59301835536E+02  0.49999802137E+02 0.  0.
         12    1    1    2    0    0 -0.32941914590E+01  0.31614813886E+02  0.25257335140E+01  0.31886164464E+02  0.00000000000E+00 0. -1.
         11    1    3    3    0    0 -0.22463676248E+01 -0.84966962746E+01  0.17838767498E+02  0.19886217367E+02  0.51100000000E-03 0. -1.
        -11    1    3    3    0    0  0.13544407999E+02 -0.61823545943E+01 -0.10722494097E+02  0.18347871166E+02  0.51100000000E-03 0.  1.
        -12    1    3    3    0    0 -0.80038489157E+01 -0.16935763017E+02 -0.96420069146E+01  0.21067747003E+02  0.00000000000E+00 0.  1.
</event>
<event>
 7    1  0.3461631E-013  0.5930193E+02  0.7816164E-02  0.1266605E+00
        -11   -1    0    0    0    0  0.00000000000E+00  0.00000000000E+00  0.45593999997E+02  0.45594000000E+02  0.51100000000E-03 0. -1.
         11   -1    0    0    0    0 -0.00000000000E+00 -0.00000000000E+00 -0.45593999997E+02  0.45594000000E+02  0.51100000000E-03 0.  1.
    9900012    2    1    2    0    0  0.14289288079E+02  0.26349019159E+02 -0.10875045696E+02  0.59301934339E+02  0.49999982330E+02 0.  0.
         12    1    1    2    0    0 -0.14289288079E+02 -0.26349019159E+02  0.10875045696E+02  0.31886065661E+02  0.00000000000E+00 0. -1.
         11    1    3    3    0    0 -0.53393980245E+00 -0.74301018945E+01 -0.16120213293E+02  0.17758175096E+02  0.51100000000E-03 0. -1.
        -11    1    3    3    0    0  0.45435795124E+01  0.20845360266E+02 -0.52493865173E+01  0.21971099619E+02  0.51100000000E-03 0.  1.
        -12    1    3    3    0    0  0.10279648369E+02  0.12933760787E+02  0.10494554114E+02  0.19572659624E+02  0.00000000000E+00 0.  1.
</event>
<event>
 7    1  0.3461631E-013  0.5930194E+02  0.7816164E-02  0.1266605E+00
        -11   -1    0    0    0    0  0.00000000000E+00  0.00000000000E+00  0.45593999997E+02  0.45594000000E+02  0.51100000000E-03 0. -1.
         11   -1    0    0    0    0 -0.00000000000E+00 -0.00000000000E+00 -0.45593999997E+02  0.45594000000E+02  0.51100000000E-03 0.  1.
    9900012    2    1    2    0    0  0.88764511028E+01 -0.27525215402E+02 -0.13427278270E+02  0.59301942406E+02  0.49999997043E+02 0.  0.
         12    1    1    2    0    0 -0.88764511028E+01  0.27525215402E+02  0.13427278270E+02  0.31886057594E+02  0.00000000000E+00 0. -1.
         11    1    3    3    0    0  0.68579404286E+01  0.86273362440E+01  0.47777613509E+01  0.12012047343E+02  0.51100000000E-03 0. -1.
        -11    1    3    3    0    0 -0.85074695138E+01 -0.61717631649E+01  0.30865452076E+00  0.10514892580E+02  0.51100000000E-03 0.  1.
         12    1    3    3    0    0  0.10525980188E+02 -0.29980788481E+02 -0.18513694142E+02  0.36775002483E+02  0.00000000000E+00 0. -1.
</event>
<event>
 7    1  0.3461631E-013  0.5930196E+02  0.7816164E-02  0.1266605E+00
        -11   -1    0    0    0    0  0.00000000000E+00  0.00000000000E+00  0.45593999997E+02  0.45594000000E+02  0.51100000000E-03 0.  1.
         11   -1    0    0    0    0 -0.00000000000E+00 -0.00000000000E+00 -0.45593999997E+02  0.45594000000E+02  0.51100000000E-03 0. -1.
    9900012    2    1    2    0    0  0.72768232100E+01  0.29422693504E+02  0.99031531415E+01  0.59301960873E+02  0.50000030722E+02 0.  0.
         12    1    1    2    0    0 -0.72768232100E+01 -0.29422693504E+02 -0.99031531415E+01  0.31886039127E+02  0.00000000000E+00 0. -1.
         11    1    3    3    0    0  0.70640762915E+01  0.33776698965E+01 -0.17271470436E+02  0.18963478559E+02  0.51100000000E-03 0. -1.
        -11    1    3    3    0    0  0.60181186125E+01  0.55519811547E+01  0.10340672280E+02  0.13189835095E+02  0.51100000000E-03 0.  1.
        -12    1    3    3    0    0 -0.58053716940E+01  0.20493042453E+02  0.16833951298E+02  0.27148647218E+02  0.00000000000E+00 0.  1.
</event>
<event>
 7    1  0.3461631E-013  0.5930195E+02  0.7816164E-02  0.1266605E+00
        -11   -1    0    0    0    0  0.00000000000E+00  0.00000000000E+00  0.45593999997E+02  0.45594000000E+02  0.51100000000E-03 0. -1.
         11   -1    0    0    0    0 -0.00000000000E+00 -0.00000000000E+00 -0.45593999997E+02  0.45594000000E+02  0.51100000000E-03 0.  1.
    9900012    2    1    2    0    0 -0.11307087805E+02 -0.29811990650E+02  0.33920105853E+00  0.59301951664E+02  0.50000013926E+02 0.  0.
         12    1    1    2    0    0  0.11307087805E+02  0.29811990650E+02 -0.33920105853E+00  0.31886048336E+02  0.00000000000E+00 0. -1.
         11    1    3    3    0    0 -0.11871195824E+02 -0.33674917914E+02  0.61679232045E+01  0.36234909463E+02  0.51100000000E-03 0.  1.
        -11    1    3    3    0    0  0.74008435055E+00 -0.28488590623E+01 -0.12949663603E+02  0.13279966509E+02  0.51100000000E-03 0. -1.
        -12    1    3    3    0    0 -0.17597633180E+00  0.67117863268E+01  0.71209414567E+01  0.97870756918E+01  0.00000000000E+00 0.  1.
</event>
<event>
 7    1  0.3461631E-013  0.5930183E+02  0.7816164E-02  0.1266605E+00
        -11   -1    0    0    0    0  0.00000000000E+00  0.00000000000E+00  0.45593999997E+02  0.45594000000E+02  0.51100000000E-03 0. -1.
         11   -1    0    0    0    0 -0.00000000000E+00 -0.00000000000E+00 -0.45593999997E+02  0.45594000000E+02  0.51100000000E-03 0.  1.
    9900012    2    1    2    0    0 -0.23025127424E+02 -0.14930084283E+02 -0.16237731974E+02  0.59301829812E+02  0.49999791697E+02 0.  0.
         12    1    1    2    0    0  0.23025127424E+02  0.14930084283E+02  0.16237731974E+02  0.31886170188E+02  0.00000000000E+00 0. -1.
         11    1    3    3    0    0 -0.16493549177E+02 -0.17748422649E+02 -0.14845220924E+02  0.28415211693E+02  0.51100000000E-03 0. -1.
        -11    1    3    3    0    0  0.66238617964E+01  0.51601177207E+01 -0.11424088395E+02  0.14177875578E+02  0.51100000000E-03 0.  1.
         12    1    3    3    0    0 -0.13155440043E+02 -0.23417793547E+01  0.10031577345E+02  0.16708742541E+02  0.00000000000E+00 0. -1.
</event>
<event>
 7    1  0.3461631E-013  0.5930192E+02  0.7816164E-02  0.1266605E+00
        -11   -1    0    0    0    0  0.00000000000E+00  0.00000000000E+00  0.45593999997E+02  0.45594000000E+02  0.51100000000E-03 0.  1.
         11   -1    0    0    0    0 -0.00000000000E+00 -0.00000000000E+00 -0.45593999997E+02  0.45594000000E+02  0.51100000000E-03 0. -1.
    9900012    2    1    2    0    0 -0.19210284271E+02  0.14956275560E+02  0.20591182438E+02  0.59301921618E+02  0.49999959130E+02 0.  0.
         12    1    1    2    0    0  0.19210284271E+02 -0.14956275560E+02 -0.20591182438E+02  0.31886078382E+02  0.00000000000E+00 0. -1.
         11    1    3    3    0    0 -0.12875823044E+00  0.10879209991E+02  0.31067866607E+01  0.11314853615E+02  0.51100000000E-03 0. -1.
        -11    1    3    3    0    0  0.62075364189E+01  0.10539753561E+02 -0.53085578766E+01  0.13334192908E+02  0.51100000000E-03 0.  1.
         12    1    3    3    0    0 -0.25289062459E+02 -0.64626879913E+01  0.22792953654E+02  0.34652875096E+02  0.00000000000E+00 0. -1.
</event>
<event>
 7    1  0.3461631E-013  0.5930183E+02  0.7816164E-02  0.1266605E+00
        -11   -1    0    0    0    0  0.00000000000E+00  0.00000000000E+00  0.45593999997E+02  0.45594000000E+02  0.51100000000E-03 0.  1.
         11   -1    0    0    0    0 -0.00000000000E+00 -0.00000000000E+00 -0.45593999997E+02  0.45594000000E+02  0.51100000000E-03 0. -1.
    9900012    2    1    2    0    0 -0.18725724115E+02  0.45282806250E+01  0.25408065205E+02  0.59301829856E+02  0.49999791777E+02 0.  0.
         12    1    1    2    0    0  0.18725724115E+02 -0.45282806250E+01 -0.25408065205E+02  0.31886170144E+02  0.00000000000E+00 0. -1.
         11    1    3    3    0    0 -0.47490739232E+01 -0.57748213632E+01  0.21801042919E+01  0.77881396938E+01  0.51100000000E-03 0. -1.
        -11    1    3    3    0    0  0.10381208244E+01 -0.14354467783E+02  0.16454375895E+02  0.21860350558E+02  0.51100000000E-03 0.  1.
         12    1    3    3    0    0 -0.15014771016E+02  0.24657569771E+02  0.67735850182E+01  0.29653339604E+02  0.00000000000E+00 0. -1.
</event>
<event>
 7    1  0.3461631E-013  0.5930194E+02  0.7816164E-02  0.1266605E+00
        -11   -1    0    0    0    0  0.00000000000E+00  0.00000000000E+00  0.45593999997E+02  0.45594000000E+02  0.51100000000E-03 0. -1.
         11   -1    0    0    0    0 -0.00000000000E+00 -0.00000000000E+00 -0.45593999997E+02  0.45594000000E+02  0.51100000000E-03 0.  1.
    9900012    2    1    2    0    0  0.93841999885E+01 -0.23982075281E+02 -0.18802059641E+02  0.59301943628E+02  0.49999999272E+02 0.  0.
         12    1    1    2    0    0 -0.93841999885E+01  0.23982075281E+02  0.18802059641E+02  0.31886056372E+02  0.00000000000E+00 0. -1.
         11    1    3    3    0    0  0.49310884100E+01 -0.38480101720E+01 -0.61641692611E+01  0.87817878665E+01  0.51100000000E-03 0. -1.
        -11    1    3    3    0    0  0.82022149146E+00 -0.33631358381E+02 -0.14078593581E+02  0.36468449752E+02  0.51100000000E-03 0.  1.
         12    1    3    3    0    0  0.36328900870E+01  0.13497293272E+02  0.14407032008E+01  0.14051706010E+02  0.00000000000E+00 0. -1.
</event>
<event>
 7    1  0.3461631E-013  0.5930193E+02  0.7816164E-02  0.1266605E+00
        -11   -1    0    0    0    0  0.00000000000E+00  0.00000000000E+00  0.45593999997E+02  0.45594000000E+02  0.51100000000E-03 0. -1.
         11   -1    0    0    0    0 -0.00000000000E+00 -0.00000000000E+00 -0.45593999997E+02  0.45594000000E+02  0.51100000000E-03 0.  1.
    9900012    2    1    2    0    0  0.17525838567E+02  0.22676327780E+02 -0.13976776654E+02  0.59301934945E+02  0.49999983436E+02 0.  0.
         12    1    1    2    0    0 -0.17525838567E+02 -0.22676327780E+02  0.13976776654E+02  0.31886065055E+02  0.00000000000E+00 0. -1.
         11    1    3    3    0    0  0.52614879965E+01 -0.58771871104E+01  0.79172563981E+01  0.11176203890E+02  0.51100000000E-03 0. -1.
        -11    1    3    3    0    0  0.74881153671E+01  0.79997264347E+01  0.65067882928E+01  0.12743852986E+02  0.51100000000E-03 0.  1.
        -12    1    3    3    0    0  0.47762352030E+01  0.20553788455E+02 -0.28400821345E+02  0.35381878069E+02  0.00000000000E+00 0.  1.
</event>
<event>
 7    1  0.3461631E-013  0.5930195E+02  0.7816164E-02  0.1266605E+00
        -11   -1    0    0    0    0  0.00000000000E+00  0.00000000000E+00  0.45593999997E+02  0.45594000000E+02  0.51100000000E-03 0.  1.
         11   -1    0    0    0    0 -0.00000000000E+00 -0.00000000000E+00 -0.45593999997E+02  0.45594000000E+02  0.51100000000E-03 0. -1.
    9900012    2    1    2    0    0 -0.20316759962E+02  0.23985459516E+02 -0.53523105369E+01  0.59301949263E+02  0.50000009547E+02 0.  0.
         12    1    1    2    0    0  0.20316759962E+02 -0.23985459516E+02  0.53523105369E+01  0.31886050737E+02  0.00000000000E+00 0. -1.
         11    1    3    3    0    0 -0.21759125571E+02  0.12350508985E+02  0.45023920010E+01  0.25421765317E+02  0.51100000000E-03 0. -1.
        -11    1    3    3    0    0 -0.24935346990E+01  0.11299832860E+02  0.89727002809E+01  0.14642857937E+02  0.51100000000E-03 0.  1.
         12    1    3    3    0    0  0.39359003086E+01  0.33511767089E+00 -0.18827402819E+02  0.19237326010E+02  0.00000000000E+00 0. -1.
</event>
<event>
 7    1  0.3461631E-013  0.5930195E+02  0.7816164E-02  0.1266605E+00
        -11   -1    0    0    0    0  0.00000000000E+00  0.00000000000E+00  0.45593999997E+02  0.45594000000E+02  0.51100000000E-03 0.  1.
         11   -1    0    0    0    0 -0.00000000000E+00 -0.00000000000E+00 -0.45593999997E+02  0.45594000000E+02  0.51100000000E-03 0. -1.
    9900012    2    1    2    0    0  0.84035885122E+01 -0.25827651367E+02  0.16704266447E+02  0.59301946739E+02  0.50000004945E+02 0.  0.
         12    1    1    2    0    0 -0.84035885122E+01  0.25827651367E+02 -0.16704266447E+02  0.31886053261E+02  0.00000000000E+00 0. -1.
         11    1    3    3    0    0 -0.14234636348E+01  0.93408978166E+01  0.24271281135E+01  0.97554893204E+01  0.51100000000E-03 0. -1.
        -11    1    3    3    0    0  0.17119001457E+01  0.47913383125E+01  0.61273229109E+01  0.79643964774E+01  0.51100000000E-03 0.  1.
        -12    1    3    3    0    0  0.81151520013E+01 -0.39959887496E+02  0.81498154230E+01  0.41582060941E+02  0.00000000000E+00 0.  1.
</event>
<event>
 7    1  0.3461631E-013  0.5930195E+02  0.7816164E-02  0.1266605E+00
        -11   -1    0    0    0    0  0.00000000000E+00  0.00000000000E+00  0.45593999997E+02  0.45594000000E+02  0.51100000000E-03 0. -1.
         11   -1    0    0    0    0 -0.00000000000E+00 -0.00000000000E+00 -0.45593999997E+02  0.45594000000E+02  0.51100000000E-03 0.  1.
    9900012    2    1    2    0    0  0.30491482158E+02  0.19382436638E+01 -0.91232191473E+01  0.59301946618E+02  0.50000004724E+02 0.  0.
         12    1    1    2    0    0 -0.30491482158E+02 -0.19382436638E+01  0.91232191473E+01  0.31886053382E+02  0.00000000000E+00 0. -1.
         11    1    3    3    0    0 -0.52127608999E+01 -0.44138453289E+01 -0.44440300724E+01  0.81488839931E+01  0.51100000000E-03 0. -1.
        -11    1    3    3    0    0  0.18159604730E+02  0.19867573820E+02 -0.93964887026E+01  0.28509397287E+02  0.51100000000E-03 0.  1.
         12    1    3    3    0    0  0.17544638327E+02 -0.13515484828E+02  0.47172996277E+01  0.22643665338E+02  0.00000000000E+00 0. -1.
</event>
<event>
 7    1  0.3461631E-013  0.5930193E+02  0.7816164E-02  0.1266605E+00
        -11   -1    0    0    0    0  0.00000000000E+00  0.00000000000E+00  0.45593999997E+02  0.45594000000E+02  0.51100000000E-03 0.  1.
         11   -1    0    0    0    0 -0.00000000000E+00 -0.00000000000E+00 -0.45593999997E+02  0.45594000000E+02  0.51100000000E-03 0. -1.
    9900012    2    1    2    0    0  0.31345126266E+02  0.41143085970E+01 -0.41565797654E+01  0.59301927316E+02  0.49999969522E+02 0.  0.
         12    1    1    2    0    0 -0.31345126266E+02 -0.41143085970E+01  0.41565797654E+01  0.31886072684E+02  0.00000000000E+00 0. -1.
         11    1    3    3    0    0  0.33830813507E+01  0.12842237788E+02 -0.43296934039E+01  0.13968341207E+02  0.51100000000E-03 0. -1.
        -11    1    3    3    0    0  0.83945296887E+01 -0.20547310732E+01 -0.16597452302E+02  0.18712708828E+02  0.51100000000E-03 0.  1.
        -12    1    3    3    0    0  0.19567515227E+02 -0.66731981179E+01  0.16770565941E+02  0.26620877282E+02  0.00000000000E+00 0.  1.
</event>
<event>
 7    1  0.3461631E-013  0.5930196E+02  0.7816164E-02  0.1266605E+00
        -11   -1    0    0    0    0  0.00000000000E+00  0.00000000000E+00  0.45593999997E+02  0.45594000000E+02  0.51100000000E-03 0. -1.
         11   -1    0    0    0    0 -0.00000000000E+00 -0.00000000000E+00 -0.45593999997E+02  0.45594000000E+02  0.51100000000E-03 0.  1.
    9900012    2    1    2    0    0 -0.28455325290E+02 -0.13312501723E+02  0.54581321837E+01  0.59301961575E+02  0.50000032002E+02 0.  0.
         12    1    1    2    0    0  0.28455325290E+02  0.13312501723E+02 -0.54581321837E+01  0.31886038425E+02  0.00000000000E+00 0. -1.
         11    1    3    3    0    0 -0.80728581075E+00  0.72286463774E+01  0.42415844932E+01  0.84199808850E+01  0.51100000000E-03 0. -1.
        -11    1    3    3    0    0 -0.99700805940E+01 -0.22786353421E+00 -0.16048117735E+02  0.18894351324E+02  0.51100000000E-03 0.  1.
        -12    1    3    3    0    0 -0.17677958885E+02 -0.20313284566E+02  0.17264665426E+02  0.31987629366E+02  0.00000000000E+00 0.  1.
</event>
<event>
 7    1  0.3461631E-013  0.5930194E+02  0.7816164E-02  0.1266605E+00
        -11   -1    0    0    0    0  0.00000000000E+00  0.00000000000E+00  0.45593999997E+02  0.45594000000E+02  0.51100000000E-03 0. -1.
         11   -1    0    0    0    0 -0.00000000000E+00 -0.00000000000E+00 -0.45593999997E+02  0.45594000000E+02  0.51100000000E-03 0.  1.
    9900012    2    1    2    0    0  0.21168693629E+02 -0.20300974574E+02 -0.12509107440E+02  0.59301938350E+02  0.49999989644E+02 0.  0.
         12    1    1    2    0    0 -0.21168693629E+02  0.20300974574E+02  0.12509107440E+02  0.31886061650E+02  0.00000000000E+00 0. -1.
         11    1    3    3    0    0 -0.10156454934E+02 -0.22314719213E+01  0.21627648210E+01  0.10621233247E+02  0.51100000000E-03 0. -1.
        -11    1    3    3    0    0  0.48960074169E+01 -0.58428128109E+01 -0.17828512370E+02  0.19389822170E+02  0.51100000000E-03 0.  1.
         12    1    3    3    0    0  0.26429141146E+02 -0.12226689842E+02  0.31566401090E+01  0.29290882933E+02  0.00000000000E+00 0. -1.
</event>
<event>
 7    1  0.3461631E-013  0.5930193E+02  0.7816164E-02  0.1266605E+00
        -11   -1    0    0    0    0  0.00000000000E+00  0.00000000000E+00  0.45593999997E+02  0.45594000000E+02  0.51100000000E-03 0.  1.
         11   -1    0    0    0    0 -0.00000000000E+00 -0.00000000000E+00 -0.45593999997E+02  0.45594000000E+02  0.51100000000E-03 0. -1.
    9900012    2    1    2    0    0 -0.10211540352E+02 -0.13324522710E+02  0.27109091832E+02  0.59301932168E+02  0.49999978371E+02 0.  0.
         12    1    1    2    0    0  0.10211540352E+02  0.13324522710E+02 -0.27109091832E+02  0.31886067832E+02  0.00000000000E+00 0. -1.
         11    1    3    3    0    0  0.12684891967E+02 -0.38511261796E+01 -0.12744675384E+01  0.13317729718E+02  0.51100000000E-03 0. -1.
        -11    1    3    3    0    0  0.54460092915E+01 -0.85306492159E+00  0.90906597505E+01  0.10631407805E+02  0.51100000000E-03 0.  1.
        -12    1    3    3    0    0 -0.28342441610E+02 -0.86203316093E+01  0.19292899620E+02  0.35352794645E+02  0.00000000000E+00 0.  1.
</event>
<event>
 7    1  0.3461631E-013  0.5930194E+02  0.7816164E-02  0.1266605E+00
        -11   -1    0    0    0    0  0.00000000000E+00  0.00000000000E+00  0.45593999997E+02  0.45594000000E+02  0.51100000000E-03 0.  1.
         11   -1    0    0    0    0 -0.00000000000E+00 -0.00000000000E+00 -0.45593999997E+02  0.45594000000E+02  0.51100000000E-03 0. -1.
    9900012    2    1    2    0    0  0.19800845294E+02  0.16861376903E+02  0.18448335600E+02  0.59301943614E+02  0.49999999246E+02 0.  0.
         12    1    1    2    0    0 -0.19800845294E+02 -0.16861376903E+02 -0.18448335600E+02  0.31886056386E+02  0.00000000000E+00 0. -1.
         11    1    3    3    0    0  0.35506362846E+01 -0.22823719068E+01  0.30387826767E+00  0.42318532358E+01  0.51100000000E-03 0. -1.
        -11    1    3    3    0    0  0.16476352416E+02 -0.41829548172E+01 -0.90361672465E+01  0.19251483546E+02  0.51100000000E-03 0.  1.
         12    1    3    3    0    0 -0.22614340668E+00  0.23326703627E+02  0.27180624579E+02  0.35818606833E+02  0.00000000000E+00 0. -1.
</event>
<event>
 7    1  0.3461631E-013  0.5930201E+02  0.7816164E-02  0.1266605E+00
        -11   -1    0    0    0    0  0.00000000000E+00  0.00000000000E+00  0.45593999997E+02  0.45594000000E+02  0.51100000000E-03 0.  1.
         11   -1    0    0    0    0 -0.00000000000E+00 -0.00000000000E+00 -0.45593999997E+02  0.45594000000E+02  0.51100000000E-03 0. -1.
    9900012    2    1    2    0    0  0.57100185054E+01  0.12352857753E+02  0.28836071813E+02  0.59302008662E+02  0.50000117877E+02 0.  0.
         12    1    1    2    0    0 -0.57100185054E+01 -0.12352857753E+02 -0.28836071813E+02  0.31885991338E+02  0.00000000000E+00 0. -1.
         11    1    3    3    0    0  0.56147512071E+01  0.98069367284E+00  0.29374653891E+02  0.29922524671E+02  0.51100000000E-03 0. -1.
        -11    1    3    3    0    0  0.86042337335E+01 -0.56079363870E+01 -0.14096615247E+01  0.10366722459E+02  0.51100000000E-03 0.  1.
         12    1    3    3    0    0 -0.85089664353E+01  0.16980100467E+02  0.87107944671E+00  0.19012761532E+02  0.00000000000E+00 0. -1.
</event>
<event>
 7    1  0.3461631E-013  0.5930194E+02  0.7816164E-02  0.1266605E+00
        -11   -1    0    0    0    0  0.00000000000E+00  0.00000000000E+00  0.45593999997E+02  0.45594000000E+02  0.51100000000E-03 0.  1.
         11   -1    0    0    0    0 -0.00000000000E+00 -0.00000000000E+00 -0.45593999997E+02  0.45594000000E+02  0.51100000000E-03 0. -1.
    9900012    2    1    2    0    0 -0.27476117127E+02  0.15720619598E+02 -0.38270356408E+01  0.59301935728E+02  0.49999984864E+02 0.  0.
         12    1    1    2    0    0  0.27476117127E+02 -0.15720619598E+02  0.38270356408E+01  0.31886064272E+02  0.00000000000E+00 0. -1.
         11    1    3    3    0    0 -0.84771922863E+00  0.69721043454E+00  0.32788695509E+01  0.34577038730E+01  0.51100000000E-03 0. -1.
        -11    1    3    3    0    0 -0.16862569057E+02  0.14367037278E+01  0.18616089023E+02  0.25158877630E+02  0.51100000000E-03 0.  1.
         12    1    3    3    0    0 -0.97658288413E+01  0.13586705436E+02 -0.25721994215E+02  0.30685354226E+02  0.00000000000E+00 0. -1.
</event>
<event>
 7    1  0.3461631E-013  0.5930194E+02  0.7816164E-02  0.1266605E+00
        -11   -1    0    0    0    0  0.00000000000E+00  0.00000000000E+00  0.45593999997E+02  0.45594000000E+02  0.51100000000E-03 0.  1.
         11   -1    0    0    0    0 -0.00000000000E+00 -0.00000000000E+00 -0.45593999997E+02  0.45594000000E+02  0.51100000000E-03 0. -1.
    9900012    2    1    2    0    0  0.28645727446E+01  0.19443044709E+02  0.25109427784E+02  0.59301935204E+02  0.49999983907E+02 0.  0.
         12    1    1    2    0    0 -0.28645727446E+01 -0.19443044709E+02 -0.25109427784E+02  0.31886064796E+02  0.00000000000E+00 0. -1.
         11    1    3    3    0    0 -0.87252857377E+00  0.11647587855E+01  0.16766299830E+02  0.16829342809E+02  0.51100000000E-03 0. -1.
        -11    1    3    3    0    0  0.55402978080E+00  0.10696890364E+02  0.23165690064E+02  0.25522139582E+02  0.51100000000E-03 0.  1.
         12    1    3    3    0    0  0.31830715376E+01  0.75813955589E+01 -0.14822562110E+02  0.16950452812E+02  0.00000000000E+00 0. -1.
</event>
<event>
 7    1  0.3748667E-013  0.5930198E+02  0.7816164E-02  0.1266605E+00
        -11   -1    0    0    0    0  0.00000000000E+00  0.00000000000E+00  0.45593999997E+02  0.45594000000E+02  0.51100000000E-03 0.  1.
         11   -1    0    0    0    0 -0.00000000000E+00 -0.00000000000E+00 -0.45593999997E+02  0.45594000000E+02  0.51100000000E-03 0. -1.
    9900012    2    1    2    0    0  0.30600683937E+02 -0.94770678265E+00  0.89116801248E+01  0.59301983501E+02  0.50000071989E+02 0.  0.
         12    1    1    2    0    0 -0.30600683937E+02  0.94770678265E+00 -0.89116801248E+01  0.31886016499E+02  0.00000000000E+00 0. -1.
         11    1    3    3    0    0  0.16305672123E+02 -0.11031093279E+02  0.12571456289E+02  0.23358113704E+02  0.51100000000E-03 0. -1.
        -11    1    3    3    0    0  0.55734052627E+01  0.11680282732E+02  0.12192395053E+02  0.17780504726E+02  0.51100000000E-03 0.  1.
         12    1    3    3    0    0  0.87216065508E+01 -0.15968962355E+01 -0.15852171217E+02  0.18163365071E+02  0.00000000000E+00 0. -1.
</event>
<event>
 7    1  0.3461631E-013  0.5930195E+02  0.7816164E-02  0.1266605E+00
        -11   -1    0    0    0    0  0.00000000000E+00  0.00000000000E+00  0.45593999997E+02  0.45594000000E+02  0.51100000000E-03 0.  1.
         11   -1    0    0    0    0 -0.00000000000E+00 -0.00000000000E+00 -0.45593999997E+02  0.45594000000E+02  0.51100000000E-03 0. -1.
    9900012    2    1    2    0    0 -0.11841909684E+02  0.24782719759E+01  0.29501652355E+02  0.59301950564E+02  0.50000011920E+02 0.  0.
         12    1    1    2    0    0  0.11841909684E+02 -0.24782719759E+01 -0.29501652355E+02  0.31886049436E+02  0.00000000000E+00 0. -1.
         11    1    3    3    0    0  0.12975771828E+02  0.11957280782E+02  0.24599016530E+02  0.30273071082E+02  0.51100000000E-03 0. -1.
        -11    1    3    3    0    0 -0.19124067511E+01  0.15777093887E+01 -0.13699693005E+01  0.28325399630E+01  0.51100000000E-03 0.  1.
        -12    1    3    3    0    0 -0.22905274761E+02 -0.11056718195E+02  0.62726051262E+01  0.26196339519E+02  0.00000000000E+00 0.  1.
</event>
<event>
 7    1  0.3461631E-013  0.5930196E+02  0.7816164E-02  0.1266605E+00
        -11   -1    0    0    0    0  0.00000000000E+00  0.00000000000E+00  0.45593999997E+02  0.45594000000E+02  0.51100000000E-03 0. -1.
         11   -1    0    0    0    0 -0.00000000000E+00 -0.00000000000E+00 -0.45593999997E+02  0.45594000000E+02  0.51100000000E-03 0.  1.
    9900012    2    1    2    0    0 -0.73615024394E+01  0.68016287291E+01 -0.30269880462E+02  0.59301960191E+02  0.50000029477E+02 0.  0.
         12    1    1    2    0    0  0.73615024394E+01 -0.68016287291E+01  0.30269880462E+02  0.31886039809E+02  0.00000000000E+00 0. -1.
         11    1    3    3    0    0 -0.12351270589E+02 -0.11913911620E+02 -0.15465304919E+02  0.23101316667E+02  0.51100000000E-03 0. -1.
        -11    1    3    3    0    0  0.88229674940E+01  0.32408444244E+01 -0.17659033406E+02  0.20004731667E+02  0.51100000000E-03 0.  1.
         12    1    3    3    0    0 -0.38331993445E+01  0.15474695924E+02  0.28544578627E+01  0.16195911856E+02  0.00000000000E+00 0. -1.
</event>
<event>
 7    1  0.3461631E-013  0.5930196E+02  0.7816164E-02  0.1266605E+00
        -11   -1    0    0    0    0  0.00000000000E+00  0.00000000000E+00  0.45593999997E+02  0.45594000000E+02  0.51100000000E-03 0. -1.
         11   -1    0    0    0    0 -0.00000000000E+00 -0.00000000000E+00 -0.45593999997E+02  0.45594000000E+02  0.51100000000E-03 0.  1.
    9900012    2    1    2    0    0 -0.60651695003E+01 -0.53253070416E+00 -0.31299354774E+02  0.59301961060E+02  0.50000031063E+02 0.  0.
         12    1    1    2    0    0  0.60651695003E+01  0.53253070416E+00  0.31299354774E+02  0.31886038940E+02  0.00000000000E+00 0. -1.
         11    1    3    3    0    0  0.12511935132E+02  0.33007614023E+01 -0.12122631830E+02  0.17731377537E+02  0.51100000000E-03 0. -1.
        -11    1    3    3    0    0  0.21406981583E+01 -0.93473033218E+01 -0.17638267607E+02  0.20076432761E+02  0.51100000000E-03 0.  1.
         12    1    3    3    0    0 -0.20717802791E+02  0.55140112154E+01 -0.15384553363E+01  0.21494150762E+02  0.00000000000E+00 0. -1.
</event>
<event>
 7    1  0.3461631E-013  0.5930196E+02  0.7816164E-02  0.1266605E+00
        -11   -1    0    0    0    0  0.00000000000E+00  0.00000000000E+00  0.45593999997E+02  0.45594000000E+02  0.51100000000E-03 0. -1.
         11   -1    0    0    0    0 -0.00000000000E+00 -0.00000000000E+00 -0.45593999997E+02  0.45594000000E+02  0.51100000000E-03 0.  1.
    9900012    2    1    2    0    0 -0.54377894808E+01 -0.28695765567E+02 -0.12794655410E+02  0.59301957239E+02  0.50000024094E+02 0.  0.
         12    1    1    2    0    0  0.54377894808E+01  0.28695765567E+02  0.12794655410E+02  0.31886042761E+02  0.00000000000E+00 0. -1.
         11    1    3    3    0    0  0.56696490547E+00  0.13318715270E+00 -0.10534283373E+02  0.10550370348E+02  0.51100000000E-03 0. -1.
        -11    1    3    3    0    0 -0.22468011505E+02 -0.13986218955E+02  0.46060512339E-01  0.26465600002E+02  0.51100000000E-03 0.  1.
         12    1    3    3    0    0  0.16463257118E+02 -0.14842733764E+02 -0.23064325494E+01  0.22285986889E+02  0.00000000000E+00 0. -1.
</event>
<event>
 7    1  0.3461631E-013  0.5930189E+02  0.7816164E-02  0.1266605E+00
        -11   -1    0    0    0    0  0.00000000000E+00  0.00000000000E+00  0.45593999997E+02  0.45594000000E+02  0.51100000000E-03 0.  1.
         11   -1    0    0    0    0 -0.00000000000E+00 -0.00000000000E+00 -0.45593999997E+02  0.45594000000E+02  0.51100000000E-03 0. -1.
    9900012    2    1    2    0    0  0.16238804051E+02 -0.72592604888E+01  0.26463713241E+02  0.59301894275E+02  0.49999909262E+02 0.  0.
         12    1    1    2    0    0 -0.16238804051E+02  0.72592604888E+01 -0.26463713241E+02  0.31886105725E+02  0.00000000000E+00 0. -1.
         11    1    3    3    0    0 -0.22986589920E+01  0.27193579478E+01 -0.23667666821E+01  0.42755497423E+01  0.51100000000E-03 0. -1.
        -11    1    3    3    0    0 -0.86286544329E+00 -0.68687075389E+01  0.34009754697E+02  0.34707162011E+02  0.51100000000E-03 0.  1.
         12    1    3    3    0    0  0.19400328486E+02 -0.31099108977E+01 -0.51792747744E+01  0.20319182522E+02  0.00000000000E+00 0. -1.
</event>
<event>
 7    1  0.3461631E-013  0.5930196E+02  0.7816164E-02  0.1266605E+00
        -11   -1    0    0    0    0  0.00000000000E+00  0.00000000000E+00  0.45593999997E+02  0.45594000000E+02  0.51100000000E-03 0. -1.
         11   -1    0    0    0    0 -0.00000000000E+00 -0.00000000000E+00 -0.45593999997E+02  0.45594000000E+02  0.51100000000E-03 0.  1.
    9900012    2    1    2    0    0 -0.27272997185E+02  0.11680896469E+02 -0.11681606944E+02  0.59301958248E+02  0.50000025935E+02 0.  0.
         12    1    1    2    0    0  0.27272997185E+02 -0.11680896469E+02  0.11681606944E+02  0.31886041752E+02  0.00000000000E+00 0. -1.
         11    1    3    3    0    0 -0.12056129040E+02  0.70182483947E+01  0.51546534756E+01  0.14872004259E+02  0.51100000000E-03 0. -1.
        -11    1    3    3    0    0 -0.19344579223E+02  0.13100410125E+02  0.19314656214E+01  0.23442782481E+02  0.51100000000E-03 0.  1.
        -12    1    3    3    0    0  0.41277110779E+01 -0.84377620506E+01 -0.18767726041E+02  0.20987171508E+02  0.00000000000E+00 0.  1.
</event>
<event>
 7    1  0.3461631E-013  0.5930194E+02  0.7816164E-02  0.1266605E+00
        -11   -1    0    0    0    0  0.00000000000E+00  0.00000000000E+00  0.45593999997E+02  0.45594000000E+02  0.51100000000E-03 0.  1.
         11   -1    0    0    0    0 -0.00000000000E+00 -0.00000000000E+00 -0.45593999997E+02  0.45594000000E+02  0.51100000000E-03 0. -1.
    9900012    2    1    2    0    0 -0.20118409077E+02  0.22833797528E+02  0.95177712866E+01  0.59301942489E+02  0.49999997194E+02 0.  0.
         12    1    1    2    0    0  0.20118409077E+02 -0.22833797528E+02 -0.95177712866E+01  0.31886057511E+02  0.00000000000E+00 0. -1.
         11    1    3    3    0    0  0.92307253971E+01  0.31105991385E+01  0.62883793183E+01  0.11594215500E+02  0.51100000000E-03 0. -1.
        -11    1    3    3    0    0 -0.48073546150E+01  0.37241493555E+01 -0.12902428740E+02  0.14263681659E+02  0.51100000000E-03 0.  1.
        -12    1    3    3    0    0 -0.24541779859E+02  0.15999049034E+02  0.16131820708E+02  0.33444045330E+02  0.00000000000E+00 0.  1.
</event>
<event>
 7    1  0.3461631E-013  0.5930194E+02  0.7816164E-02  0.1266605E+00
        -11   -1    0    0    0    0  0.00000000000E+00  0.00000000000E+00  0.45593999997E+02  0.45594000000E+02  0.51100000000E-03 0.  1.
         11   -1    0    0    0    0 -0.00000000000E+00 -0.00000000000E+00 -0.45593999997E+02  0.45594000000E+02  0.51100000000E-03 0. -1.
    9900012    2    1    2    0    0  0.14367929066E+02  0.13557215367E+02  0.25029693841E+02  0.59301936462E+02  0.49999986202E+02 0.  0.
         12    1    1    2    0    0 -0.14367929066E+02 -0.13557215367E+02 -0.25029693841E+02  0.31886063538E+02  0.00000000000E+00 0. -1.
         11    1    3    3    0    0  0.12169631106E+02 -0.17984310147E+02  0.93304327140E+01  0.23634557487E+02  0.51100000000E-03 0.  1.
        -11    1    3    3    0    0  0.63860742592E+00  0.12885212973E+02  0.36642131064E+01  0.13411300860E+02  0.51100000000E-03 0. -1.
        -12    1    3    3    0    0  0.15596905340E+01  0.18656312542E+02  0.12035048021E+02  0.22256078115E+02  0.00000000000E+00 0.  1.
</event>
<event>
 7    1  0.3461631E-013  0.5930193E+02  0.7816164E-02  0.1266605E+00
        -11   -1    0    0    0    0  0.00000000000E+00  0.00000000000E+00  0.45593999997E+02  0.45594000000E+02  0.51100000000E-03 0. -1.
         11   -1    0    0    0    0 -0.00000000000E+00 -0.00000000000E+00 -0.45593999997E+02  0.45594000000E+02  0.51100000000E-03 0.  1.
    9900012    2    1    2    0    0  0.28999639586E+02  0.10462323036E+02  0.81413890964E+01  0.59301929125E+02  0.49999972821E+02 0.  0.
         12    1    1    2    0    0 -0.28999639586E+02 -0.10462323036E+02 -0.81413890964E+01  0.31886070875E+02  0.00000000000E+00 0. -1.
         11    1    3    3    0    0  0.14325337304E+02 -0.21480039558E+01  0.44632312364E+01  0.15157494621E+02  0.51100000000E-03 0. -1.
        -11    1    3    3    0    0  0.93333683540E+01 -0.11666631999E+02 -0.76982562841E+01  0.16807296544E+02  0.51100000000E-03 0.  1.
         12    1    3    3    0    0  0.53409339279E+01  0.24276958991E+02  0.11376414144E+02  0.27337137960E+02  0.00000000000E+00 0. -1.
</event>
<event>
 7    1  0.3461631E-013  0.5930192E+02  0.7816164E-02  0.1266605E+00
        -11   -1    0    0    0    0  0.00000000000E+00  0.00000000000E+00  0.45593999997E+02  0.45594000000E+02  0.51100000000E-03 0.  1.
         11   -1    0    0    0    0 -0.00000000000E+00 -0.00000000000E+00 -0.45593999997E+02  0.45594000000E+02  0.51100000000E-03 0. -1.
    9900012    2    1    2    0    0  0.37640282608E+01 -0.58192443935E+01  0.31123793746E+02  0.59301920730E+02  0.49999957510E+02 0.  0.
         12    1    1    2    0    0 -0.37640282608E+01  0.58192443935E+01 -0.31123793746E+02  0.31886079270E+02  0.00000000000E+00 0. -1.
         11    1    3    3    0    0 -0.10515492400E+02 -0.25201062801E+01  0.89604816613E+01  0.14043388051E+02  0.51100000000E-03 0. -1.
        -11    1    3    3    0    0 -0.11616709934E+02 -0.61609683883E+01  0.99187222134E+01  0.16470778117E+02  0.51100000000E-03 0.  1.
         12    1    3    3    0    0  0.25896230596E+02  0.28618302749E+01  0.12244589872E+02  0.28787754562E+02  0.00000000000E+00 0. -1.
</event>
<event>
 7    1  0.3461631E-013  0.5930193E+02  0.7816164E-02  0.1266605E+00
        -11   -1    0    0    0    0  0.00000000000E+00  0.00000000000E+00  0.45593999997E+02  0.45594000000E+02  0.51100000000E-03 0. -1.
         11   -1    0    0    0    0 -0.00000000000E+00 -0.00000000000E+00 -0.45593999997E+02  0.45594000000E+02  0.51100000000E-03 0.  1.
    9900012    2    1    2    0    0 -0.16504340750E+02 -0.26760333941E+02 -0.53115393272E+01  0.59301934293E+02  0.49999982247E+02 0.  0.
         12    1    1    2    0    0  0.16504340750E+02  0.26760333941E+02  0.53115393272E+01  0.31886065707E+02  0.00000000000E+00 0. -1.
         11    1    3    3    0    0 -0.21606639920E+02 -0.95510141231E+01  0.10993865523E+02  0.26056358894E+02  0.51100000000E-03 0. -1.
        -11    1    3    3    0    0  0.10703532274E+02 -0.96329633145E+01  0.15775823211E-01  0.14399994253E+02  0.51100000000E-03 0.  1.
        -12    1    3    3    0    0 -0.56012331044E+01 -0.75763565032E+01 -0.16321180674E+02  0.18845581146E+02  0.00000000000E+00 0.  1.
</event>
<event>
 7    1  0.3461631E-013  0.5930200E+02  0.7816164E-02  0.1266605E+00
        -11   -1    0    0    0    0  0.00000000000E+00  0.00000000000E+00  0.45593999997E+02  0.45594000000E+02  0.51100000000E-03 0. -1.
         11   -1    0    0    0    0 -0.00000000000E+00 -0.00000000000E+00 -0.45593999997E+02  0.45594000000E+02  0.51100000000E-03 0.  1.
    9900012    2    1    2    0    0  0.23186199640E+02 -0.21605378019E+02 -0.35106635077E+01  0.59302000386E+02  0.50000102785E+02 0.  0.
         12    1    1    2    0    0 -0.23186199640E+02  0.21605378019E+02  0.35106635077E+01  0.31885999614E+02  0.00000000000E+00 0. -1.
         11    1    3    3    0    0 -0.24161436293E+01  0.91956060879E+01  0.36858352651E+01  0.10197171334E+02  0.51100000000E-03 0. -1.
        -11    1    3    3    0    0  0.71440741538E+01 -0.25850107000E+02  0.37516719844E+01  0.27080267177E+02  0.51100000000E-03 0.  1.
        -12    1    3    3    0    0  0.18458269115E+02 -0.49508771070E+01 -0.10948170757E+02  0.22024561875E+02  0.00000000000E+00 0.  1.
</event>
<event>
 7    1  0.3461631E-013  0.5930194E+02  0.7816164E-02  0.1266605E+00
        -11   -1    0    0    0    0  0.00000000000E+00  0.00000000000E+00  0.45593999997E+02  0.45594000000E+02  0.51100000000E-03 0. -1.
         11   -1    0    0    0    0 -0.00000000000E+00 -0.00000000000E+00 -0.45593999997E+02  0.45594000000E+02  0.51100000000E-03 0.  1.
    9900012    2    1    2    0    0 -0.22667548564E+02 -0.21542285525E+02  0.62316318794E+01  0.59301936282E+02  0.49999985873E+02 0.  0.
         12    1    1    2    0    0  0.22667548564E+02  0.21542285525E+02 -0.62316318794E+01  0.31886063718E+02  0.00000000000E+00 0. -1.
         11    1    3    3    0    0  0.48954941317E+01  0.85466852584E+01  0.63283636620E+01  0.11707257518E+02  0.51100000000E-03 0. -1.
        -11    1    3    3    0    0 -0.20452948674E+01 -0.17352919574E+02  0.59176010485E+01  0.18447900999E+02  0.51100000000E-03 0.  1.
         12    1    3    3    0    0 -0.25517747828E+02 -0.12736051210E+02 -0.60143328311E+01  0.29146777765E+02  0.00000000000E+00 0. -1.
</event>
<event>
 7    1  0.3461631E-013  0.5930197E+02  0.7816164E-02  0.1266605E+00
        -11   -1    0    0    0    0  0.00000000000E+00  0.00000000000E+00  0.45593999997E+02  0.45594000000E+02  0.51100000000E-03 0. -1.
         11   -1    0    0    0    0 -0.00000000000E+00 -0.00000000000E+00 -0.45593999997E+02  0.45594000000E+02  0.51100000000E-03 0.  1.
    9900012    2    1    2    0    0  0.58495373198E+01  0.20858509999E+02 -0.23397105991E+02  0.59301967086E+02  0.50000042053E+02 0.  0.
         12    1    1    2    0    0 -0.58495373198E+01 -0.20858509999E+02  0.23397105991E+02  0.31886032914E+02  0.00000000000E+00 0. -1.
         11    1    3    3    0    0 -0.27465786498E+01  0.13499068907E+02 -0.13132766741E+02  0.19032554169E+02  0.51100000000E-03 0. -1.
        -11    1    3    3    0    0 -0.93107816789E+01 -0.65227687879E+00 -0.17111348553E+02  0.19491392207E+02  0.51100000000E-03 0.  1.
         12    1    3    3    0    0  0.17906897648E+02  0.80117179706E+01  0.68470093033E+01  0.20778020710E+02  0.00000000000E+00 0. -1.
</event>
<event>
 7    1  0.3461631E-013  0.5930197E+02  0.7816164E-02  0.1266605E+00
        -11   -1    0    0    0    0  0.00000000000E+00  0.00000000000E+00  0.45593999997E+02  0.45594000000E+02  0.51100000000E-03 0. -1.
         11   -1    0    0    0    0 -0.00000000000E+00 -0.00000000000E+00 -0.45593999997E+02  0.45594000000E+02  0.51100000000E-03 0.  1.
    9900012    2    1    2    0    0 -0.96033644971E+01 -0.29055069033E+02 -0.89608571220E+01  0.59301974745E+02  0.50000056021E+02 0.  0.
         12    1    1    2    0    0  0.96033644971E+01  0.29055069033E+02  0.89608571220E+01  0.31886025255E+02  0.00000000000E+00 0. -1.
         11    1    3    3    0    0  0.75271155023E+01  0.35117145945E+01  0.70458212826E+01  0.10891887118E+02  0.51100000000E-03 0. -1.
        -11    1    3    3    0    0  0.19232372839E+00 -0.16446540950E+02  0.45494824731E+01  0.17065271421E+02  0.51100000000E-03 0.  1.
        -12    1    3    3    0    0 -0.17322803728E+02 -0.16120242678E+02 -0.20556160878E+02  0.31344816207E+02  0.00000000000E+00 0.  1.
</event>
<event>
 7    1  0.3461631E-013  0.5930193E+02  0.7816164E-02  0.1266605E+00
        -11   -1    0    0    0    0  0.00000000000E+00  0.00000000000E+00  0.45593999997E+02  0.45594000000E+02  0.51100000000E-03 0.  1.
         11   -1    0    0    0    0 -0.00000000000E+00 -0.00000000000E+00 -0.45593999997E+02  0.45594000000E+02  0.51100000000E-03 0. -1.
    9900012    2    1    2    0    0  0.23017030858E+01  0.59525442573E+01  0.31240850886E+02  0.59301931188E+02  0.49999976583E+02 0.  0.
         12    1    1    2    0    0 -0.23017030858E+01 -0.59525442573E+01 -0.31240850886E+02  0.31886068812E+02  0.00000000000E+00 0. -1.
         11    1    3    3    0    0  0.57564190741E+01  0.13095167237E+02  0.73791822223E+01  0.16095716699E+02  0.51100000000E-03 0. -1.
        -11    1    3    3    0    0  0.10830108483E+02  0.91118144602E+01  0.70996797195E+01  0.15834199218E+02  0.51100000000E-03 0.  1.
        -12    1    3    3    0    0 -0.14284824471E+02 -0.16254437439E+02  0.16761988944E+02  0.27372015271E+02  0.00000000000E+00 0.  1.
</event>
<event>
 7    1  0.3461631E-013  0.5930193E+02  0.7816164E-02  0.1266605E+00
        -11   -1    0    0    0    0  0.00000000000E+00  0.00000000000E+00  0.45593999997E+02  0.45594000000E+02  0.51100000000E-03 0.  1.
         11   -1    0    0    0    0 -0.00000000000E+00 -0.00000000000E+00 -0.45593999997E+02  0.45594000000E+02  0.51100000000E-03 0. -1.
    9900012    2    1    2    0    0  0.16457149605E+02 -0.21867347158E+02  0.16361623259E+02  0.59301931560E+02  0.49999977262E+02 0.  0.
         12    1    1    2    0    0 -0.16457149605E+02  0.21867347158E+02 -0.16361623259E+02  0.31886068440E+02  0.00000000000E+00 0. -1.
         11    1    3    3    0    0 -0.22951283518E+01 -0.61943122853E+01  0.19372105911E+01  0.68840325373E+01  0.51100000000E-03 0. -1.
        -11    1    3    3    0    0  0.13793615075E+02 -0.29961148006E+02  0.16950299386E+02  0.37084320895E+02  0.51100000000E-03 0.  1.
         12    1    3    3    0    0  0.49586628822E+01  0.14288113133E+02 -0.25258867179E+01  0.15333578128E+02  0.00000000000E+00 0. -1.
</event>
<event>
 7    1  0.3461631E-013  0.5930195E+02  0.7816164E-02  0.1266605E+00
        -11   -1    0    0    0    0  0.00000000000E+00  0.00000000000E+00  0.45593999997E+02  0.45594000000E+02  0.51100000000E-03 0.  1.
         11   -1    0    0    0    0 -0.00000000000E+00 -0.00000000000E+00 -0.45593999997E+02  0.45594000000E+02  0.51100000000E-03 0. -1.
    9900012    2    1    2    0    0 -0.27650955117E+02 -0.15761508801E+02 -0.19286061692E+01  0.59301952890E+02  0.50000016162E+02 0.  0.
         12    1    1    2    0    0  0.27650955117E+02  0.15761508801E+02  0.19286061692E+01  0.31886047110E+02  0.00000000000E+00 0. -1.
         11    1    3    3    0    0 -0.66289677292E+01  0.60031444793E+01 -0.10974368257E+02  0.14156896400E+02  0.51100000000E-03 0. -1.
        -11    1    3    3    0    0  0.70611962166E+01  0.81395857064E+00  0.54008439023E+01  0.89270451820E+01  0.51100000000E-03 0.  1.
        -12    1    3    3    0    0 -0.28083183604E+02 -0.22578611851E+02  0.36449181852E+01  0.36218011307E+02  0.00000000000E+00 0.  1.
</event>
<event>
 7    1  0.3461631E-013  0.5930201E+02  0.7816164E-02  0.1266605E+00
        -11   -1    0    0    0    0  0.00000000000E+00  0.00000000000E+00  0.45593999997E+02  0.45594000000E+02  0.51100000000E-03 0. -1.
         11   -1    0    0    0    0 -0.00000000000E+00 -0.00000000000E+00 -0.45593999997E+02  0.45594000000E+02  0.51100000000E-03 0.  1.
    9900012    2    1    2    0    0  0.26898108711E+02  0.75960789218E+01 -0.15346261361E+02  0.59302009268E+02  0.50000118982E+02 0.  0.
         12    1    1    2    0    0 -0.26898108711E+02 -0.75960789218E+01  0.15346261361E+02  0.31885990732E+02  0.00000000000E+00 0. -1.
         11    1    3    3    0    0  0.69587699977E+01  0.10928655636E+02 -0.10518961997E+02  0.16688575603E+02  0.51100000000E-03 0. -1.
        -11    1    3    3    0    0  0.17092515453E+02  0.11818061264E+02 -0.13639492011E+02  0.24856717384E+02  0.51100000000E-03 0.  1.
         12    1    3    3    0    0  0.28468232605E+01 -0.15150637978E+02  0.88121926474E+01  0.17756716281E+02  0.00000000000E+00 0. -1.
</event>
<event>
 7    1  0.3461631E-013  0.5930195E+02  0.7816164E-02  0.1266605E+00
        -11   -1    0    0    0    0  0.00000000000E+00  0.00000000000E+00  0.45593999997E+02  0.45594000000E+02  0.51100000000E-03 0.  1.
         11   -1    0    0    0    0 -0.00000000000E+00 -0.00000000000E+00 -0.45593999997E+02  0.45594000000E+02  0.51100000000E-03 0. -1.
    9900012    2    1    2    0    0  0.18794395144E+02 -0.22293033429E+02  0.12903942059E+02  0.59301947423E+02  0.50000006192E+02 0.  0.
         12    1    1    2    0    0 -0.18794395144E+02  0.22293033429E+02 -0.12903942059E+02  0.31886052577E+02  0.00000000000E+00 0. -1.
         11    1    3    3    0    0  0.23840000190E+02 -0.13577370447E+02  0.28102288247E+01  0.27578759646E+02  0.51100000000E-03 0. -1.
        -11    1    3    3    0    0  0.76239880758E+01 -0.11465480973E+02 -0.20965644285E+01  0.13927599606E+02  0.51100000000E-03 0.  1.
         12    1    3    3    0    0 -0.12669593122E+02  0.27498179909E+01  0.12190277662E+02  0.17795588171E+02  0.00000000000E+00 0. -1.
</event>
<event>
 7    1  0.3461631E-013  0.5930194E+02  0.7816164E-02  0.1266605E+00
        -11   -1    0    0    0    0  0.00000000000E+00  0.00000000000E+00  0.45593999997E+02  0.45594000000E+02  0.51100000000E-03 0.  1.
         11   -1    0    0    0    0 -0.00000000000E+00 -0.00000000000E+00 -0.45593999997E+02  0.45594000000E+02  0.51100000000E-03 0. -1.
    9900012    2    1    2    0    0  0.10880627951E+02 -0.22967776856E+02  0.19256539089E+02  0.59301935081E+02  0.49999983684E+02 0.  0.
         12    1    1    2    0    0 -0.10880627951E+02  0.22967776856E+02 -0.19256539089E+02  0.31886064919E+02  0.00000000000E+00 0. -1.
         11    1    3    3    0    0 -0.43177549774E+01 -0.26501941096E+01 -0.17813736666E+01  0.53702727366E+01  0.51100000000E-03 0. -1.
        -11    1    3    3    0    0 -0.98460901787E+01 -0.16854177313E+02 -0.21349505885E+01  0.19635854934E+02  0.51100000000E-03 0.  1.
        -12    1    3    3    0    0  0.25044473107E+02 -0.34634054333E+01  0.23172863344E+02  0.34295807411E+02  0.00000000000E+00 0.  1.
</event>
<event>
 7    1  0.3461631E-013  0.5930194E+02  0.7816164E-02  0.1266605E+00
        -11   -1    0    0    0    0  0.00000000000E+00  0.00000000000E+00  0.45593999997E+02  0.45594000000E+02  0.51100000000E-03 0. -1.
         11   -1    0    0    0    0 -0.00000000000E+00 -0.00000000000E+00 -0.45593999997E+02  0.45594000000E+02  0.51100000000E-03 0.  1.
    9900012    2    1    2    0    0  0.30581650878E+02 -0.56757989783E+01 -0.70191712100E+01  0.59301939896E+02  0.49999992465E+02 0.  0.
         12    1    1    2    0    0 -0.30581650878E+02  0.56757989783E+01  0.70191712100E+01  0.31886060104E+02  0.00000000000E+00 0. -1.
         11    1    3    3    0    0 -0.98607491990E+01  0.76783004012E+01 -0.66778370150E+00  0.12515454732E+02  0.51100000000E-03 0. -1.
        -11    1    3    3    0    0  0.71087805532E+01 -0.40462018398E+01 -0.88952225322E+01  0.12084349152E+02  0.51100000000E-03 0.  1.
         12    1    3    3    0    0  0.33333619524E+02 -0.93078975397E+01  0.25438350236E+01  0.34702136012E+02  0.00000000000E+00 0. -1.
</event>
<event>
 7    1  0.3461631E-013  0.5930195E+02  0.7816164E-02  0.1266605E+00
        -11   -1    0    0    0    0  0.00000000000E+00  0.00000000000E+00  0.45593999997E+02  0.45594000000E+02  0.51100000000E-03 0.  1.
         11   -1    0    0    0    0 -0.00000000000E+00 -0.00000000000E+00 -0.45593999997E+02  0.45594000000E+02  0.51100000000E-03 0. -1.
    9900012    2    1    2    0    0  0.79011444234E+01  0.21302680502E+02  0.22371587763E+02  0.59301949464E+02  0.50000009914E+02 0.  0.
         12    1    1    2    0    0 -0.79011444234E+01 -0.21302680502E+02 -0.22371587763E+02  0.31886050536E+02  0.00000000000E+00 0. -1.
         11    1    3    3    0    0 -0.38586423381E+01 -0.14110556271E+02  0.12522199928E+02  0.19256230427E+02  0.51100000000E-03 0. -1.
        -11    1    3    3    0    0  0.80360241487E+00  0.14549016977E+02  0.17764265221E+00  0.14572276041E+02  0.51100000000E-03 0.  1.
        -12    1    3    3    0    0  0.10956184347E+02  0.20864219797E+02  0.96717451831E+01  0.25473442996E+02  0.00000000000E+00 0.  1.
</event>
<event>
 7    1  0.3461631E-013  0.5930194E+02  0.7816164E-02  0.1266605E+00
        -11   -1    0    0    0    0  0.00000000000E+00  0.00000000000E+00  0.45593999997E+02  0.45594000000E+02  0.51100000000E-03 0. -1.
         11   -1    0    0    0    0 -0.00000000000E+00 -0.00000000000E+00 -0.45593999997E+02  0.45594000000E+02  0.51100000000E-03 0.  1.
    9900012    2    1    2    0    0 -0.48227080771E+00  0.23140659622E+02 -0.21931664500E+02  0.59301943163E+02  0.49999998423E+02 0.  0.
         12    1    1    2    0    0  0.48227080771E+00 -0.23140659622E+02  0.21931664500E+02  0.31886056837E+02  0.00000000000E+00 0. -1.
         11    1    3    3    0    0 -0.32251732619E+01  0.19662720271E+02 -0.38083870089E+01  0.20286155942E+02  0.51100000000E-03 0. -1.
        -11    1    3    3    0    0 -0.10620329441E+02 -0.55795985302E+01 -0.19412999868E+02  0.22820777404E+02  0.51100000000E-03 0.  1.
         12    1    3    3    0    0  0.13363231895E+02  0.90575378813E+01  0.12897223773E+01  0.16195009817E+02  0.00000000000E+00 0. -1.
</event>
<event>
 7    1  0.3461631E-013  0.5930187E+02  0.7816164E-02  0.1266605E+00
        -11   -1    0    0    0    0  0.00000000000E+00  0.00000000000E+00  0.45593999997E+02  0.45594000000E+02  0.51100000000E-03 0.  1.
         11   -1    0    0    0    0 -0.00000000000E+00 -0.00000000000E+00 -0.45593999997E+02  0.45594000000E+02  0.51100000000E-03 0. -1.
    9900012    2    1    2    0    0 -0.31445488454E+02  0.37705246226E+01 -0.36999879692E+01  0.59301866478E+02  0.49999858568E+02 0.  0.
         12    1    1    2    0    0  0.31445488454E+02 -0.37705246226E+01  0.36999879692E+01  0.31886133522E+02  0.00000000000E+00 0. -1.
         11    1    3    3    0    0  0.16596705884E+01  0.14541402992E+01  0.83069417184E+00  0.23577708837E+01  0.51100000000E-03 0. -1.
        -11    1    3    3    0    0  0.10244476298E+02 -0.41175205790E+01  0.49596826799E+01  0.12103789609E+02  0.51100000000E-03 0.  1.
         12    1    3    3    0    0 -0.43349635340E+02  0.64339049024E+01 -0.94903648210E+01  0.44840305985E+02  0.00000000000E+00 0. -1.
</event>
<event>
 7    1  0.3461631E-013  0.5930223E+02  0.7816164E-02  0.1266604E+00
        -11   -1    0    0    0    0  0.00000000000E+00  0.00000000000E+00  0.45593999997E+02  0.45594000000E+02  0.51100000000E-03 0.  1.
         11   -1    0    0    0    0 -0.00000000000E+00 -0.00000000000E+00 -0.45593999997E+02  0.45594000000E+02  0.51100000000E-03 0. -1.
    9900012    2    1    2    0    0  0.46974566021E+01  0.28934513275E+02  0.12547111535E+02  0.59302232566E+02  0.50000526221E+02 0.  0.
         12    1    1    2    0    0 -0.46974566021E+01 -0.28934513275E+02 -0.12547111535E+02  0.31885767434E+02  0.00000000000E+00 0. -1.
         11    1    3    3    0    0 -0.11540649986E+02  0.14009558464E+02  0.11555335400E+02  0.21516972532E+02  0.51100000000E-03 0. -1.
        -11    1    3    3    0    0 -0.12249519208E+01 -0.82556752980E+01 -0.20782838286E+01  0.86009270296E+01  0.51100000000E-03 0.  1.
        -12    1    3    3    0    0  0.17463058509E+02  0.23180630109E+02  0.30700599631E+01  0.29184333005E+02  0.00000000000E+00 0.  1.
</event>
<event>
 7    1  0.3461631E-013  0.5930195E+02  0.7816164E-02  0.1266605E+00
        -11   -1    0    0    0    0  0.00000000000E+00  0.00000000000E+00  0.45593999997E+02  0.45594000000E+02  0.51100000000E-03 0.  1.
         11   -1    0    0    0    0 -0.00000000000E+00 -0.00000000000E+00 -0.45593999997E+02  0.45594000000E+02  0.51100000000E-03 0. -1.
    9900012    2    1    2    0    0 -0.10418314048E+02  0.29874012828E+02  0.39651667258E+01  0.59301945725E+02  0.50000003096E+02 0.  0.
         12    1    1    2    0    0  0.10418314048E+02 -0.29874012828E+02 -0.39651667258E+01  0.31886054275E+02  0.00000000000E+00 0. -1.
         11    1    3    3    0    0  0.11255304816E+01  0.27550767458E+02  0.19148208906E+01  0.27640154588E+02  0.51100000000E-03 0.  1.
        -11    1    3    3    0    0 -0.15247660001E+02  0.36778917533E+01 -0.10255025098E+02  0.18739892296E+02  0.51100000000E-03 0. -1.
         12    1    3    3    0    0  0.37038154706E+01 -0.13546463831E+01  0.12305370933E+02  0.12921898841E+02  0.00000000000E+00 0. -1.
</event>
<event>
 7    1  0.3461631E-013  0.5930194E+02  0.7816164E-02  0.1266605E+00
        -11   -1    0    0    0    0  0.00000000000E+00  0.00000000000E+00  0.45593999997E+02  0.45594000000E+02  0.51100000000E-03 0. -1.
         11   -1    0    0    0    0 -0.00000000000E+00 -0.00000000000E+00 -0.45593999997E+02  0.45594000000E+02  0.51100000000E-03 0.  1.
    9900012    2    1    2    0    0  0.65346378768E+01  0.28324076035E+02 -0.13105947325E+02  0.59301943005E+02  0.49999998135E+02 0.  0.
         12    1    1    2    0    0 -0.65346378768E+01 -0.28324076035E+02  0.13105947325E+02  0.31886056995E+02  0.00000000000E+00 0. -1.
         11    1    3    3    0    0  0.75572767187E+01  0.84958394245E+01  0.95732051124E+01  0.14863982485E+02  0.51100000000E-03 0. -1.
        -11    1    3    3    0    0  0.73023497373E+01  0.81155228494E+01  0.59291965084E+01  0.12423421200E+02  0.51100000000E-03 0.  1.
        -12    1    3    3    0    0 -0.83249885792E+01  0.11712713761E+02 -0.28608348946E+02  0.32014539320E+02  0.00000000000E+00 0.  1.
</event>
<event>
 7    1  0.3461631E-013  0.5930195E+02  0.7816164E-02  0.1266605E+00
        -11   -1    0    0    0    0  0.00000000000E+00  0.00000000000E+00  0.45593999997E+02  0.45594000000E+02  0.51100000000E-03 0.  1.
         11   -1    0    0    0    0 -0.00000000000E+00 -0.00000000000E+00 -0.45593999997E+02  0.45594000000E+02  0.51100000000E-03 0. -1.
    9900012    2    1    2    0    0 -0.18997520501E+02  0.13211665173E+02  0.21937777062E+02  0.59301953769E+02  0.50000017766E+02 0.  0.
         12    1    1    2    0    0  0.18997520501E+02 -0.13211665173E+02 -0.21937777062E+02  0.31886046231E+02  0.00000000000E+00 0. -1.
         11    1    3    3    0    0 -0.26325598696E+01  0.31138848252E+01 -0.87609688240E+01  0.96633961508E+01  0.51100000000E-03 0. -1.
        -11    1    3    3    0    0  0.10563442521E+02  0.12832300900E+01  0.92872212713E+01  0.14123932759E+02  0.51100000000E-03 0.  1.
        -12    1    3    3    0    0 -0.26928403153E+02  0.88145502580E+01  0.21411524614E+02  0.35514624860E+02  0.00000000000E+00 0.  1.
</event>
<event>
 7    1  0.3461631E-013  0.5930188E+02  0.7816164E-02  0.1266605E+00
        -11   -1    0    0    0    0  0.00000000000E+00  0.00000000000E+00  0.45593999997E+02  0.45594000000E+02  0.51100000000E-03 0.  1.
         11   -1    0    0    0    0 -0.00000000000E+00 -0.00000000000E+00 -0.45593999997E+02  0.45594000000E+02  0.51100000000E-03 0. -1.
    9900012    2    1    2    0    0 -0.24954156283E+01  0.11698590309E+02  0.29557408147E+02  0.59301882476E+02  0.49999887744E+02 0.  0.
         12    1    1    2    0    0  0.24954156283E+01 -0.11698590309E+02 -0.29557408147E+02  0.31886117524E+02  0.00000000000E+00 0. -1.
         11    1    3    3    0    0 -0.57701110565E+01  0.28530016049E+01  0.10819034424E+02  0.12589094721E+02  0.51100000000E-03 0. -1.
        -11    1    3    3    0    0 -0.15983962398E+02  0.95462589911E+01 -0.16098299573E+01  0.18687152470E+02  0.51100000000E-03 0.  1.
         12    1    3    3    0    0  0.19258657826E+02 -0.70067028692E+00  0.20348203681E+02  0.28025635286E+02  0.00000000000E+00 0. -1.
</event>
<event>
 7    1  0.3461631E-013  0.5930196E+02  0.7816164E-02  0.1266605E+00
        -11   -1    0    0    0    0  0.00000000000E+00  0.00000000000E+00  0.45593999997E+02  0.45594000000E+02  0.51100000000E-03 0.  1.
         11   -1    0    0    0    0 -0.00000000000E+00 -0.00000000000E+00 -0.45593999997E+02  0.45594000000E+02  0.51100000000E-03 0. -1.
    9900012    2    1    2    0    0  0.18129665629E+02  0.36407863949E+01  0.25976521931E+02  0.59301956140E+02  0.50000022090E+02 0.  0.
         12    1    1    2    0    0 -0.18129665629E+02 -0.36407863949E+01 -0.25976521931E+02  0.31886043860E+02  0.00000000000E+00 0. -1.
         11    1    3    3    0    0 -0.29368030650E+01 -0.26338195599E+01  0.18758659907E+02  0.19168962922E+02  0.51100000000E-03 0. -1.
        -11    1    3    3    0    0 -0.48702967689E+01  0.59756134288E+01  0.11498633169E+02  0.13843637943E+02  0.51100000000E-03 0.  1.
        -12    1    3    3    0    0  0.25936765463E+02  0.29899252605E+00 -0.42807711455E+01  0.26289355276E+02  0.00000000000E+00 0.  1.
</event>
<event>
 7    1  0.3461631E-013  0.5930195E+02  0.7816164E-02  0.1266605E+00
        -11   -1    0    0    0    0  0.00000000000E+00  0.00000000000E+00  0.45593999997E+02  0.45594000000E+02  0.51100000000E-03 0.  1.
         11   -1    0    0    0    0 -0.00000000000E+00 -0.00000000000E+00 -0.45593999997E+02  0.45594000000E+02  0.51100000000E-03 0. -1.
    9900012    2    1    2    0    0  0.66394144020E+01  0.23063741159E+02  0.20992904509E+02  0.59301952588E+02  0.50000015612E+02 0.  0.
         12    1    1    2    0    0 -0.66394144020E+01 -0.23063741159E+02 -0.20992904509E+02  0.31886047412E+02  0.00000000000E+00 0. -1.
         11    1    3    3    0    0 -0.39267304111E+01 -0.39807704312E+01  0.23964309273E+01  0.60834715745E+01  0.51100000000E-03 0. -1.
        -11    1    3    3    0    0  0.57125726172E+01 -0.97894304316E+01  0.99296164717E+01  0.15068633568E+02  0.51100000000E-03 0.  1.
         12    1    3    3    0    0  0.48535721959E+01  0.36833942022E+02  0.86668571098E+01  0.38149847445E+02  0.00000000000E+00 0. -1.
</event>
<event>
 7    1  0.3461631E-013  0.5930193E+02  0.7816164E-02  0.1266605E+00
        -11   -1    0    0    0    0  0.00000000000E+00  0.00000000000E+00  0.45593999997E+02  0.45594000000E+02  0.51100000000E-03 0.  1.
         11   -1    0    0    0    0 -0.00000000000E+00 -0.00000000000E+00 -0.45593999997E+02  0.45594000000E+02  0.51100000000E-03 0. -1.
    9900012    2    1    2    0    0  0.24054428913E+02  0.14972858527E+02  0.14625992487E+02  0.59301926252E+02  0.49999967582E+02 0.  0.
         12    1    1    2    0    0 -0.24054428913E+02 -0.14972858527E+02 -0.14625992487E+02  0.31886073748E+02  0.00000000000E+00 0. -1.
         11    1    3    3    0    0  0.13510705032E+02 -0.84290539600E+01  0.14037870270E+02  0.21228516272E+02  0.51100000000E-03 0. -1.
        -11    1    3    3    0    0  0.88799930487E+01  0.45717808953E+01  0.12293411406E+02  0.15839299901E+02  0.51100000000E-03 0.  1.
         12    1    3    3    0    0  0.16637308325E+01  0.18830131592E+02 -0.11705289189E+02  0.22234110080E+02  0.00000000000E+00 0. -1.
</event>
<event>
 7    1  0.3461631E-013  0.5930192E+02  0.7816164E-02  0.1266605E+00
        -11   -1    0    0    0    0  0.00000000000E+00  0.00000000000E+00  0.45593999997E+02  0.45594000000E+02  0.51100000000E-03 0.  1.
         11   -1    0    0    0    0 -0.00000000000E+00 -0.00000000000E+00 -0.45593999997E+02  0.45594000000E+02  0.51100000000E-03 0. -1.
    9900012    2    1    2    0    0 -0.68767246082E+01  0.24237155922E+02  0.19544638136E+02  0.59301922342E+02  0.49999960451E+02 0.  0.
         12    1    1    2    0    0  0.68767246082E+01 -0.24237155922E+02 -0.19544638136E+02  0.31886077658E+02  0.00000000000E+00 0. -1.
         11    1    3    3    0    0 -0.14574695737E+02  0.91728533532E+01  0.89019684540E+01  0.19385768932E+02  0.51100000000E-03 0. -1.
        -11    1    3    3    0    0  0.12042185077E+01  0.63401394032E+01  0.22746358395E+02  0.23644118303E+02  0.51100000000E-03 0.  1.
         12    1    3    3    0    0  0.64937526212E+01  0.87241631661E+01 -0.12103688713E+02  0.16272035107E+02  0.00000000000E+00 0. -1.
</event>
<event>
 7    1  0.3461631E-013  0.5930199E+02  0.7816164E-02  0.1266605E+00
        -11   -1    0    0    0    0  0.00000000000E+00  0.00000000000E+00  0.45593999997E+02  0.45594000000E+02  0.51100000000E-03 0.  1.
         11   -1    0    0    0    0 -0.00000000000E+00 -0.00000000000E+00 -0.45593999997E+02  0.45594000000E+02  0.51100000000E-03 0. -1.
    9900012    2    1    2    0    0 -0.28408024555E+02 -0.12962790606E+02 -0.64550776683E+01  0.59301986968E+02  0.50000078312E+02 0.  0.
         12    1    1    2    0    0  0.28408024555E+02  0.12962790606E+02  0.64550776683E+01  0.31886013032E+02  0.00000000000E+00 0. -1.
         11    1    3    3    0    0 -0.13862716374E+01  0.22294572819E+01 -0.17926795017E+02  0.18118007856E+02  0.51100000000E-03 0. -1.
        -11    1    3    3    0    0 -0.73299135208E+01  0.95481045978E+00 -0.66385992846E+01  0.99353055292E+01  0.51100000000E-03 0.  1.
        -12    1    3    3    0    0 -0.19691839397E+02 -0.16147058348E+02  0.18110316633E+02  0.31248673582E+02  0.00000000000E+00 0.  1.
</event>
<event>
 7    1  0.3461631E-013  0.5930195E+02  0.7816164E-02  0.1266605E+00
        -11   -1    0    0    0    0  0.00000000000E+00  0.00000000000E+00  0.45593999997E+02  0.45594000000E+02  0.51100000000E-03 0. -1.
         11   -1    0    0    0    0 -0.00000000000E+00 -0.00000000000E+00 -0.45593999997E+02  0.45594000000E+02  0.51100000000E-03 0.  1.
    9900012    2    1    2    0    0  0.20026637507E+02  0.23038280825E+02 -0.92136463025E+01  0.59301954912E+02  0.50000019850E+02 0.  0.
         12    1    1    2    0    0 -0.20026637507E+02 -0.23038280825E+02  0.92136463025E+01  0.31886045088E+02  0.00000000000E+00 0. -1.
         11    1    3    3    0    0  0.15143450957E+02  0.18187284269E+02 -0.11854605793E+02  0.26469474773E+02  0.51100000000E-03 0. -1.
        -11    1    3    3    0    0  0.65277566053E+00 -0.15510616081E+01 -0.14213840428E+02  0.14313111756E+02  0.51100000000E-03 0.  1.
         12    1    3    3    0    0  0.42304108885E+01  0.64020581644E+01  0.16854799918E+02  0.18519368383E+02  0.00000000000E+00 0. -1.
</event>
<event>
 7    1  0.3461631E-013  0.5930195E+02  0.7816164E-02  0.1266605E+00
        -11   -1    0    0    0    0  0.00000000000E+00  0.00000000000E+00  0.45593999997E+02  0.45594000000E+02  0.51100000000E-03 0. -1.
         11   -1    0    0    0    0 -0.00000000000E+00 -0.00000000000E+00 -0.45593999997E+02  0.45594000000E+02  0.51100000000E-03 0.  1.
    9900012    2    1    2    0    0  0.10700851794E+02  0.26152756377E+02 -0.14773125623E+02  0.59301950764E+02  0.50000012285E+02 0.  0.
         12    1    1    2    0    0 -0.10700851794E+02 -0.26152756377E+02  0.14773125623E+02  0.31886049236E+02  0.00000000000E+00 0. -1.
         11    1    3    3    0    0 -0.38735678377E+01 -0.81891571075E+01  0.57663155845E+01  0.10738585457E+02  0.51100000000E-03 0. -1.
        -11    1    3    3    0    0  0.10623425772E+02  0.21940004547E+01 -0.13901600691E+01  0.10936332037E+02  0.51100000000E-03 0.  1.
        -12    1    3    3    0    0  0.39509938597E+01  0.32147913030E+02 -0.19149281138E+02  0.37627033271E+02  0.00000000000E+00 0.  1.
</event>
<event>
 7    1  0.3461631E-013  0.5930191E+02  0.7816164E-02  0.1266605E+00
        -11   -1    0    0    0    0  0.00000000000E+00  0.00000000000E+00  0.45593999997E+02  0.45594000000E+02  0.51100000000E-03 0.  1.
         11   -1    0    0    0    0 -0.00000000000E+00 -0.00000000000E+00 -0.45593999997E+02  0.45594000000E+02  0.51100000000E-03 0. -1.
    9900012    2    1    2    0    0 -0.22947364892E+02  0.20147205695E+02 -0.91777670816E+01  0.59301908026E+02  0.49999934341E+02 0.  0.
         12    1    1    2    0    0  0.22947364892E+02 -0.20147205695E+02  0.91777670816E+01  0.31886091974E+02  0.00000000000E+00 0. -1.
         11    1    3    3    0    0 -0.84606968070E+01  0.27338053919E+02 -0.16229131835E+02  0.32898895163E+02  0.51100000000E-03 0. -1.
        -11    1    3    3    0    0 -0.11877383290E+01 -0.18829492835E+01 -0.63881069728E+01  0.67649191643E+01  0.51100000000E-03 0.  1.
        -12    1    3    3    0    0 -0.13298929756E+02 -0.53078989408E+01  0.13439471726E+02  0.19638093698E+02  0.00000000000E+00 0.  1.
</event>
<event>
 7    1  0.3461631E-013  0.5930196E+02  0.7816164E-02  0.1266605E+00
        -11   -1    0    0    0    0  0.00000000000E+00  0.00000000000E+00  0.45593999997E+02  0.45594000000E+02  0.51100000000E-03 0. -1.
         11   -1    0    0    0    0 -0.00000000000E+00 -0.00000000000E+00 -0.45593999997E+02  0.45594000000E+02  0.51100000000E-03 0.  1.
    9900012    2    1    2    0    0 -0.24810231944E+02 -0.19829295270E+02 -0.28232836314E+01  0.59301960884E+02  0.50000030742E+02 0.  0.
         12    1    1    2    0    0  0.24810231944E+02  0.19829295270E+02  0.28232836314E+01  0.31886039116E+02  0.00000000000E+00 0. -1.
         11    1    3    3    0    0 -0.10693597817E+01 -0.45170893960E+01  0.26833283413E+01  0.53617047851E+01  0.51100000000E-03 0. -1.
        -11    1    3    3    0    0 -0.36772002445E+02 -0.16355313680E+02 -0.15231940234E+01  0.40274018544E+02  0.51100000000E-03 0.  1.
         12    1    3    3    0    0  0.13031130283E+02  0.10431078063E+01 -0.39834179493E+01  0.13666237555E+02  0.00000000000E+00 0. -1.
</event>
<event>
 7    1  0.3461631E-013  0.5930196E+02  0.7816164E-02  0.1266605E+00
        -11   -1    0    0    0    0  0.00000000000E+00  0.00000000000E+00  0.45593999997E+02  0.45594000000E+02  0.51100000000E-03 0.  1.
         11   -1    0    0    0    0 -0.00000000000E+00 -0.00000000000E+00 -0.45593999997E+02  0.45594000000E+02  0.51100000000E-03 0. -1.
    9900012    2    1    2    0    0 -0.50740666640E+01 -0.29199449330E+02  0.11762894027E+02  0.59301958076E+02  0.50000025621E+02 0.  0.
         12    1    1    2    0    0  0.50740666640E+01  0.29199449330E+02 -0.11762894027E+02  0.31886041924E+02  0.00000000000E+00 0. -1.
         11    1    3    3    0    0  0.15352907306E+01 -0.18556911026E+02 -0.12839768977E+02  0.22618039970E+02  0.51100000000E-03 0. -1.
        -11    1    3    3    0    0 -0.77307121892E+01  0.54059048633E+01  0.33102422053E+01  0.99972707307E+01  0.51100000000E-03 0.  1.
        -12    1    3    3    0    0  0.11213547947E+01 -0.16048443168E+02  0.21292420799E+02  0.26686647375E+02  0.00000000000E+00 0.  1.
</event>
<event>
 7    1  0.3461631E-013  0.5930200E+02  0.7816164E-02  0.1266605E+00
        -11   -1    0    0    0    0  0.00000000000E+00  0.00000000000E+00  0.45593999997E+02  0.45594000000E+02  0.51100000000E-03 0.  1.
         11   -1    0    0    0    0 -0.00000000000E+00 -0.00000000000E+00 -0.45593999997E+02  0.45594000000E+02  0.51100000000E-03 0. -1.
    9900012    2    1    2    0    0  0.30635055504E+02 -0.38241349350E+01 -0.79740918614E+01  0.59302003469E+02  0.50000108407E+02 0.  0.
         12    1    1    2    0    0 -0.30635055504E+02  0.38241349350E+01  0.79740918614E+01  0.31885996531E+02  0.00000000000E+00 0. -1.
         11    1    3    3    0    0  0.12014865205E+02  0.12225498951E+02 -0.16728161775E+02  0.23951016829E+02  0.51100000000E-03 0. -1.
        -11    1    3    3    0    0 -0.68910988836E+00  0.37573327787E+01 -0.34215541237E+01  0.51282994190E+01  0.51100000000E-03 0.  1.
        -12    1    3    3    0    0  0.19309300188E+02 -0.19806966665E+02  0.12175624038E+02  0.30222687222E+02  0.00000000000E+00 0.  1.
</event>
<event>
 7    1  0.3461631E-013  0.5930191E+02  0.7816164E-02  0.1266605E+00
        -11   -1    0    0    0    0  0.00000000000E+00  0.00000000000E+00  0.45593999997E+02  0.45594000000E+02  0.51100000000E-03 0.  1.
         11   -1    0    0    0    0 -0.00000000000E+00 -0.00000000000E+00 -0.45593999997E+02  0.45594000000E+02  0.51100000000E-03 0. -1.
    9900012    2    1    2    0    0  0.45294751904E+01 -0.26844157820E+02 -0.16601130838E+02  0.59301913698E+02  0.49999944686E+02 0.  0.
         12    1    1    2    0    0 -0.45294751904E+01  0.26844157820E+02  0.16601130838E+02  0.31886086302E+02  0.00000000000E+00 0. -1.
         11    1    3    3    0    0 -0.18613911168E+00 -0.33481934060E+00 -0.56211926234E+01  0.56342309618E+01  0.51100000000E-03 0. -1.
        -11    1    3    3    0    0 -0.68402923054E+01 -0.20656946921E+02 -0.25953599302E+02  0.33868693095E+02  0.51100000000E-03 0.  1.
        -12    1    3    3    0    0  0.11555906607E+02 -0.58523915580E+01  0.14973661088E+02  0.19798989642E+02  0.00000000000E+00 0.  1.
</event>
<event>
 7    1  0.3461631E-013  0.5930196E+02  0.7816164E-02  0.1266605E+00
        -11   -1    0    0    0    0  0.00000000000E+00  0.00000000000E+00  0.45593999997E+02  0.45594000000E+02  0.51100000000E-03 0. -1.
         11   -1    0    0    0    0 -0.00000000000E+00 -0.00000000000E+00 -0.45593999997E+02  0.45594000000E+02  0.51100000000E-03 0.  1.
    9900012    2    1    2    0    0 -0.28707667383E+02 -0.71549822635E+01 -0.11890992750E+02  0.59301958441E+02  0.50000026286E+02 0.  0.
         12    1    1    2    0    0  0.28707667383E+02  0.71549822635E+01  0.11890992750E+02  0.31886041559E+02  0.00000000000E+00 0. -1.
         11    1    3    3    0    0 -0.11006332137E+02 -0.13235871656E+02  0.12046955558E+02  0.21010872997E+02  0.51100000000E-03 0. -1.
        -11    1    3    3    0    0  0.39614597122E+00  0.69521371900E+01  0.14383472643E+01  0.71104139298E+01  0.51100000000E-03 0.  1.
         12    1    3    3    0    0 -0.18097481217E+02 -0.87124779710E+00 -0.25376295572E+02  0.31180671514E+02  0.00000000000E+00 0. -1.
</event>
<event>
 7    1  0.3461631E-013  0.5930194E+02  0.7816164E-02  0.1266605E+00
        -11   -1    0    0    0    0  0.00000000000E+00  0.00000000000E+00  0.45593999997E+02  0.45594000000E+02  0.51100000000E-03 0.  1.
         11   -1    0    0    0    0 -0.00000000000E+00 -0.00000000000E+00 -0.45593999997E+02  0.45594000000E+02  0.51100000000E-03 0. -1.
    9900012    2    1    2    0    0 -0.85567108083E+01  0.22276851517E+02  0.21148177163E+02  0.59301940182E+02  0.49999992987E+02 0.  0.
         12    1    1    2    0    0  0.85567108083E+01 -0.22276851517E+02 -0.21148177163E+02  0.31886059818E+02  0.00000000000E+00 0. -1.
         11    1    3    3    0    0  0.17308398216E+00  0.79591084798E+01  0.25247806623E+01  0.83517593064E+01  0.51100000000E-03 0. -1.
        -11    1    3    3    0    0 -0.18554357914E+02  0.18707001231E+02 -0.32751081603E+01  0.26550751898E+02  0.51100000000E-03 0.  1.
         12    1    3    3    0    0  0.98245631232E+01 -0.43892581933E+01  0.21898504661E+02  0.24399428978E+02  0.00000000000E+00 0. -1.
</event>
<event>
 7    1  0.3461631E-013  0.5930193E+02  0.7816164E-02  0.1266605E+00
        -11   -1    0    0    0    0  0.00000000000E+00  0.00000000000E+00  0.45593999997E+02  0.45594000000E+02  0.51100000000E-03 0. -1.
         11   -1    0    0    0    0 -0.00000000000E+00 -0.00000000000E+00 -0.45593999997E+02  0.45594000000E+02  0.51100000000E-03 0.  1.
    9900012    2    1    2    0    0 -0.28080810346E+01 -0.74436389319E+01 -0.30877637369E+02  0.59301928290E+02  0.49999971297E+02 0.  0.
         12    1    1    2    0    0  0.28080810346E+01  0.74436389319E+01  0.30877637369E+02  0.31886071710E+02  0.00000000000E+00 0. -1.
         11    1    3    3    0    0 -0.13562844625E+02  0.70838214412E+01 -0.18733050553E+02  0.24187981806E+02  0.51100000000E-03 0. -1.
        -11    1    3    3    0    0 -0.18209348792E+01  0.48514363722E+01  0.43191652820E+01  0.67459193371E+01  0.51100000000E-03 0.  1.
        -12    1    3    3    0    0  0.12575698470E+02 -0.19378896745E+02 -0.16463752098E+02  0.28368027147E+02  0.00000000000E+00 0.  1.
</event>
<event>
 7    1  0.3461631E-013  0.5930201E+02  0.7816164E-02  0.1266605E+00
        -11   -1    0    0    0    0  0.00000000000E+00  0.00000000000E+00  0.45593999997E+02  0.45594000000E+02  0.51100000000E-03 0.  1.
         11   -1    0    0    0    0 -0.00000000000E+00 -0.00000000000E+00 -0.45593999997E+02  0.45594000000E+02  0.51100000000E-03 0. -1.
    9900012    2    1    2    0    0  0.79915841945E+01  0.11810627288E+00  0.30868056876E+02  0.59302010877E+02  0.50000121917E+02 0.  0.
         12    1    1    2    0    0 -0.79915841945E+01 -0.11810627288E+00 -0.30868056876E+02  0.31885989123E+02  0.00000000000E+00 0. -1.
         11    1    3    3    0    0  0.32080959138E+01  0.69270947841E+01  0.10845170839E+02  0.13262513047E+02  0.51100000000E-03 0. -1.
        -11    1    3    3    0    0  0.56033461390E+01  0.68881122282E+01  0.28540047281E+02  0.29889427513E+02  0.51100000000E-03 0.  1.
         12    1    3    3    0    0 -0.81985785822E+00 -0.13697100739E+02 -0.85171612440E+01  0.16150070317E+02  0.00000000000E+00 0. -1.
</event>
<event>
 7    1  0.3461631E-013  0.5930195E+02  0.7816164E-02  0.1266605E+00
        -11   -1    0    0    0    0  0.00000000000E+00  0.00000000000E+00  0.45593999997E+02  0.45594000000E+02  0.51100000000E-03 0. -1.
         11   -1    0    0    0    0 -0.00000000000E+00 -0.00000000000E+00 -0.45593999997E+02  0.45594000000E+02  0.51100000000E-03 0.  1.
    9900012    2    1    2    0    0  0.25911645561E+02 -0.17012524756E+02  0.74753296957E+01  0.59301954019E+02  0.50000018222E+02 0.  0.
         12    1    1    2    0    0 -0.25911645561E+02  0.17012524756E+02 -0.74753296957E+01  0.31886045981E+02  0.00000000000E+00 0. -1.
         11    1    3    3    0    0  0.26439097225E+02 -0.19314209501E+02  0.65695440869E+01  0.33394961603E+02  0.51100000000E-03 0. -1.
        -11    1    3    3    0    0  0.12091684231E+02 -0.44217190472E+00 -0.29027922698E+01  0.12443092331E+02  0.51100000000E-03 0.  1.
         12    1    3    3    0    0 -0.12619135895E+02  0.27438566496E+01  0.38085778787E+01  0.13463900085E+02  0.00000000000E+00 0. -1.
</event>
<event>
 7    1  0.3461631E-013  0.5930196E+02  0.7816164E-02  0.1266605E+00
        -11   -1    0    0    0    0  0.00000000000E+00  0.00000000000E+00  0.45593999997E+02  0.45594000000E+02  0.51100000000E-03 0.  1.
         11   -1    0    0    0    0 -0.00000000000E+00 -0.00000000000E+00 -0.45593999997E+02  0.45594000000E+02  0.51100000000E-03 0. -1.
    9900012    2    1    2    0    0 -0.10122633935E+02  0.81553650158E+01  0.29116011846E+02  0.59301955370E+02  0.50000020686E+02 0.  0.
         12    1    1    2    0    0  0.10122633935E+02 -0.81553650158E+01 -0.29116011846E+02  0.31886044630E+02  0.00000000000E+00 0. -1.
         11    1    3    3    0    0 -0.96106189363E+01  0.96754525759E+00 -0.90103722539E+01  0.13209350801E+02  0.51100000000E-03 0. -1.
        -11    1    3    3    0    0 -0.33262453961E+01 -0.66272179751E+01  0.25780556081E+01  0.78504966406E+01  0.51100000000E-03 0.  1.
         12    1    3    3    0    0  0.28142303979E+01  0.13815037733E+02  0.35548328492E+02  0.38242107929E+02  0.00000000000E+00 0. -1.
</event>
<event>
 7    1  0.3461631E-013  0.5930195E+02  0.7816164E-02  0.1266605E+00
        -11   -1    0    0    0    0  0.00000000000E+00  0.00000000000E+00  0.45593999997E+02  0.45594000000E+02  0.51100000000E-03 0.  1.
         11   -1    0    0    0    0 -0.00000000000E+00 -0.00000000000E+00 -0.45593999997E+02  0.45594000000E+02  0.51100000000E-03 0. -1.
    9900012    2    1    2    0    0  0.30932016219E+02 -0.74195710477E+01  0.22091224483E+01  0.59301954716E+02  0.50000019492E+02 0.  0.
         12    1    1    2    0    0 -0.30932016219E+02  0.74195710477E+01 -0.22091224483E+01  0.31886045284E+02  0.00000000000E+00 0. -1.
         11    1    3    3    0    0 -0.21746819422E+01  0.20583732937E+01  0.17434250211E+01  0.34649203787E+01  0.51100000000E-03 0. -1.
        -11    1    3    3    0    0 -0.48889119505E+01  0.10647084161E+02 -0.45096011482E+01  0.12553818700E+02  0.51100000000E-03 0.  1.
        -12    1    3    3    0    0  0.37995610111E+02 -0.20125028502E+02  0.49752985753E+01  0.43283215637E+02  0.00000000000E+00 0.  1.
</event>
<event>
 7    1  0.3461631E-013  0.5930193E+02  0.7816164E-02  0.1266605E+00
        -11   -1    0    0    0    0  0.00000000000E+00  0.00000000000E+00  0.45593999997E+02  0.45594000000E+02  0.51100000000E-03 0. -1.
         11   -1    0    0    0    0 -0.00000000000E+00 -0.00000000000E+00 -0.45593999997E+02  0.45594000000E+02  0.51100000000E-03 0.  1.
    9900012    2    1    2    0    0 -0.45998788022E+01 -0.12192915380E+02 -0.29101472402E+02  0.59301925195E+02  0.49999965654E+02 0.  0.
         12    1    1    2    0    0  0.45998788022E+01  0.12192915380E+02  0.29101472402E+02  0.31886074805E+02  0.00000000000E+00 0. -1.
         11    1    3    3    0    0 -0.15085252204E+02  0.35961806276E+01 -0.25650008635E+01  0.15718669755E+02  0.51100000000E-03 0. -1.
        -11    1    3    3    0    0 -0.93048954669E+01 -0.22314430467E+01 -0.31311913255E+01  0.10068007603E+02  0.51100000000E-03 0.  1.
        -12    1    3    3    0    0  0.19790268869E+02 -0.13557652961E+02 -0.23405280213E+02  0.33515247837E+02  0.00000000000E+00 0.  1.
</event>
<event>
 7    1  0.3461631E-013  0.5930193E+02  0.7816164E-02  0.1266605E+00
        -11   -1    0    0    0    0  0.00000000000E+00  0.00000000000E+00  0.45593999997E+02  0.45594000000E+02  0.51100000000E-03 0. -1.
         11   -1    0    0    0    0 -0.00000000000E+00 -0.00000000000E+00 -0.45593999997E+02  0.45594000000E+02  0.51100000000E-03 0.  1.
    9900012    2    1    2    0    0 -0.28888343658E+02 -0.96047711023E+01 -0.94833293935E+01  0.59301928376E+02  0.49999971455E+02 0.  0.
         12    1    1    2    0    0  0.28888343658E+02  0.96047711023E+01  0.94833293935E+01  0.31886071624E+02  0.00000000000E+00 0. -1.
         11    1    3    3    0    0 -0.54559756712E+00  0.62505669467E+01 -0.47441746076E+01  0.78660318350E+01  0.51100000000E-03 0. -1.
        -11    1    3    3    0    0 -0.19625892272E+00  0.10830393847E+02 -0.64591946776E+01  0.12611785940E+02  0.51100000000E-03 0.  1.
         12    1    3    3    0    0 -0.28146487168E+02 -0.26685731896E+02  0.17200398916E+01  0.38824110601E+02  0.00000000000E+00 0. -1.
</event>
<event>
 7    1  0.3461631E-013  0.5930195E+02  0.7816164E-02  0.1266605E+00
        -11   -1    0    0    0    0  0.00000000000E+00  0.00000000000E+00  0.45593999997E+02  0.45594000000E+02  0.51100000000E-03 0. -1.
         11   -1    0    0    0    0 -0.00000000000E+00 -0.00000000000E+00 -0.45593999997E+02  0.45594000000E+02  0.51100000000E-03 0.  1.
    9900012    2    1    2    0    0 -0.19709567399E+02 -0.71536956827E+01 -0.24022443558E+02  0.59301949704E+02  0.50000010353E+02 0.  0.
         12    1    1    2    0    0  0.19709567399E+02  0.71536956827E+01  0.24022443558E+02  0.31886050296E+02  0.00000000000E+00 0. -1.
         11    1    3    3    0    0  0.47685984711E+01 -0.58269702450E+01  0.10666852510E+01  0.76046651012E+01  0.51100000000E-03 0.  1.
        -11    1    3    3    0    0 -0.19260265983E+02 -0.18645920731E+02 -0.17893136114E+02  0.32230304465E+02  0.51100000000E-03 0. -1.
        -12    1    3    3    0    0 -0.52178998868E+01  0.17319195293E+02 -0.71959926942E+01  0.19466980138E+02  0.00000000000E+00 0.  1.
</event>
<event>
 7    1  0.3461631E-013  0.5930193E+02  0.7816164E-02  0.1266605E+00
        -11   -1    0    0    0    0  0.00000000000E+00  0.00000000000E+00  0.45593999997E+02  0.45594000000E+02  0.51100000000E-03 0.  1.
         11   -1    0    0    0    0 -0.00000000000E+00 -0.00000000000E+00 -0.45593999997E+02  0.45594000000E+02  0.51100000000E-03 0. -1.
    9900012    2    1    2    0    0 -0.23328562498E+02  0.15025014435E+02  0.15708232194E+02  0.59301930226E+02  0.49999974828E+02 0.  0.
         12    1    1    2    0    0  0.23328562498E+02 -0.15025014435E+02 -0.15708232194E+02  0.31886069774E+02  0.00000000000E+00 0. -1.
         11    1    3    3    0    0  0.60915930838E+00  0.12604530498E+02  0.92524056274E+00  0.12653115605E+02  0.51100000000E-03 0. -1.
        -11    1    3    3    0    0 -0.27529815011E+02  0.83900563764E+01 -0.16221336469E+01  0.28825597624E+02  0.51100000000E-03 0.  1.
        -12    1    3    3    0    0  0.35920932053E+01 -0.59695724394E+01  0.16405125279E+02  0.17823216997E+02  0.00000000000E+00 0.  1.
</event>
<event>
 7    1  0.3461631E-013  0.5930183E+02  0.7816164E-02  0.1266605E+00
        -11   -1    0    0    0    0  0.00000000000E+00  0.00000000000E+00  0.45593999997E+02  0.45594000000E+02  0.51100000000E-03 0. -1.
         11   -1    0    0    0    0 -0.00000000000E+00 -0.00000000000E+00 -0.45593999997E+02  0.45594000000E+02  0.51100000000E-03 0.  1.
    9900012    2    1    2    0    0  0.16482154958E+02  0.13272674139E+02 -0.23851676312E+02  0.59301830996E+02  0.49999793857E+02 0.  0.
         12    1    1    2    0    0 -0.16482154958E+02 -0.13272674139E+02  0.23851676312E+02  0.31886169004E+02  0.00000000000E+00 0. -1.
         11    1    3    3    0    0  0.13455797322E+02  0.61838263345E+01 -0.12809454461E+02  0.19580099938E+02  0.51100000000E-03 0. -1.
        -11    1    3    3    0    0 -0.10104948826E+02 -0.36707632571E+01 -0.18327485576E+02  0.21248087478E+02  0.51100000000E-03 0.  1.
         12    1    3    3    0    0  0.13131306462E+02  0.10759611061E+02  0.72852637250E+01  0.18473643581E+02  0.00000000000E+00 0. -1.
</event>
<event>
 7    1  0.3461631E-013  0.5930190E+02  0.7816164E-02  0.1266605E+00
        -11   -1    0    0    0    0  0.00000000000E+00  0.00000000000E+00  0.45593999997E+02  0.45594000000E+02  0.51100000000E-03 0. -1.
         11   -1    0    0    0    0 -0.00000000000E+00 -0.00000000000E+00 -0.45593999997E+02  0.45594000000E+02  0.51100000000E-03 0.  1.
    9900012    2    1    2    0    0 -0.74979990259E+01  0.21470394167E+02 -0.22350070184E+02  0.59301898759E+02  0.49999917441E+02 0.  0.
         12    1    1    2    0    0  0.74979990259E+01 -0.21470394167E+02  0.22350070184E+02  0.31886101241E+02  0.00000000000E+00 0. -1.
         11    1    3    3    0    0 -0.18948431876E+02  0.12299177272E+01  0.19464431789E+01  0.19087807875E+02  0.51100000000E-03 0. -1.
        -11    1    3    3    0    0 -0.42371109485E+01 -0.21136863893E+01 -0.35842600027E+01  0.59386614124E+01  0.51100000000E-03 0.  1.
        -12    1    3    3    0    0  0.15687543798E+02  0.22354162830E+02 -0.20712253360E+02  0.34275429472E+02  0.00000000000E+00 0.  1.
</event>
<event>
 7    1  0.3461631E-013  0.5930194E+02  0.7816164E-02  0.1266605E+00
        -11   -1    0    0    0    0  0.00000000000E+00  0.00000000000E+00  0.45593999997E+02  0.45594000000E+02  0.51100000000E-03 0.  1.
         11   -1    0    0    0    0 -0.00000000000E+00 -0.00000000000E+00 -0.45593999997E+02  0.45594000000E+02  0.51100000000E-03 0. -1.
    9900012    2    1    2    0    0  0.13497082209E+02 -0.76334470372E+00  0.28878481573E+02  0.59301943153E+02  0.49999998405E+02 0.  0.
         12    1    1    2    0    0 -0.13497082209E+02  0.76334470372E+00 -0.28878481573E+02  0.31886056847E+02  0.00000000000E+00 0. -1.
         11    1    3    3    0    0 -0.67009971568E+01 -0.16190144191E+02  0.11165237494E+02  0.20777070544E+02  0.51100000000E-03 0. -1.
        -11    1    3    3    0    0  0.28997742780E+01 -0.50678268260E+01  0.82045416077E+01  0.10070057738E+02  0.51100000000E-03 0.  1.
         12    1    3    3    0    0  0.17298305087E+02  0.20494626314E+02  0.95087024712E+01  0.28454814871E+02  0.00000000000E+00 0. -1.
</event>
<event>
 7    1  0.3461631E-013  0.5930179E+02  0.7816164E-02  0.1266605E+00
        -11   -1    0    0    0    0  0.00000000000E+00  0.00000000000E+00  0.45593999997E+02  0.45594000000E+02  0.51100000000E-03 0. -1.
         11   -1    0    0    0    0 -0.00000000000E+00 -0.00000000000E+00 -0.45593999997E+02  0.45594000000E+02  0.51100000000E-03 0.  1.
    9900012    2    1    2    0    0 -0.28188213366E+02  0.27198425889E+01 -0.14654615686E+02  0.59301785465E+02  0.49999710818E+02 0.  0.
         12    1    1    2    0    0  0.28188213366E+02 -0.27198425889E+01  0.14654615686E+02  0.31886214535E+02  0.00000000000E+00 0. -1.
         11    1    3    3    0    0 -0.68422525358E+01 -0.19353065464E+01  0.73054851379E+01  0.10194701788E+02  0.51100000000E-03 0. -1.
        -11    1    3    3    0    0  0.21352885847E+01 -0.10504814305E+02 -0.17899373438E+02  0.20863800005E+02  0.51100000000E-03 0.  1.
         12    1    3    3    0    0 -0.23481249415E+02  0.15159963441E+02 -0.40607273862E+01  0.28243283671E+02  0.00000000000E+00 0. -1.
</event>
<event>
 7    1  0.3461631E-013  0.5930197E+02  0.7816164E-02  0.1266605E+00
        -11   -1    0    0    0    0  0.00000000000E+00  0.00000000000E+00  0.45593999997E+02  0.45594000000E+02  0.51100000000E-03 0.  1.
         11   -1    0    0    0    0 -0.00000000000E+00 -0.00000000000E+00 -0.45593999997E+02  0.45594000000E+02  0.51100000000E-03 0. -1.
    9900012    2    1    2    0    0 -0.86621277198E+01 -0.27986888253E+02  0.12586515808E+02  0.59301972482E+02  0.50000051893E+02 0.  0.
         12    1    1    2    0    0  0.86621277198E+01  0.27986888253E+02 -0.12586515808E+02  0.31886027518E+02  0.00000000000E+00 0. -1.
         11    1    3    3    0    0 -0.21482160576E+02 -0.17971237004E+01  0.49686248715E+01  0.22122389337E+02  0.51100000000E-03 0. -1.
        -11    1    3    3    0    0 -0.41786599636E+01  0.88442345917E+00  0.20205360881E+01  0.47250365386E+01  0.51100000000E-03 0.  1.
         12    1    3    3    0    0  0.16998692820E+02 -0.27074188012E+02  0.55973548482E+01  0.32454546606E+02  0.00000000000E+00 0. -1.
</event>
<event>
 7    1  0.3461631E-013  0.5930195E+02  0.7816164E-02  0.1266605E+00
        -11   -1    0    0    0    0  0.00000000000E+00  0.00000000000E+00  0.45593999997E+02  0.45594000000E+02  0.51100000000E-03 0. -1.
         11   -1    0    0    0    0 -0.00000000000E+00 -0.00000000000E+00 -0.45593999997E+02  0.45594000000E+02  0.51100000000E-03 0.  1.
    9900012    2    1    2    0    0  0.30388818803E+02 -0.20753485187E+01  0.94304342694E+01  0.59301945521E+02  0.50000002724E+02 0.  0.
         12    1    1    2    0    0 -0.30388818803E+02  0.20753485187E+01 -0.94304342694E+01  0.31886054479E+02  0.00000000000E+00 0. -1.
         11    1    3    3    0    0  0.20155199661E+02 -0.13095422282E+01  0.15436787659E+02  0.25421278247E+02  0.51100000000E-03 0. -1.
        -11    1    3    3    0    0  0.18865240423E+02  0.80431617428E+01 -0.65695269615E+01  0.21534819057E+02  0.51100000000E-03 0.  1.
         12    1    3    3    0    0 -0.86316212808E+01 -0.88089680333E+01  0.56317357165E+00  0.12345848218E+02  0.00000000000E+00 0. -1.
</event>
<event>
 7    1  0.3461631E-013  0.5930195E+02  0.7816164E-02  0.1266605E+00
        -11   -1    0    0    0    0  0.00000000000E+00  0.00000000000E+00  0.45593999997E+02  0.45594000000E+02  0.51100000000E-03 0. -1.
         11   -1    0    0    0    0 -0.00000000000E+00 -0.00000000000E+00 -0.45593999997E+02  0.45594000000E+02  0.51100000000E-03 0.  1.
    9900012    2    1    2    0    0  0.10574418766E+02  0.26993609098E+02 -0.13275807877E+02  0.59301947577E+02  0.50000006472E+02 0.  0.
         12    1    1    2    0    0 -0.10574418766E+02 -0.26993609098E+02  0.13275807877E+02  0.31886052423E+02  0.00000000000E+00 0. -1.
         11    1    3    3    0    0 -0.17833076036E+01 -0.23193280373E+00  0.11745367679E+02  0.11882240572E+02  0.51100000000E-03 0. -1.
        -11    1    3    3    0    0 -0.78487836656E+01  0.14180371809E+02 -0.93084774028E+01  0.18690481575E+02  0.51100000000E-03 0.  1.
        -12    1    3    3    0    0  0.20206510035E+02  0.13045170092E+02 -0.15712698153E+02  0.28729225430E+02  0.00000000000E+00 0.  1.
</event>
<event>
 7    1  0.3461631E-013  0.5930193E+02  0.7816164E-02  0.1266605E+00
        -11   -1    0    0    0    0  0.00000000000E+00  0.00000000000E+00  0.45593999997E+02  0.45594000000E+02  0.51100000000E-03 0.  1.
         11   -1    0    0    0    0 -0.00000000000E+00 -0.00000000000E+00 -0.45593999997E+02  0.45594000000E+02  0.51100000000E-03 0. -1.
    9900012    2    1    2    0    0 -0.29243598241E+02 -0.11391666724E+02  0.56358720702E+01  0.59301934661E+02  0.49999982917E+02 0.  0.
         12    1    1    2    0    0  0.29243598241E+02  0.11391666724E+02 -0.56358720702E+01  0.31886065339E+02  0.00000000000E+00 0. -1.
         11    1    3    3    0    0 -0.36912613664E+02 -0.75924841777E+01 -0.79440081956E+01  0.38513557742E+02  0.51100000000E-03 0. -1.
        -11    1    3    3    0    0 -0.36714429976E+01 -0.10546192493E+01  0.18525205582E+01  0.42454149532E+01  0.51100000000E-03 0.  1.
        -12    1    3    3    0    0  0.11340458421E+02 -0.27445632967E+01  0.11727359708E+02  0.16542961966E+02  0.00000000000E+00 0.  1.
</event>
<event>
 7    1  0.3461631E-013  0.5930199E+02  0.7816164E-02  0.1266605E+00
        -11   -1    0    0    0    0  0.00000000000E+00  0.00000000000E+00  0.45593999997E+02  0.45594000000E+02  0.51100000000E-03 0.  1.
         11   -1    0    0    0    0 -0.00000000000E+00 -0.00000000000E+00 -0.45593999997E+02  0.45594000000E+02  0.51100000000E-03 0. -1.
    9900012    2    1    2    0    0  0.55541927230E+01  0.24570014991E+02  0.19549494573E+02  0.59301993171E+02  0.50000089625E+02 0.  0.
         12    1    1    2    0    0 -0.55541927230E+01 -0.24570014991E+02 -0.19549494573E+02  0.31886006829E+02  0.00000000000E+00 0. -1.
         11    1    3    3    0    0  0.23274461976E+02  0.90661806504E+01  0.12279506146E+01  0.25008080191E+02  0.51100000000E-03 0. -1.
        -11    1    3    3    0    0  0.10733573489E+01  0.53898950031E+01 -0.90344089817E+00  0.55694945785E+01  0.51100000000E-03 0.  1.
         12    1    3    3    0    0 -0.18793626602E+02  0.10113939337E+02  0.19224984856E+02  0.28724418401E+02  0.00000000000E+00 0. -1.
</event>
<event>
 7    1  0.3461631E-013  0.5930164E+02  0.7816164E-02  0.1266606E+00
        -11   -1    0    0    0    0  0.00000000000E+00  0.00000000000E+00  0.45593999997E+02  0.45594000000E+02  0.51100000000E-03 0.  1.
         11   -1    0    0    0    0 -0.00000000000E+00 -0.00000000000E+00 -0.45593999997E+02  0.45594000000E+02  0.51100000000E-03 0. -1.
    9900012    2    1    2    0    0  0.29493702382E+02  0.57118595358E+01  0.10688138686E+02  0.59301637270E+02  0.49999440544E+02 0.  0.
         12    1    1    2    0    0 -0.29493702382E+02 -0.57118595358E+01 -0.10688138686E+02  0.31886362730E+02  0.00000000000E+00 0. -1.
         11    1    3    3    0    0  0.31152989076E+02 -0.12097186839E+02 -0.77938230009E+00  0.33428402517E+02  0.51100000000E-03 0. -1.
        -11    1    3    3    0    0 -0.34552197562E+01  0.38808765372E+01  0.10597504860E+02  0.11802832532E+02  0.51100000000E-03 0.  1.
        -12    1    3    3    0    0  0.17959330623E+01  0.13928169838E+02  0.87001612589E+00  0.14070402220E+02  0.00000000000E+00 0.  1.
</event>
<event>
 7    1  0.3461631E-013  0.5930194E+02  0.7816164E-02  0.1266605E+00
        -11   -1    0    0    0    0  0.00000000000E+00  0.00000000000E+00  0.45593999997E+02  0.45594000000E+02  0.51100000000E-03 0. -1.
         11   -1    0    0    0    0 -0.00000000000E+00 -0.00000000000E+00 -0.45593999997E+02  0.45594000000E+02  0.51100000000E-03 0.  1.
    9900012    2    1    2    0    0  0.45468745773E+01  0.14554630070E+02 -0.28003737758E+02  0.59301942650E+02  0.49999997487E+02 0.  0.
         12    1    1    2    0    0 -0.45468745773E+01 -0.14554630070E+02  0.28003737758E+02  0.31886057350E+02  0.00000000000E+00 0. -1.
         11    1    3    3    0    0  0.16831227107E+02  0.68679443959E+01 -0.65964486890E+01  0.19338355714E+02  0.51100000000E-03 0. -1.
        -11    1    3    3    0    0  0.81719372529E+01  0.10273035512E+02 -0.82453713732E+01  0.15501676246E+02  0.51100000000E-03 0.  1.
         12    1    3    3    0    0 -0.20456289783E+02 -0.25863498379E+01 -0.13161917696E+02  0.24461910690E+02  0.00000000000E+00 0. -1.
</event>
<event>
 7    1  0.3461631E-013  0.5930199E+02  0.7816164E-02  0.1266605E+00
        -11   -1    0    0    0    0  0.00000000000E+00  0.00000000000E+00  0.45593999997E+02  0.45594000000E+02  0.51100000000E-03 0.  1.
         11   -1    0    0    0    0 -0.00000000000E+00 -0.00000000000E+00 -0.45593999997E+02  0.45594000000E+02  0.51100000000E-03 0. -1.
    9900012    2    1    2    0    0  0.26651995836E+02  0.40426768755E+01  0.17030729063E+02  0.59301986596E+02  0.50000077634E+02 0.  0.
         12    1    1    2    0    0 -0.26651995836E+02 -0.40426768755E+01 -0.17030729063E+02  0.31886013404E+02  0.00000000000E+00 0. -1.
         11    1    3    3    0    0 -0.19411056498E+01 -0.80080886029E+01 -0.98703136425E+01  0.12857700645E+02  0.51100000000E-03 0. -1.
        -11    1    3    3    0    0  0.10246807421E+02 -0.61184538753E+01  0.10140024744E+02  0.15660544122E+02  0.51100000000E-03 0.  1.
        -12    1    3    3    0    0  0.18346294065E+02  0.18169219354E+02  0.16761017962E+02  0.30783741829E+02  0.00000000000E+00 0.  1.
</event>
<event>
 7    1  0.3461631E-013  0.5930194E+02  0.7816164E-02  0.1266605E+00
        -11   -1    0    0    0    0  0.00000000000E+00  0.00000000000E+00  0.45593999997E+02  0.45594000000E+02  0.51100000000E-03 0. -1.
         11   -1    0    0    0    0 -0.00000000000E+00 -0.00000000000E+00 -0.45593999997E+02  0.45594000000E+02  0.51100000000E-03 0.  1.
    9900012    2    1    2    0    0  0.20911290806E+01 -0.90233290851E+01 -0.30511104552E+02  0.59301940514E+02  0.49999993591E+02 0.  0.
         12    1    1    2    0    0 -0.20911290806E+01  0.90233290851E+01  0.30511104552E+02  0.31886059486E+02  0.00000000000E+00 0. -1.
         11    1    3    3    0    0 -0.49845196031E+01 -0.58088321813E+01 -0.17236719763E+02  0.18859811118E+02  0.51100000000E-03 0. -1.
        -11    1    3    3    0    0 -0.40681643696E+01 -0.17990014889E+02 -0.11758093258E+02  0.21873348038E+02  0.51100000000E-03 0.  1.
         12    1    3    3    0    0  0.11143813053E+02  0.14775517985E+02 -0.15162915310E+01  0.18568781358E+02  0.00000000000E+00 0. -1.
</event>
<event>
 7    1  0.3461631E-013  0.5930195E+02  0.7816164E-02  0.1266605E+00
        -11   -1    0    0    0    0  0.00000000000E+00  0.00000000000E+00  0.45593999997E+02  0.45594000000E+02  0.51100000000E-03 0.  1.
         11   -1    0    0    0    0 -0.00000000000E+00 -0.00000000000E+00 -0.45593999997E+02  0.45594000000E+02  0.51100000000E-03 0. -1.
    9900012    2    1    2    0    0 -0.14959560802E+02 -0.24476640775E+02  0.13922140990E+02  0.59301946422E+02  0.50000004367E+02 0.  0.
         12    1    1    2    0    0  0.14959560802E+02  0.24476640775E+02 -0.13922140990E+02  0.31886053578E+02  0.00000000000E+00 0. -1.
         11    1    3    3    0    0  0.94808922894E+01  0.61529517274E+01 -0.28682927262E+01  0.11660756279E+02  0.51100000000E-03 0. -1.
        -11    1    3    3    0    0 -0.13112619813E+02 -0.53571521606E+01 -0.18096163622E+01  0.14279866571E+02  0.51100000000E-03 0.  1.
        -12    1    3    3    0    0 -0.11327833278E+02 -0.25272440342E+02  0.18600050078E+02  0.33361323573E+02  0.00000000000E+00 0.  1.
</event>
<event>
 7    1  0.3461631E-013  0.5930195E+02  0.7816164E-02  0.1266605E+00
        -11   -1    0    0    0    0  0.00000000000E+00  0.00000000000E+00  0.45593999997E+02  0.45594000000E+02  0.51100000000E-03 0.  1.
         11   -1    0    0    0    0 -0.00000000000E+00 -0.00000000000E+00 -0.45593999997E+02  0.45594000000E+02  0.51100000000E-03 0. -1.
    9900012    2    1    2    0    0 -0.13613410387E+02  0.23043896013E+02  0.17331302761E+02  0.59301950681E+02  0.50000012134E+02 0.  0.
         12    1    1    2    0    0  0.13613410387E+02 -0.23043896013E+02 -0.17331302761E+02  0.31886049319E+02  0.00000000000E+00 0. -1.
         11    1    3    3    0    0  0.65754687498E+01  0.48966135461E+01  0.39921074230E+01  0.91186915419E+01  0.51100000000E-03 0. -1.
        -11    1    3    3    0    0  0.40864229940E+01 -0.90029493353E+01 -0.29047129924E+01  0.10304819622E+02  0.51100000000E-03 0.  1.
        -12    1    3    3    0    0 -0.24275302131E+02  0.27150231802E+02  0.16243908330E+02  0.39878439516E+02  0.00000000000E+00 0.  1.
</event>
<event>
 7    1  0.3461631E-013  0.5930179E+02  0.7816164E-02  0.1266605E+00
        -11   -1    0    0    0    0  0.00000000000E+00  0.00000000000E+00  0.45593999997E+02  0.45594000000E+02  0.51100000000E-03 0. -1.
         11   -1    0    0    0    0 -0.00000000000E+00 -0.00000000000E+00 -0.45593999997E+02  0.45594000000E+02  0.51100000000E-03 0.  1.
    9900012    2    1    2    0    0 -0.72018573211E+01 -0.30431400894E+02 -0.62284539415E+01  0.59301787498E+02  0.49999714526E+02 0.  0.
         12    1    1    2    0    0  0.72018573211E+01  0.30431400894E+02  0.62284539415E+01  0.31886212502E+02  0.00000000000E+00 0. -1.
         11    1    3    3    0    0 -0.37927739052E+01 -0.64648032565E+01  0.35338116171E+01  0.82865336449E+01  0.51100000000E-03 0. -1.
        -11    1    3    3    0    0 -0.20522284495E+02 -0.85094023598E+01 -0.15698143052E+02  0.27203047347E+02  0.51100000000E-03 0.  1.
        -12    1    3    3    0    0  0.17113201080E+02 -0.15457195278E+02  0.59358774935E+01  0.23812206505E+02  0.00000000000E+00 0.  1.
</event>
<event>
 7    1  0.3461631E-013  0.5930193E+02  0.7816164E-02  0.1266605E+00
        -11   -1    0    0    0    0  0.00000000000E+00  0.00000000000E+00  0.45593999997E+02  0.45594000000E+02  0.51100000000E-03 0.  1.
         11   -1    0    0    0    0 -0.00000000000E+00 -0.00000000000E+00 -0.45593999997E+02  0.45594000000E+02  0.51100000000E-03 0. -1.
    9900012    2    1    2    0    0  0.16467130273E+02  0.21528943031E+02  0.16794630036E+02  0.59301931482E+02  0.49999977120E+02 0.  0.
         12    1    1    2    0    0 -0.16467130273E+02 -0.21528943031E+02 -0.16794630036E+02  0.31886068518E+02  0.00000000000E+00 0. -1.
         11    1    3    3    0    0  0.15721552173E+02 -0.75570711469E+01  0.19558690691E+01  0.17552833137E+02  0.51100000000E-03 0. -1.
        -11    1    3    3    0    0  0.11155097777E+02  0.52708171691E+01  0.85429105151E+01  0.15006633212E+02  0.51100000000E-03 0.  1.
        -12    1    3    3    0    0 -0.10409519677E+02  0.23815197009E+02  0.62958504523E+01  0.26742465133E+02  0.00000000000E+00 0.  1.
</event>
<event>
 7    1  0.3461631E-013  0.5930193E+02  0.7816164E-02  0.1266605E+00
        -11   -1    0    0    0    0  0.00000000000E+00  0.00000000000E+00  0.45593999997E+02  0.45594000000E+02  0.51100000000E-03 0. -1.
         11   -1    0    0    0    0 -0.00000000000E+00 -0.00000000000E+00 -0.45593999997E+02  0.45594000000E+02  0.51100000000E-03 0.  1.
    9900012    2    1    2    0    0 -0.25694742972E+02  0.72415052565E+01 -0.17437378358E+02  0.59301931274E+02  0.49999976741E+02 0.  0.
         12    1    1    2    0    0  0.25694742972E+02 -0.72415052565E+01  0.17437378358E+02  0.31886068726E+02  0.00000000000E+00 0. -1.
         11    1    3    3    0    0 -0.25446050166E+02 -0.11871947301E+02  0.44853932457E+01  0.28435248454E+02  0.51100000000E-03 0.  1.
        -11    1    3    3    0    0  0.69167877336E+00  0.10090128076E+02 -0.41888815609E+01  0.10946955427E+02  0.51100000000E-03 0. -1.
        -12    1    3    3    0    0 -0.94037157937E+00  0.90233244812E+01 -0.17733890042E+02  0.19919727394E+02  0.00000000000E+00 0.  1.
</event>
<event>
 7    1  0.3461631E-013  0.5930195E+02  0.7816164E-02  0.1266605E+00
        -11   -1    0    0    0    0  0.00000000000E+00  0.00000000000E+00  0.45593999997E+02  0.45594000000E+02  0.51100000000E-03 0.  1.
         11   -1    0    0    0    0 -0.00000000000E+00 -0.00000000000E+00 -0.45593999997E+02  0.45594000000E+02  0.51100000000E-03 0. -1.
    9900012    2    1    2    0    0  0.24591505469E+01  0.97753818422E+01  0.30250864234E+02  0.59301948214E+02  0.50000007635E+02 0.  0.
         12    1    1    2    0    0 -0.24591505469E+01 -0.97753818422E+01 -0.30250864234E+02  0.31886051786E+02  0.00000000000E+00 0. -1.
         11    1    3    3    0    0  0.10780458138E+01 -0.51571550767E+00 -0.28698189967E+01  0.31086985374E+01  0.51100000000E-03 0. -1.
        -11    1    3    3    0    0 -0.17892121343E+01 -0.14487849472E+02 -0.13696953225E+00  0.14598555521E+02  0.51100000000E-03 0.  1.
        -12    1    3    3    0    0  0.31703168674E+01  0.24778946822E+02  0.33257652763E+02  0.41594694156E+02  0.00000000000E+00 0.  1.
</event>
<event>
 7    1  0.3461631E-013  0.5930192E+02  0.7816164E-02  0.1266605E+00
        -11   -1    0    0    0    0  0.00000000000E+00  0.00000000000E+00  0.45593999997E+02  0.45594000000E+02  0.51100000000E-03 0.  1.
         11   -1    0    0    0    0 -0.00000000000E+00 -0.00000000000E+00 -0.45593999997E+02  0.45594000000E+02  0.51100000000E-03 0. -1.
    9900012    2    1    2    0    0  0.13415537274E+02  0.29126766194E+01  0.28779537957E+02  0.59301919487E+02  0.49999955244E+02 0.  0.
         12    1    1    2    0    0 -0.13415537274E+02 -0.29126766194E+01 -0.28779537957E+02  0.31886080513E+02  0.00000000000E+00 0. -1.
         11    1    3    3    0    0  0.28548012570E+01 -0.45771883891E+01 -0.80737273637E+01  0.97100781444E+01  0.51100000000E-03 0. -1.
        -11    1    3    3    0    0  0.49048865988E+01  0.11608525495E+02  0.54328323234E+00  0.12613918252E+02  0.51100000000E-03 0.  1.
        -12    1    3    3    0    0  0.56558494185E+01 -0.41186604870E+01  0.36309982089E+02  0.36977923091E+02  0.00000000000E+00 0.  1.
</event>
<event>
 7    1  0.3461631E-013  0.5930195E+02  0.7816164E-02  0.1266605E+00
        -11   -1    0    0    0    0  0.00000000000E+00  0.00000000000E+00  0.45593999997E+02  0.45594000000E+02  0.51100000000E-03 0.  1.
         11   -1    0    0    0    0 -0.00000000000E+00 -0.00000000000E+00 -0.45593999997E+02  0.45594000000E+02  0.51100000000E-03 0. -1.
    9900012    2    1    2    0    0  0.28309408356E+02  0.73196728527E+01  0.12716927286E+02  0.59301945811E+02  0.50000003252E+02 0.  0.
         12    1    1    2    0    0 -0.28309408356E+02 -0.73196728527E+01 -0.12716927286E+02  0.31886054189E+02  0.00000000000E+00 0. -1.
         11    1    3    3    0    0  0.16668166806E+02  0.24236568603E+02  0.57410339457E+01  0.29969960182E+02  0.51100000000E-03 0. -1.
        -11    1    3    3    0    0  0.53202369105E+01  0.31359862753E+01  0.54746094536E+01  0.82529194612E+01  0.51100000000E-03 0.  1.
         12    1    3    3    0    0  0.63210046400E+01 -0.20052882025E+02  0.15012838869E+01  0.21079066167E+02  0.00000000000E+00 0. -1.
</event>
<event>
 7    1  0.3461631E-013  0.5930197E+02  0.7816164E-02  0.1266605E+00
        -11   -1    0    0    0    0  0.00000000000E+00  0.00000000000E+00  0.45593999997E+02  0.45594000000E+02  0.51100000000E-03 0. -1.
         11   -1    0    0    0    0 -0.00000000000E+00 -0.00000000000E+00 -0.45593999997E+02  0.45594000000E+02  0.51100000000E-03 0.  1.
    9900012    2    1    2    0    0 -0.90300957430E+01 -0.76312802964E+01 -0.29613165491E+02  0.59301974244E+02  0.50000055107E+02 0.  0.
         12    1    1    2    0    0  0.90300957430E+01  0.76312802964E+01  0.29613165491E+02  0.31886025756E+02  0.00000000000E+00 0. -1.
         11    1    3    3    0    0  0.51938248687E+00  0.12754037040E+02 -0.10097385970E+02  0.16275516049E+02  0.51100000000E-03 0. -1.
        -11    1    3    3    0    0  0.98254721052E+01 -0.42509966590E+01  0.67249141821E+00  0.10726747860E+02  0.51100000000E-03 0.  1.
        -12    1    3    3    0    0 -0.19374950335E+02 -0.16134320677E+02 -0.20188270940E+02  0.32299710335E+02  0.00000000000E+00 0.  1.
</event>
<event>
 7    1  0.3461631E-013  0.5930192E+02  0.7816164E-02  0.1266605E+00
        -11   -1    0    0    0    0  0.00000000000E+00  0.00000000000E+00  0.45593999997E+02  0.45594000000E+02  0.51100000000E-03 0. -1.
         11   -1    0    0    0    0 -0.00000000000E+00 -0.00000000000E+00 -0.45593999997E+02  0.45594000000E+02  0.51100000000E-03 0.  1.
    9900012    2    1    2    0    0  0.10293180928E+02  0.29281005368E+02 -0.73071844650E+01  0.59301924767E+02  0.49999964873E+02 0.  0.
         12    1    1    2    0    0 -0.10293180928E+02 -0.29281005368E+02  0.73071844650E+01  0.31886075233E+02  0.00000000000E+00 0. -1.
         11    1    3    3    0    0 -0.59578365266E+01  0.93579510483E+00 -0.25840423223E+01  0.65611587041E+01  0.51100000000E-03 0. -1.
        -11    1    3    3    0    0  0.90160798055E+01 -0.77370355422E+01  0.73976807205E+01  0.13995609824E+02  0.51100000000E-03 0.  1.
        -12    1    3    3    0    0  0.72349376487E+01  0.36082245805E+02 -0.12120822863E+02  0.38745156239E+02  0.00000000000E+00 0.  1.
</event>
<event>
 7    1  0.3461631E-013  0.5930194E+02  0.7816164E-02  0.1266605E+00
        -11   -1    0    0    0    0  0.00000000000E+00  0.00000000000E+00  0.45593999997E+02  0.45594000000E+02  0.51100000000E-03 0. -1.
         11   -1    0    0    0    0 -0.00000000000E+00 -0.00000000000E+00 -0.45593999997E+02  0.45594000000E+02  0.51100000000E-03 0.  1.
    9900012    2    1    2    0    0  0.27265773456E+02 -0.57673248330E+01 -0.15493107095E+02  0.59301940266E+02  0.49999993140E+02 0.  0.
         12    1    1    2    0    0 -0.27265773456E+02  0.57673248330E+01  0.15493107095E+02  0.31886059734E+02  0.00000000000E+00 0. -1.
         11    1    3    3    0    0  0.17335218451E+01  0.45814142423E+01 -0.31956103281E+01  0.58486220666E+01  0.51100000000E-03 0. -1.
        -11    1    3    3    0    0  0.22683331801E+02  0.77109663289E+01 -0.22198612284E+02  0.32661459412E+02  0.51100000000E-03 0.  1.
         12    1    3    3    0    0  0.28489198097E+01 -0.18059705404E+02  0.99011155170E+01  0.20791858788E+02  0.00000000000E+00 0. -1.
</event>
<event>
 7    1  0.3461631E-013  0.5930193E+02  0.7816164E-02  0.1266605E+00
        -11   -1    0    0    0    0  0.00000000000E+00  0.00000000000E+00  0.45593999997E+02  0.45594000000E+02  0.51100000000E-03 0.  1.
         11   -1    0    0    0    0 -0.00000000000E+00 -0.00000000000E+00 -0.45593999997E+02  0.45594000000E+02  0.51100000000E-03 0. -1.
    9900012    2    1    2    0    0 -0.21036108896E+02  0.50044262197E+01  0.23434147679E+02  0.59301930366E+02  0.49999975084E+02 0.  0.
         12    1    1    2    0    0  0.21036108896E+02 -0.50044262197E+01 -0.23434147679E+02  0.31886069634E+02  0.00000000000E+00 0. -1.
         11    1    3    3    0    0  0.55751091928E+01  0.28774727258E-01  0.89172632377E+01  0.10516665556E+02  0.51100000000E-03 0. -1.
        -11    1    3    3    0    0  0.46657599507E+01 -0.94958189228E+01  0.89868585200E+01  0.13881769313E+02  0.51100000000E-03 0.  1.
         12    1    3    3    0    0 -0.31276978040E+02  0.14471470415E+02  0.55300259209E+01  0.34903495498E+02  0.00000000000E+00 0. -1.
</event>
<event>
 7    1  0.3461631E-013  0.5930200E+02  0.7816164E-02  0.1266605E+00
        -11   -1    0    0    0    0  0.00000000000E+00  0.00000000000E+00  0.45593999997E+02  0.45594000000E+02  0.51100000000E-03 0. -1.
         11   -1    0    0    0    0 -0.00000000000E+00 -0.00000000000E+00 -0.45593999997E+02  0.45594000000E+02  0.51100000000E-03 0.  1.
    9900012    2    1    2    0    0  0.14559464387E+02 -0.28283894270E+02 -0.21818049685E+01  0.59302000702E+02  0.50000103360E+02 0.  0.
         12    1    1    2    0    0 -0.14559464387E+02  0.28283894270E+02  0.21818049685E+01  0.31885999298E+02  0.00000000000E+00 0. -1.
         11    1    3    3    0    0 -0.14019915738E+02 -0.50264079124E+01 -0.14190530276E+01  0.14961167252E+02  0.51100000000E-03 0. -1.
        -11    1    3    3    0    0  0.91558578564E+01 -0.13081705607E+02 -0.11740118832E+02  0.19818959234E+02  0.51100000000E-03 0.  1.
        -12    1    3    3    0    0  0.19423522268E+02 -0.10175780751E+02  0.10977366891E+02  0.24521874216E+02  0.00000000000E+00 0.  1.
</event>
<event>
 7    1  0.3461631E-013  0.5930193E+02  0.7816164E-02  0.1266605E+00
        -11   -1    0    0    0    0  0.00000000000E+00  0.00000000000E+00  0.45593999997E+02  0.45594000000E+02  0.51100000000E-03 0.  1.
         11   -1    0    0    0    0 -0.00000000000E+00 -0.00000000000E+00 -0.45593999997E+02  0.45594000000E+02  0.51100000000E-03 0. -1.
    9900012    2    1    2    0    0  0.94727904287E+01 -0.74356059395E+00  0.30437388230E+02  0.59301933401E+02  0.49999980620E+02 0.  0.
         12    1    1    2    0    0 -0.94727904287E+01  0.74356059395E+00 -0.30437388230E+02  0.31886066599E+02  0.00000000000E+00 0. -1.
         11    1    3    3    0    0  0.81237210049E+01 -0.46564670650E+01 -0.17051811977E+01  0.95176242661E+01  0.51100000000E-03 0. -1.
        -11    1    3    3    0    0  0.13161766659E+01 -0.12893099371E+02 -0.60698040795E+00  0.12974311461E+02  0.51100000000E-03 0.  1.
        -12    1    3    3    0    0  0.32892757955E-01  0.16806005842E+02  0.32749549836E+02  0.36809997674E+02  0.00000000000E+00 0.  1.
</event>
<event>
 7    1  0.3461631E-013  0.5930195E+02  0.7816164E-02  0.1266605E+00
        -11   -1    0    0    0    0  0.00000000000E+00  0.00000000000E+00  0.45593999997E+02  0.45594000000E+02  0.51100000000E-03 0.  1.
         11   -1    0    0    0    0 -0.00000000000E+00 -0.00000000000E+00 -0.45593999997E+02  0.45594000000E+02  0.51100000000E-03 0. -1.
    9900012    2    1    2    0    0 -0.82823343892E+01  0.21947774318E+02  0.21596725891E+02  0.59301946157E+02  0.50000003884E+02 0.  0.
         12    1    1    2    0    0  0.82823343892E+01 -0.21947774318E+02 -0.21596725891E+02  0.31886053843E+02  0.00000000000E+00 0. -1.
         11    1    3    3    0    0  0.94896454632E+01  0.91319480579E+01  0.80218630263E+01  0.15420639838E+02  0.51100000000E-03 0. -1.
        -11    1    3    3    0    0  0.44058454439E+01  0.95288180468E+01  0.18179780137E+02  0.20993195411E+02  0.51100000000E-03 0.  1.
         12    1    3    3    0    0 -0.22177825296E+02  0.32870082135E+01 -0.46049172730E+01  0.22888110909E+02  0.00000000000E+00 0. -1.
</event>
<event>
 7    1  0.3461631E-013  0.5930192E+02  0.7816164E-02  0.1266605E+00
        -11   -1    0    0    0    0  0.00000000000E+00  0.00000000000E+00  0.45593999997E+02  0.45594000000E+02  0.51100000000E-03 0.  1.
         11   -1    0    0    0    0 -0.00000000000E+00 -0.00000000000E+00 -0.45593999997E+02  0.45594000000E+02  0.51100000000E-03 0. -1.
    9900012    2    1    2    0    0 -0.21555357871E+02 -0.18359933805E+02  0.14662935618E+02  0.59301916779E+02  0.49999950304E+02 0.  0.
         12    1    1    2    0    0  0.21555357871E+02  0.18359933805E+02 -0.14662935618E+02  0.31886083221E+02  0.00000000000E+00 0. -1.
         11    1    3    3    0    0 -0.79599762193E+01  0.11447672395E+02  0.11450281709E+01  0.13990050552E+02  0.51100000000E-03 0. -1.
        -11    1    3    3    0    0 -0.14993750023E+01  0.25655326162E+01 -0.52149543960E+01  0.60021523320E+01  0.51100000000E-03 0.  1.
        -12    1    3    3    0    0 -0.12096006649E+02 -0.32373138816E+02  0.18732861843E+02  0.39309713895E+02  0.00000000000E+00 0.  1.
</event>
<event>
 7    1  0.4197034E-013  0.5930194E+02  0.7816164E-02  0.1266605E+00
        -11   -1    0    0    0    0  0.00000000000E+00  0.00000000000E+00  0.45593999997E+02  0.45594000000E+02  0.51100000000E-03 0. -1.
         11   -1    0    0    0    0 -0.00000000000E+00 -0.00000000000E+00 -0.45593999997E+02  0.45594000000E+02  0.51100000000E-03 0.  1.
    9900012    2    1    2    0    0  0.11022688402E+02  0.21350624611E+02 -0.20961205880E+02  0.59301937483E+02  0.49999988064E+02 0.  0.
         12    1    1    2    0    0 -0.11022688402E+02 -0.21350624611E+02  0.20961205880E+02  0.31886062517E+02  0.00000000000E+00 0. -1.
         11    1    3    3    0    0  0.99334797296E+01  0.26393178895E+02 -0.12930617808E+02  0.31023777798E+02  0.51100000000E-03 0. -1.
        -11    1    3    3    0    0  0.12863983400E+01  0.43771496053E+01 -0.15561487975E+02  0.16216478274E+02  0.51100000000E-03 0.  1.
         12    1    3    3    0    0 -0.19718966717E+00 -0.94197038885E+01  0.75308999028E+01  0.12061681411E+02  0.00000000000E+00 0. -1.
</event>
<event>
 7    1  0.3461631E-013  0.5930195E+02  0.7816164E-02  0.1266605E+00
        -11   -1    0    0    0    0  0.00000000000E+00  0.00000000000E+00  0.45593999997E+02  0.45594000000E+02  0.51100000000E-03 0. -1.
         11   -1    0    0    0    0 -0.00000000000E+00 -0.00000000000E+00 -0.45593999997E+02  0.45594000000E+02  0.51100000000E-03 0.  1.
    9900012    2    1    2    0    0  0.90361751397E+01  0.26886759190E+02 -0.14566058305E+02  0.59301947635E+02  0.50000006578E+02 0.  0.
         12    1    1    2    0    0 -0.90361751397E+01 -0.26886759190E+02  0.14566058305E+02  0.31886052365E+02  0.00000000000E+00 0. -1.
         11    1    3    3    0    0  0.14255070584E+02  0.23501057796E+01 -0.14216344333E+02  0.20269052296E+02  0.51100000000E-03 0. -1.
        -11    1    3    3    0    0  0.11638813840E+02  0.57668535170E+01  0.36425947238E+01  0.13490258844E+02  0.51100000000E-03 0.  1.
        -12    1    3    3    0    0 -0.16857709285E+02  0.18769799894E+02 -0.39923086959E+01  0.25542636495E+02  0.00000000000E+00 0.  1.
</event>
<event>
 7    1  0.3461631E-013  0.5930194E+02  0.7816164E-02  0.1266605E+00
        -11   -1    0    0    0    0  0.00000000000E+00  0.00000000000E+00  0.45593999997E+02  0.45594000000E+02  0.51100000000E-03 0.  1.
         11   -1    0    0    0    0 -0.00000000000E+00 -0.00000000000E+00 -0.45593999997E+02  0.45594000000E+02  0.51100000000E-03 0. -1.
    9900012    2    1    2    0    0  0.50064779047E+00 -0.58336710469E+01  0.31343876523E+02  0.59301937816E+02  0.49999988671E+02 0.  0.
         12    1    1    2    0    0 -0.50064779047E+00  0.58336710469E+01 -0.31343876523E+02  0.31886062184E+02  0.00000000000E+00 0. -1.
         11    1    3    3    0    0  0.12630869450E+02 -0.63807869621E+01  0.26364590882E+02  0.29922315384E+02  0.51100000000E-03 0. -1.
        -11    1    3    3    0    0 -0.14112212279E+01  0.10420843814E+02  0.94475068737E+01  0.14136510090E+02  0.51100000000E-03 0.  1.
         12    1    3    3    0    0 -0.10719000432E+02 -0.98737278985E+01 -0.44682212321E+01  0.15243112341E+02  0.00000000000E+00 0. -1.
</event>
<event>
 7    1  0.3461631E-013  0.5930195E+02  0.7816164E-02  0.1266605E+00
        -11   -1    0    0    0    0  0.00000000000E+00  0.00000000000E+00  0.45593999997E+02  0.45594000000E+02  0.51100000000E-03 0.  1.
         11   -1    0    0    0    0 -0.00000000000E+00 -0.00000000000E+00 -0.45593999997E+02  0.45594000000E+02  0.51100000000E-03 0. -1.
    9900012    2    1    2    0    0  0.47830606820E+01  0.24828758107E+02  0.19426147879E+02  0.59301951012E+02  0.50000012738E+02 0.  0.
         12    1    1    2    0    0 -0.47830606820E+01 -0.24828758107E+02 -0.19426147879E+02  0.31886048988E+02  0.00000000000E+00 0. -1.
         11    1    3    3    0    0  0.24833539162E+01  0.37135832016E+01 -0.39951670574E+01  0.59932551210E+01  0.51100000000E-03 0. -1.
        -11    1    3    3    0    0  0.16453307300E+02  0.79675336900E+01 -0.49919952163E+01  0.18950275214E+02  0.51100000000E-03 0.  1.
         12    1    3    3    0    0 -0.14153600534E+02  0.13147641216E+02  0.28413310153E+02  0.34358420677E+02  0.00000000000E+00 0. -1.
</event>
<event>
 7    1  0.3461631E-013  0.5930194E+02  0.7816164E-02  0.1266605E+00
        -11   -1    0    0    0    0  0.00000000000E+00  0.00000000000E+00  0.45593999997E+02  0.45594000000E+02  0.51100000000E-03 0. -1.
         11   -1    0    0    0    0 -0.00000000000E+00 -0.00000000000E+00 -0.45593999997E+02  0.45594000000E+02  0.51100000000E-03 0.  1.
    9900012    2    1    2    0    0 -0.24835206951E+02 -0.19703199900E+02 -0.34230456796E+01  0.59301939843E+02  0.49999992368E+02 0.  0.
         12    1    1    2    0    0  0.24835206951E+02  0.19703199900E+02  0.34230456796E+01  0.31886060157E+02  0.00000000000E+00 0. -1.
         11    1    3    3    0    0 -0.11822633406E+02 -0.23923789418E+02 -0.23382961385E+01  0.26787870200E+02  0.51100000000E-03 0. -1.
        -11    1    3    3    0    0  0.25297912536E+01 -0.10345068560E+02  0.24342720661E+01  0.10924558026E+02  0.51100000000E-03 0.  1.
        -12    1    3    3    0    0 -0.15542364799E+02  0.14565658078E+02 -0.35190216072E+01  0.21589511617E+02  0.00000000000E+00 0.  1.
</event>
<event>
 7    1  0.3461631E-013  0.5930193E+02  0.7816164E-02  0.1266605E+00
        -11   -1    0    0    0    0  0.00000000000E+00  0.00000000000E+00  0.45593999997E+02  0.45594000000E+02  0.51100000000E-03 0.  1.
         11   -1    0    0    0    0 -0.00000000000E+00 -0.00000000000E+00 -0.45593999997E+02  0.45594000000E+02  0.51100000000E-03 0. -1.
    9900012    2    1    2    0    0 -0.69132119757E+01  0.24581682286E+02  0.19096333438E+02  0.59301928517E+02  0.49999971713E+02 0.  0.
         12    1    1    2    0    0  0.69132119757E+01 -0.24581682286E+02 -0.19096333438E+02  0.31886071483E+02  0.00000000000E+00 0. -1.
         11    1    3    3    0    0 -0.59927717389E+01  0.37424865668E+02  0.79490605755E+01  0.38726237200E+02  0.51100000000E-03 0. -1.
        -11    1    3    3    0    0 -0.18693789254E+01  0.18094845753E+01  0.14397352529E+01  0.29734911896E+01  0.51100000000E-03 0.  1.
        -12    1    3    3    0    0  0.94893868854E+00 -0.14652667957E+02  0.97075376094E+01  0.17602200128E+02  0.00000000000E+00 0.  1.
</event>
<event>
 7    1  0.3461631E-013  0.5930196E+02  0.7816164E-02  0.1266605E+00
        -11   -1    0    0    0    0  0.00000000000E+00  0.00000000000E+00  0.45593999997E+02  0.45594000000E+02  0.51100000000E-03 0.  1.
         11   -1    0    0    0    0 -0.00000000000E+00 -0.00000000000E+00 -0.45593999997E+02  0.45594000000E+02  0.51100000000E-03 0. -1.
    9900012    2    1    2    0    0  0.17694170893E+02 -0.18145844848E+02  0.19348499921E+02  0.59301955748E+02  0.50000021375E+02 0.  0.
         12    1    1    2    0    0 -0.17694170893E+02  0.18145844848E+02 -0.19348499921E+02  0.31886044252E+02  0.00000000000E+00 0. -1.
         11    1    3    3    0    0 -0.11767900287E+02 -0.10188254291E+02  0.43078343380E+01  0.16150586355E+02  0.51100000000E-03 0. -1.
        -11    1    3    3    0    0 -0.23731338476E+01 -0.71589347586E+01  0.70384994847E+01  0.10316132337E+02  0.51100000000E-03 0.  1.
        -12    1    3    3    0    0  0.31835205028E+02 -0.79865579827E+00  0.80021660984E+01  0.32835237056E+02  0.00000000000E+00 0.  1.
</event>
<event>
 7    1  0.3461631E-013  0.5930214E+02  0.7816164E-02  0.1266604E+00
        -11   -1    0    0    0    0  0.00000000000E+00  0.00000000000E+00  0.45593999997E+02  0.45594000000E+02  0.51100000000E-03 0.  1.
         11   -1    0    0    0    0 -0.00000000000E+00 -0.00000000000E+00 -0.45593999997E+02  0.45594000000E+02  0.51100000000E-03 0. -1.
    9900012    2    1    2    0    0 -0.30353835818E+02 -0.83831877441E+01  0.50075103484E+01  0.59302135647E+02  0.50000349467E+02 0.  0.
         12    1    1    2    0    0  0.30353835818E+02  0.83831877441E+01 -0.50075103484E+01  0.31885864353E+02  0.00000000000E+00 0. -1.
         11    1    3    3    0    0  0.38068352434E+01  0.51522526163E+01  0.40840369356E+01  0.75971744448E+01  0.51100000000E-03 0. -1.
        -11    1    3    3    0    0 -0.13766247542E+02  0.31063136122E+01 -0.15275987824E+02  0.20796984395E+02  0.51100000000E-03 0.  1.
        -12    1    3    3    0    0 -0.20394423519E+02 -0.16641753973E+02  0.16199461237E+02  0.30907976808E+02  0.00000000000E+00 0.  1.
</event>
<event>
 7    1  0.3461631E-013  0.5930197E+02  0.7816164E-02  0.1266605E+00
        -11   -1    0    0    0    0  0.00000000000E+00  0.00000000000E+00  0.45593999997E+02  0.45594000000E+02  0.51100000000E-03 0. -1.
         11   -1    0    0    0    0 -0.00000000000E+00 -0.00000000000E+00 -0.45593999997E+02  0.45594000000E+02  0.51100000000E-03 0.  1.
    9900012    2    1    2    0    0 -0.91929541934E+01 -0.30269973787E+02 -0.39921103663E+01  0.59301973828E+02  0.50000054348E+02 0.  0.
         12    1    1    2    0    0  0.91929541934E+01  0.30269973787E+02  0.39921103663E+01  0.31886026172E+02  0.00000000000E+00 0. -1.
         11    1    3    3    0    0  0.70061800058E+00 -0.67307529813E+01 -0.13256507407E+01  0.68957415428E+01  0.51100000000E-03 0. -1.
        -11    1    3    3    0    0  0.13611117951E+01 -0.35714267947E+02 -0.24616270967E+01  0.35824868018E+02  0.51100000000E-03 0.  1.
         12    1    3    3    0    0 -0.11254683989E+02  0.12175047141E+02 -0.20483252888E+00  0.16581364267E+02  0.00000000000E+00 0. -1.
</event>
<event>
 7    1  0.3461631E-013  0.5930190E+02  0.7816164E-02  0.1266605E+00
        -11   -1    0    0    0    0  0.00000000000E+00  0.00000000000E+00  0.45593999997E+02  0.45594000000E+02  0.51100000000E-03 0.  1.
         11   -1    0    0    0    0 -0.00000000000E+00 -0.00000000000E+00 -0.45593999997E+02  0.45594000000E+02  0.51100000000E-03 0. -1.
    9900012    2    1    2    0    0  0.15636604665E+02  0.14678574735E+01  0.27750054731E+02  0.59301897250E+02  0.49999914689E+02 0.  0.
         12    1    1    2    0    0 -0.15636604665E+02 -0.14678574735E+01 -0.27750054731E+02  0.31886102750E+02  0.00000000000E+00 0. -1.
         11    1    3    3    0    0 -0.21410061720E+01 -0.12935071622E+02  0.35413574874E+01  0.13580913019E+02  0.51100000000E-03 0. -1.
        -11    1    3    3    0    0 -0.25959522635E+01 -0.65529938229E+01 -0.10065100745E+01  0.71199549850E+01  0.51100000000E-03 0.  1.
         12    1    3    3    0    0  0.20373563101E+02  0.20955922919E+02  0.25215207318E+02  0.38601029246E+02  0.00000000000E+00 0. -1.
</event>
<event>
 7    1  0.3461631E-013  0.5930184E+02  0.7816164E-02  0.1266605E+00
        -11   -1    0    0    0    0  0.00000000000E+00  0.00000000000E+00  0.45593999997E+02  0.45594000000E+02  0.51100000000E-03 0. -1.
         11   -1    0    0    0    0 -0.00000000000E+00 -0.00000000000E+00 -0.45593999997E+02  0.45594000000E+02  0.51100000000E-03 0.  1.
    9900012    2    1    2    0    0  0.24476234417E+02  0.82243647398E+01 -0.18708307649E+02  0.59301843103E+02  0.49999815937E+02 0.  0.
         12    1    1    2    0    0 -0.24476234417E+02 -0.82243647398E+01  0.18708307649E+02  0.31886156897E+02  0.00000000000E+00 0. -1.
         11    1    3    3    0    0 -0.27006560058E+01  0.11167939064E+02  0.63803409189E+01  0.13142494295E+02  0.51100000000E-03 0. -1.
        -11    1    3    3    0    0  0.26508256631E+02  0.45367381672E+01 -0.89246042216E+01  0.28335811681E+02  0.51100000000E-03 0.  1.
         12    1    3    3    0    0  0.66863379155E+00 -0.74803124910E+01 -0.16164044346E+02  0.17823537127E+02  0.00000000000E+00 0. -1.
</event>
<event>
 7    1  0.3461631E-013  0.5930192E+02  0.7816164E-02  0.1266605E+00
        -11   -1    0    0    0    0  0.00000000000E+00  0.00000000000E+00  0.45593999997E+02  0.45594000000E+02  0.51100000000E-03 0. -1.
         11   -1    0    0    0    0 -0.00000000000E+00 -0.00000000000E+00 -0.45593999997E+02  0.45594000000E+02  0.51100000000E-03 0.  1.
    9900012    2    1    2    0    0  0.12161865948E+02  0.15934846780E+02 -0.24797014280E+02  0.59301917731E+02  0.49999952041E+02 0.  0.
         12    1    1    2    0    0 -0.12161865948E+02 -0.15934846780E+02  0.24797014280E+02  0.31886082269E+02  0.00000000000E+00 0. -1.
         11    1    3    3    0    0 -0.19493880997E+01 -0.82701611262E+01 -0.63628329087E+01  0.10615145873E+02  0.51100000000E-03 0. -1.
        -11    1    3    3    0    0  0.21939994985E+02  0.22978684971E+02 -0.23290116201E+02  0.39393055935E+02  0.51100000000E-03 0.  1.
         12    1    3    3    0    0 -0.78287409370E+01  0.12263229352E+01  0.48559348292E+01  0.92937159234E+01  0.00000000000E+00 0. -1.
</event>
<event>
 7    1  0.3461631E-013  0.5930196E+02  0.7816164E-02  0.1266605E+00
        -11   -1    0    0    0    0  0.00000000000E+00  0.00000000000E+00  0.45593999997E+02  0.45594000000E+02  0.51100000000E-03 0.  1.
         11   -1    0    0    0    0 -0.00000000000E+00 -0.00000000000E+00 -0.45593999997E+02  0.45594000000E+02  0.51100000000E-03 0. -1.
    9900012    2    1    2    0    0 -0.26391510878E+02  0.14880086032E+02  0.99393636173E+01  0.59301956723E+02  0.50000023154E+02 0.  0.
         12    1    1    2    0    0  0.26391510878E+02 -0.14880086032E+02 -0.99393636173E+01  0.31886043277E+02  0.00000000000E+00 0. -1.
         11    1    3    3    0    0 -0.99096279088E+01 -0.85555591895E+01  0.54385972647E+01  0.14176623674E+02  0.51100000000E-03 0. -1.
        -11    1    3    3    0    0 -0.72197392511E+01 -0.83833905534E+01  0.46093125635E+01  0.11985475985E+02  0.51100000000E-03 0.  1.
         12    1    3    3    0    0 -0.92621437177E+01  0.31819035775E+02 -0.10854621093E+00  0.33139857064E+02  0.00000000000E+00 0. -1.
</event>
<event>
 7    1  0.3461631E-013  0.5930196E+02  0.7816164E-02  0.1266605E+00
        -11   -1    0    0    0    0  0.00000000000E+00  0.00000000000E+00  0.45593999997E+02  0.45594000000E+02  0.51100000000E-03 0.  1.
         11   -1    0    0    0    0 -0.00000000000E+00 -0.00000000000E+00 -0.45593999997E+02  0.45594000000E+02  0.51100000000E-03 0. -1.
    9900012    2    1    2    0    0  0.21175624505E+02 -0.23721375986E+02  0.23683202355E+01  0.59301957715E+02  0.50000024962E+02 0.  0.
         12    1    1    2    0    0 -0.21175624505E+02  0.23721375986E+02 -0.23683202355E+01  0.31886042285E+02  0.00000000000E+00 0. -1.
         11    1    3    3    0    0 -0.28116119654E+01 -0.91895284580E+01  0.75021403315E+01  0.12191583365E+02  0.51100000000E-03 0. -1.
        -11    1    3    3    0    0  0.15775025631E+01 -0.21001275053E+02 -0.99513934623E+01  0.23293181412E+02  0.51100000000E-03 0.  1.
         12    1    3    3    0    0  0.22409733908E+02  0.64694275251E+01  0.48175733663E+01  0.23817192938E+02  0.00000000000E+00 0. -1.
</event>
<event>
 7    1  0.3461631E-013  0.5930184E+02  0.7816164E-02  0.1266605E+00
        -11   -1    0    0    0    0  0.00000000000E+00  0.00000000000E+00  0.45593999997E+02  0.45594000000E+02  0.51100000000E-03 0.  1.
         11   -1    0    0    0    0 -0.00000000000E+00 -0.00000000000E+00 -0.45593999997E+02  0.45594000000E+02  0.51100000000E-03 0. -1.
    9900012    2    1    2    0    0 -0.20231227998E+02 -0.10206972403E+02  0.22433068573E+02  0.59301836267E+02  0.49999803471E+02 0.  0.
         12    1    1    2    0    0  0.20231227998E+02  0.10206972403E+02 -0.22433068573E+02  0.31886163733E+02  0.00000000000E+00 0. -1.
         11    1    3    3    0    0 -0.18457865898E+02 -0.21943553539E+02 -0.30979040974E+01  0.28841105482E+02  0.51100000000E-03 0. -1.
        -11    1    3    3    0    0  0.70530811172E+00  0.16137736445E+01 -0.95120173433E+00  0.20016268155E+01  0.51100000000E-03 0.  1.
        -12    1    3    3    0    0 -0.24786702125E+01  0.10122807491E+02  0.26482174405E+02  0.28459103969E+02  0.00000000000E+00 0.  1.
</event>
<event>
 7    1  0.3461631E-013  0.5930166E+02  0.7816164E-02  0.1266606E+00
        -11   -1    0    0    0    0  0.00000000000E+00  0.00000000000E+00  0.45593999997E+02  0.45594000000E+02  0.51100000000E-03 0. -1.
         11   -1    0    0    0    0 -0.00000000000E+00 -0.00000000000E+00 -0.45593999997E+02  0.45594000000E+02  0.51100000000E-03 0.  1.
    9900012    2    1    2    0    0 -0.17133766643E+02 -0.26891637091E+02  0.11282117685E+00  0.59301657572E+02  0.49999477571E+02 0.  0.
         12    1    1    2    0    0  0.17133766643E+02  0.26891637091E+02 -0.11282117685E+00  0.31886342428E+02  0.00000000000E+00 0. -1.
         11    1    3    3    0    0 -0.18991759993E+01 -0.14821594388E+02 -0.15117865271E+02  0.21256443265E+02  0.51100000000E-03 0. -1.
        -11    1    3    3    0    0 -0.63623568737E+01 -0.20190809518E+02  0.39093336626E+01  0.21527453726E+02  0.51100000000E-03 0.  1.
         12    1    3    3    0    0 -0.88722337702E+01  0.81207668146E+01  0.11321352785E+02  0.16517760581E+02  0.00000000000E+00 0. -1.
</event>
<event>
 7    1  0.3461631E-013  0.5930192E+02  0.7816164E-02  0.1266605E+00
        -11   -1    0    0    0    0  0.00000000000E+00  0.00000000000E+00  0.45593999997E+02  0.45594000000E+02  0.51100000000E-03 0.  1.
         11   -1    0    0    0    0 -0.00000000000E+00 -0.00000000000E+00 -0.45593999997E+02  0.45594000000E+02  0.51100000000E-03 0. -1.
    9900012    2    1    2    0    0 -0.39881390425E+01  0.14149985007E+02  0.28294784557E+02  0.59301918996E+02  0.49999954348E+02 0.  0.
         12    1    1    2    0    0  0.39881390425E+01 -0.14149985007E+02 -0.28294784557E+02  0.31886081004E+02  0.00000000000E+00 0. -1.
         11    1    3    3    0    0 -0.47642997734E+01  0.52576760019E+01 -0.19441244580E+01  0.73567200192E+01  0.51100000000E-03 0. -1.
        -11    1    3    3    0    0 -0.14187336869E+01  0.37488256419E+01 -0.10284368283E+02  0.11037877070E+02  0.51100000000E-03 0.  1.
        -12    1    3    3    0    0  0.21948944178E+01  0.51434833630E+01  0.40523277298E+02  0.40907321906E+02  0.00000000000E+00 0.  1.
</event>
<event>
 7    1  0.3461631E-013  0.5930196E+02  0.7816164E-02  0.1266605E+00
        -11   -1    0    0    0    0  0.00000000000E+00  0.00000000000E+00  0.45593999997E+02  0.45594000000E+02  0.51100000000E-03 0.  1.
         11   -1    0    0    0    0 -0.00000000000E+00 -0.00000000000E+00 -0.45593999997E+02  0.45594000000E+02  0.51100000000E-03 0. -1.
    9900012    2    1    2    0    0 -0.26416152186E+02 -0.79306626524E+01  0.16000344464E+02  0.59301960274E+02  0.50000029630E+02 0.  0.
         12    1    1    2    0    0  0.26416152186E+02  0.79306626524E+01 -0.16000344464E+02  0.31886039726E+02  0.00000000000E+00 0. -1.
         11    1    3    3    0    0 -0.39159701838E+02 -0.12734433398E+02  0.13674035997E+02  0.43389253309E+02  0.51100000000E-03 0. -1.
        -11    1    3    3    0    0 -0.49040319762E+00 -0.10869927803E+01 -0.19733749665E+00  0.12087145856E+01  0.51100000000E-03 0.  1.
        -12    1    3    3    0    0  0.13233952850E+02  0.58907635259E+01  0.25236459640E+01  0.14703992380E+02  0.00000000000E+00 0.  1.
</event>
<event>
 7    1  0.3461631E-013  0.5930194E+02  0.7816164E-02  0.1266605E+00
        -11   -1    0    0    0    0  0.00000000000E+00  0.00000000000E+00  0.45593999997E+02  0.45594000000E+02  0.51100000000E-03 0.  1.
         11   -1    0    0    0    0 -0.00000000000E+00 -0.00000000000E+00 -0.45593999997E+02  0.45594000000E+02  0.51100000000E-03 0. -1.
    9900012    2    1    2    0    0 -0.10242040494E+02  0.16417141379E+02  0.25343618090E+02  0.59301938744E+02  0.49999990363E+02 0.  0.
         12    1    1    2    0    0  0.10242040494E+02 -0.16417141379E+02 -0.25343618090E+02  0.31886061256E+02  0.00000000000E+00 0. -1.
         11    1    3    3    0    0  0.98411531941E+01  0.19996256052E+01  0.31717329381E+02  0.33269141589E+02  0.51100000000E-03 0. -1.
        -11    1    3    3    0    0 -0.41050344783E+01  0.28842280683E+01  0.76262375219E+00  0.50746108094E+01  0.51100000000E-03 0.  1.
        -12    1    3    3    0    0 -0.15978159210E+02  0.11533287706E+02 -0.71363350430E+01  0.20958186345E+02  0.00000000000E+00 0.  1.
</event>
<event>
 7    1  0.3461631E-013  0.5930198E+02  0.7816164E-02  0.1266605E+00
        -11   -1    0    0    0    0  0.00000000000E+00  0.00000000000E+00  0.45593999997E+02  0.45594000000E+02  0.51100000000E-03 0. -1.
         11   -1    0    0    0    0 -0.00000000000E+00 -0.00000000000E+00 -0.45593999997E+02  0.45594000000E+02  0.51100000000E-03 0.  1.
    9900012    2    1    2    0    0 -0.12470731325E+02  0.29250458159E+02 -0.23685498905E+01  0.59301976873E+02  0.50000059902E+02 0.  0.
         12    1    1    2    0    0  0.12470731325E+02 -0.29250458159E+02  0.23685498905E+01  0.31886023127E+02  0.00000000000E+00 0. -1.
         11    1    3    3    0    0 -0.12087750972E+02  0.18625017310E+02  0.18181241095E+02  0.28697779032E+02  0.51100000000E-03 0. -1.
        -11    1    3    3    0    0 -0.23277215431E+01  0.35614756991E+01  0.34709566347E+01  0.54908958248E+01  0.51100000000E-03 0.  1.
         12    1    3    3    0    0  0.19447411897E+01  0.70639651496E+01 -0.24020747620E+02  0.25113302016E+02  0.00000000000E+00 0. -1.
</event>
<event>
 7    1  0.3461631E-013  0.5930192E+02  0.7816164E-02  0.1266605E+00
        -11   -1    0    0    0    0  0.00000000000E+00  0.00000000000E+00  0.45593999997E+02  0.45594000000E+02  0.51100000000E-03 0. -1.
         11   -1    0    0    0    0 -0.00000000000E+00 -0.00000000000E+00 -0.45593999997E+02  0.45594000000E+02  0.51100000000E-03 0.  1.
    9900012    2    1    2    0    0  0.77295614971E+01 -0.12591925616E+02 -0.28256312278E+02  0.59301923177E+02  0.49999961972E+02 0.  0.
         12    1    1    2    0    0 -0.77295614971E+01  0.12591925616E+02  0.28256312278E+02  0.31886076823E+02  0.00000000000E+00 0. -1.
         11    1    3    3    0    0  0.79153144021E+01 -0.62892320601E+01 -0.13509341961E+02  0.16873321027E+02  0.51100000000E-03 0. -1.
        -11    1    3    3    0    0 -0.16767678076E+02  0.73028622930E+01 -0.57820708290E+01  0.19181219176E+02  0.51100000000E-03 0.  1.
         12    1    3    3    0    0  0.16581925171E+02 -0.13605555849E+02 -0.89648994876E+01  0.23247382974E+02  0.00000000000E+00 0. -1.
</event>
<event>
 7    1  0.3461631E-013  0.5930193E+02  0.7816164E-02  0.1266605E+00
        -11   -1    0    0    0    0  0.00000000000E+00  0.00000000000E+00  0.45593999997E+02  0.45594000000E+02  0.51100000000E-03 0. -1.
         11   -1    0    0    0    0 -0.00000000000E+00 -0.00000000000E+00 -0.45593999997E+02  0.45594000000E+02  0.51100000000E-03 0.  1.
    9900012    2    1    2    0    0 -0.10727125864E+01 -0.29507023942E+02  0.12037713056E+02  0.59301926083E+02  0.49999967274E+02 0.  0.
         12    1    1    2    0    0  0.10727125864E+01  0.29507023942E+02 -0.12037713056E+02  0.31886073917E+02  0.00000000000E+00 0. -1.
         11    1    3    3    0    0  0.11886182036E+01  0.19535562177E+01  0.52803707089E+00  0.23469168155E+01  0.51100000000E-03 0. -1.
        -11    1    3    3    0    0  0.55619403145E+01 -0.54758839558E+01 -0.16316488361E+02  0.18087240747E+02  0.51100000000E-03 0.  1.
         12    1    3    3    0    0 -0.78232711045E+01 -0.25984696204E+02  0.27826164345E+02  0.38867768521E+02  0.00000000000E+00 0. -1.
</event>
<event>
 7    1  0.3461631E-013  0.5930196E+02  0.7816164E-02  0.1266605E+00
        -11   -1    0    0    0    0  0.00000000000E+00  0.00000000000E+00  0.45593999997E+02  0.45594000000E+02  0.51100000000E-03 0.  1.
         11   -1    0    0    0    0 -0.00000000000E+00 -0.00000000000E+00 -0.45593999997E+02  0.45594000000E+02  0.51100000000E-03 0. -1.
    9900012    2    1    2    0    0  0.35579362855E+00  0.29820282727E+02  0.11284663166E+02  0.59301961146E+02  0.50000031219E+02 0.  0.
         12    1    1    2    0    0 -0.35579362855E+00 -0.29820282727E+02 -0.11284663166E+02  0.31886038854E+02  0.00000000000E+00 0. -1.
         11    1    3    3    0    0 -0.16088556372E+02  0.20726780250E+02  0.34230750609E+01  0.26460508476E+02  0.51100000000E-03 0. -1.
        -11    1    3    3    0    0  0.55608712320E+01  0.99585308400E+01 -0.77508745491E+01  0.13790274902E+02  0.51100000000E-03 0.  1.
         12    1    3    3    0    0  0.10883478769E+02 -0.86502836271E+00  0.15612462654E+02  0.19051177767E+02  0.00000000000E+00 0. -1.
</event>
<event>
 7    1  0.3461631E-013  0.5930194E+02  0.7816164E-02  0.1266605E+00
        -11   -1    0    0    0    0  0.00000000000E+00  0.00000000000E+00  0.45593999997E+02  0.45594000000E+02  0.51100000000E-03 0.  1.
         11   -1    0    0    0    0 -0.00000000000E+00 -0.00000000000E+00 -0.45593999997E+02  0.45594000000E+02  0.51100000000E-03 0. -1.
    9900012    2    1    2    0    0 -0.18395563536E+02 -0.98281720090E+01  0.24119103176E+02  0.59301939396E+02  0.49999991553E+02 0.  0.
         12    1    1    2    0    0  0.18395563536E+02  0.98281720090E+01 -0.24119103176E+02  0.31886060604E+02  0.00000000000E+00 0. -1.
         11    1    3    3    0    0 -0.11378402395E+02 -0.37493530783E+01 -0.85194959739E+00  0.12010474925E+02  0.51100000000E-03 0. -1.
        -11    1    3    3    0    0 -0.15154700195E+02  0.82210858161E+01  0.25555982061E+02  0.30827899854E+02  0.51100000000E-03 0.  1.
         12    1    3    3    0    0  0.81375390538E+01 -0.14299904747E+02 -0.58492928826E+00  0.16463564617E+02  0.00000000000E+00 0. -1.
</event>
<event>
 7    1  0.3461631E-013  0.5930201E+02  0.7816164E-02  0.1266605E+00
        -11   -1    0    0    0    0  0.00000000000E+00  0.00000000000E+00  0.45593999997E+02  0.45594000000E+02  0.51100000000E-03 0. -1.
         11   -1    0    0    0    0 -0.00000000000E+00 -0.00000000000E+00 -0.45593999997E+02  0.45594000000E+02  0.51100000000E-03 0.  1.
    9900012    2    1    2    0    0 -0.15120428883E+02  0.18259872191E+02 -0.21322895741E+02  0.59302012720E+02  0.50000125278E+02 0.  0.
         12    1    1    2    0    0  0.15120428883E+02 -0.18259872191E+02  0.21322895741E+02  0.31885987280E+02  0.00000000000E+00 0. -1.
         11    1    3    3    0    0  0.14927251407E+02 -0.23535400029E+01 -0.44097525942E+01  0.15741915491E+02  0.51100000000E-03 0. -1.
        -11    1    3    3    0    0 -0.62379633312E+01  0.11850092038E+02 -0.11422798830E+02  0.17601624959E+02  0.51100000000E-03 0.  1.
        -12    1    3    3    0    0 -0.23809716960E+02  0.87633201563E+01 -0.54903443171E+01  0.25958472270E+02  0.00000000000E+00 0.  1.
</event>
<event>
 7    1  0.3461631E-013  0.5930198E+02  0.7816164E-02  0.1266605E+00
        -11   -1    0    0    0    0  0.00000000000E+00  0.00000000000E+00  0.45593999997E+02  0.45594000000E+02  0.51100000000E-03 0.  1.
         11   -1    0    0    0    0 -0.00000000000E+00 -0.00000000000E+00 -0.45593999997E+02  0.45594000000E+02  0.51100000000E-03 0. -1.
    9900012    2    1    2    0    0  0.30531136134E+02  0.28163214341E+01  0.87542001450E+01  0.59301984880E+02  0.50000074504E+02 0.  0.
         12    1    1    2    0    0 -0.30531136134E+02 -0.28163214341E+01 -0.87542001450E+01  0.31886015120E+02  0.00000000000E+00 0. -1.
         11    1    3    3    0    0  0.24671737408E+02 -0.34114449066E+00 -0.44495564944E+01  0.25072087260E+02  0.51100000000E-03 0. -1.
        -11    1    3    3    0    0  0.27973368485E+01 -0.13344390978E+02  0.13892463647E+01  0.13705030819E+02  0.51100000000E-03 0.  1.
         12    1    3    3    0    0  0.30620618778E+01  0.16501856903E+02  0.11814510275E+02  0.20524866801E+02  0.00000000000E+00 0. -1.
</event>
<event>
 7    1  0.3461631E-013  0.5930192E+02  0.7816164E-02  0.1266605E+00
        -11   -1    0    0    0    0  0.00000000000E+00  0.00000000000E+00  0.45593999997E+02  0.45594000000E+02  0.51100000000E-03 0.  1.
         11   -1    0    0    0    0 -0.00000000000E+00 -0.00000000000E+00 -0.45593999997E+02  0.45594000000E+02  0.51100000000E-03 0. -1.
    9900012    2    1    2    0    0 -0.14355280969E+02  0.27992157053E+02  0.52045040238E+01  0.59301924508E+02  0.49999964400E+02 0.  0.
         12    1    1    2    0    0  0.14355280969E+02 -0.27992157053E+02 -0.52045040238E+01  0.31886075492E+02  0.00000000000E+00 0. -1.
         11    1    3    3    0    0  0.60394538393E+01  0.65481179277E+01  0.97359051729E+01  0.13196238133E+02  0.51100000000E-03 0. -1.
        -11    1    3    3    0    0  0.43034621227E+01  0.14612004336E+02  0.84074138855E+01  0.17398708729E+02  0.51100000000E-03 0.  1.
         12    1    3    3    0    0 -0.24698196931E+02  0.68320347896E+01 -0.12938815035E+02  0.28706977645E+02  0.00000000000E+00 0. -1.
</event>
<event>
 7    1  0.3461631E-013  0.5930196E+02  0.7816164E-02  0.1266605E+00
        -11   -1    0    0    0    0  0.00000000000E+00  0.00000000000E+00  0.45593999997E+02  0.45594000000E+02  0.51100000000E-03 0. -1.
         11   -1    0    0    0    0 -0.00000000000E+00 -0.00000000000E+00 -0.45593999997E+02  0.45594000000E+02  0.51100000000E-03 0.  1.
    9900012    2    1    2    0    0 -0.65619134368E+01 -0.11826059026E+02 -0.28875688311E+02  0.59301956729E+02  0.50000023164E+02 0.  0.
         12    1    1    2    0    0  0.65619134368E+01  0.11826059026E+02  0.28875688311E+02  0.31886043271E+02  0.00000000000E+00 0. -1.
         11    1    3    3    0    0  0.96798686090E+00 -0.90048689488E+01  0.11351968429E+02  0.14522115921E+02  0.51100000000E-03 0. -1.
        -11    1    3    3    0    0 -0.29622569021E+01 -0.95238717431E+01 -0.13095284520E+02  0.16461032041E+02  0.51100000000E-03 0.  1.
        -12    1    3    3    0    0 -0.45676433956E+01  0.67026816661E+01 -0.27132372220E+02  0.28318808767E+02  0.00000000000E+00 0.  1.
</event>
<event>
 7    1  0.3461631E-013  0.5930195E+02  0.7816164E-02  0.1266605E+00
        -11   -1    0    0    0    0  0.00000000000E+00  0.00000000000E+00  0.45593999997E+02  0.45594000000E+02  0.51100000000E-03 0. -1.
         11   -1    0    0    0    0 -0.00000000000E+00 -0.00000000000E+00 -0.45593999997E+02  0.45594000000E+02  0.51100000000E-03 0.  1.
    9900012    2    1    2    0    0 -0.17085467880E+02 -0.73055033473E+01 -0.25912087627E+02  0.59301954823E+02  0.50000019688E+02 0.  0.
         12    1    1    2    0    0  0.17085467880E+02  0.73055033473E+01  0.25912087627E+02  0.31886045177E+02  0.00000000000E+00 0. -1.
         11    1    3    3    0    0 -0.27410698435E-01 -0.58263322312E+01 -0.25418276150E+02  0.26077493386E+02  0.51100000000E-03 0. -1.
        -11    1    3    3    0    0 -0.18758971476E+02  0.18001983496E+01 -0.11183999101E+02  0.21913958134E+02  0.51100000000E-03 0.  1.
         12    1    3    3    0    0  0.17009142942E+01 -0.32793694657E+01  0.10690187624E+02  0.11310503303E+02  0.00000000000E+00 0. -1.
</event>
<event>
 7    1  0.3461631E-013  0.5930195E+02  0.7816164E-02  0.1266605E+00
        -11   -1    0    0    0    0  0.00000000000E+00  0.00000000000E+00  0.45593999997E+02  0.45594000000E+02  0.51100000000E-03 0.  1.
         11   -1    0    0    0    0 -0.00000000000E+00 -0.00000000000E+00 -0.45593999997E+02  0.45594000000E+02  0.51100000000E-03 0. -1.
    9900012    2    1    2    0    0  0.58957937319E+01 -0.25504376182E+02  0.18206776583E+02  0.59301948164E+02  0.50000007544E+02 0.  0.
         12    1    1    2    0    0 -0.58957937319E+01  0.25504376182E+02 -0.18206776583E+02  0.31886051836E+02  0.00000000000E+00 0. -1.
         11    1    3    3    0    0 -0.90833349750E+01 -0.74295183663E+01 -0.24441021117E+01  0.11986590542E+02  0.51100000000E-03 0. -1.
        -11    1    3    3    0    0 -0.11223579379E+02 -0.22456599288E+01  0.24659438707E+01  0.11708655005E+02  0.51100000000E-03 0.  1.
        -12    1    3    3    0    0  0.26202708085E+02 -0.15829197887E+02  0.18184934824E+02  0.35606702618E+02  0.00000000000E+00 0.  1.
</event>
<event>
 7    1  0.3461631E-013  0.5930193E+02  0.7816164E-02  0.1266605E+00
        -11   -1    0    0    0    0  0.00000000000E+00  0.00000000000E+00  0.45593999997E+02  0.45594000000E+02  0.51100000000E-03 0.  1.
         11   -1    0    0    0    0 -0.00000000000E+00 -0.00000000000E+00 -0.45593999997E+02  0.45594000000E+02  0.51100000000E-03 0. -1.
    9900012    2    1    2    0    0  0.26384940783E+02  0.17433477563E+02 -0.40780101381E+01  0.59301930836E+02  0.49999975941E+02 0.  0.
         12    1    1    2    0    0 -0.26384940783E+02 -0.17433477563E+02  0.40780101381E+01  0.31886069164E+02  0.00000000000E+00 0. -1.
         11    1    3    3    0    0 -0.11759013328E+02  0.56457719568E+01  0.38625511138E+01  0.13603986063E+02  0.51100000000E-03 0.  1.
        -11    1    3    3    0    0  0.16070409581E+02  0.28647469175E+01 -0.13575830193E+02  0.21231297762E+02  0.51100000000E-03 0. -1.
        -12    1    3    3    0    0  0.22073544530E+02  0.89229586887E+01  0.56352689409E+01  0.24466647010E+02  0.00000000000E+00 0.  1.
</event>
<event>
 7    1  0.3461631E-013  0.5930189E+02  0.7816164E-02  0.1266605E+00
        -11   -1    0    0    0    0  0.00000000000E+00  0.00000000000E+00  0.45593999997E+02  0.45594000000E+02  0.51100000000E-03 0.  1.
         11   -1    0    0    0    0 -0.00000000000E+00 -0.00000000000E+00 -0.45593999997E+02  0.45594000000E+02  0.51100000000E-03 0. -1.
    9900012    2    1    2    0    0  0.17944939880E+02 -0.14014487802E+02  0.22322566667E+02  0.59301894589E+02  0.49999909836E+02 0.  0.
         12    1    1    2    0    0 -0.17944939880E+02  0.14014487802E+02 -0.22322566667E+02  0.31886105411E+02  0.00000000000E+00 0. -1.
         11    1    3    3    0    0  0.18856009863E+00 -0.12060211633E+02 -0.55783081485E+01  0.13289160304E+02  0.51100000000E-03 0. -1.
        -11    1    3    3    0    0  0.23272792183E+02 -0.10937859887E+02  0.16871998508E+02  0.30755876980E+02  0.51100000000E-03 0.  1.
         12    1    3    3    0    0 -0.55164124017E+01  0.89835837183E+01  0.11028876308E+02  0.15256857305E+02  0.00000000000E+00 0. -1.
</event>
<event>
 7    1  0.3461631E-013  0.5930195E+02  0.7816164E-02  0.1266605E+00
        -11   -1    0    0    0    0  0.00000000000E+00  0.00000000000E+00  0.45593999997E+02  0.45594000000E+02  0.51100000000E-03 0.  1.
         11   -1    0    0    0    0 -0.00000000000E+00 -0.00000000000E+00 -0.45593999997E+02  0.45594000000E+02  0.51100000000E-03 0. -1.
    9900012    2    1    2    0    0 -0.22209284746E+02  0.17427078929E+02  0.14824470592E+02  0.59301947606E+02  0.50000006526E+02 0.  0.
         12    1    1    2    0    0  0.22209284746E+02 -0.17427078929E+02 -0.14824470592E+02  0.31886052394E+02  0.00000000000E+00 0. -1.
         11    1    3    3    0    0  0.65958518949E+01  0.48226647514E+01  0.69080054873E+01  0.10699714837E+02  0.51100000000E-03 0. -1.
        -11    1    3    3    0    0  0.61630567751E+01  0.87268036809E+01  0.81198689379E+01  0.13419114841E+02  0.51100000000E-03 0.  1.
        -12    1    3    3    0    0 -0.34968193416E+02  0.38776104971E+01 -0.20340383355E+00  0.35183117927E+02  0.00000000000E+00 0.  1.
</event>
<event>
 7    1  0.3461631E-013  0.5930194E+02  0.7816164E-02  0.1266605E+00
        -11   -1    0    0    0    0  0.00000000000E+00  0.00000000000E+00  0.45593999997E+02  0.45594000000E+02  0.51100000000E-03 0.  1.
         11   -1    0    0    0    0 -0.00000000000E+00 -0.00000000000E+00 -0.45593999997E+02  0.45594000000E+02  0.51100000000E-03 0. -1.
    9900012    2    1    2    0    0 -0.29652745788E+02 -0.92978647970E+01  0.71404051536E+01  0.59301937083E+02  0.49999987335E+02 0.  0.
         12    1    1    2    0    0  0.29652745788E+02  0.92978647970E+01 -0.71404051536E+01  0.31886062917E+02  0.00000000000E+00 0. -1.
         11    1    3    3    0    0 -0.12071321920E+02 -0.13471239463E+02 -0.78050924686E+01  0.19700522183E+02  0.51100000000E-03 0. -1.
        -11    1    3    3    0    0 -0.11538819812E+02 -0.95216610740E+01 -0.39715512022E+01  0.15478359457E+02  0.51100000000E-03 0.  1.
        -12    1    3    3    0    0 -0.60426040559E+01  0.13695035740E+02  0.18917048824E+02  0.24123055443E+02  0.00000000000E+00 0.  1.
</event>
<event>
 7    1  0.3461631E-013  0.5930192E+02  0.7816164E-02  0.1266605E+00
        -11   -1    0    0    0    0  0.00000000000E+00  0.00000000000E+00  0.45593999997E+02  0.45594000000E+02  0.51100000000E-03 0. -1.
         11   -1    0    0    0    0 -0.00000000000E+00 -0.00000000000E+00 -0.45593999997E+02  0.45594000000E+02  0.51100000000E-03 0.  1.
    9900012    2    1    2    0    0 -0.12163159316E+02 -0.80226181232E+01 -0.28362246717E+02  0.59301923338E+02  0.49999962267E+02 0.  0.
         12    1    1    2    0    0  0.12163159316E+02  0.80226181232E+01  0.28362246717E+02  0.31886076662E+02  0.00000000000E+00 0. -1.
         11    1    3    3    0    0  0.16843236943E+02 -0.12343059129E+02 -0.11896596203E+02  0.24032784709E+02  0.51100000000E-03 0. -1.
        -11    1    3    3    0    0 -0.98185220562E+00 -0.16866540825E+01 -0.30563166289E+01  0.36262800975E+01  0.51100000000E-03 0.  1.
        -12    1    3    3    0    0 -0.28024544053E+02  0.60070950886E+01 -0.13409333885E+02  0.31642858531E+02  0.00000000000E+00 0.  1.
</event>
<event>
 7    1  0.3461631E-013  0.5930197E+02  0.7816164E-02  0.1266605E+00
        -11   -1    0    0    0    0  0.00000000000E+00  0.00000000000E+00  0.45593999997E+02  0.45594000000E+02  0.51100000000E-03 0.  1.
         11   -1    0    0    0    0 -0.00000000000E+00 -0.00000000000E+00 -0.45593999997E+02  0.45594000000E+02  0.51100000000E-03 0. -1.
    9900012    2    1    2    0    0 -0.13547294333E+02  0.23909477566E+02  0.16171782269E+02  0.59301971038E+02  0.50000049259E+02 0.  0.
         12    1    1    2    0    0  0.13547294333E+02 -0.23909477566E+02 -0.16171782269E+02  0.31886028962E+02  0.00000000000E+00 0. -1.
         11    1    3    3    0    0 -0.13364413390E+02  0.56516278085E+01  0.26559641856E+01  0.14751358858E+02  0.51100000000E-03 0. -1.
        -11    1    3    3    0    0  0.16190905415E+01 -0.10243444702E+02  0.12129866863E+02  0.15958799577E+02  0.51100000000E-03 0.  1.
         12    1    3    3    0    0 -0.18019714845E+01  0.28501294460E+02  0.13859512202E+01  0.28591812602E+02  0.00000000000E+00 0. -1.
</event>
<event>
 7    1  0.3461631E-013  0.5930195E+02  0.7816164E-02  0.1266605E+00
        -11   -1    0    0    0    0  0.00000000000E+00  0.00000000000E+00  0.45593999997E+02  0.45594000000E+02  0.51100000000E-03 0.  1.
         11   -1    0    0    0    0 -0.00000000000E+00 -0.00000000000E+00 -0.45593999997E+02  0.45594000000E+02  0.51100000000E-03 0. -1.
    9900012    2    1    2    0    0  0.29842285874E+02  0.90673215415E+01 -0.66288605146E+01  0.59301950733E+02  0.50000012229E+02 0.  0.
         12    1    1    2    0    0 -0.29842285874E+02 -0.90673215415E+01  0.66288605146E+01  0.31886049267E+02  0.00000000000E+00 0. -1.
         11    1    3    3    0    0  0.12315306964E+02 -0.72056897865E+01 -0.22200098154E+02  0.26390019122E+02  0.51100000000E-03 0. -1.
        -11    1    3    3    0    0 -0.21967911730E+01  0.75856462119E+00 -0.13100513215E+01  0.26678730233E+01  0.51100000000E-03 0.  1.
        -12    1    3    3    0    0  0.19723770083E+02  0.15514446707E+02  0.16881288961E+02  0.30244058588E+02  0.00000000000E+00 0.  1.
</event>
<event>
 7    1  0.3461631E-013  0.5930196E+02  0.7816164E-02  0.1266605E+00
        -11   -1    0    0    0    0  0.00000000000E+00  0.00000000000E+00  0.45593999997E+02  0.45594000000E+02  0.51100000000E-03 0.  1.
         11   -1    0    0    0    0 -0.00000000000E+00 -0.00000000000E+00 -0.45593999997E+02  0.45594000000E+02  0.51100000000E-03 0. -1.
    9900012    2    1    2    0    0  0.31760067353E+02  0.22404904305E+01 -0.17315122535E+01  0.59301955869E+02  0.50000021596E+02 0.  0.
         12    1    1    2    0    0 -0.31760067353E+02 -0.22404904305E+01  0.17315122535E+01  0.31886044131E+02  0.00000000000E+00 0. -1.
         11    1    3    3    0    0 -0.11732322205E+01  0.36521823346E+01 -0.42697602651E+01  0.57398399482E+01  0.51100000000E-03 0. -1.
        -11    1    3    3    0    0  0.10971067996E+01  0.13538465599E+02 -0.92886397554E+01  0.16455167057E+02  0.51100000000E-03 0.  1.
        -12    1    3    3    0    0  0.31836192774E+02 -0.14950157503E+02  0.11826887767E+02  0.37106948864E+02  0.00000000000E+00 0.  1.
</event>
<event>
 7    1  0.3461631E-013  0.5930198E+02  0.7816164E-02  0.1266605E+00
        -11   -1    0    0    0    0  0.00000000000E+00  0.00000000000E+00  0.45593999997E+02  0.45594000000E+02  0.51100000000E-03 0.  1.
         11   -1    0    0    0    0 -0.00000000000E+00 -0.00000000000E+00 -0.45593999997E+02  0.45594000000E+02  0.51100000000E-03 0. -1.
    9900012    2    1    2    0    0 -0.60285527954E+01  0.22411972285E+01  0.31230625424E+02  0.59301978326E+02  0.50000062553E+02 0.  0.
         12    1    1    2    0    0  0.60285527954E+01 -0.22411972285E+01 -0.31230625424E+02  0.31886021674E+02  0.00000000000E+00 0. -1.
         11    1    3    3    0    0  0.33323888159E+01  0.15657253536E+02  0.16759411077E+02  0.23176114071E+02  0.51100000000E-03 0. -1.
        -11    1    3    3    0    0 -0.15837569391E+02 -0.90503984248E+01  0.19605400577E+02  0.26778910506E+02  0.51100000000E-03 0.  1.
         12    1    3    3    0    0  0.64766277794E+01 -0.43656578832E+01 -0.51341862302E+01  0.93469537494E+01  0.00000000000E+00 0. -1.
</event>
<event>
 7    1  0.3461631E-013  0.5930185E+02  0.7816164E-02  0.1266605E+00
        -11   -1    0    0    0    0  0.00000000000E+00  0.00000000000E+00  0.45593999997E+02  0.45594000000E+02  0.51100000000E-03 0. -1.
         11   -1    0    0    0    0 -0.00000000000E+00 -0.00000000000E+00 -0.45593999997E+02  0.45594000000E+02  0.51100000000E-03 0.  1.
    9900012    2    1    2    0    0 -0.32980372162E+01 -0.30574653665E+02 -0.84285093451E+01  0.59301854638E+02  0.49999836975E+02 0.  0.
         12    1    1    2    0    0  0.32980372162E+01  0.30574653665E+02  0.84285093451E+01  0.31886145362E+02  0.00000000000E+00 0. -1.
         11    1    3    3    0    0  0.10546030880E+02 -0.30496821510E+02 -0.58985249184E+01  0.32803467591E+02  0.51100000000E-03 0. -1.
        -11    1    3    3    0    0 -0.65869244758E+01 -0.86782751354E+01 -0.84456049114E+01  0.13785074391E+02  0.51100000000E-03 0.  1.
        -12    1    3    3    0    0 -0.72571436201E+01  0.86004429801E+01  0.59156204847E+01  0.12713312656E+02  0.00000000000E+00 0.  1.
</event>
<event>
 7    1  0.3461631E-013  0.5930181E+02  0.7816164E-02  0.1266605E+00
        -11   -1    0    0    0    0  0.00000000000E+00  0.00000000000E+00  0.45593999997E+02  0.45594000000E+02  0.51100000000E-03 0. -1.
         11   -1    0    0    0    0 -0.00000000000E+00 -0.00000000000E+00 -0.45593999997E+02  0.45594000000E+02  0.51100000000E-03 0.  1.
    9900012    2    1    2    0    0 -0.13429068576E+02  0.20690841377E+02 -0.20205896095E+02  0.59301811192E+02  0.49999757739E+02 0.  0.
         12    1    1    2    0    0  0.13429068576E+02 -0.20690841377E+02  0.20205896095E+02  0.31886188808E+02  0.00000000000E+00 0. -1.
         11    1    3    3    0    0 -0.16317528356E+01  0.41749699548E+01 -0.56435013007E+01  0.72070866952E+01  0.51100000000E-03 0. -1.
        -11    1    3    3    0    0 -0.24989679897E+02  0.20561579273E+02 -0.19089594707E+02  0.37572267298E+02  0.51100000000E-03 0.  1.
         12    1    3    3    0    0  0.13192364156E+02 -0.40457078506E+01  0.45271999129E+01  0.14522457199E+02  0.00000000000E+00 0. -1.
</event>
<event>
 7    1  0.4623140E-013  0.5930194E+02  0.7816164E-02  0.1266605E+00
        -11   -1    0    0    0    0  0.00000000000E+00  0.00000000000E+00  0.45593999997E+02  0.45594000000E+02  0.51100000000E-03 0. -1.
         11   -1    0    0    0    0 -0.00000000000E+00 -0.00000000000E+00 -0.45593999997E+02  0.45594000000E+02  0.51100000000E-03 0.  1.
    9900012    2    1    2    0    0 -0.85813048334E+01  0.24891255477E+02 -0.17986303823E+02  0.59301944787E+02  0.50000001384E+02 0.  0.
         12    1    1    2    0    0  0.85813048334E+01 -0.24891255477E+02  0.17986303823E+02  0.31886055213E+02  0.00000000000E+00 0. -1.
         11    1    3    3    0    0  0.24940582502E+01  0.68435638749E+01  0.11742441363E+02  0.13818090407E+02  0.51100000000E-03 0. -1.
        -11    1    3    3    0    0 -0.11722940542E+02  0.21392920467E+02 -0.11553526918E+02  0.26992005586E+02  0.51100000000E-03 0.  1.
         12    1    3    3    0    0  0.64757745806E+00 -0.33452288653E+01 -0.18175218268E+02  0.18491848793E+02  0.00000000000E+00 0. -1.
</event>
<event>
 7    1  0.3461631E-013  0.5930195E+02  0.7816164E-02  0.1266605E+00
        -11   -1    0    0    0    0  0.00000000000E+00  0.00000000000E+00  0.45593999997E+02  0.45594000000E+02  0.51100000000E-03 0. -1.
         11   -1    0    0    0    0 -0.00000000000E+00 -0.00000000000E+00 -0.45593999997E+02  0.45594000000E+02  0.51100000000E-03 0.  1.
    9900012    2    1    2    0    0 -0.12787119850E+02  0.13837255832E+02 -0.25724313085E+02  0.59301947144E+02  0.50000005684E+02 0.  0.
         12    1    1    2    0    0  0.12787119850E+02 -0.13837255832E+02  0.25724313085E+02  0.31886052856E+02  0.00000000000E+00 0. -1.
         11    1    3    3    0    0 -0.92928266108E+01 -0.17078456901E+01 -0.40188093294E+01  0.10267628354E+02  0.51100000000E-03 0. -1.
        -11    1    3    3    0    0 -0.15323893876E+02  0.15281193356E+02 -0.28192001511E+02  0.35540477534E+02  0.51100000000E-03 0.  1.
        -12    1    3    3    0    0  0.11829600637E+02  0.26390816674E+00  0.64864977551E+01  0.13493841257E+02  0.00000000000E+00 0.  1.
</event>
<event>
 7    1  0.3461631E-013  0.5930192E+02  0.7816164E-02  0.1266605E+00
        -11   -1    0    0    0    0  0.00000000000E+00  0.00000000000E+00  0.45593999997E+02  0.45594000000E+02  0.51100000000E-03 0.  1.
         11   -1    0    0    0    0 -0.00000000000E+00 -0.00000000000E+00 -0.45593999997E+02  0.45594000000E+02  0.51100000000E-03 0. -1.
    9900012    2    1    2    0    0 -0.86626325000E+01 -0.37105834166E+01  0.30461652469E+02  0.59301923066E+02  0.49999961770E+02 0.  0.
         12    1    1    2    0    0  0.86626325000E+01  0.37105834166E+01 -0.30461652469E+02  0.31886076934E+02  0.00000000000E+00 0. -1.
         11    1    3    3    0    0 -0.68026851670E+01 -0.14437400885E+02 -0.40776778919E+01  0.16472477866E+02  0.51100000000E-03 0. -1.
        -11    1    3    3    0    0 -0.47434085640E+01  0.53270676251E+01 -0.60268470175E+00  0.71582681843E+01  0.51100000000E-03 0.  1.
        -12    1    3    3    0    0  0.28834612311E+01  0.53997498428E+01  0.35142015063E+02  0.35671177016E+02  0.00000000000E+00 0.  1.
</event>
<event>
 7    1  0.3461631E-013  0.5930192E+02  0.7816164E-02  0.1266605E+00
        -11   -1    0    0    0    0  0.00000000000E+00  0.00000000000E+00  0.45593999997E+02  0.45594000000E+02  0.51100000000E-03 0. -1.
         11   -1    0    0    0    0 -0.00000000000E+00 -0.00000000000E+00 -0.45593999997E+02  0.45594000000E+02  0.51100000000E-03 0.  1.
    9900012    2    1    2    0    0 -0.73405814987E+01  0.30572842360E+02 -0.53046725080E+01  0.59301915619E+02  0.49999948190E+02 0.  0.
         12    1    1    2    0    0  0.73405814987E+01 -0.30572842360E+02  0.53046725080E+01  0.31886084381E+02  0.00000000000E+00 0. -1.
         11    1    3    3    0    0 -0.35128523841E+01  0.29677705162E+01 -0.11897058281E+01  0.47500730445E+01  0.51100000000E-03 0. -1.
        -11    1    3    3    0    0 -0.10404243300E+02  0.94704458037E+00 -0.20191604940E+02  0.22734249106E+02  0.51100000000E-03 0.  1.
        -12    1    3    3    0    0  0.65765141856E+01  0.26658027263E+02  0.16076638260E+02  0.31817593469E+02  0.00000000000E+00 0.  1.
</event>
<event>
 7    1  0.3461631E-013  0.5930197E+02  0.7816164E-02  0.1266605E+00
        -11   -1    0    0    0    0  0.00000000000E+00  0.00000000000E+00  0.45593999997E+02  0.45594000000E+02  0.51100000000E-03 0.  1.
         11   -1    0    0    0    0 -0.00000000000E+00 -0.00000000000E+00 -0.45593999997E+02  0.45594000000E+02  0.51100000000E-03 0. -1.
    9900012    2    1    2    0    0  0.21501598894E+02 -0.13845021373E+02  0.19045093853E+02  0.59301969020E+02  0.50000045580E+02 0.  0.
         12    1    1    2    0    0 -0.21501598894E+02  0.13845021373E+02 -0.19045093853E+02  0.31886030980E+02  0.00000000000E+00 0. -1.
         11    1    3    3    0    0  0.63140994355E+01 -0.72293328924E+01  0.17539866355E+02  0.19994449674E+02  0.51100000000E-03 0. -1.
        -11    1    3    3    0    0  0.67377776136E+00 -0.18921630732E+02  0.57966537661E+01  0.19801092928E+02  0.51100000000E-03 0.  1.
         12    1    3    3    0    0  0.14513721697E+02  0.12305942251E+02 -0.42914262682E+01  0.19506426418E+02  0.00000000000E+00 0. -1.
</event>
<event>
 7    1  0.3461631E-013  0.5930194E+02  0.7816164E-02  0.1266605E+00
        -11   -1    0    0    0    0  0.00000000000E+00  0.00000000000E+00  0.45593999997E+02  0.45594000000E+02  0.51100000000E-03 0. -1.
         11   -1    0    0    0    0 -0.00000000000E+00 -0.00000000000E+00 -0.45593999997E+02  0.45594000000E+02  0.51100000000E-03 0.  1.
    9900012    2    1    2    0    0 -0.14826679239E+01 -0.31808339359E+01 -0.31692350033E+02  0.59301936283E+02  0.49999985876E+02 0.  0.
         12    1    1    2    0    0  0.14826679239E+01  0.31808339359E+01  0.31692350033E+02  0.31886063717E+02  0.00000000000E+00 0. -1.
         11    1    3    3    0    0  0.41965935938E+01  0.12988949105E+02 -0.13482408193E+02  0.19185920035E+02  0.51100000000E-03 0. -1.
        -11    1    3    3    0    0 -0.14269695038E+02 -0.16977072958E+01 -0.18322979826E+02  0.23286004305E+02  0.51100000000E-03 0.  1.
         12    1    3    3    0    0  0.85904335200E+01 -0.14472075745E+02  0.11303798559E+00  0.16830011943E+02  0.00000000000E+00 0. -1.
</event>
<event>
 7    1  0.3461631E-013  0.5930198E+02  0.7816164E-02  0.1266605E+00
        -11   -1    0    0    0    0  0.00000000000E+00  0.00000000000E+00  0.45593999997E+02  0.45594000000E+02  0.51100000000E-03 0. -1.
         11   -1    0    0    0    0 -0.00000000000E+00 -0.00000000000E+00 -0.45593999997E+02  0.45594000000E+02  0.51100000000E-03 0.  1.
    9900012    2    1    2    0    0 -0.13958369670E+02 -0.13064253001E+02 -0.25518764921E+02  0.59301981851E+02  0.50000068980E+02 0.  0.
         12    1    1    2    0    0  0.13958369670E+02  0.13064253001E+02  0.25518764921E+02  0.31886018149E+02  0.00000000000E+00 0. -1.
         11    1    3    3    0    0  0.12841374871E+02 -0.83004818455E+01 -0.11650268264E+01  0.15334803397E+02  0.51100000000E-03 0. -1.
        -11    1    3    3    0    0 -0.15096966957E+02  0.40562008145E+01 -0.24789068351E+02  0.29306468336E+02  0.51100000000E-03 0.  1.
        -12    1    3    3    0    0 -0.11702777584E+02 -0.88199719698E+01  0.43533025698E+00  0.14660710118E+02  0.00000000000E+00 0.  1.
</event>
<event>
 7    1  0.3461631E-013  0.5930193E+02  0.7816164E-02  0.1266605E+00
        -11   -1    0    0    0    0  0.00000000000E+00  0.00000000000E+00  0.45593999997E+02  0.45594000000E+02  0.51100000000E-03 0.  1.
         11   -1    0    0    0    0 -0.00000000000E+00 -0.00000000000E+00 -0.45593999997E+02  0.45594000000E+02  0.51100000000E-03 0. -1.
    9900012    2    1    2    0    0 -0.11825607277E+02 -0.95816846736E+01  0.28019063980E+02  0.59301927570E+02  0.49999969986E+02 0.  0.
         12    1    1    2    0    0  0.11825607277E+02  0.95816846736E+01 -0.28019063980E+02  0.31886072430E+02  0.00000000000E+00 0. -1.
         11    1    3    3    0    0  0.14714599774E-01  0.21136480038E+01  0.63833102359E+01  0.67241634596E+01  0.51100000000E-03 0. -1.
        -11    1    3    3    0    0 -0.10573439417E+02  0.93858505659E+01  0.27272384757E+02  0.30719290072E+02  0.51100000000E-03 0.  1.
         12    1    3    3    0    0 -0.12668824606E+01 -0.21081183243E+02 -0.56366310129E+01  0.21858474038E+02  0.00000000000E+00 0. -1.
</event>
<event>
 7    1  0.3461631E-013  0.5930198E+02  0.7816164E-02  0.1266605E+00
        -11   -1    0    0    0    0  0.00000000000E+00  0.00000000000E+00  0.45593999997E+02  0.45594000000E+02  0.51100000000E-03 0.  1.
         11   -1    0    0    0    0 -0.00000000000E+00 -0.00000000000E+00 -0.45593999997E+02  0.45594000000E+02  0.51100000000E-03 0. -1.
    9900012    2    1    2    0    0 -0.59026672670E+01  0.17449066345E+02  0.26027045811E+02  0.59301976247E+02  0.50000058759E+02 0.  0.
         12    1    1    2    0    0  0.59026672670E+01 -0.17449066345E+02 -0.26027045811E+02  0.31886023753E+02  0.00000000000E+00 0. -1.
         11    1    3    3    0    0  0.46181568532E+01 -0.60812526222E+01 -0.67747719217E+01  0.10208160511E+02  0.51100000000E-03 0. -1.
        -11    1    3    3    0    0  0.85971278475E+01  0.52562532015E+01  0.87361210564E+01  0.13336364434E+02  0.51100000000E-03 0.  1.
        -12    1    3    3    0    0 -0.19117951968E+02  0.18274065765E+02  0.24065696676E+02  0.35757451301E+02  0.00000000000E+00 0.  1.
</event>
<event>
 7    1  0.3461631E-013  0.5930190E+02  0.7816164E-02  0.1266605E+00
        -11   -1    0    0    0    0  0.00000000000E+00  0.00000000000E+00  0.45593999997E+02  0.45594000000E+02  0.51100000000E-03 0.  1.
         11   -1    0    0    0    0 -0.00000000000E+00 -0.00000000000E+00 -0.45593999997E+02  0.45594000000E+02  0.51100000000E-03 0. -1.
    9900012    2    1    2    0    0  0.13246064362E+02 -0.21789452014E+02  0.19143793192E+02  0.59301901808E+02  0.49999923002E+02 0.  0.
         12    1    1    2    0    0 -0.13246064362E+02  0.21789452014E+02 -0.19143793192E+02  0.31886098192E+02  0.00000000000E+00 0. -1.
         11    1    3    3    0    0  0.66572755791E+01 -0.34302413620E+01 -0.98657683428E+01  0.12386252831E+02  0.51100000000E-03 0. -1.
        -11    1    3    3    0    0 -0.93510547840E+01 -0.12576489303E+02  0.31387440837E+01  0.15983179391E+02  0.51100000000E-03 0.  1.
         12    1    3    3    0    0  0.15939843567E+02 -0.57827213489E+01  0.25870817451E+02  0.30932469586E+02  0.00000000000E+00 0. -1.
</event>
<event>
 7    1  0.3461631E-013  0.5930194E+02  0.7816164E-02  0.1266605E+00
        -11   -1    0    0    0    0  0.00000000000E+00  0.00000000000E+00  0.45593999997E+02  0.45594000000E+02  0.51100000000E-03 0.  1.
         11   -1    0    0    0    0 -0.00000000000E+00 -0.00000000000E+00 -0.45593999997E+02  0.45594000000E+02  0.51100000000E-03 0. -1.
    9900012    2    1    2    0    0  0.20281969161E+02 -0.18097103886E+02  0.16669051844E+02  0.59301941424E+02  0.49999995252E+02 0.  0.
         12    1    1    2    0    0 -0.20281969161E+02  0.18097103886E+02 -0.16669051844E+02  0.31886058576E+02  0.00000000000E+00 0. -1.
         11    1    3    3    0    0 -0.79115495509E+01 -0.80572039643E+01 -0.11931586162E+01  0.11354945168E+02  0.51100000000E-03 0. -1.
        -11    1    3    3    0    0  0.12891011155E+02  0.11752434676E+02  0.10332020689E+02  0.20274332078E+02  0.51100000000E-03 0.  1.
        -12    1    3    3    0    0  0.15302507557E+02 -0.21792334598E+02  0.75301897711E+01  0.27672664179E+02  0.00000000000E+00 0.  1.
</event>
<event>
 7    1  0.3461631E-013  0.5930194E+02  0.7816164E-02  0.1266605E+00
        -11   -1    0    0    0    0  0.00000000000E+00  0.00000000000E+00  0.45593999997E+02  0.45594000000E+02  0.51100000000E-03 0. -1.
         11   -1    0    0    0    0 -0.00000000000E+00 -0.00000000000E+00 -0.45593999997E+02  0.45594000000E+02  0.51100000000E-03 0.  1.
    9900012    2    1    2    0    0  0.14884782361E+02  0.22986065417E+02 -0.16334159005E+02  0.59301941923E+02  0.49999996161E+02 0.  0.
         12    1    1    2    0    0 -0.14884782361E+02 -0.22986065417E+02  0.16334159005E+02  0.31886058077E+02  0.00000000000E+00 0. -1.
         11    1    3    3    0    0  0.45706991912E+01 -0.12364387879E+02  0.23457330290E+01  0.13389243534E+02  0.51100000000E-03 0. -1.
        -11    1    3    3    0    0  0.10425122320E+02  0.67717143505E+01 -0.13855872186E+01  0.12508362916E+02  0.51100000000E-03 0.  1.
        -12    1    3    3    0    0 -0.11103914949E+00  0.28578738945E+02 -0.17294304815E+02  0.33404335473E+02  0.00000000000E+00 0.  1.
</event>
<event>
 7    1  0.3461631E-013  0.5930194E+02  0.7816164E-02  0.1266605E+00
        -11   -1    0    0    0    0  0.00000000000E+00  0.00000000000E+00  0.45593999997E+02  0.45594000000E+02  0.51100000000E-03 0. -1.
         11   -1    0    0    0    0 -0.00000000000E+00 -0.00000000000E+00 -0.45593999997E+02  0.45594000000E+02  0.51100000000E-03 0.  1.
    9900012    2    1    2    0    0  0.12137687274E+02  0.83164603288E+01 -0.28288402592E+02  0.59301942138E+02  0.49999996555E+02 0.  0.
         12    1    1    2    0    0 -0.12137687274E+02 -0.83164603288E+01  0.28288402592E+02  0.31886057862E+02  0.00000000000E+00 0. -1.
         11    1    3    3    0    0  0.14671952977E+02  0.18970018471E+01 -0.74024799620E+01  0.16542718338E+02  0.51100000000E-03 0. -1.
        -11    1    3    3    0    0  0.16694351362E+02  0.41094680650E+01 -0.14109277024E+02  0.22240971058E+02  0.51100000000E-03 0.  1.
        -12    1    3    3    0    0 -0.19228617065E+02  0.23099904167E+01 -0.67766456054E+01  0.20518252743E+02  0.00000000000E+00 0.  1.
</event>
<event>
 7    1  0.3461631E-013  0.5930194E+02  0.7816164E-02  0.1266605E+00
        -11   -1    0    0    0    0  0.00000000000E+00  0.00000000000E+00  0.45593999997E+02  0.45594000000E+02  0.51100000000E-03 0.  1.
         11   -1    0    0    0    0 -0.00000000000E+00 -0.00000000000E+00 -0.45593999997E+02  0.45594000000E+02  0.51100000000E-03 0. -1.
    9900012    2    1    2    0    0  0.11295195835E+02 -0.10208641009E+02  0.28016482292E+02  0.59301935956E+02  0.49999985280E+02 0.  0.
         12    1    1    2    0    0 -0.11295195835E+02  0.10208641009E+02 -0.28016482292E+02  0.31886064044E+02  0.00000000000E+00 0. -1.
         11    1    3    3    0    0  0.29424498906E+01 -0.40333931753E+01 -0.59166232948E+01  0.77416214928E+01  0.51100000000E-03 0. -1.
        -11    1    3    3    0    0  0.46089965854E+01 -0.14851092381E+02 -0.79450919887E+00  0.15570132934E+02  0.51100000000E-03 0.  1.
        -12    1    3    3    0    0  0.37437493589E+01  0.86758445480E+01  0.34727614785E+02  0.35990181530E+02  0.00000000000E+00 0.  1.
</event>
<event>
 7    1  0.3461631E-013  0.5930184E+02  0.7816164E-02  0.1266605E+00
        -11   -1    0    0    0    0  0.00000000000E+00  0.00000000000E+00  0.45593999997E+02  0.45594000000E+02  0.51100000000E-03 0.  1.
         11   -1    0    0    0    0 -0.00000000000E+00 -0.00000000000E+00 -0.45593999997E+02  0.45594000000E+02  0.51100000000E-03 0. -1.
    9900012    2    1    2    0    0  0.64658178171E+01  0.31205881184E+02  0.10551173432E+01  0.59301841669E+02  0.49999813322E+02 0.  0.
         12    1    1    2    0    0 -0.64658178171E+01 -0.31205881184E+02 -0.10551173432E+01  0.31886158331E+02  0.00000000000E+00 0. -1.
         11    1    3    3    0    0  0.78965433376E+01  0.32882223184E+02 -0.11994252939E+02  0.35881166398E+02  0.51100000000E-03 0. -1.
        -11    1    3    3    0    0 -0.90241273091E+00  0.58301373710E+01 -0.22951648203E+01  0.63302948048E+01  0.51100000000E-03 0.  1.
        -12    1    3    3    0    0 -0.52831278958E+00 -0.75064793718E+01  0.15344535103E+02  0.17090380466E+02  0.00000000000E+00 0.  1.
</event>
<event>
 7    1  0.3461631E-013  0.5930197E+02  0.7816164E-02  0.1266605E+00
        -11   -1    0    0    0    0  0.00000000000E+00  0.00000000000E+00  0.45593999997E+02  0.45594000000E+02  0.51100000000E-03 0.  1.
         11   -1    0    0    0    0 -0.00000000000E+00 -0.00000000000E+00 -0.45593999997E+02  0.45594000000E+02  0.51100000000E-03 0. -1.
    9900012    2    1    2    0    0 -0.31062441562E+02  0.71371269088E+01 -0.95137608565E+00  0.59301969003E+02  0.50000045548E+02 0.  0.
         12    1    1    2    0    0  0.31062441562E+02 -0.71371269088E+01  0.95137608565E+00  0.31886030997E+02  0.00000000000E+00 0. -1.
         11    1    3    3    0    0  0.97491050850E+01  0.56961669037E+01  0.28361555555E+01  0.11641956277E+02  0.51100000000E-03 0. -1.
        -11    1    3    3    0    0 -0.27178678513E+02  0.43717376184E+00  0.93060603435E+01  0.28731071090E+02  0.51100000000E-03 0.  1.
         12    1    3    3    0    0 -0.13632868134E+02  0.10037862433E+01 -0.13093591985E+02  0.18928941636E+02  0.00000000000E+00 0. -1.
</event>
<event>
 7    1  0.3461631E-013  0.5930198E+02  0.7816164E-02  0.1266605E+00
        -11   -1    0    0    0    0  0.00000000000E+00  0.00000000000E+00  0.45593999997E+02  0.45594000000E+02  0.51100000000E-03 0.  1.
         11   -1    0    0    0    0 -0.00000000000E+00 -0.00000000000E+00 -0.45593999997E+02  0.45594000000E+02  0.51100000000E-03 0. -1.
    9900012    2    1    2    0    0  0.14059288692E+02 -0.27341845440E+02  0.84544747021E+01  0.59301980288E+02  0.50000066131E+02 0.  0.
         12    1    1    2    0    0 -0.14059288692E+02  0.27341845440E+02 -0.84544747021E+01  0.31886019712E+02  0.00000000000E+00 0. -1.
         11    1    3    3    0    0 -0.55352992531E+01 -0.49204288586E+00  0.24936669592E+01  0.60909785083E+01  0.51100000000E-03 0. -1.
        -11    1    3    3    0    0 -0.37028646541E+01  0.81517473317E+01  0.66604434229E+01  0.11159018687E+02  0.51100000000E-03 0.  1.
        -12    1    3    3    0    0  0.23297452599E+02 -0.35001549886E+02 -0.69963568004E+00  0.42051983093E+02  0.00000000000E+00 0.  1.
</event>
<event>
 7    1  0.3461631E-013  0.5930196E+02  0.7816164E-02  0.1266605E+00
        -11   -1    0    0    0    0  0.00000000000E+00  0.00000000000E+00  0.45593999997E+02  0.45594000000E+02  0.51100000000E-03 0.  1.
         11   -1    0    0    0    0 -0.00000000000E+00 -0.00000000000E+00 -0.45593999997E+02  0.45594000000E+02  0.51100000000E-03 0. -1.
    9900012    2    1    2    0    0 -0.31215944769E+02  0.40381988328E+01 -0.50967892245E+01  0.59301960452E+02  0.50000029954E+02 0.  0.
         12    1    1    2    0    0  0.31215944769E+02 -0.40381988328E+01  0.50967892245E+01  0.31886039548E+02  0.00000000000E+00 0. -1.
         11    1    3    3    0    0  0.78907956659E+01 -0.41067232727E+01 -0.53786916847E+01  0.10395198737E+02  0.51100000000E-03 0. -1.
        -11    1    3    3    0    0 -0.44346797331E+01  0.12751751435E+02  0.29808001731E+01  0.13826016018E+02  0.51100000000E-03 0.  1.
         12    1    3    3    0    0 -0.34672060702E+02 -0.46068293294E+01 -0.26988977129E+01  0.35080745697E+02  0.00000000000E+00 0. -1.
</event>
<event>
 7    1  0.3461631E-013  0.5930191E+02  0.7816164E-02  0.1266605E+00
        -11   -1    0    0    0    0  0.00000000000E+00  0.00000000000E+00  0.45593999997E+02  0.45594000000E+02  0.51100000000E-03 0.  1.
         11   -1    0    0    0    0 -0.00000000000E+00 -0.00000000000E+00 -0.45593999997E+02  0.45594000000E+02  0.51100000000E-03 0. -1.
    9900012    2    1    2    0    0  0.77198984923E+01 -0.11127118486E+02  0.28867162680E+02  0.59301910875E+02  0.49999939537E+02 0.  0.
         12    1    1    2    0    0 -0.77198984923E+01  0.11127118486E+02 -0.28867162680E+02  0.31886089125E+02  0.00000000000E+00 0. -1.
         11    1    3    3    0    0  0.71138376373E+01  0.27387778162E+01  0.10880903135E+02  0.13285392096E+02  0.51100000000E-03 0. -1.
        -11    1    3    3    0    0  0.13117061830E+02 -0.23013032335E+01  0.24411682453E+02  0.27807976339E+02  0.51100000000E-03 0.  1.
         12    1    3    3    0    0 -0.12511000975E+02 -0.11564593069E+02 -0.64254229083E+01  0.18208542440E+02  0.00000000000E+00 0. -1.
</event>
<event>
 7    1  0.3461631E-013  0.5930163E+02  0.7816164E-02  0.1266606E+00
        -11   -1    0    0    0    0  0.00000000000E+00  0.00000000000E+00  0.45593999997E+02  0.45594000000E+02  0.51100000000E-03 0.  1.
         11   -1    0    0    0    0 -0.00000000000E+00 -0.00000000000E+00 -0.45593999997E+02  0.45594000000E+02  0.51100000000E-03 0. -1.
    9900012    2    1    2    0    0  0.29767206114E+02 -0.90310132119E+01  0.70067611122E+01  0.59301632055E+02  0.49999431033E+02 0.  0.
         12    1    1    2    0    0 -0.29767206114E+02  0.90310132119E+01 -0.70067611122E+01  0.31886367945E+02  0.00000000000E+00 0. -1.
         11    1    3    3    0    0  0.23682142188E+01 -0.16429404009E+02  0.97643314880E+00  0.16627903555E+02  0.51100000000E-03 0. -1.
        -11    1    3    3    0    0 -0.21127676603E+00 -0.86598796357E+01 -0.34983600267E+01  0.93421986874E+01  0.51100000000E-03 0.  1.
        -12    1    3    3    0    0  0.27610268661E+02  0.16058270433E+02  0.95286879901E+01  0.33331529812E+02  0.00000000000E+00 0.  1.
</event>
<event>
 7    1  0.3461631E-013  0.5930194E+02  0.7816164E-02  0.1266605E+00
        -11   -1    0    0    0    0  0.00000000000E+00  0.00000000000E+00  0.45593999997E+02  0.45594000000E+02  0.51100000000E-03 0.  1.
         11   -1    0    0    0    0 -0.00000000000E+00 -0.00000000000E+00 -0.45593999997E+02  0.45594000000E+02  0.51100000000E-03 0. -1.
    9900012    2    1    2    0    0  0.11496270395E+01 -0.20898786065E+02  0.24054929355E+02  0.59301944621E+02  0.50000001082E+02 0.  0.
         12    1    1    2    0    0 -0.11496270395E+01  0.20898786065E+02 -0.24054929355E+02  0.31886055379E+02  0.00000000000E+00 0. -1.
         11    1    3    3    0    0 -0.16442472899E+02 -0.19285580686E+02  0.56293974238E+01  0.25961098841E+02  0.51100000000E-03 0. -1.
        -11    1    3    3    0    0  0.24898489223E+00 -0.82602449788E+01  0.18990193829E+01  0.84793817855E+01  0.51100000000E-03 0.  1.
        -12    1    3    3    0    0  0.17343115046E+02  0.66470395997E+01  0.16526512549E+02  0.24861463995E+02  0.00000000000E+00 0.  1.
</event>
<event>
 7    1  0.3461631E-013  0.5930193E+02  0.7816164E-02  0.1266605E+00
        -11   -1    0    0    0    0  0.00000000000E+00  0.00000000000E+00  0.45593999997E+02  0.45594000000E+02  0.51100000000E-03 0.  1.
         11   -1    0    0    0    0 -0.00000000000E+00 -0.00000000000E+00 -0.45593999997E+02  0.45594000000E+02  0.51100000000E-03 0. -1.
    9900012    2    1    2    0    0  0.24967277874E+02 -0.16239451954E+02  0.11385812717E+02  0.59301929445E+02  0.49999973405E+02 0.  0.
         12    1    1    2    0    0 -0.24967277874E+02  0.16239451954E+02 -0.11385812717E+02  0.31886070555E+02  0.00000000000E+00 0. -1.
         11    1    3    3    0    0  0.54077739055E+01 -0.13633382454E+01  0.22456440682E+02  0.23138591965E+02  0.51100000000E-03 0. -1.
        -11    1    3    3    0    0  0.30204658838E+01  0.19767011467E-01  0.69155318238E+01  0.75464021598E+01  0.51100000000E-03 0.  1.
         12    1    3    3    0    0  0.16539038085E+02 -0.14895880720E+02 -0.17986159788E+02  0.28616935320E+02  0.00000000000E+00 0. -1.
</event>
<event>
 7    1  0.3461631E-013  0.5930195E+02  0.7816164E-02  0.1266605E+00
        -11   -1    0    0    0    0  0.00000000000E+00  0.00000000000E+00  0.45593999997E+02  0.45594000000E+02  0.51100000000E-03 0.  1.
         11   -1    0    0    0    0 -0.00000000000E+00 -0.00000000000E+00 -0.45593999997E+02  0.45594000000E+02  0.51100000000E-03 0. -1.
    9900012    2    1    2    0    0  0.19764253268E+02  0.24844319366E+02 -0.29756203855E+01  0.59301949309E+02  0.50000009632E+02 0.  0.
         12    1    1    2    0    0 -0.19764253268E+02 -0.24844319366E+02  0.29756203855E+01  0.31886050691E+02  0.00000000000E+00 0. -1.
         11    1    3    3    0    0 -0.75894069363E+00  0.14644810524E+01 -0.91115942202E+01  0.92596892617E+01  0.51100000000E-03 0. -1.
        -11    1    3    3    0    0 -0.53581890929E+01  0.95607415158E+01 -0.11438588931E+02  0.15841694533E+02  0.51100000000E-03 0.  1.
        -12    1    3    3    0    0  0.25881383055E+02  0.13819096797E+02  0.17574562765E+02  0.34200565514E+02  0.00000000000E+00 0.  1.
</event>
<event>
 7    1  0.3461631E-013  0.5930195E+02  0.7816164E-02  0.1266605E+00
        -11   -1    0    0    0    0  0.00000000000E+00  0.00000000000E+00  0.45593999997E+02  0.45594000000E+02  0.51100000000E-03 0.  1.
         11   -1    0    0    0    0 -0.00000000000E+00 -0.00000000000E+00 -0.45593999997E+02  0.45594000000E+02  0.51100000000E-03 0. -1.
    9900012    2    1    2    0    0  0.18149185157E+02 -0.10820288463E+02  0.23879883645E+02  0.59301946509E+02  0.50000004526E+02 0.  0.
         12    1    1    2    0    0 -0.18149185157E+02  0.10820288463E+02 -0.23879883645E+02  0.31886053491E+02  0.00000000000E+00 0. -1.
         11    1    3    3    0    0 -0.41400820981E+01 -0.23033843162E+02  0.42036923306E+01  0.23777494402E+02  0.51100000000E-03 0. -1.
        -11    1    3    3    0    0  0.15839097954E+02  0.16743627254E+01  0.16132030576E+02  0.22669868225E+02  0.51100000000E-03 0.  1.
        -12    1    3    3    0    0  0.64501693009E+01  0.10539191973E+02  0.35441607386E+01  0.12854583883E+02  0.00000000000E+00 0.  1.
</event>
<event>
 7    1  0.3461631E-013  0.5930195E+02  0.7816164E-02  0.1266605E+00
        -11   -1    0    0    0    0  0.00000000000E+00  0.00000000000E+00  0.45593999997E+02  0.45594000000E+02  0.51100000000E-03 0.  1.
         11   -1    0    0    0    0 -0.00000000000E+00 -0.00000000000E+00 -0.45593999997E+02  0.45594000000E+02  0.51100000000E-03 0. -1.
    9900012    2    1    2    0    0  0.14130154472E+02  0.77311028777E+01  0.27518888060E+02  0.59301946354E+02  0.50000004242E+02 0.  0.
         12    1    1    2    0    0 -0.14130154472E+02 -0.77311028777E+01 -0.27518888060E+02  0.31886053646E+02  0.00000000000E+00 0. -1.
         11    1    3    3    0    0 -0.65340432534E+01 -0.14380170742E+01  0.17185113163E+02  0.18441521874E+02  0.51100000000E-03 0. -1.
        -11    1    3    3    0    0  0.51572282645E+01  0.97091792519E+01  0.19826515554E+02  0.22670595149E+02  0.51100000000E-03 0.  1.
        -12    1    3    3    0    0  0.15506969461E+02 -0.54005930004E+00 -0.94927406574E+01  0.18189829331E+02  0.00000000000E+00 0.  1.
</event>
<event>
 7    1  0.3461631E-013  0.5930197E+02  0.7816164E-02  0.1266605E+00
        -11   -1    0    0    0    0  0.00000000000E+00  0.00000000000E+00  0.45593999997E+02  0.45594000000E+02  0.51100000000E-03 0. -1.
         11   -1    0    0    0    0 -0.00000000000E+00 -0.00000000000E+00 -0.45593999997E+02  0.45594000000E+02  0.51100000000E-03 0.  1.
    9900012    2    1    2    0    0 -0.26534188670E+02  0.11738783203E+01 -0.17643056231E+02  0.59301974976E+02  0.50000056442E+02 0.  0.
         12    1    1    2    0    0  0.26534188670E+02 -0.11738783203E+01  0.17643056231E+02  0.31886025024E+02  0.00000000000E+00 0. -1.
         11    1    3    3    0    0 -0.13621667745E+02  0.21239298594E+00  0.51093279485E+01  0.14549920113E+02  0.51100000000E-03 0. -1.
        -11    1    3    3    0    0 -0.13964684424E+02 -0.26286298657E+01  0.62397405603E+01  0.15519551171E+02  0.51100000000E-03 0.  1.
        -12    1    3    3    0    0  0.10521634991E+01  0.35901152001E+01 -0.28992124739E+02  0.29232503692E+02  0.00000000000E+00 0.  1.
</event>
<event>
 7    1  0.3461631E-013  0.5930193E+02  0.7816164E-02  0.1266605E+00
        -11   -1    0    0    0    0  0.00000000000E+00  0.00000000000E+00  0.45593999997E+02  0.45594000000E+02  0.51100000000E-03 0. -1.
         11   -1    0    0    0    0 -0.00000000000E+00 -0.00000000000E+00 -0.45593999997E+02  0.45594000000E+02  0.51100000000E-03 0.  1.
    9900012    2    1    2    0    0  0.31276009900E+02  0.22850355242E+01 -0.57715656583E+01  0.59301934819E+02  0.49999983205E+02 0.  0.
         12    1    1    2    0    0 -0.31276009900E+02 -0.22850355242E+01  0.57715656583E+01  0.31886065181E+02  0.00000000000E+00 0. -1.
         11    1    3    3    0    0  0.37746642325E+01  0.45619917555E+01  0.16741628657E+02  0.17757871190E+02  0.51100000000E-03 0. -1.
        -11    1    3    3    0    0  0.12807527583E+02 -0.84679463777E+01 -0.18808100758E+01  0.15468559256E+02  0.51100000000E-03 0.  1.
        -12    1    3    3    0    0  0.14693818085E+02  0.61909901464E+01 -0.20632384240E+02  0.26075504373E+02  0.00000000000E+00 0.  1.
</event>
<event>
 7    1  0.3461631E-013  0.5930196E+02  0.7816164E-02  0.1266605E+00
        -11   -1    0    0    0    0  0.00000000000E+00  0.00000000000E+00  0.45593999997E+02  0.45594000000E+02  0.51100000000E-03 0. -1.
         11   -1    0    0    0    0 -0.00000000000E+00 -0.00000000000E+00 -0.45593999997E+02  0.45594000000E+02  0.51100000000E-03 0.  1.
    9900012    2    1    2    0    0  0.29565337725E+02  0.11893717984E+02  0.10722609412E+01  0.59301961271E+02  0.50000031448E+02 0.  0.
         12    1    1    2    0    0 -0.29565337725E+02 -0.11893717984E+02 -0.10722609412E+01  0.31886038729E+02  0.00000000000E+00 0. -1.
         11    1    3    3    0    0 -0.87705688233E+01 -0.29351636152E+01 -0.81196542460E+01  0.12307186854E+02  0.51100000000E-03 0. -1.
        -11    1    3    3    0    0  0.10936707966E+02  0.58104198635E+01 -0.66800635527E+01  0.14071098374E+02  0.51100000000E-03 0.  1.
         12    1    3    3    0    0  0.27399198583E+02  0.90184617352E+01  0.15871978740E+02  0.32923676043E+02  0.00000000000E+00 0. -1.
</event>
<event>
 7    1  0.3461631E-013  0.5930191E+02  0.7816164E-02  0.1266605E+00
        -11   -1    0    0    0    0  0.00000000000E+00  0.00000000000E+00  0.45593999997E+02  0.45594000000E+02  0.51100000000E-03 0. -1.
         11   -1    0    0    0    0 -0.00000000000E+00 -0.00000000000E+00 -0.45593999997E+02  0.45594000000E+02  0.51100000000E-03 0.  1.
    9900012    2    1    2    0    0 -0.24805747565E+02 -0.13726008355E+01 -0.19987839933E+02  0.59301907570E+02  0.49999933509E+02 0.  0.
         12    1    1    2    0    0  0.24805747565E+02  0.13726008355E+01  0.19987839933E+02  0.31886092430E+02  0.00000000000E+00 0. -1.
         11    1    3    3    0    0  0.13589601672E+02  0.56239111331E+01 -0.24455580273E+01  0.14909272429E+02  0.51100000000E-03 0. -1.
        -11    1    3    3    0    0 -0.10495483371E+02  0.30084461843E+01 -0.68206780778E+01  0.12873522025E+02  0.51100000000E-03 0.  1.
        -12    1    3    3    0    0 -0.27899865865E+02 -0.10004958153E+02 -0.10721603828E+02  0.31519113116E+02  0.00000000000E+00 0.  1.
</event>
<event>
 7    1  0.3461631E-013  0.5930196E+02  0.7816164E-02  0.1266605E+00
        -11   -1    0    0    0    0  0.00000000000E+00  0.00000000000E+00  0.45593999997E+02  0.45594000000E+02  0.51100000000E-03 0.  1.
         11   -1    0    0    0    0 -0.00000000000E+00 -0.00000000000E+00 -0.45593999997E+02  0.45594000000E+02  0.51100000000E-03 0. -1.
    9900012    2    1    2    0    0  0.17569703294E+01 -0.21604779495E+02  0.23385174846E+02  0.59301955335E+02  0.50000020622E+02 0.  0.
         12    1    1    2    0    0 -0.17569703294E+01  0.21604779495E+02 -0.23385174846E+02  0.31886044665E+02  0.00000000000E+00 0. -1.
         11    1    3    3    0    0  0.55006889507E+01  0.11781317476E+02  0.70526460614E+01  0.14791782757E+02  0.51100000000E-03 0. -1.
        -11    1    3    3    0    0  0.21938999649E+01 -0.76255558254E+01 -0.59645534738E+01  0.99266407765E+01  0.51100000000E-03 0.  1.
        -12    1    3    3    0    0 -0.59376185862E+01 -0.25760541146E+02  0.22297082259E+02  0.34583531801E+02  0.00000000000E+00 0.  1.
</event>
<event>
 7    1  0.3461631E-013  0.5930195E+02  0.7816164E-02  0.1266605E+00
        -11   -1    0    0    0    0  0.00000000000E+00  0.00000000000E+00  0.45593999997E+02  0.45594000000E+02  0.51100000000E-03 0.  1.
         11   -1    0    0    0    0 -0.00000000000E+00 -0.00000000000E+00 -0.45593999997E+02  0.45594000000E+02  0.51100000000E-03 0. -1.
    9900012    2    1    2    0    0  0.25428811126E+02  0.12684386866E+02  0.14463829160E+02  0.59301945691E+02  0.50000003033E+02 0.  0.
         12    1    1    2    0    0 -0.25428811126E+02 -0.12684386866E+02 -0.14463829160E+02  0.31886054309E+02  0.00000000000E+00 0. -1.
         11    1    3    3    0    0  0.15770585857E+02  0.62238148617E+01 -0.82460026176E+01  0.18853217475E+02  0.51100000000E-03 0. -1.
        -11    1    3    3    0    0  0.94352158677E+01  0.14946131499E+01 -0.60203533424E+01  0.11291670451E+02  0.51100000000E-03 0.  1.
        -12    1    3    3    0    0  0.22300940121E+00  0.49659588546E+01  0.28730185119E+02  0.29157057765E+02  0.00000000000E+00 0.  1.
</event>
<event>
 7    1  0.3461631E-013  0.5930194E+02  0.7816164E-02  0.1266605E+00
        -11   -1    0    0    0    0  0.00000000000E+00  0.00000000000E+00  0.45593999997E+02  0.45594000000E+02  0.51100000000E-03 0.  1.
         11   -1    0    0    0    0 -0.00000000000E+00 -0.00000000000E+00 -0.45593999997E+02  0.45594000000E+02  0.51100000000E-03 0. -1.
    9900012    2    1    2    0    0 -0.18082344435E+02  0.19373487106E+02  0.17731829477E+02  0.59301937849E+02  0.49999988732E+02 0.  0.
         12    1    1    2    0    0  0.18082344435E+02 -0.19373487106E+02 -0.17731829477E+02  0.31886062151E+02  0.00000000000E+00 0. -1.
         11    1    3    3    0    0 -0.17464869355E+02 -0.80901142040E+01  0.97608320469E+00  0.19272372664E+02  0.51100000000E-03 0. -1.
        -11    1    3    3    0    0 -0.75166700118E-01  0.31459451032E+01  0.15345697724E+02  0.15665026636E+02  0.51100000000E-03 0.  1.
        -12    1    3    3    0    0 -0.54230837929E+00  0.24317656207E+02  0.14100485480E+01  0.24364538548E+02  0.00000000000E+00 0.  1.
</event>
<event>
 7    1  0.3461631E-013  0.5930216E+02  0.7816164E-02  0.1266604E+00
        -11   -1    0    0    0    0  0.00000000000E+00  0.00000000000E+00  0.45593999997E+02  0.45594000000E+02  0.51100000000E-03 0. -1.
         11   -1    0    0    0    0 -0.00000000000E+00 -0.00000000000E+00 -0.45593999997E+02  0.45594000000E+02  0.51100000000E-03 0.  1.
    9900012    2    1    2    0    0 -0.10598447535E+02  0.12610829056E+02 -0.27301038701E+02  0.59302159666E+02  0.50000393271E+02 0.  0.
         12    1    1    2    0    0  0.10598447535E+02 -0.12610829056E+02  0.27301038701E+02  0.31885840334E+02  0.00000000000E+00 0. -1.
         11    1    3    3    0    0  0.14812367677E+02 -0.19621710627E+01 -0.59710622811E+01  0.16090678560E+02  0.51100000000E-03 0. -1.
        -11    1    3    3    0    0  0.13097011932E+01  0.51781492064E+01  0.27747155561E+01  0.60189362098E+01  0.51100000000E-03 0.  1.
         12    1    3    3    0    0 -0.26720516405E+02  0.93948509121E+01 -0.24104691976E+02  0.37192544897E+02  0.00000000000E+00 0. -1.
</event>
<event>
 7    1  0.3461631E-013  0.5930196E+02  0.7816164E-02  0.1266605E+00
        -11   -1    0    0    0    0  0.00000000000E+00  0.00000000000E+00  0.45593999997E+02  0.45594000000E+02  0.51100000000E-03 0. -1.
         11   -1    0    0    0    0 -0.00000000000E+00 -0.00000000000E+00 -0.45593999997E+02  0.45594000000E+02  0.51100000000E-03 0.  1.
    9900012    2    1    2    0    0 -0.63730004197E+01 -0.15407061186E+02 -0.27179534919E+02  0.59301956232E+02  0.50000022258E+02 0.  0.
         12    1    1    2    0    0  0.63730004197E+01  0.15407061186E+02  0.27179534919E+02  0.31886043768E+02  0.00000000000E+00 0. -1.
         11    1    3    3    0    0  0.62923994561E+01 -0.15095926484E+02  0.48521922311E+01  0.17059456528E+02  0.51100000000E-03 0. -1.
        -11    1    3    3    0    0 -0.12996104114E+02  0.11437026763E+00 -0.31724616863E+01  0.13378203022E+02  0.51100000000E-03 0.  1.
        -12    1    3    3    0    0  0.33070423807E+00 -0.42550496967E+00 -0.28859265464E+02  0.28864296681E+02  0.00000000000E+00 0.  1.
</event>
<event>
 7    1  0.3461631E-013  0.5930193E+02  0.7816164E-02  0.1266605E+00
        -11   -1    0    0    0    0  0.00000000000E+00  0.00000000000E+00  0.45593999997E+02  0.45594000000E+02  0.51100000000E-03 0. -1.
         11   -1    0    0    0    0 -0.00000000000E+00 -0.00000000000E+00 -0.45593999997E+02  0.45594000000E+02  0.51100000000E-03 0.  1.
    9900012    2    1    2    0    0  0.18617800492E+02 -0.25873732011E+02  0.80551878431E+00  0.59301931508E+02  0.49999977168E+02 0.  0.
         12    1    1    2    0    0 -0.18617800492E+02  0.25873732011E+02 -0.80551878431E+00  0.31886068492E+02  0.00000000000E+00 0. -1.
         11    1    3    3    0    0  0.19471897032E+02 -0.15888889747E+02  0.14041331089E+02  0.28788375613E+02  0.51100000000E-03 0. -1.
        -11    1    3    3    0    0 -0.80890598539E+01 -0.15649897845E+02 -0.53681557590E+01  0.18416549307E+02  0.51100000000E-03 0.  1.
         12    1    3    3    0    0  0.72349633141E+01  0.56650555808E+01 -0.78676565454E+01  0.12097006589E+02  0.00000000000E+00 0. -1.
</event>
<event>
 7    1  0.3461631E-013  0.5930193E+02  0.7816164E-02  0.1266605E+00
        -11   -1    0    0    0    0  0.00000000000E+00  0.00000000000E+00  0.45593999997E+02  0.45594000000E+02  0.51100000000E-03 0. -1.
         11   -1    0    0    0    0 -0.00000000000E+00 -0.00000000000E+00 -0.45593999997E+02  0.45594000000E+02  0.51100000000E-03 0.  1.
    9900012    2    1    2    0    0  0.12431072976E+01  0.90375258343E+01 -0.30553215204E+02  0.59301934889E+02  0.49999983334E+02 0.  0.
         12    1    1    2    0    0 -0.12431072976E+01 -0.90375258343E+01  0.30553215204E+02  0.31886065111E+02  0.00000000000E+00 0. -1.
         11    1    3    3    0    0  0.43397815228E+01 -0.23928858157E+01 -0.78409253469E+01  0.92757596319E+01  0.51100000000E-03 0. -1.
        -11    1    3    3    0    0 -0.14091031095E+02  0.19060300843E+02 -0.27042659120E+02  0.35960501082E+02  0.51100000000E-03 0.  1.
         12    1    3    3    0    0  0.10994356870E+02 -0.76298891926E+01  0.43303692629E+01  0.14065674176E+02  0.00000000000E+00 0. -1.
</event>
<event>
 7    1  0.3461631E-013  0.5930195E+02  0.7816164E-02  0.1266605E+00
        -11   -1    0    0    0    0  0.00000000000E+00  0.00000000000E+00  0.45593999997E+02  0.45594000000E+02  0.51100000000E-03 0. -1.
         11   -1    0    0    0    0 -0.00000000000E+00 -0.00000000000E+00 -0.45593999997E+02  0.45594000000E+02  0.51100000000E-03 0.  1.
    9900012    2    1    2    0    0  0.28296063796E+02  0.81470098585E+01 -0.12234339650E+02  0.59301951913E+02  0.50000014380E+02 0.  0.
         12    1    1    2    0    0 -0.28296063796E+02 -0.81470098585E+01  0.12234339650E+02  0.31886048087E+02  0.00000000000E+00 0. -1.
         11    1    3    3    0    0  0.13027873780E+02  0.19124913734E+02 -0.32045665105E+01  0.23361444034E+02  0.51100000000E-03 0. -1.
        -11    1    3    3    0    0  0.87717634852E+01  0.96666314892E+01 -0.21383535805E+01  0.13227250481E+02  0.51100000000E-03 0.  1.
         12    1    3    3    0    0  0.64964265308E+01 -0.20644535365E+02 -0.68914195586E+01  0.22713257398E+02  0.00000000000E+00 0. -1.
</event>
<event>
 7    1  0.3461631E-013  0.5930197E+02  0.7816164E-02  0.1266605E+00
        -11   -1    0    0    0    0  0.00000000000E+00  0.00000000000E+00  0.45593999997E+02  0.45594000000E+02  0.51100000000E-03 0. -1.
         11   -1    0    0    0    0 -0.00000000000E+00 -0.00000000000E+00 -0.45593999997E+02  0.45594000000E+02  0.51100000000E-03 0.  1.
    9900012    2    1    2    0    0  0.52771164862E+01 -0.91969840940E+01 -0.30071357714E+02  0.59301968111E+02  0.50000043922E+02 0.  0.
         12    1    1    2    0    0 -0.52771164862E+01  0.91969840940E+01  0.30071357714E+02  0.31886031889E+02  0.00000000000E+00 0. -1.
         11    1    3    3    0    0  0.29484298906E+01 -0.24608378812E+02 -0.29285191688E+02  0.38365192546E+02  0.51100000000E-03 0.  1.
        -11    1    3    3    0    0  0.10657722071E+01  0.60766773191E+01 -0.72446205863E+01  0.95155874931E+01  0.51100000000E-03 0. -1.
        -12    1    3    3    0    0  0.12629143886E+01  0.93347173991E+01  0.64584545605E+01  0.11421188072E+02  0.00000000000E+00 0.  1.
</event>
<event>
 7    1  0.3461631E-013  0.5930192E+02  0.7816164E-02  0.1266605E+00
        -11   -1    0    0    0    0  0.00000000000E+00  0.00000000000E+00  0.45593999997E+02  0.45594000000E+02  0.51100000000E-03 0. -1.
         11   -1    0    0    0    0 -0.00000000000E+00 -0.00000000000E+00 -0.45593999997E+02  0.45594000000E+02  0.51100000000E-03 0.  1.
    9900012    2    1    2    0    0  0.88330448592E+01  0.10867740832E+02 -0.28645971288E+02  0.59301919285E+02  0.49999954876E+02 0.  0.
         12    1    1    2    0    0 -0.88330448592E+01 -0.10867740832E+02  0.28645971288E+02  0.31886080715E+02  0.00000000000E+00 0. -1.
         11    1    3    3    0    0 -0.11150567133E+02 -0.47777049082E+01  0.25294722936E+01  0.12391926482E+02  0.51100000000E-03 0. -1.
        -11    1    3    3    0    0  0.19113035457E+01  0.12678807446E+02 -0.27787032580E+01  0.13119696321E+02  0.51100000000E-03 0.  1.
        -12    1    3    3    0    0  0.18072308447E+02  0.29666382951E+01 -0.28396740324E+02  0.33790296483E+02  0.00000000000E+00 0.  1.
</event>
<event>
 7    1  0.3461631E-013  0.5930196E+02  0.7816164E-02  0.1266605E+00
        -11   -1    0    0    0    0  0.00000000000E+00  0.00000000000E+00  0.45593999997E+02  0.45594000000E+02  0.51100000000E-03 0.  1.
         11   -1    0    0    0    0 -0.00000000000E+00 -0.00000000000E+00 -0.45593999997E+02  0.45594000000E+02  0.51100000000E-03 0. -1.
    9900012    2    1    2    0    0  0.20906835507E+02  0.19260395441E+02  0.14445099258E+02  0.59301960798E+02  0.50000030584E+02 0.  0.
         12    1    1    2    0    0 -0.20906835507E+02 -0.19260395441E+02 -0.14445099258E+02  0.31886039202E+02  0.00000000000E+00 0. -1.
         11    1    3    3    0    0  0.42665144449E+01  0.24384066974E+02  0.19843924718E+02  0.31726443484E+02  0.51100000000E-03 0. -1.
        -11    1    3    3    0    0  0.12172979183E+02  0.43185888204E+01  0.40023366353E+01  0.13522216179E+02  0.51100000000E-03 0.  1.
        -12    1    3    3    0    0  0.44673418791E+01 -0.94422603533E+01 -0.94011620949E+01  0.14053301135E+02  0.00000000000E+00 0.  1.
</event>
<event>
 7    1  0.3461631E-013  0.5930196E+02  0.7816164E-02  0.1266605E+00
        -11   -1    0    0    0    0  0.00000000000E+00  0.00000000000E+00  0.45593999997E+02  0.45594000000E+02  0.51100000000E-03 0. -1.
         11   -1    0    0    0    0 -0.00000000000E+00 -0.00000000000E+00 -0.45593999997E+02  0.45594000000E+02  0.51100000000E-03 0.  1.
    9900012    2    1    2    0    0 -0.88574564039E+01 -0.99454090648E+01 -0.28971609535E+02  0.59301955177E+02  0.50000020333E+02 0.  0.
         12    1    1    2    0    0  0.88574564039E+01  0.99454090648E+01  0.28971609535E+02  0.31886044823E+02  0.00000000000E+00 0. -1.
         11    1    3    3    0    0 -0.18666456878E+02  0.84806079093E+01 -0.11910396657E+02  0.23711070657E+02  0.51100000000E-03 0. -1.
        -11    1    3    3    0    0  0.63324453435E+00 -0.68514492937E+01 -0.19447609322E+02  0.20628932708E+02  0.51100000000E-03 0.  1.
        -12    1    3    3    0    0  0.91757559397E+01 -0.11574567680E+02  0.23863964441E+01  0.14961951813E+02  0.00000000000E+00 0.  1.
</event>
<event>
 7    1  0.3461631E-013  0.5930197E+02  0.7816164E-02  0.1266605E+00
        -11   -1    0    0    0    0  0.00000000000E+00  0.00000000000E+00  0.45593999997E+02  0.45594000000E+02  0.51100000000E-03 0.  1.
         11   -1    0    0    0    0 -0.00000000000E+00 -0.00000000000E+00 -0.45593999997E+02  0.45594000000E+02  0.51100000000E-03 0. -1.
    9900012    2    1    2    0    0 -0.21476875177E+02 -0.21391280125E+02 -0.98932274351E+01  0.59301968860E+02  0.50000045289E+02 0.  0.
         12    1    1    2    0    0  0.21476875177E+02  0.21391280125E+02  0.98932274351E+01  0.31886031140E+02  0.00000000000E+00 0. -1.
         11    1    3    3    0    0  0.91771408046E+01 -0.51314707032E+01 -0.95594201421E+01  0.14210363072E+02  0.51100000000E-03 0. -1.
        -11    1    3    3    0    0 -0.27612521427E+01  0.56064770053E+01  0.64776338622E+01  0.90009354247E+01  0.51100000000E-03 0.  1.
        -12    1    3    3    0    0 -0.27892763839E+02 -0.21866286427E+02 -0.68114411552E+01  0.36090670364E+02  0.00000000000E+00 0.  1.
</event>
<event>
 7    1  0.3461631E-013  0.5930193E+02  0.7816164E-02  0.1266605E+00
        -11   -1    0    0    0    0  0.00000000000E+00  0.00000000000E+00  0.45593999997E+02  0.45594000000E+02  0.51100000000E-03 0. -1.
         11   -1    0    0    0    0 -0.00000000000E+00 -0.00000000000E+00 -0.45593999997E+02  0.45594000000E+02  0.51100000000E-03 0.  1.
    9900012    2    1    2    0    0  0.36524241437E+01 -0.31195705423E+02  0.54962915066E+01  0.59301930011E+02  0.49999974438E+02 0.  0.
         12    1    1    2    0    0 -0.36524241437E+01  0.31195705423E+02 -0.54962915066E+01  0.31886069989E+02  0.00000000000E+00 0. -1.
         11    1    3    3    0    0 -0.11575328710E+02 -0.22606783304E+02  0.14775543187E+02  0.29383185035E+02  0.51100000000E-03 0. -1.
        -11    1    3    3    0    0  0.28009469231E+01 -0.14332508586E+02 -0.63205162164E+01  0.15912731743E+02  0.51100000000E-03 0.  1.
         12    1    3    3    0    0  0.12426805930E+02  0.57435864665E+01 -0.29587354641E+01  0.14006013233E+02  0.00000000000E+00 0. -1.
</event>
<event>
 7    1  0.3461631E-013  0.5930198E+02  0.7816164E-02  0.1266605E+00
        -11   -1    0    0    0    0  0.00000000000E+00  0.00000000000E+00  0.45593999997E+02  0.45594000000E+02  0.51100000000E-03 0.  1.
         11   -1    0    0    0    0 -0.00000000000E+00 -0.00000000000E+00 -0.45593999997E+02  0.45594000000E+02  0.51100000000E-03 0. -1.
    9900012    2    1    2    0    0 -0.11537778667E+02  0.14640854179E+02  0.25869741190E+02  0.59301977092E+02  0.50000060302E+02 0.  0.
         12    1    1    2    0    0  0.11537778667E+02 -0.14640854179E+02 -0.25869741190E+02  0.31886022908E+02  0.00000000000E+00 0. -1.
         11    1    3    3    0    0 -0.57347980812E+01  0.69092127818E+01  0.17019697585E+02  0.19243056837E+02  0.51100000000E-03 0. -1.
        -11    1    3    3    0    0 -0.19651149320E+02  0.11853903404E+02  0.11002644967E+02  0.25450754252E+02  0.51100000000E-03 0.  1.
         12    1    3    3    0    0  0.13848168734E+02 -0.41222620067E+01 -0.21526013622E+01  0.14608166003E+02  0.00000000000E+00 0. -1.
</event>
<event>
 7    1  0.3461631E-013  0.5930194E+02  0.7816164E-02  0.1266605E+00
        -11   -1    0    0    0    0  0.00000000000E+00  0.00000000000E+00  0.45593999997E+02  0.45594000000E+02  0.51100000000E-03 0.  1.
         11   -1    0    0    0    0 -0.00000000000E+00 -0.00000000000E+00 -0.45593999997E+02  0.45594000000E+02  0.51100000000E-03 0. -1.
    9900012    2    1    2    0    0  0.32283291602E+00  0.12727244945E+02  0.29234125722E+02  0.59301935776E+02  0.49999984950E+02 0.  0.
         12    1    1    2    0    0 -0.32283291602E+00 -0.12727244945E+02 -0.29234125722E+02  0.31886064224E+02  0.00000000000E+00 0. -1.
         11    1    3    3    0    0  0.93385540129E+01  0.10257835502E+02  0.77462211960E+01  0.15888225934E+02  0.51100000000E-03 0. -1.
        -11    1    3    3    0    0  0.11097007076E+02  0.85097002186E+01  0.16868834786E+02  0.21911552915E+02  0.51100000000E-03 0.  1.
         12    1    3    3    0    0 -0.20112728173E+02 -0.60402907762E+01  0.46190697400E+01  0.21502156926E+02  0.00000000000E+00 0. -1.
</event>
<event>
 7    1  0.3461631E-013  0.5930202E+02  0.7816164E-02  0.1266604E+00
        -11   -1    0    0    0    0  0.00000000000E+00  0.00000000000E+00  0.45593999997E+02  0.45594000000E+02  0.51100000000E-03 0. -1.
         11   -1    0    0    0    0 -0.00000000000E+00 -0.00000000000E+00 -0.45593999997E+02  0.45594000000E+02  0.51100000000E-03 0.  1.
    9900012    2    1    2    0    0  0.12578139512E+02  0.24142430742E+02  0.16602683860E+02  0.59302020839E+02  0.50000140085E+02 0.  0.
         12    1    1    2    0    0 -0.12578139512E+02 -0.24142430742E+02 -0.16602683860E+02  0.31885979161E+02  0.00000000000E+00 0. -1.
         11    1    3    3    0    0 -0.85697254858E+01  0.13541519886E+00  0.18562667513E+01  0.87695073232E+01  0.51100000000E-03 0. -1.
        -11    1    3    3    0    0  0.20417485715E+02 -0.16540515522E+01  0.14072033593E+02  0.24852197874E+02  0.51100000000E-03 0.  1.
         12    1    3    3    0    0  0.73037928295E+00  0.25661067095E+02  0.67438351567E+00  0.25680315642E+02  0.00000000000E+00 0. -1.
</event>
<event>
 7    1  0.3461631E-013  0.5930194E+02  0.7816164E-02  0.1266605E+00
        -11   -1    0    0    0    0  0.00000000000E+00  0.00000000000E+00  0.45593999997E+02  0.45594000000E+02  0.51100000000E-03 0.  1.
         11   -1    0    0    0    0 -0.00000000000E+00 -0.00000000000E+00 -0.45593999997E+02  0.45594000000E+02  0.51100000000E-03 0. -1.
    9900012    2    1    2    0    0 -0.20828436772E+02 -0.56933594164E+01  0.23462363185E+02  0.59301943391E+02  0.49999998839E+02 0.  0.
         12    1    1    2    0    0  0.20828436772E+02  0.56933594164E+01 -0.23462363185E+02  0.31886056609E+02  0.00000000000E+00 0. -1.
         11    1    3    3    0    0 -0.62101150605E+01  0.92524489708E+01  0.77819345081E+01  0.13591609396E+02  0.51100000000E-03 0. -1.
        -11    1    3    3    0    0 -0.14382297313E+01 -0.44529438848E+01 -0.12238352534E+02  0.13102461105E+02  0.51100000000E-03 0.  1.
        -12    1    3    3    0    0 -0.13180091980E+02 -0.10492864502E+02  0.27918781212E+02  0.32607872890E+02  0.00000000000E+00 0.  1.
</event>
<event>
 7    1  0.3461631E-013  0.5930193E+02  0.7816164E-02  0.1266605E+00
        -11   -1    0    0    0    0  0.00000000000E+00  0.00000000000E+00  0.45593999997E+02  0.45594000000E+02  0.51100000000E-03 0.  1.
         11   -1    0    0    0    0 -0.00000000000E+00 -0.00000000000E+00 -0.45593999997E+02  0.45594000000E+02  0.51100000000E-03 0. -1.
    9900012    2    1    2    0    0  0.24557403834E+02 -0.20158401841E+02  0.27007934013E+01  0.59301928858E+02  0.49999972334E+02 0.  0.
         12    1    1    2    0    0 -0.24557403834E+02  0.20158401841E+02 -0.27007934013E+01  0.31886071142E+02  0.00000000000E+00 0. -1.
         11    1    3    3    0    0  0.16124220645E+02  0.40731897834E+01 -0.63215978157E+00  0.16642745947E+02  0.51100000000E-03 0. -1.
        -11    1    3    3    0    0  0.13940442213E+02 -0.29354510804E+02  0.84313809362E+01  0.33572480075E+02  0.51100000000E-03 0.  1.
         12    1    3    3    0    0 -0.55072590232E+01  0.51229191795E+01 -0.50984277533E+01  0.90867028357E+01  0.00000000000E+00 0. -1.
</event>
<event>
 7    1  0.3461631E-013  0.5930193E+02  0.7816164E-02  0.1266605E+00
        -11   -1    0    0    0    0  0.00000000000E+00  0.00000000000E+00  0.45593999997E+02  0.45594000000E+02  0.51100000000E-03 0.  1.
         11   -1    0    0    0    0 -0.00000000000E+00 -0.00000000000E+00 -0.45593999997E+02  0.45594000000E+02  0.51100000000E-03 0. -1.
    9900012    2    1    2    0    0 -0.85877213234E+01  0.24680185994E+02  0.18271860318E+02  0.59301930664E+02  0.49999975628E+02 0.  0.
         12    1    1    2    0    0  0.85877213234E+01 -0.24680185994E+02 -0.18271860318E+02  0.31886069336E+02  0.00000000000E+00 0. -1.
         11    1    3    3    0    0  0.99185124580E+01 -0.78577290486E+00  0.40852679600E+01  0.10755637731E+02  0.51100000000E-03 0. -1.
        -11    1    3    3    0    0 -0.83292250733E+01  0.29179889014E+02 -0.43513806697E+00  0.30348496809E+02  0.51100000000E-03 0.  1.
        -12    1    3    3    0    0 -0.10177008708E+02 -0.37139301151E+01  0.14621730424E+02  0.18197796123E+02  0.00000000000E+00 0.  1.
</event>
<event>
 7    1  0.3461631E-013  0.5930194E+02  0.7816164E-02  0.1266605E+00
        -11   -1    0    0    0    0  0.00000000000E+00  0.00000000000E+00  0.45593999997E+02  0.45594000000E+02  0.51100000000E-03 0.  1.
         11   -1    0    0    0    0 -0.00000000000E+00 -0.00000000000E+00 -0.45593999997E+02  0.45594000000E+02  0.51100000000E-03 0. -1.
    9900012    2    1    2    0    0 -0.22080872652E+02 -0.14007239351E+02  0.18247006105E+02  0.59301938420E+02  0.49999989772E+02 0.  0.
         12    1    1    2    0    0  0.22080872652E+02  0.14007239351E+02 -0.18247006105E+02  0.31886061580E+02  0.00000000000E+00 0. -1.
         11    1    3    3    0    0  0.25789451496E+01 -0.16536783766E+02 -0.12482023967E+01  0.16783151817E+02  0.51100000000E-03 0. -1.
        -11    1    3    3    0    0 -0.42839125334E+01 -0.67035002354E+01  0.18486780811E+02  0.20125851212E+02  0.51100000000E-03 0.  1.
         12    1    3    3    0    0 -0.20375905268E+02  0.92330446512E+01  0.10084276914E+01  0.22392935391E+02  0.00000000000E+00 0. -1.
</event>
<event>
 7    1  0.3461631E-013  0.5930211E+02  0.7816164E-02  0.1266604E+00
        -11   -1    0    0    0    0  0.00000000000E+00  0.00000000000E+00  0.45593999997E+02  0.45594000000E+02  0.51100000000E-03 0.  1.
         11   -1    0    0    0    0 -0.00000000000E+00 -0.00000000000E+00 -0.45593999997E+02  0.45594000000E+02  0.51100000000E-03 0. -1.
    9900012    2    1    2    0    0 -0.29150671424E+02  0.57174314269E+01 -0.11587032230E+02  0.59302109978E+02  0.50000302653E+02 0.  0.
         12    1    1    2    0    0  0.29150671424E+02 -0.57174314269E+01  0.11587032230E+02  0.31885890022E+02  0.00000000000E+00 0. -1.
         11    1    3    3    0    0 -0.10828410780E+02  0.15051113557E+02 -0.87588276919E+01  0.20506281041E+02  0.51100000000E-03 0. -1.
        -11    1    3    3    0    0  0.21560640381E+01 -0.12277342793E+01  0.11994301389E+02  0.12248232920E+02  0.51100000000E-03 0.  1.
        -12    1    3    3    0    0 -0.20478324682E+02 -0.81059478508E+01 -0.14822505927E+02  0.26547596017E+02  0.00000000000E+00 0.  1.
</event>
<event>
 7    1  0.3461631E-013  0.5930195E+02  0.7816164E-02  0.1266605E+00
        -11   -1    0    0    0    0  0.00000000000E+00  0.00000000000E+00  0.45593999997E+02  0.45594000000E+02  0.51100000000E-03 0. -1.
         11   -1    0    0    0    0 -0.00000000000E+00 -0.00000000000E+00 -0.45593999997E+02  0.45594000000E+02  0.51100000000E-03 0.  1.
    9900012    2    1    2    0    0 -0.11071641545E+02  0.22590498011E+02  0.19591023108E+02  0.59301952372E+02  0.50000015218E+02 0.  0.
         12    1    1    2    0    0  0.11071641545E+02 -0.22590498011E+02 -0.19591023108E+02  0.31886047628E+02  0.00000000000E+00 0. -1.
         11    1    3    3    0    0  0.42523371402E+01  0.11793346630E+02  0.15174579985E+02  0.19683324767E+02  0.51100000000E-03 0. -1.
        -11    1    3    3    0    0 -0.55209408809E+01 -0.91938783089E+00  0.18201025049E+02  0.19042147339E+02  0.51100000000E-03 0.  1.
        -12    1    3    3    0    0 -0.98030378042E+01  0.11716539212E+02 -0.13784581925E+02  0.20576480266E+02  0.00000000000E+00 0.  1.
</event>
<event>
 7    1  0.3461631E-013  0.5930196E+02  0.7816164E-02  0.1266605E+00
        -11   -1    0    0    0    0  0.00000000000E+00  0.00000000000E+00  0.45593999997E+02  0.45594000000E+02  0.51100000000E-03 0.  1.
         11   -1    0    0    0    0 -0.00000000000E+00 -0.00000000000E+00 -0.45593999997E+02  0.45594000000E+02  0.51100000000E-03 0. -1.
    9900012    2    1    2    0    0 -0.14510799336E+02 -0.74866889994E+01  0.27388058410E+02  0.59301959904E+02  0.50000028954E+02 0.  0.
         12    1    1    2    0    0  0.14510799336E+02  0.74866889994E+01 -0.27388058410E+02  0.31886040096E+02  0.00000000000E+00 0. -1.
         11    1    3    3    0    0  0.68991459192E+01 -0.16355980900E+02  0.15985697283E+01  0.17823348481E+02  0.51100000000E-03 0. -1.
        -11    1    3    3    0    0 -0.45988241126E+01 -0.48379627275E+01 -0.12738008690E+01  0.67954128267E+01  0.51100000000E-03 0.  1.
        -12    1    3    3    0    0 -0.16811121143E+02  0.13707254628E+02  0.27063289551E+02  0.34683198596E+02  0.00000000000E+00 0.  1.
</event>
<event>
 7    1  0.3461631E-013  0.5930193E+02  0.7816164E-02  0.1266605E+00
        -11   -1    0    0    0    0  0.00000000000E+00  0.00000000000E+00  0.45593999997E+02  0.45594000000E+02  0.51100000000E-03 0.  1.
         11   -1    0    0    0    0 -0.00000000000E+00 -0.00000000000E+00 -0.45593999997E+02  0.45594000000E+02  0.51100000000E-03 0. -1.
    9900012    2    1    2    0    0 -0.10290467730E+02  0.93137772760E+01  0.28706817751E+02  0.59301928454E+02  0.49999971598E+02 0.  0.
         12    1    1    2    0    0  0.10290467730E+02 -0.93137772760E+01 -0.28706817751E+02  0.31886071546E+02  0.00000000000E+00 0. -1.
         11    1    3    3    0    0  0.18448490324E+01  0.13406266456E+02 -0.46036752419E+01  0.14294239197E+02  0.51100000000E-03 0. -1.
        -11    1    3    3    0    0 -0.10673441604E+02  0.10773874078E+02  0.19115119881E+02  0.24400543573E+02  0.51100000000E-03 0.  1.
        -12    1    3    3    0    0 -0.14618751580E+01 -0.14866363257E+02  0.14195373111E+02  0.20607145684E+02  0.00000000000E+00 0.  1.
</event>
<event>
 7    1  0.3461631E-013  0.5930196E+02  0.7816164E-02  0.1266605E+00
        -11   -1    0    0    0    0  0.00000000000E+00  0.00000000000E+00  0.45593999997E+02  0.45594000000E+02  0.51100000000E-03 0.  1.
         11   -1    0    0    0    0 -0.00000000000E+00 -0.00000000000E+00 -0.45593999997E+02  0.45594000000E+02  0.51100000000E-03 0. -1.
    9900012    2    1    2    0    0 -0.32412102592E+01  0.19616228757E+02  0.24928250337E+02  0.59301960116E+02  0.50000029341E+02 0.  0.
         12    1    1    2    0    0  0.32412102592E+01 -0.19616228757E+02 -0.24928250337E+02  0.31886039884E+02  0.00000000000E+00 0. -1.
         11    1    3    3    0    0  0.12294838053E+01  0.11250943151E+01 -0.27265789722E+01  0.31955751905E+01  0.51100000000E-03 0. -1.
        -11    1    3    3    0    0 -0.52037808197E+01  0.11555034294E+02 -0.11028328385E+02  0.16799469622E+02  0.51100000000E-03 0.  1.
         12    1    3    3    0    0  0.73308675520E+00  0.69361001475E+01  0.38683157695E+02  0.39306915303E+02  0.00000000000E+00 0. -1.
</event>
<event>
 7    1  0.3461631E-013  0.5930195E+02  0.7816164E-02  0.1266605E+00
        -11   -1    0    0    0    0  0.00000000000E+00  0.00000000000E+00  0.45593999997E+02  0.45594000000E+02  0.51100000000E-03 0.  1.
         11   -1    0    0    0    0 -0.00000000000E+00 -0.00000000000E+00 -0.45593999997E+02  0.45594000000E+02  0.51100000000E-03 0. -1.
    9900012    2    1    2    0    0  0.82838556998E+01 -0.30191477793E+02  0.60475118368E+01  0.59301952958E+02  0.50000016286E+02 0.  0.
         12    1    1    2    0    0 -0.82838556998E+01  0.30191477793E+02 -0.60475118368E+01  0.31886047042E+02  0.00000000000E+00 0. -1.
         11    1    3    3    0    0  0.48901424327E+01 -0.13655990698E+02  0.75276391996E+01  0.16342121256E+02  0.51100000000E-03 0. -1.
        -11    1    3    3    0    0  0.13315141668E+02 -0.25229086126E+02  0.37436403433E+01  0.28771767892E+02  0.51100000000E-03 0.  1.
         12    1    3    3    0    0 -0.99214284006E+01  0.86935990311E+01 -0.52237677061E+01  0.14188063810E+02  0.00000000000E+00 0. -1.
</event>
<event>
 7    1  0.3461631E-013  0.5930203E+02  0.7816164E-02  0.1266604E+00
        -11   -1    0    0    0    0  0.00000000000E+00  0.00000000000E+00  0.45593999997E+02  0.45594000000E+02  0.51100000000E-03 0. -1.
         11   -1    0    0    0    0 -0.00000000000E+00 -0.00000000000E+00 -0.45593999997E+02  0.45594000000E+02  0.51100000000E-03 0.  1.
    9900012    2    1    2    0    0  0.26834064251E+01 -0.15143353917E+02 -0.27931939512E+02  0.59302030000E+02  0.50000156793E+02 0.  0.
         12    1    1    2    0    0 -0.26834064251E+01  0.15143353917E+02  0.27931939512E+02  0.31885970000E+02  0.00000000000E+00 0. -1.
         11    1    3    3    0    0  0.89788480866E+01 -0.57316538698E+01  0.88063121640E+01  0.13821096311E+02  0.51100000000E-03 0. -1.
        -11    1    3    3    0    0  0.49560974526E+01 -0.12078884785E+02 -0.28298592089E+02  0.31165247859E+02  0.51100000000E-03 0.  1.
         12    1    3    3    0    0 -0.11251539114E+02  0.26671847375E+01 -0.84396595872E+01  0.14315685831E+02  0.00000000000E+00 0. -1.
</event>
<event>
 7    1  0.3461631E-013  0.5930193E+02  0.7816164E-02  0.1266605E+00
        -11   -1    0    0    0    0  0.00000000000E+00  0.00000000000E+00  0.45593999997E+02  0.45594000000E+02  0.51100000000E-03 0.  1.
         11   -1    0    0    0    0 -0.00000000000E+00 -0.00000000000E+00 -0.45593999997E+02  0.45594000000E+02  0.51100000000E-03 0. -1.
    9900012    2    1    2    0    0  0.78120870613E+01  0.20106891785E+02  0.23482034339E+02  0.59301925638E+02  0.49999966462E+02 0.  0.
         12    1    1    2    0    0 -0.78120870613E+01 -0.20106891785E+02 -0.23482034339E+02  0.31886074362E+02  0.00000000000E+00 0. -1.
         11    1    3    3    0    0 -0.43211839363E+01  0.30080300891E+01 -0.29150544162E+01  0.60181739871E+01  0.51100000000E-03 0. -1.
        -11    1    3    3    0    0  0.17913593266E+02  0.14712078144E+02 -0.28685019170E+01  0.23357447860E+02  0.51100000000E-03 0.  1.
         12    1    3    3    0    0 -0.57803222683E+01  0.23867835519E+01  0.29265590672E+02  0.29926303791E+02  0.00000000000E+00 0. -1.
</event>
<event>
 7    1  0.3461631E-013  0.5930196E+02  0.7816164E-02  0.1266605E+00
        -11   -1    0    0    0    0  0.00000000000E+00  0.00000000000E+00  0.45593999997E+02  0.45594000000E+02  0.51100000000E-03 0.  1.
         11   -1    0    0    0    0 -0.00000000000E+00 -0.00000000000E+00 -0.45593999997E+02  0.45594000000E+02  0.51100000000E-03 0. -1.
    9900012    2    1    2    0    0 -0.51598546324E+01 -0.80145430719E+01  0.30427993152E+02  0.59301956537E+02  0.50000022813E+02 0.  0.
         12    1    1    2    0    0  0.51598546324E+01  0.80145430719E+01 -0.30427993152E+02  0.31886043463E+02  0.00000000000E+00 0. -1.
         11    1    3    3    0    0 -0.14793027938E+01 -0.13248028070E+01  0.37311739981E+01  0.42267125403E+01  0.51100000000E-03 0. -1.
        -11    1    3    3    0    0  0.89343746508E+01 -0.57238053156E+01  0.37167599663E+02  0.38652496202E+02  0.51100000000E-03 0.  1.
         12    1    3    3    0    0 -0.12614926489E+02 -0.96593494940E+00 -0.10470780509E+02  0.16422747794E+02  0.00000000000E+00 0. -1.
</event>
<event>
 7    1  0.3461631E-013  0.5930200E+02  0.7816164E-02  0.1266605E+00
        -11   -1    0    0    0    0  0.00000000000E+00  0.00000000000E+00  0.45593999997E+02  0.45594000000E+02  0.51100000000E-03 0.  1.
         11   -1    0    0    0    0 -0.00000000000E+00 -0.00000000000E+00 -0.45593999997E+02  0.45594000000E+02  0.51100000000E-03 0. -1.
    9900012    2    1    2    0    0  0.14860377776E+01 -0.28419380556E+02  0.14382190763E+02  0.59302001339E+02  0.50000104523E+02 0.  0.
         12    1    1    2    0    0 -0.14860377776E+01  0.28419380556E+02 -0.14382190763E+02  0.31885998661E+02  0.00000000000E+00 0. -1.
         11    1    3    3    0    0 -0.70111266323E+01 -0.42938733240E+01 -0.85288018735E+01  0.11846252844E+02  0.51100000000E-03 0. -1.
        -11    1    3    3    0    0  0.74956932602E+01 -0.12495593783E+02 -0.63932185729E+01  0.15912213090E+02  0.51100000000E-03 0.  1.
        -12    1    3    3    0    0  0.10014711497E+01 -0.11629913449E+02  0.29304211209E+02  0.31543535406E+02  0.00000000000E+00 0.  1.
</event>
<event>
 7    1  0.3461631E-013  0.5930196E+02  0.7816164E-02  0.1266605E+00
        -11   -1    0    0    0    0  0.00000000000E+00  0.00000000000E+00  0.45593999997E+02  0.45594000000E+02  0.51100000000E-03 0.  1.
         11   -1    0    0    0    0 -0.00000000000E+00 -0.00000000000E+00 -0.45593999997E+02  0.45594000000E+02  0.51100000000E-03 0. -1.
    9900012    2    1    2    0    0  0.12249682845E+02  0.23123615032E+02  0.18219855852E+02  0.59301961531E+02  0.50000031922E+02 0.  0.
         12    1    1    2    0    0 -0.12249682845E+02 -0.23123615032E+02 -0.18219855852E+02  0.31886038469E+02  0.00000000000E+00 0. -1.
         11    1    3    3    0    0  0.10469393647E+02  0.10305577985E+02 -0.16417921886E+02  0.22030916918E+02  0.51100000000E-03 0. -1.
        -11    1    3    3    0    0  0.34641260697E+00  0.16158257258E-01  0.42690403225E+01  0.42831026510E+01  0.51100000000E-03 0.  1.
        -12    1    3    3    0    0  0.14338765907E+01  0.12801878790E+02  0.30368737416E+02  0.32987941962E+02  0.00000000000E+00 0.  1.
</event>
<event>
 7    1  0.3461631E-013  0.5930191E+02  0.7816164E-02  0.1266605E+00
        -11   -1    0    0    0    0  0.00000000000E+00  0.00000000000E+00  0.45593999997E+02  0.45594000000E+02  0.51100000000E-03 0. -1.
         11   -1    0    0    0    0 -0.00000000000E+00 -0.00000000000E+00 -0.45593999997E+02  0.45594000000E+02  0.51100000000E-03 0.  1.
    9900012    2    1    2    0    0 -0.43706743560E+01 -0.23996334817E+02 -0.20537667473E+02  0.59301911118E+02  0.49999939980E+02 0.  0.
         12    1    1    2    0    0  0.43706743560E+01  0.23996334817E+02  0.20537667473E+02  0.31886088882E+02  0.00000000000E+00 0. -1.
         11    1    3    3    0    0  0.81540357562E+01  0.11974147766E+02 -0.53242716004E+00  0.14496620046E+02  0.51100000000E-03 0.  1.
        -11    1    3    3    0    0 -0.89484992334E+01 -0.14135467806E+02 -0.14166171491E+02  0.21921849913E+02  0.51100000000E-03 0. -1.
        -12    1    3    3    0    0 -0.35762108787E+01 -0.21835014777E+02 -0.58390688225E+01  0.22883441159E+02  0.00000000000E+00 0.  1.
</event>
<event>
 7    1  0.3461631E-013  0.5930194E+02  0.7816164E-02  0.1266605E+00
        -11   -1    0    0    0    0  0.00000000000E+00  0.00000000000E+00  0.45593999997E+02  0.45594000000E+02  0.51100000000E-03 0. -1.
         11   -1    0    0    0    0 -0.00000000000E+00 -0.00000000000E+00 -0.45593999997E+02  0.45594000000E+02  0.51100000000E-03 0.  1.
    9900012    2    1    2    0    0 -0.13670234355E+02  0.37687153630E+01 -0.28559448082E+02  0.59301943524E+02  0.49999999082E+02 0.  0.
         12    1    1    2    0    0  0.13670234355E+02 -0.37687153630E+01  0.28559448082E+02  0.31886056476E+02  0.00000000000E+00 0. -1.
         11    1    3    3    0    0 -0.55781343823E+01 -0.44176405396E+01  0.93996103432E+01  0.11789139324E+02  0.51100000000E-03 0. -1.
        -11    1    3    3    0    0  0.75347088391E+00 -0.90535205514E+01 -0.10191307488E+02  0.13652717727E+02  0.51100000000E-03 0.  1.
        -12    1    3    3    0    0 -0.88455708571E+01  0.17239876454E+02 -0.27767750937E+02  0.33860086474E+02  0.00000000000E+00 0.  1.
</event>
<event>
 7    1  0.3461631E-013  0.5930195E+02  0.7816164E-02  0.1266605E+00
        -11   -1    0    0    0    0  0.00000000000E+00  0.00000000000E+00  0.45593999997E+02  0.45594000000E+02  0.51100000000E-03 0. -1.
         11   -1    0    0    0    0 -0.00000000000E+00 -0.00000000000E+00 -0.45593999997E+02  0.45594000000E+02  0.51100000000E-03 0.  1.
    9900012    2    1    2    0    0  0.85161801556E+01 -0.22404317298E+02 -0.21029529938E+02  0.59301954659E+02  0.50000019390E+02 0.  0.
         12    1    1    2    0    0 -0.85161801556E+01  0.22404317298E+02  0.21029529938E+02  0.31886045341E+02  0.00000000000E+00 0. -1.
         11    1    3    3    0    0  0.19185061732E+02 -0.64276360088E+01 -0.83435870476E+01  0.21885989660E+02  0.51100000000E-03 0. -1.
        -11    1    3    3    0    0  0.96047016160E+01 -0.36532728020E+01 -0.84749577672E+01  0.13319970147E+02  0.51100000000E-03 0.  1.
        -12    1    3    3    0    0 -0.20273583193E+02 -0.12323408487E+02 -0.42109851235E+01  0.24095994852E+02  0.00000000000E+00 0.  1.
</event>
<event>
 7    1  0.3461631E-013  0.5930195E+02  0.7816164E-02  0.1266605E+00
        -11   -1    0    0    0    0  0.00000000000E+00  0.00000000000E+00  0.45593999997E+02  0.45594000000E+02  0.51100000000E-03 0. -1.
         11   -1    0    0    0    0 -0.00000000000E+00 -0.00000000000E+00 -0.45593999997E+02  0.45594000000E+02  0.51100000000E-03 0.  1.
    9900012    2    1    2    0    0  0.19212692308E+01 -0.87782095097E+01 -0.30593660061E+02  0.59301948605E+02  0.50000008347E+02 0.  0.
         12    1    1    2    0    0 -0.19212692308E+01  0.87782095097E+01  0.30593660061E+02  0.31886051395E+02  0.00000000000E+00 0. -1.
         11    1    3    3    0    0  0.13900314862E+02 -0.13398626533E+02 -0.19079378662E+02  0.27143408714E+02  0.51100000000E-03 0. -1.
        -11    1    3    3    0    0  0.10378641930E+01 -0.86861998852E+01 -0.10286663825E+02  0.13503432284E+02  0.51100000000E-03 0.  1.
        -12    1    3    3    0    0 -0.13016909824E+02  0.13306616908E+02 -0.12276175743E+01  0.18655107607E+02  0.00000000000E+00 0.  1.
</event>
<event>
 7    1  0.3461631E-013  0.5930191E+02  0.7816164E-02  0.1266605E+00
        -11   -1    0    0    0    0  0.00000000000E+00  0.00000000000E+00  0.45593999997E+02  0.45594000000E+02  0.51100000000E-03 0. -1.
         11   -1    0    0    0    0 -0.00000000000E+00 -0.00000000000E+00 -0.45593999997E+02  0.45594000000E+02  0.51100000000E-03 0.  1.
    9900012    2    1    2    0    0 -0.93187172190E+01 -0.61477185265E+01 -0.29867867393E+02  0.59301914691E+02  0.49999946497E+02 0.  0.
         12    1    1    2    0    0  0.93187172190E+01  0.61477185265E+01  0.29867867393E+02  0.31886085309E+02  0.00000000000E+00 0. -1.
         11    1    3    3    0    0 -0.15634377196E+02  0.67644235167E+01 -0.23044357566E+02  0.28657173477E+02  0.51100000000E-03 0. -1.
        -11    1    3    3    0    0 -0.61492628362E+01  0.33731195885E+01 -0.73104082347E+01  0.10130816256E+02  0.51100000000E-03 0.  1.
         12    1    3    3    0    0  0.12464922813E+02 -0.16285261632E+02  0.48689840723E+00  0.20513924959E+02  0.00000000000E+00 0. -1.
</event>
<event>
 7    1  0.3461631E-013  0.5930195E+02  0.7816164E-02  0.1266605E+00
        -11   -1    0    0    0    0  0.00000000000E+00  0.00000000000E+00  0.45593999997E+02  0.45594000000E+02  0.51100000000E-03 0. -1.
         11   -1    0    0    0    0 -0.00000000000E+00 -0.00000000000E+00 -0.45593999997E+02  0.45594000000E+02  0.51100000000E-03 0.  1.
    9900012    2    1    2    0    0 -0.30950829730E+02 -0.70593988173E+01 -0.29884858000E+01  0.59301952581E+02  0.50000015599E+02 0.  0.
         12    1    1    2    0    0  0.30950829730E+02  0.70593988173E+01  0.29884858000E+01  0.31886047419E+02  0.00000000000E+00 0. -1.
         11    1    3    3    0    0 -0.24157486011E+02  0.51520447889E+01 -0.86884418092E+01  0.26184283782E+02  0.51100000000E-03 0. -1.
        -11    1    3    3    0    0 -0.84271848818E+01  0.12796605258E+01 -0.94765514841E+01  0.12745979930E+02  0.51100000000E-03 0.  1.
         12    1    3    3    0    0  0.16338411625E+01 -0.13491104132E+02  0.15176507493E+02  0.20371688868E+02  0.00000000000E+00 0. -1.
</event>
<event>
 7    1  0.3461631E-013  0.5930193E+02  0.7816164E-02  0.1266605E+00
        -11   -1    0    0    0    0  0.00000000000E+00  0.00000000000E+00  0.45593999997E+02  0.45594000000E+02  0.51100000000E-03 0.  1.
         11   -1    0    0    0    0 -0.00000000000E+00 -0.00000000000E+00 -0.45593999997E+02  0.45594000000E+02  0.51100000000E-03 0. -1.
    9900012    2    1    2    0    0  0.19664491104E+02  0.96729654708E+01  0.23161674863E+02  0.59301926961E+02  0.49999968874E+02 0.  0.
         12    1    1    2    0    0 -0.19664491104E+02 -0.96729654708E+01 -0.23161674863E+02  0.31886073039E+02  0.00000000000E+00 0. -1.
         11    1    3    3    0    0  0.82773636117E+01 -0.16504781174E+00  0.16835778604E+01  0.84484568895E+01  0.51100000000E-03 0. -1.
        -11    1    3    3    0    0  0.16146644583E+02 -0.94051411059E+01 -0.34525826021E+01  0.19002398201E+02  0.51100000000E-03 0.  1.
        -12    1    3    3    0    0 -0.47595170903E+01  0.19243154388E+02  0.24930679605E+02  0.31851071871E+02  0.00000000000E+00 0.  1.
</event>
<event>
 7    1  0.3461631E-013  0.5930164E+02  0.7816164E-02  0.1266606E+00
        -11   -1    0    0    0    0  0.00000000000E+00  0.00000000000E+00  0.45593999997E+02  0.45594000000E+02  0.51100000000E-03 0. -1.
         11   -1    0    0    0    0 -0.00000000000E+00 -0.00000000000E+00 -0.45593999997E+02  0.45594000000E+02  0.51100000000E-03 0.  1.
    9900012    2    1    2    0    0 -0.29916893555E+02 -0.74411366286E+01  0.81454790961E+01  0.59301641412E+02  0.49999448099E+02 0.  0.
         12    1    1    2    0    0  0.29916893555E+02  0.74411366286E+01 -0.81454790961E+01  0.31886358588E+02  0.00000000000E+00 0. -1.
         11    1    3    3    0    0 -0.21852099178E+02  0.50672618189E+01 -0.62492474719E+01  0.23286143413E+02  0.51100000000E-03 0. -1.
        -11    1    3    3    0    0 -0.60847747436E+01  0.53887621537E+01 -0.50063781047E+01  0.95460496132E+01  0.51100000000E-03 0.  1.
         12    1    3    3    0    0 -0.19800196330E+01 -0.17897160601E+02  0.19401104673E+02  0.26469448386E+02  0.00000000000E+00 0. -1.
</event>
<event>
 7    1  0.3461631E-013  0.5930195E+02  0.7816164E-02  0.1266605E+00
        -11   -1    0    0    0    0  0.00000000000E+00  0.00000000000E+00  0.45593999997E+02  0.45594000000E+02  0.51100000000E-03 0. -1.
         11   -1    0    0    0    0 -0.00000000000E+00 -0.00000000000E+00 -0.45593999997E+02  0.45594000000E+02  0.51100000000E-03 0.  1.
    9900012    2    1    2    0    0 -0.22578195980E+02  0.22009504554E+02 -0.47462573352E+01  0.59301950023E+02  0.50000010935E+02 0.  0.
         12    1    1    2    0    0  0.22578195980E+02 -0.22009504554E+02  0.47462573352E+01  0.31886049977E+02  0.00000000000E+00 0. -1.
         11    1    3    3    0    0 -0.13298162349E+02  0.62993109782E+00  0.12856651993E+02  0.18507604810E+02  0.51100000000E-03 0. -1.
        -11    1    3    3    0    0 -0.17622563409E+02  0.54436081192E+01 -0.11791673267E+02  0.21891349185E+02  0.51100000000E-03 0.  1.
         12    1    3    3    0    0  0.83425297777E+01  0.15935965337E+02 -0.58112360613E+01  0.18902996029E+02  0.00000000000E+00 0. -1.
</event>
<event>
 7    1  0.3461631E-013  0.5930194E+02  0.7816164E-02  0.1266605E+00
        -11   -1    0    0    0    0  0.00000000000E+00  0.00000000000E+00  0.45593999997E+02  0.45594000000E+02  0.51100000000E-03 0.  1.
         11   -1    0    0    0    0 -0.00000000000E+00 -0.00000000000E+00 -0.45593999997E+02  0.45594000000E+02  0.51100000000E-03 0. -1.
    9900012    2    1    2    0    0 -0.99328908762E+01 -0.19477905849E+02 -0.23209252913E+02  0.59301944142E+02  0.50000000208E+02 0.  0.
         12    1    1    2    0    0  0.99328908762E+01  0.19477905849E+02  0.23209252913E+02  0.31886055858E+02  0.00000000000E+00 0. -1.
         11    1    3    3    0    0  0.38936114345E+01  0.79158031444E+01 -0.20696029377E+02  0.22497683918E+02  0.51100000000E-03 0. -1.
        -11    1    3    3    0    0  0.18770400501E+01 -0.11536636051E+02  0.57252065073E+01  0.13015192681E+02  0.51100000000E-03 0.  1.
        -12    1    3    3    0    0 -0.15703542361E+02 -0.15857072943E+02 -0.82384300432E+01  0.23789067543E+02  0.00000000000E+00 0.  1.
</event>
<event>
 7    1  0.3461631E-013  0.5930197E+02  0.7816164E-02  0.1266605E+00
        -11   -1    0    0    0    0  0.00000000000E+00  0.00000000000E+00  0.45593999997E+02  0.45594000000E+02  0.51100000000E-03 0.  1.
         11   -1    0    0    0    0 -0.00000000000E+00 -0.00000000000E+00 -0.45593999997E+02  0.45594000000E+02  0.51100000000E-03 0. -1.
    9900012    2    1    2    0    0 -0.39247082115E+01 -0.15294474295E+02  0.27701893433E+02  0.59301965779E+02  0.50000039670E+02 0.  0.
         12    1    1    2    0    0  0.39247082115E+01  0.15294474295E+02 -0.27701893433E+02  0.31886034221E+02  0.00000000000E+00 0. -1.
         11    1    3    3    0    0 -0.85241335286E+01  0.92677188406E+00  0.69596885305E+01  0.11043415379E+02  0.51100000000E-03 0.  1.
        -11    1    3    3    0    0 -0.15038147798E+02  0.27876444691E+01  0.27566563579E+01  0.15540785226E+02  0.51100000000E-03 0. -1.
        -12    1    3    3    0    0  0.19637573115E+02 -0.19008890648E+02  0.17985548545E+02  0.32717765174E+02  0.00000000000E+00 0.  1.
</event>
<event>
 7    1  0.3461631E-013  0.5930197E+02  0.7816164E-02  0.1266605E+00
        -11   -1    0    0    0    0  0.00000000000E+00  0.00000000000E+00  0.45593999997E+02  0.45594000000E+02  0.51100000000E-03 0.  1.
         11   -1    0    0    0    0 -0.00000000000E+00 -0.00000000000E+00 -0.45593999997E+02  0.45594000000E+02  0.51100000000E-03 0. -1.
    9900012    2    1    2    0    0 -0.10200368951E+00  0.32969003163E+01  0.31714967737E+02  0.59301966459E+02  0.50000040909E+02 0.  0.
         12    1    1    2    0    0  0.10200368951E+00 -0.32969003163E+01 -0.31714967737E+02  0.31886033541E+02  0.00000000000E+00 0. -1.
         11    1    3    3    0    0  0.17486315353E+01  0.72985805837E+01  0.65725332535E+01  0.99762309723E+01  0.51100000000E-03 0.  1.
        -11    1    3    3    0    0  0.67133857182E+01  0.62369231792E+01  0.32718517636E+02  0.33977494832E+02  0.51100000000E-03 0. -1.
         12    1    3    3    0    0 -0.85640209430E+01 -0.10238603447E+02 -0.75760831522E+01  0.15348240654E+02  0.00000000000E+00 0. -1.
</event>
<event>
 7    1  0.3461631E-013  0.5930195E+02  0.7816164E-02  0.1266605E+00
        -11   -1    0    0    0    0  0.00000000000E+00  0.00000000000E+00  0.45593999997E+02  0.45594000000E+02  0.51100000000E-03 0.  1.
         11   -1    0    0    0    0 -0.00000000000E+00 -0.00000000000E+00 -0.45593999997E+02  0.45594000000E+02  0.51100000000E-03 0. -1.
    9900012    2    1    2    0    0  0.12672412237E+02 -0.10551615770E+02  0.27290901412E+02  0.59301954037E+02  0.50000018254E+02 0.  0.
         12    1    1    2    0    0 -0.12672412237E+02  0.10551615770E+02 -0.27290901412E+02  0.31886045963E+02  0.00000000000E+00 0. -1.
         11    1    3    3    0    0  0.42765734757E+00 -0.60646934249E+01  0.64219562009E+01  0.88433545022E+01  0.51100000000E-03 0.  1.
        -11    1    3    3    0    0 -0.58403811719E+01  0.79128755075E+01 -0.90496056123E+01  0.13364842424E+02  0.51100000000E-03 0. -1.
         12    1    3    3    0    0  0.18085136062E+02 -0.12399797853E+02  0.29918550824E+02  0.37093757110E+02  0.00000000000E+00 0. -1.
</event>
<event>
 7    1  0.3461631E-013  0.5930194E+02  0.7816164E-02  0.1266605E+00
        -11   -1    0    0    0    0  0.00000000000E+00  0.00000000000E+00  0.45593999997E+02  0.45594000000E+02  0.51100000000E-03 0.  1.
         11   -1    0    0    0    0 -0.00000000000E+00 -0.00000000000E+00 -0.45593999997E+02  0.45594000000E+02  0.51100000000E-03 0. -1.
    9900012    2    1    2    0    0 -0.12496676034E+02 -0.10855468129E+02  0.27252753832E+02  0.59301942049E+02  0.49999996391E+02 0.  0.
         12    1    1    2    0    0  0.12496676034E+02  0.10855468129E+02 -0.27252753832E+02  0.31886057951E+02  0.00000000000E+00 0. -1.
         11    1    3    3    0    0  0.13490372606E+01 -0.10940501900E+02 -0.19836016451E+01  0.11200408881E+02  0.51100000000E-03 0. -1.
        -11    1    3    3    0    0  0.11162201084E+02  0.17172173740E+01  0.27204396092E+01  0.11616555448E+02  0.51100000000E-03 0.  1.
         12    1    3    3    0    0 -0.25007914379E+02 -0.16321836030E+01  0.26515915868E+02  0.36484977720E+02  0.00000000000E+00 0. -1.
</event>
<event>
 7    1  0.3461631E-013  0.5930205E+02  0.7816164E-02  0.1266604E+00
        -11   -1    0    0    0    0  0.00000000000E+00  0.00000000000E+00  0.45593999997E+02  0.45594000000E+02  0.51100000000E-03 0.  1.
         11   -1    0    0    0    0 -0.00000000000E+00 -0.00000000000E+00 -0.45593999997E+02  0.45594000000E+02  0.51100000000E-03 0. -1.
    9900012    2    1    2    0    0 -0.30782049263E+02  0.83170133348E+01 -0.82514424976E-01  0.59302045784E+02  0.50000185579E+02 0.  0.
         12    1    1    2    0    0  0.30782049263E+02 -0.83170133348E+01  0.82514424976E-01  0.31885954216E+02  0.00000000000E+00 0. -1.
         11    1    3    3    0    0  0.15272717762E+01 -0.40554601557E+01 -0.20604907235E+01  0.47984308306E+01  0.51100000000E-03 0. -1.
        -11    1    3    3    0    0 -0.24620564364E+02 -0.10239382055E+02 -0.91016513645E+01  0.28175471465E+02  0.51100000000E-03 0.  1.
        -12    1    3    3    0    0 -0.76887566751E+01  0.22611855545E+02  0.11079627663E+02  0.26328143489E+02  0.00000000000E+00 0.  1.
</event>
<event>
 7    1  0.3461631E-013  0.5930199E+02  0.7816164E-02  0.1266605E+00
        -11   -1    0    0    0    0  0.00000000000E+00  0.00000000000E+00  0.45593999997E+02  0.45594000000E+02  0.51100000000E-03 0.  1.
         11   -1    0    0    0    0 -0.00000000000E+00 -0.00000000000E+00 -0.45593999997E+02  0.45594000000E+02  0.51100000000E-03 0. -1.
    9900012    2    1    2    0    0  0.66435340632E+01 -0.31095631293E+02  0.23754874925E+01  0.59301987844E+02  0.50000079911E+02 0.  0.
         12    1    1    2    0    0 -0.66435340632E+01  0.31095631293E+02 -0.23754874925E+01  0.31886012156E+02  0.00000000000E+00 0. -1.
         11    1    3    3    0    0 -0.37206313187E+00  0.26922448251E+01 -0.10208397780E+02  0.10563995393E+02  0.51100000000E-03 0. -1.
        -11    1    3    3    0    0 -0.10607752605E+02 -0.18254197137E+02 -0.18049270806E+01  0.21189570323E+02  0.51100000000E-03 0.  1.
         12    1    3    3    0    0  0.17623349800E+02 -0.15533678981E+02  0.14388812353E+02  0.27548422129E+02  0.00000000000E+00 0. -1.
</event>
<event>
 7    1  0.3461631E-013  0.5930196E+02  0.7816164E-02  0.1266605E+00
        -11   -1    0    0    0    0  0.00000000000E+00  0.00000000000E+00  0.45593999997E+02  0.45594000000E+02  0.51100000000E-03 0.  1.
         11   -1    0    0    0    0 -0.00000000000E+00 -0.00000000000E+00 -0.45593999997E+02  0.45594000000E+02  0.51100000000E-03 0. -1.
    9900012    2    1    2    0    0  0.11410919929E+02  0.21130954683E+02 -0.20976017839E+02  0.59301958167E+02  0.50000025786E+02 0.  0.
         12    1    1    2    0    0 -0.11410919929E+02 -0.21130954683E+02  0.20976017839E+02  0.31886041833E+02  0.00000000000E+00 0. -1.
         11    1    3    3    0    0  0.86581375640E+01 -0.30350171551E+01 -0.18898127769E+02  0.21007472686E+02  0.51100000000E-03 0. -1.
        -11    1    3    3    0    0  0.10636335409E+02  0.20476016293E+01 -0.87047806307E+01  0.13895952988E+02  0.51100000000E-03 0.  1.
        -12    1    3    3    0    0 -0.78835530441E+01  0.22118370208E+02  0.66268905616E+01  0.24398532493E+02  0.00000000000E+00 0.  1.
</event>
<event>
 7    1  0.3461631E-013  0.5930194E+02  0.7816164E-02  0.1266605E+00
        -11   -1    0    0    0    0  0.00000000000E+00  0.00000000000E+00  0.45593999997E+02  0.45594000000E+02  0.51100000000E-03 0.  1.
         11   -1    0    0    0    0 -0.00000000000E+00 -0.00000000000E+00 -0.45593999997E+02  0.45594000000E+02  0.51100000000E-03 0. -1.
    9900012    2    1    2    0    0  0.10790379839E+02  0.22056112188E+02 -0.20342481503E+02  0.59301938224E+02  0.49999989415E+02 0.  0.
         12    1    1    2    0    0 -0.10790379839E+02 -0.22056112188E+02  0.20342481503E+02  0.31886061776E+02  0.00000000000E+00 0. -1.
         11    1    3    3    0    0  0.12326222247E+02 -0.13814496181E+01 -0.21601057780E+02  0.24908830872E+02  0.51100000000E-03 0. -1.
        -11    1    3    3    0    0 -0.75233320091E+00 -0.27287453063E+01 -0.64999683578E+01  0.70895447743E+01  0.51100000000E-03 0.  1.
        -12    1    3    3    0    0 -0.78350920727E+00  0.26166307113E+02  0.77585446347E+01  0.27303562578E+02  0.00000000000E+00 0.  1.
</event>
<event>
 7    1  0.3461631E-013  0.5930212E+02  0.7816164E-02  0.1266604E+00
        -11   -1    0    0    0    0  0.00000000000E+00  0.00000000000E+00  0.45593999997E+02  0.45594000000E+02  0.51100000000E-03 0. -1.
         11   -1    0    0    0    0 -0.00000000000E+00 -0.00000000000E+00 -0.45593999997E+02  0.45594000000E+02  0.51100000000E-03 0.  1.
    9900012    2    1    2    0    0  0.10930196019E+02  0.28950877486E+02 -0.76867894811E+01  0.59302121860E+02  0.50000324323E+02 0.  0.
         12    1    1    2    0    0 -0.10930196019E+02 -0.28950877486E+02  0.76867894811E+01  0.31885878140E+02  0.00000000000E+00 0. -1.
         11    1    3    3    0    0  0.44720400951E+01 -0.12953113102E+01 -0.30999795124E+01  0.55934646903E+01  0.51100000000E-03 0. -1.
        -11    1    3    3    0    0  0.23180265905E+02  0.61093760591E+01  0.10880566220E+00  0.23972088816E+02  0.51100000000E-03 0.  1.
         12    1    3    3    0    0 -0.16722109982E+02  0.24136812737E+02 -0.46956156309E+01  0.29736568354E+02  0.00000000000E+00 0. -1.
</event>
<event>
 7    1  0.3461631E-013  0.5930194E+02  0.7816164E-02  0.1266605E+00
        -11   -1    0    0    0    0  0.00000000000E+00  0.00000000000E+00  0.45593999997E+02  0.45594000000E+02  0.51100000000E-03 0.  1.
         11   -1    0    0    0    0 -0.00000000000E+00 -0.00000000000E+00 -0.45593999997E+02  0.45594000000E+02  0.51100000000E-03 0. -1.
    9900012    2    1    2    0    0 -0.29737615510E+02  0.16248603610E+01  0.11390997517E+02  0.59301940791E+02  0.49999994098E+02 0.  0.
         12    1    1    2    0    0  0.29737615510E+02 -0.16248603610E+01 -0.11390997517E+02  0.31886059209E+02  0.00000000000E+00 0. -1.
         11    1    3    3    0    0 -0.21546211437E+02  0.60224319676E+01 -0.27261640050E+01  0.22537543889E+02  0.51100000000E-03 0. -1.
        -11    1    3    3    0    0 -0.12248871766E+02 -0.53100918404E+00 -0.75402680156E+01  0.14393487149E+02  0.51100000000E-03 0.  1.
        -12    1    3    3    0    0  0.40574676931E+01 -0.38665624225E+01  0.21657429537E+02  0.22370909754E+02  0.00000000000E+00 0.  1.
</event>
<event>
 7    1  0.3461631E-013  0.5930198E+02  0.7816164E-02  0.1266605E+00
        -11   -1    0    0    0    0  0.00000000000E+00  0.00000000000E+00  0.45593999997E+02  0.45594000000E+02  0.51100000000E-03 0.  1.
         11   -1    0    0    0    0 -0.00000000000E+00 -0.00000000000E+00 -0.45593999997E+02  0.45594000000E+02  0.51100000000E-03 0. -1.
    9900012    2    1    2    0    0 -0.22475089901E+02 -0.14691688906E+02  0.17197176632E+02  0.59301979974E+02  0.50000065557E+02 0.  0.
         12    1    1    2    0    0  0.22475089901E+02  0.14691688906E+02 -0.17197176632E+02  0.31886020026E+02  0.00000000000E+00 0. -1.
         11    1    3    3    0    0 -0.19334225857E+01 -0.15590379490E+01  0.50499260223E+01  0.56276527357E+01  0.51100000000E-03 0. -1.
        -11    1    3    3    0    0 -0.27837332734E+02 -0.12311850756E+02  0.24655047530E+02  0.39171036899E+02  0.51100000000E-03 0.  1.
         12    1    3    3    0    0  0.72956654185E+01 -0.82080020093E+00 -0.12507796920E+02  0.14503290339E+02  0.00000000000E+00 0. -1.
</event>
<event>
 7    1  0.3461631E-013  0.5930195E+02  0.7816164E-02  0.1266605E+00
        -11   -1    0    0    0    0  0.00000000000E+00  0.00000000000E+00  0.45593999997E+02  0.45594000000E+02  0.51100000000E-03 0.  1.
         11   -1    0    0    0    0 -0.00000000000E+00 -0.00000000000E+00 -0.45593999997E+02  0.45594000000E+02  0.51100000000E-03 0. -1.
    9900012    2    1    2    0    0 -0.11947655624E+02  0.29553994288E+02  0.73155772203E+00  0.59301949288E+02  0.50000009594E+02 0.  0.
         12    1    1    2    0    0  0.11947655624E+02 -0.29553994288E+02 -0.73155772203E+00  0.31886050712E+02  0.00000000000E+00 0. -1.
         11    1    3    3    0    0 -0.22186607701E+02  0.10161409889E+02 -0.75347964413E+01  0.25539635273E+02  0.51100000000E-03 0. -1.
        -11    1    3    3    0    0 -0.74698402008E+01  0.96850463572E+01  0.53803908909E+01  0.13362157085E+02  0.51100000000E-03 0.  1.
         12    1    3    3    0    0  0.17708792278E+02  0.97075380426E+01  0.28859632725E+01  0.20400156931E+02  0.00000000000E+00 0. -1.
</event>
<event>
 7    1  0.3461631E-013  0.5930193E+02  0.7816164E-02  0.1266605E+00
        -11   -1    0    0    0    0  0.00000000000E+00  0.00000000000E+00  0.45593999997E+02  0.45594000000E+02  0.51100000000E-03 0.  1.
         11   -1    0    0    0    0 -0.00000000000E+00 -0.00000000000E+00 -0.45593999997E+02  0.45594000000E+02  0.51100000000E-03 0. -1.
    9900012    2    1    2    0    0 -0.64002338459E+01  0.25544628563E+02  0.17978601490E+02  0.59301934811E+02  0.49999983191E+02 0.  0.
         12    1    1    2    0    0  0.64002338459E+01 -0.25544628563E+02 -0.17978601490E+02  0.31886065189E+02  0.00000000000E+00 0. -1.
         11    1    3    3    0    0  0.73835651090E+01  0.35710999272E+01 -0.13246971771E+02  0.15580502231E+02  0.51100000000E-03 0. -1.
        -11    1    3    3    0    0 -0.48596328576E+01  0.12240376036E+02  0.45102014773E+01  0.13920659275E+02  0.51100000000E-03 0.  1.
        -12    1    3    3    0    0 -0.89241660973E+01  0.97331525994E+01  0.26715371784E+02  0.29800773305E+02  0.00000000000E+00 0.  1.
</event>
<event>
 7    1  0.3461631E-013  0.5930193E+02  0.7816164E-02  0.1266605E+00
        -11   -1    0    0    0    0  0.00000000000E+00  0.00000000000E+00  0.45593999997E+02  0.45594000000E+02  0.51100000000E-03 0.  1.
         11   -1    0    0    0    0 -0.00000000000E+00 -0.00000000000E+00 -0.45593999997E+02  0.45594000000E+02  0.51100000000E-03 0. -1.
    9900012    2    1    2    0    0 -0.25100546382E+01  0.26902696437E+02  0.16931216529E+02  0.59301928699E+02  0.49999972045E+02 0.  0.
         12    1    1    2    0    0  0.25100546382E+01 -0.26902696437E+02 -0.16931216529E+02  0.31886071301E+02  0.00000000000E+00 0. -1.
         11    1    3    3    0    0 -0.66485283706E+00 -0.12087124183E+01 -0.57221534666E+01  0.58860900062E+01  0.51100000000E-03 0. -1.
        -11    1    3    3    0    0 -0.60612425444E+01  0.68266730170E+01 -0.10424126228E+02  0.13856570049E+02  0.51100000000E-03 0.  1.
        -12    1    3    3    0    0  0.42160407433E+01  0.21284735838E+02  0.33077496223E+02  0.39559268644E+02  0.00000000000E+00 0.  1.
</event>
<event>
 7    1  0.3461631E-013  0.5930188E+02  0.7816164E-02  0.1266605E+00
        -11   -1    0    0    0    0  0.00000000000E+00  0.00000000000E+00  0.45593999997E+02  0.45594000000E+02  0.51100000000E-03 0.  1.
         11   -1    0    0    0    0 -0.00000000000E+00 -0.00000000000E+00 -0.45593999997E+02  0.45594000000E+02  0.51100000000E-03 0. -1.
    9900012    2    1    2    0    0 -0.24206203893E+02 -0.17725509968E+02 -0.10797726759E+02  0.59301875843E+02  0.49999875648E+02 0.  0.
         12    1    1    2    0    0  0.24206203893E+02  0.17725509968E+02  0.10797726759E+02  0.31886124157E+02  0.00000000000E+00 0. -1.
         11    1    3    3    0    0 -0.36862069823E+01  0.68349658058E-01  0.41658294490E+01  0.55629963914E+01  0.51100000000E-03 0. -1.
        -11    1    3    3    0    0 -0.34262236022E+01 -0.29999616797E+02 -0.12148202269E+02  0.32546809901E+02  0.51100000000E-03 0.  1.
         12    1    3    3    0    0 -0.17093773309E+02  0.12205757170E+02 -0.28153539396E+01  0.21192069551E+02  0.00000000000E+00 0. -1.
</event>
<event>
 7    1  0.3461631E-013  0.5930194E+02  0.7816164E-02  0.1266605E+00
        -11   -1    0    0    0    0  0.00000000000E+00  0.00000000000E+00  0.45593999997E+02  0.45594000000E+02  0.51100000000E-03 0.  1.
         11   -1    0    0    0    0 -0.00000000000E+00 -0.00000000000E+00 -0.45593999997E+02  0.45594000000E+02  0.51100000000E-03 0. -1.
    9900012    2    1    2    0    0  0.62495111672E+01 -0.18728229374E+02  0.25038329215E+02  0.59301938857E+02  0.49999990571E+02 0.  0.
         12    1    1    2    0    0 -0.62495111672E+01  0.18728229374E+02 -0.25038329215E+02  0.31886061143E+02  0.00000000000E+00 0. -1.
         11    1    3    3    0    0  0.21752710374E+01  0.64149654719E+01  0.20615008338E+02  0.21699358404E+02  0.51100000000E-03 0. -1.
        -11    1    3    3    0    0 -0.10069008785E+01  0.28260637653E+01  0.83806034582E+01  0.89014044043E+01  0.51100000000E-03 0.  1.
        -12    1    3    3    0    0  0.50811410082E+01 -0.27969258611E+02 -0.39572825812E+01  0.28701176049E+02  0.00000000000E+00 0.  1.
</event>
<event>
 7    1  0.3461631E-013  0.5930195E+02  0.7816164E-02  0.1266605E+00
        -11   -1    0    0    0    0  0.00000000000E+00  0.00000000000E+00  0.45593999997E+02  0.45594000000E+02  0.51100000000E-03 0. -1.
         11   -1    0    0    0    0 -0.00000000000E+00 -0.00000000000E+00 -0.45593999997E+02  0.45594000000E+02  0.51100000000E-03 0.  1.
    9900012    2    1    2    0    0 -0.70096602438E+01  0.27353589742E+02 -0.14811016203E+02  0.59301946474E+02  0.50000004462E+02 0.  0.
         12    1    1    2    0    0  0.70096602438E+01 -0.27353589742E+02  0.14811016203E+02  0.31886053526E+02  0.00000000000E+00 0. -1.
         11    1    3    3    0    0  0.79998274120E+01  0.25704605567E+01 -0.48195209317E+01  0.96867067865E+01  0.51100000000E-03 0.  1.
        -11    1    3    3    0    0  0.11049856044E+02 -0.17263951659E+01 -0.44255562411E+01  0.12027689187E+02  0.51100000000E-03 0. -1.
         12    1    3    3    0    0 -0.26059343700E+02  0.26509524351E+02 -0.55659390301E+01  0.37587550501E+02  0.00000000000E+00 0. -1.
</event>
<event>
 7    1  0.3461631E-013  0.5930198E+02  0.7816164E-02  0.1266605E+00
        -11   -1    0    0    0    0  0.00000000000E+00  0.00000000000E+00  0.45593999997E+02  0.45594000000E+02  0.51100000000E-03 0.  1.
         11   -1    0    0    0    0 -0.00000000000E+00 -0.00000000000E+00 -0.45593999997E+02  0.45594000000E+02  0.51100000000E-03 0. -1.
    9900012    2    1    2    0    0 -0.68841970929E+01 -0.17063360695E+02  0.26041656688E+02  0.59301979068E+02  0.50000063905E+02 0.  0.
         12    1    1    2    0    0  0.68841970929E+01  0.17063360695E+02 -0.26041656688E+02  0.31886020932E+02  0.00000000000E+00 0. -1.
         11    1    3    3    0    0  0.31959778391E+01 -0.83418934598E+01 -0.77018759401E+01  0.11794929169E+02  0.51100000000E-03 0. -1.
        -11    1    3    3    0    0  0.15193045604E+01 -0.83171209060E+01 -0.30021313787E+01  0.89719328792E+01  0.51100000000E-03 0.  1.
        -12    1    3    3    0    0 -0.11599479492E+02 -0.40434632869E+00  0.36745664007E+02  0.38535117020E+02  0.00000000000E+00 0.  1.
</event>
<event>
 7    1  0.3461631E-013  0.5930197E+02  0.7816164E-02  0.1266605E+00
        -11   -1    0    0    0    0  0.00000000000E+00  0.00000000000E+00  0.45593999997E+02  0.45594000000E+02  0.51100000000E-03 0.  1.
         11   -1    0    0    0    0 -0.00000000000E+00 -0.00000000000E+00 -0.45593999997E+02  0.45594000000E+02  0.51100000000E-03 0. -1.
    9900012    2    1    2    0    0  0.18700129059E+02 -0.25824637999E+02  0.33510458107E+00  0.59301967797E+02  0.50000043349E+02 0.  0.
         12    1    1    2    0    0 -0.18700129059E+02  0.25824637999E+02 -0.33510458107E+00  0.31886032203E+02  0.00000000000E+00 0. -1.
         11    1    3    3    0    0  0.93797350071E+00  0.51963175835E+01  0.78093064990E+01  0.94269177876E+01  0.51100000000E-03 0.  1.
        -11    1    3    3    0    0  0.26226705925E+02 -0.31253843660E+02 -0.53895729203E+01  0.41154469304E+02  0.51100000000E-03 0. -1.
         12    1    3    3    0    0 -0.84645503672E+01  0.23288807712E+00 -0.20846289977E+01  0.87205807050E+01  0.00000000000E+00 0. -1.
</event>
<event>
 7    1  0.3461631E-013  0.5930161E+02  0.7816164E-02  0.1266606E+00
        -11   -1    0    0    0    0  0.00000000000E+00  0.00000000000E+00  0.45593999997E+02  0.45594000000E+02  0.51100000000E-03 0. -1.
         11   -1    0    0    0    0 -0.00000000000E+00 -0.00000000000E+00 -0.45593999997E+02  0.45594000000E+02  0.51100000000E-03 0.  1.
    9900012    2    1    2    0    0  0.14018855580E+02  0.81002765381E+01 -0.27469966807E+02  0.59301609985E+02  0.49999390783E+02 0.  0.
         12    1    1    2    0    0 -0.14018855580E+02 -0.81002765381E+01  0.27469966807E+02  0.31886390015E+02  0.00000000000E+00 0. -1.
         11    1    3    3    0    0 -0.72344245463E+01 -0.10945164914E+02  0.25618496918E+01  0.13367745046E+02  0.51100000000E-03 0. -1.
        -11    1    3    3    0    0 -0.25234319492E+01  0.79725308405E+01 -0.54139279061E+01  0.99619060646E+01  0.51100000000E-03 0.  1.
        -12    1    3    3    0    0  0.23776712076E+02  0.11072910611E+02 -0.24617888593E+02  0.35971958875E+02  0.00000000000E+00 0.  1.
</event>
<event>
 7    1  0.3461631E-013  0.5930197E+02  0.7816164E-02  0.1266605E+00
        -11   -1    0    0    0    0  0.00000000000E+00  0.00000000000E+00  0.45593999997E+02  0.45594000000E+02  0.51100000000E-03 0.  1.
         11   -1    0    0    0    0 -0.00000000000E+00 -0.00000000000E+00 -0.45593999997E+02  0.45594000000E+02  0.51100000000E-03 0. -1.
    9900012    2    1    2    0    0  0.18596040486E+02 -0.84974346158E+01  0.24468347208E+02  0.59301966508E+02  0.50000040998E+02 0.  0.
         12    1    1    2    0    0 -0.18596040486E+02  0.84974346158E+01 -0.24468347208E+02  0.31886033492E+02  0.00000000000E+00 0. -1.
         11    1    3    3    0    0  0.10944752038E+02 -0.82447774479E+01  0.14465864462E+02  0.19925490890E+02  0.51100000000E-03 0. -1.
        -11    1    3    3    0    0  0.94396440052E+01  0.78510921187E+01  0.21760203837E+02  0.24985055487E+02  0.51100000000E-03 0.  1.
         12    1    3    3    0    0 -0.17883555574E+01 -0.81037492866E+01 -0.11757721091E+02  0.14391420130E+02  0.00000000000E+00 0. -1.
</event>
<event>
 7    1  0.3461631E-013  0.5930194E+02  0.7816164E-02  0.1266605E+00
        -11   -1    0    0    0    0  0.00000000000E+00  0.00000000000E+00  0.45593999997E+02  0.45594000000E+02  0.51100000000E-03 0.  1.
         11   -1    0    0    0    0 -0.00000000000E+00 -0.00000000000E+00 -0.45593999997E+02  0.45594000000E+02  0.51100000000E-03 0. -1.
    9900012    2    1    2    0    0 -0.21328638292E+02  0.14471207038E+02  0.18772161080E+02  0.59301942292E+02  0.49999996835E+02 0.  0.
         12    1    1    2    0    0  0.21328638292E+02 -0.14471207038E+02 -0.18772161080E+02  0.31886057708E+02  0.00000000000E+00 0. -1.
         11    1    3    3    0    0 -0.36286303267E+01  0.69034051343E+01 -0.45096307190E+01  0.90089250180E+01  0.51100000000E-03 0. -1.
        -11    1    3    3    0    0  0.64906718949E+01  0.12058792585E+02  0.21672136293E+02  0.25636395847E+02  0.51100000000E-03 0.  1.
         12    1    3    3    0    0 -0.24190679860E+02 -0.44909906816E+01  0.16096555064E+01  0.24656621428E+02  0.00000000000E+00 0. -1.
</event>
<event>
 7    1  0.3461631E-013  0.5930200E+02  0.7816164E-02  0.1266605E+00
        -11   -1    0    0    0    0  0.00000000000E+00  0.00000000000E+00  0.45593999997E+02  0.45594000000E+02  0.51100000000E-03 0. -1.
         11   -1    0    0    0    0 -0.00000000000E+00 -0.00000000000E+00 -0.45593999997E+02  0.45594000000E+02  0.51100000000E-03 0.  1.
    9900012    2    1    2    0    0  0.28587954117E+01  0.31165629632E+02 -0.61031213118E+01  0.59301995683E+02  0.50000094207E+02 0.  0.
         12    1    1    2    0    0 -0.28587954117E+01 -0.31165629632E+02  0.61031213118E+01  0.31886004317E+02  0.00000000000E+00 0. -1.
         11    1    3    3    0    0  0.12006010151E+01 -0.64962657061E+01 -0.70627655698E+00  0.66439248760E+01  0.51100000000E-03 0. -1.
        -11    1    3    3    0    0  0.16497581975E+01  0.26103306868E+02 -0.20787810654E+02  0.33410139233E+02  0.51100000000E-03 0.  1.
        -12    1    3    3    0    0  0.84361991245E-02  0.11558588470E+02  0.15390965899E+02  0.19247931574E+02  0.00000000000E+00 0.  1.
</event>
<event>
 7    1  0.3461631E-013  0.5930195E+02  0.7816164E-02  0.1266605E+00
        -11   -1    0    0    0    0  0.00000000000E+00  0.00000000000E+00  0.45593999997E+02  0.45594000000E+02  0.51100000000E-03 0. -1.
         11   -1    0    0    0    0 -0.00000000000E+00 -0.00000000000E+00 -0.45593999997E+02  0.45594000000E+02  0.51100000000E-03 0.  1.
    9900012    2    1    2    0    0  0.26139388232E+02 -0.18214261151E+02  0.13013528218E+01  0.59301945908E+02  0.50000003429E+02 0.  0.
         12    1    1    2    0    0 -0.26139388232E+02  0.18214261151E+02 -0.13013528218E+01  0.31886054092E+02  0.00000000000E+00 0. -1.
         11    1    3    3    0    0  0.10639679297E+01  0.41899130268E+01 -0.14378486830E+02  0.15014269303E+02  0.51100000000E-03 0. -1.
        -11    1    3    3    0    0  0.55696404195E+01 -0.20838073758E+02  0.56442053304E+01  0.22295812756E+02  0.51100000000E-03 0.  1.
        -12    1    3    3    0    0  0.19505779882E+02 -0.15661004193E+01  0.10035634321E+02  0.21991863849E+02  0.00000000000E+00 0.  1.
</event>
<event>
 7    1  0.3461631E-013  0.5930199E+02  0.7816164E-02  0.1266605E+00
        -11   -1    0    0    0    0  0.00000000000E+00  0.00000000000E+00  0.45593999997E+02  0.45594000000E+02  0.51100000000E-03 0.  1.
         11   -1    0    0    0    0 -0.00000000000E+00 -0.00000000000E+00 -0.45593999997E+02  0.45594000000E+02  0.51100000000E-03 0. -1.
    9900012    2    1    2    0    0 -0.52489671919E+01  0.64064849437E+01  0.30791602914E+02  0.59301991847E+02  0.50000087211E+02 0.  0.
         12    1    1    2    0    0  0.52489671919E+01 -0.64064849437E+01 -0.30791602914E+02  0.31886008153E+02  0.00000000000E+00 0. -1.
         11    1    3    3    0    0  0.12975518255E+02  0.83366119138E+01  0.83812566184E+00  0.15445569821E+02  0.51100000000E-03 0. -1.
        -11    1    3    3    0    0 -0.81696285114E+00  0.50199817576E+01  0.23482795575E+02  0.24027262296E+02  0.51100000000E-03 0.  1.
         12    1    3    3    0    0 -0.17407522596E+02 -0.69501087276E+01  0.64706816768E+01  0.19829159731E+02  0.00000000000E+00 0. -1.
</event>
<event>
 7    1  0.3461631E-013  0.5930192E+02  0.7816164E-02  0.1266605E+00
        -11   -1    0    0    0    0  0.00000000000E+00  0.00000000000E+00  0.45593999997E+02  0.45594000000E+02  0.51100000000E-03 0.  1.
         11   -1    0    0    0    0 -0.00000000000E+00 -0.00000000000E+00 -0.45593999997E+02  0.45594000000E+02  0.51100000000E-03 0. -1.
    9900012    2    1    2    0    0  0.11738433668E+02 -0.20263948566E+02  0.21640320031E+02  0.59301923297E+02  0.49999962193E+02 0.  0.
         12    1    1    2    0    0 -0.11738433668E+02  0.20263948566E+02 -0.21640320031E+02  0.31886076703E+02  0.00000000000E+00 0. -1.
         11    1    3    3    0    0  0.90169586615E+01 -0.90945984236E+01  0.57919561342E+01  0.14055746871E+02  0.51100000000E-03 0. -1.
        -11    1    3    3    0    0 -0.17318417109E+01 -0.12268159756E+02  0.28882883872E+02  0.31428140265E+02  0.51100000000E-03 0.  1.
        -12    1    3    3    0    0  0.44533167170E+01  0.10988096141E+01 -0.13034519975E+02  0.13818036160E+02  0.00000000000E+00 0.  1.
</event>
<event>
 7    1  0.3461631E-013  0.5930192E+02  0.7816164E-02  0.1266605E+00
        -11   -1    0    0    0    0  0.00000000000E+00  0.00000000000E+00  0.45593999997E+02  0.45594000000E+02  0.51100000000E-03 0.  1.
         11   -1    0    0    0    0 -0.00000000000E+00 -0.00000000000E+00 -0.45593999997E+02  0.45594000000E+02  0.51100000000E-03 0. -1.
    9900012    2    1    2    0    0  0.39037292800E+01 -0.26590275151E+02  0.17159254472E+02  0.59301923902E+02  0.49999963296E+02 0.  0.
         12    1    1    2    0    0 -0.39037292800E+01  0.26590275151E+02 -0.17159254472E+02  0.31886076098E+02  0.00000000000E+00 0. -1.
         11    1    3    3    0    0 -0.14353104967E+02 -0.21599908548E+02  0.10735050578E+02  0.28067935134E+02  0.51100000000E-03 0.  1.
        -11    1    3    3    0    0  0.14722018994E+02 -0.14332224989E+02  0.36539231514E+01  0.20868676792E+02  0.51100000000E-03 0. -1.
        -12    1    3    3    0    0  0.35348152529E+01  0.93418583865E+01  0.27702807424E+01  0.10365311977E+02  0.00000000000E+00 0.  1.
</event>
<event>
 7    1  0.3461631E-013  0.5930194E+02  0.7816164E-02  0.1266605E+00
        -11   -1    0    0    0    0  0.00000000000E+00  0.00000000000E+00  0.45593999997E+02  0.45594000000E+02  0.51100000000E-03 0. -1.
         11   -1    0    0    0    0 -0.00000000000E+00 -0.00000000000E+00 -0.45593999997E+02  0.45594000000E+02  0.51100000000E-03 0.  1.
    9900012    2    1    2    0    0  0.61202438805E+00 -0.28458867223E+02  0.14367981646E+02  0.59301943580E+02  0.49999999183E+02 0.  0.
         12    1    1    2    0    0 -0.61202438805E+00  0.28458867223E+02 -0.14367981646E+02  0.31886056420E+02  0.00000000000E+00 0. -1.
         11    1    3    3    0    0 -0.46790109628E+01  0.44075039225E+01 -0.17034436224E+01  0.66498838225E+01  0.51100000000E-03 0. -1.
        -11    1    3    3    0    0  0.10544925225E+02 -0.21015515706E+02 -0.83926485767E+01  0.24965654383E+02  0.51100000000E-03 0.  1.
         12    1    3    3    0    0 -0.52538898741E+01 -0.11850855439E+02  0.24464073845E+02  0.27686405374E+02  0.00000000000E+00 0. -1.
</event>
<event>
 7    1  0.3461631E-013  0.5930195E+02  0.7816164E-02  0.1266605E+00
        -11   -1    0    0    0    0  0.00000000000E+00  0.00000000000E+00  0.45593999997E+02  0.45594000000E+02  0.51100000000E-03 0. -1.
         11   -1    0    0    0    0 -0.00000000000E+00 -0.00000000000E+00 -0.45593999997E+02  0.45594000000E+02  0.51100000000E-03 0.  1.
    9900012    2    1    2    0    0  0.27365822035E+02 -0.16189293787E+02 -0.23955411670E+01  0.59301951853E+02  0.50000014271E+02 0.  0.
         12    1    1    2    0    0 -0.27365822035E+02  0.16189293787E+02  0.23955411670E+01  0.31886048147E+02  0.00000000000E+00 0. -1.
         11    1    3    3    0    0 -0.87175755613E+01 -0.85314522721E+01  0.37253406201E+01  0.12753821566E+02  0.51100000000E-03 0. -1.
        -11    1    3    3    0    0  0.21525294675E+02 -0.10508439711E+02 -0.15927241405E+02  0.28765302624E+02  0.51100000000E-03 0.  1.
         12    1    3    3    0    0  0.14558102921E+02  0.28505981955E+01  0.98063596178E+01  0.17782827663E+02  0.00000000000E+00 0. -1.
</event>
<event>
 7    1  0.3461631E-013  0.5930196E+02  0.7816164E-02  0.1266605E+00
        -11   -1    0    0    0    0  0.00000000000E+00  0.00000000000E+00  0.45593999997E+02  0.45594000000E+02  0.51100000000E-03 0. -1.
         11   -1    0    0    0    0 -0.00000000000E+00 -0.00000000000E+00 -0.45593999997E+02  0.45594000000E+02  0.51100000000E-03 0.  1.
    9900012    2    1    2    0    0 -0.22888099991E+02  0.58472400678E+01 -0.21416445213E+02  0.59301961312E+02  0.50000031523E+02 0.  0.
         12    1    1    2    0    0  0.22888099991E+02 -0.58472400678E+01  0.21416445213E+02  0.31886038688E+02  0.00000000000E+00 0. -1.
         11    1    3    3    0    0 -0.15653129491E+02  0.21082922937E+02 -0.11818789049E+02  0.28795726719E+02  0.51100000000E-03 0. -1.
        -11    1    3    3    0    0 -0.30756178667E+00  0.56919080552E+01 -0.58091593502E+01  0.81387188291E+01  0.51100000000E-03 0.  1.
         12    1    3    3    0    0 -0.69274087138E+01 -0.20927590924E+02 -0.37884968139E+01  0.22367515765E+02  0.00000000000E+00 0. -1.
</event>
<event>
 7    1  0.3461631E-013  0.5930193E+02  0.7816164E-02  0.1266605E+00
        -11   -1    0    0    0    0  0.00000000000E+00  0.00000000000E+00  0.45593999997E+02  0.45594000000E+02  0.51100000000E-03 0.  1.
         11   -1    0    0    0    0 -0.00000000000E+00 -0.00000000000E+00 -0.45593999997E+02  0.45594000000E+02  0.51100000000E-03 0. -1.
    9900012    2    1    2    0    0 -0.29216297242E+02  0.11353155511E+02  0.58510902043E+01  0.59301930609E+02  0.49999975528E+02 0.  0.
         12    1    1    2    0    0  0.29216297242E+02 -0.11353155511E+02 -0.58510902043E+01  0.31886069391E+02  0.00000000000E+00 0. -1.
         11    1    3    3    0    0 -0.14014093964E+02  0.42749716077E+01  0.21917334621E+02  0.26363606905E+02  0.51100000000E-03 0. -1.
        -11    1    3    3    0    0 -0.14112205996E+02  0.14022463818E+02 -0.62269743423E+01  0.20846080190E+02  0.51100000000E-03 0.  1.
        -12    1    3    3    0    0 -0.10899972826E+01 -0.69442799151E+01 -0.98392700742E+01  0.12092243514E+02  0.00000000000E+00 0.  1.
</event>
<event>
 7    1  0.3461631E-013  0.5930194E+02  0.7816164E-02  0.1266605E+00
        -11   -1    0    0    0    0  0.00000000000E+00  0.00000000000E+00  0.45593999997E+02  0.45594000000E+02  0.51100000000E-03 0. -1.
         11   -1    0    0    0    0 -0.00000000000E+00 -0.00000000000E+00 -0.45593999997E+02  0.45594000000E+02  0.51100000000E-03 0.  1.
    9900012    2    1    2    0    0 -0.40402149759E+01 -0.14176126743E+02 -0.28274276374E+02  0.59301943314E+02  0.49999998699E+02 0.  0.
         12    1    1    2    0    0  0.40402149759E+01  0.14176126743E+02  0.28274276374E+02  0.31886056686E+02  0.00000000000E+00 0. -1.
         11    1    3    3    0    0 -0.20658451506E+01  0.40812102905E+01  0.29927325168E+01  0.54663005589E+01  0.51100000000E-03 0. -1.
        -11    1    3    3    0    0 -0.88490037737E+01 -0.11522435680E+02  0.57224836223E+01  0.15614679339E+02  0.51100000000E-03 0.  1.
        -12    1    3    3    0    0  0.68746339484E+01 -0.67349013543E+01 -0.36989492513E+02  0.38220963417E+02  0.00000000000E+00 0.  1.
</event>
<event>
 7    1  0.3461631E-013  0.5930195E+02  0.7816164E-02  0.1266605E+00
        -11   -1    0    0    0    0  0.00000000000E+00  0.00000000000E+00  0.45593999997E+02  0.45594000000E+02  0.51100000000E-03 0.  1.
         11   -1    0    0    0    0 -0.00000000000E+00 -0.00000000000E+00 -0.45593999997E+02  0.45594000000E+02  0.51100000000E-03 0. -1.
    9900012    2    1    2    0    0 -0.73328778797E+01 -0.30923415303E+02 -0.25867962643E+01  0.59301949336E+02  0.50000009681E+02 0.  0.
         12    1    1    2    0    0  0.73328778797E+01  0.30923415303E+02  0.25867962643E+01  0.31886050664E+02  0.00000000000E+00 0. -1.
         11    1    3    3    0    0 -0.13848464366E+01 -0.79652036966E+00 -0.28690958195E+00  0.16231333037E+01  0.51100000000E-03 0. -1.
        -11    1    3    3    0    0 -0.12723333225E+02  0.10272781304E+02  0.20667845086E+01  0.16482865119E+02  0.51100000000E-03 0.  1.
         12    1    3    3    0    0  0.67753017819E+01 -0.40399676238E+02 -0.43666711909E+01  0.41195950913E+02  0.00000000000E+00 0. -1.
</event>
<event>
 7    1  0.3461631E-013  0.5930199E+02  0.7816164E-02  0.1266605E+00
        -11   -1    0    0    0    0  0.00000000000E+00  0.00000000000E+00  0.45593999997E+02  0.45594000000E+02  0.51100000000E-03 0.  1.
         11   -1    0    0    0    0 -0.00000000000E+00 -0.00000000000E+00 -0.45593999997E+02  0.45594000000E+02  0.51100000000E-03 0. -1.
    9900012    2    1    2    0    0  0.52087760096E+01 -0.31374920877E+02 -0.22804588788E+01  0.59301992093E+02  0.50000087660E+02 0.  0.
         12    1    1    2    0    0 -0.52087760096E+01  0.31374920877E+02  0.22804588788E+01  0.31886007907E+02  0.00000000000E+00 0. -1.
         11    1    3    3    0    0  0.20810404287E+01 -0.14282363649E+02 -0.20950743453E+02  0.25441114209E+02  0.51100000000E-03 0. -1.
        -11    1    3    3    0    0  0.69338300674E+01 -0.15433312100E+02  0.24236501711E+01  0.17092080102E+02  0.51100000000E-03 0.  1.
        -12    1    3    3    0    0 -0.38060944865E+01 -0.16592451276E+01  0.16246634404E+02  0.16768797783E+02  0.00000000000E+00 0.  1.
</event>
<event>
 7    1  0.3461631E-013  0.5930194E+02  0.7816164E-02  0.1266605E+00
        -11   -1    0    0    0    0  0.00000000000E+00  0.00000000000E+00  0.45593999997E+02  0.45594000000E+02  0.51100000000E-03 0.  1.
         11   -1    0    0    0    0 -0.00000000000E+00 -0.00000000000E+00 -0.45593999997E+02  0.45594000000E+02  0.51100000000E-03 0. -1.
    9900012    2    1    2    0    0  0.44553840745E+01  0.31305152991E+02  0.41058404545E+01  0.59301937576E+02  0.49999988234E+02 0.  0.
         12    1    1    2    0    0 -0.44553840745E+01 -0.31305152991E+02 -0.41058404545E+01  0.31886062424E+02  0.00000000000E+00 0. -1.
         11    1    3    3    0    0  0.15058501924E+02  0.12468803579E+02  0.11430304835E+01  0.19584076742E+02  0.51100000000E-03 0. -1.
        -11    1    3    3    0    0  0.83581497017E+01  0.16994779654E+02 -0.41404201480E+01  0.19386187897E+02  0.51100000000E-03 0.  1.
        -12    1    3    3    0    0 -0.18961267551E+02  0.18415697585E+01  0.71032301191E+01  0.20331672938E+02  0.00000000000E+00 0.  1.
</event>
<event>
 7    1  0.3461631E-013  0.5930196E+02  0.7816164E-02  0.1266605E+00
        -11   -1    0    0    0    0  0.00000000000E+00  0.00000000000E+00  0.45593999997E+02  0.45594000000E+02  0.51100000000E-03 0.  1.
         11   -1    0    0    0    0 -0.00000000000E+00 -0.00000000000E+00 -0.45593999997E+02  0.45594000000E+02  0.51100000000E-03 0. -1.
    9900012    2    1    2    0    0  0.65224022748E+01 -0.15470138770E+02  0.27108160232E+02  0.59301964245E+02  0.50000036871E+02 0.  0.
         12    1    1    2    0    0 -0.65224022748E+01  0.15470138770E+02 -0.27108160232E+02  0.31886035755E+02  0.00000000000E+00 0. -1.
         11    1    3    3    0    0  0.45808728518E+01 -0.12120328296E+02 -0.51188195841E+01  0.13931585275E+02  0.51100000000E-03 0. -1.
        -11    1    3    3    0    0  0.10907795369E+02 -0.14974299595E+01 -0.85652909772E+00  0.11043366274E+02  0.51100000000E-03 0.  1.
         12    1    3    3    0    0 -0.89662659462E+01 -0.18523805152E+01  0.33083508914E+02  0.34327012696E+02  0.00000000000E+00 0. -1.
</event>
<event>
 7    1  0.3546441E-013  0.5930189E+02  0.7816164E-02  0.1266605E+00
        -11   -1    0    0    0    0  0.00000000000E+00  0.00000000000E+00  0.45593999997E+02  0.45594000000E+02  0.51100000000E-03 0.  1.
         11   -1    0    0    0    0 -0.00000000000E+00 -0.00000000000E+00 -0.45593999997E+02  0.45594000000E+02  0.51100000000E-03 0. -1.
    9900012    2    1    2    0    0 -0.20240940746E+02 -0.70770353235E+01  0.23599652810E+02  0.59301894499E+02  0.49999909672E+02 0.  0.
         12    1    1    2    0    0  0.20240940746E+02  0.70770353235E+01 -0.23599652810E+02  0.31886105501E+02  0.00000000000E+00 0. -1.
         11    1    3    3    0    0 -0.11403349020E+02 -0.79418227097E+01  0.16077646675E+02  0.21250873857E+02  0.51100000000E-03 0. -1.
        -11    1    3    3    0    0 -0.20781973398E+02  0.27277039830E+01  0.13121238247E+02  0.24728479143E+02  0.51100000000E-03 0.  1.
         12    1    3    3    0    0  0.11944381672E+02 -0.18629165968E+01 -0.55992321119E+01  0.13322541499E+02  0.00000000000E+00 0. -1.
</event>
<event>
 7    1  0.3461631E-013  0.5930193E+02  0.7816164E-02  0.1266605E+00
        -11   -1    0    0    0    0  0.00000000000E+00  0.00000000000E+00  0.45593999997E+02  0.45594000000E+02  0.51100000000E-03 0.  1.
         11   -1    0    0    0    0 -0.00000000000E+00 -0.00000000000E+00 -0.45593999997E+02  0.45594000000E+02  0.51100000000E-03 0. -1.
    9900012    2    1    2    0    0  0.26399216505E+02 -0.48848687830E+01  0.17202924801E+02  0.59301934128E+02  0.49999981944E+02 0.  0.
         12    1    1    2    0    0 -0.26399216505E+02  0.48848687830E+01 -0.17202924801E+02  0.31886065872E+02  0.00000000000E+00 0. -1.
         11    1    3    3    0    0 -0.99595665571E+00  0.15243960868E+02  0.50145735473E+01  0.16078439623E+02  0.51100000000E-03 0. -1.
        -11    1    3    3    0    0  0.22803199754E+02 -0.12412442662E+02  0.18815278634E+02  0.32063520739E+02  0.51100000000E-03 0.  1.
        -12    1    3    3    0    0  0.45919734075E+01 -0.77163869886E+01 -0.66269273806E+01  0.11159973765E+02  0.00000000000E+00 0.  1.
</event>
<event>
 7    1  0.3461631E-013  0.5930195E+02  0.7816164E-02  0.1266605E+00
        -11   -1    0    0    0    0  0.00000000000E+00  0.00000000000E+00  0.45593999997E+02  0.45594000000E+02  0.51100000000E-03 0.  1.
         11   -1    0    0    0    0 -0.00000000000E+00 -0.00000000000E+00 -0.45593999997E+02  0.45594000000E+02  0.51100000000E-03 0. -1.
    9900012    2    1    2    0    0  0.59331964801E+01  0.20492998485E+01  0.31262085999E+02  0.59301945504E+02  0.50000002692E+02 0.  0.
         12    1    1    2    0    0 -0.59331964801E+01 -0.20492998485E+01 -0.31262085999E+02  0.31886054496E+02  0.00000000000E+00 0. -1.
         11    1    3    3    0    0 -0.91716248418E+01  0.12977371688E+01  0.13139213377E+02  0.16076123675E+02  0.51100000000E-03 0. -1.
        -11    1    3    3    0    0 -0.71838777660E+01  0.87638346082E+01  0.15776949742E+02  0.19424856247E+02  0.51100000000E-03 0.  1.
        -12    1    3    3    0    0  0.22288699088E+02 -0.80122719285E+01  0.23459228804E+01  0.23800965582E+02  0.00000000000E+00 0.  1.
</event>
<event>
 7    1  0.3461631E-013  0.5930187E+02  0.7816164E-02  0.1266605E+00
        -11   -1    0    0    0    0  0.00000000000E+00  0.00000000000E+00  0.45593999997E+02  0.45594000000E+02  0.51100000000E-03 0. -1.
         11   -1    0    0    0    0 -0.00000000000E+00 -0.00000000000E+00 -0.45593999997E+02  0.45594000000E+02  0.51100000000E-03 0.  1.
    9900012    2    1    2    0    0 -0.26550250281E+02 -0.31672200057E+01 -0.17371763322E+02  0.59301870829E+02  0.49999866504E+02 0.  0.
         12    1    1    2    0    0  0.26550250281E+02  0.31672200057E+01  0.17371763322E+02  0.31886129171E+02  0.00000000000E+00 0. -1.
         11    1    3    3    0    0 -0.42294973447E+01  0.10512884843E+02  0.37202513077E+01  0.11926846422E+02  0.51100000000E-03 0.  1.
        -11    1    3    3    0    0 -0.12659940913E+02  0.73081567184E+01  0.19461449939E+01  0.14746889135E+02  0.51100000000E-03 0. -1.
        -12    1    3    3    0    0 -0.96608120230E+01 -0.20988261567E+02 -0.23038159624E+02  0.32628135273E+02  0.00000000000E+00 0.  1.
</event>
<event>
 7    1  0.3461631E-013  0.5930194E+02  0.7816164E-02  0.1266605E+00
        -11   -1    0    0    0    0  0.00000000000E+00  0.00000000000E+00  0.45593999997E+02  0.45594000000E+02  0.51100000000E-03 0. -1.
         11   -1    0    0    0    0 -0.00000000000E+00 -0.00000000000E+00 -0.45593999997E+02  0.45594000000E+02  0.51100000000E-03 0.  1.
    9900012    2    1    2    0    0 -0.28108552554E+02  0.92573780921E+01 -0.11871447579E+02  0.59301936532E+02  0.49999986330E+02 0.  0.
         12    1    1    2    0    0  0.28108552554E+02 -0.92573780921E+01  0.11871447579E+02  0.31886063468E+02  0.00000000000E+00 0. -1.
         11    1    3    3    0    0  0.44917573907E+01  0.12093305343E+02 -0.19982445516E+01  0.13054382411E+02  0.51100000000E-03 0. -1.
        -11    1    3    3    0    0 -0.17956782167E+02  0.13221336599E+02  0.18771565341E+00  0.22299887997E+02  0.51100000000E-03 0.  1.
        -12    1    3    3    0    0 -0.14643527778E+02 -0.16057263849E+02 -0.10060918681E+02  0.23947666125E+02  0.00000000000E+00 0.  1.
</event>
<event>
 7    1  0.3461631E-013  0.5930190E+02  0.7816164E-02  0.1266605E+00
        -11   -1    0    0    0    0  0.00000000000E+00  0.00000000000E+00  0.45593999997E+02  0.45594000000E+02  0.51100000000E-03 0.  1.
         11   -1    0    0    0    0 -0.00000000000E+00 -0.00000000000E+00 -0.45593999997E+02  0.45594000000E+02  0.51100000000E-03 0. -1.
    9900012    2    1    2    0    0  0.31382230491E+02 -0.16985832666E+01 -0.53845824684E+01  0.59301901084E+02  0.49999921681E+02 0.  0.
         12    1    1    2    0    0 -0.31382230491E+02  0.16985832666E+01  0.53845824684E+01  0.31886098916E+02  0.00000000000E+00 0. -1.
         11    1    3    3    0    0 -0.40743701261E+01  0.76884993958E+01  0.11748247546E+02  0.14619672895E+02  0.51100000000E-03 0. -1.
        -11    1    3    3    0    0  0.11267819033E+02 -0.10559742295E+02 -0.12849106107E+02  0.20089087364E+02  0.51100000000E-03 0.  1.
        -12    1    3    3    0    0  0.24188781584E+02  0.11726596331E+01 -0.42837239076E+01  0.24593140825E+02  0.00000000000E+00 0.  1.
</event>
<event>
 7    1  0.3461631E-013  0.5930199E+02  0.7816164E-02  0.1266605E+00
        -11   -1    0    0    0    0  0.00000000000E+00  0.00000000000E+00  0.45593999997E+02  0.45594000000E+02  0.51100000000E-03 0.  1.
         11   -1    0    0    0    0 -0.00000000000E+00 -0.00000000000E+00 -0.45593999997E+02  0.45594000000E+02  0.51100000000E-03 0. -1.
    9900012    2    1    2    0    0 -0.57375001495E+01  0.30458503495E+02 -0.74885552609E+01  0.59301987346E+02  0.50000079002E+02 0.  0.
         12    1    1    2    0    0  0.57375001495E+01 -0.30458503495E+02  0.74885552609E+01  0.31886012654E+02  0.00000000000E+00 0. -1.
         11    1    3    3    0    0 -0.70683192745E+01  0.16669721520E+01  0.15715069690E+02  0.17311942385E+02  0.51100000000E-03 0. -1.
        -11    1    3    3    0    0 -0.54713947369E+00  0.88436154620E+01  0.26806614079E+01  0.92571508516E+01  0.51100000000E-03 0.  1.
         12    1    3    3    0    0  0.18779585988E+01  0.19947915881E+02 -0.25884286359E+02  0.32732894109E+02  0.00000000000E+00 0. -1.
</event>
<event>
 7    1  0.3461631E-013  0.5930186E+02  0.7816164E-02  0.1266605E+00
        -11   -1    0    0    0    0  0.00000000000E+00  0.00000000000E+00  0.45593999997E+02  0.45594000000E+02  0.51100000000E-03 0. -1.
         11   -1    0    0    0    0 -0.00000000000E+00 -0.00000000000E+00 -0.45593999997E+02  0.45594000000E+02  0.51100000000E-03 0.  1.
    9900012    2    1    2    0    0 -0.19756703513E+02  0.45430469397E+01 -0.24612178866E+02  0.59301859473E+02  0.49999845792E+02 0.  0.
         12    1    1    2    0    0  0.19756703513E+02 -0.45430469397E+01  0.24612178866E+02  0.31886140527E+02  0.00000000000E+00 0. -1.
         11    1    3    3    0    0  0.12040178245E+02 -0.98228060386E+01 -0.75578064699E+01  0.17279289613E+02  0.51100000000E-03 0. -1.
        -11    1    3    3    0    0  0.12651238609E+01 -0.64895373405E+00 -0.25531355945E+01  0.29223588002E+01  0.51100000000E-03 0.  1.
        -12    1    3    3    0    0 -0.33062005618E+02  0.15014806712E+02 -0.14501236802E+02  0.39100211059E+02  0.00000000000E+00 0.  1.
</event>
<event>
 7    1  0.3461631E-013  0.5930198E+02  0.7816164E-02  0.1266605E+00
        -11   -1    0    0    0    0  0.00000000000E+00  0.00000000000E+00  0.45593999997E+02  0.45594000000E+02  0.51100000000E-03 0.  1.
         11   -1    0    0    0    0 -0.00000000000E+00 -0.00000000000E+00 -0.45593999997E+02  0.45594000000E+02  0.51100000000E-03 0. -1.
    9900012    2    1    2    0    0 -0.24407593175E+02 -0.20435945279E+02 -0.18329467493E+01  0.59301981782E+02  0.50000068855E+02 0.  0.
         12    1    1    2    0    0  0.24407593175E+02  0.20435945279E+02  0.18329467493E+01  0.31886018218E+02  0.00000000000E+00 0. -1.
         11    1    3    3    0    0  0.56117093444E+01 -0.40911582755E+01 -0.11263622852E+02  0.13232462273E+02  0.51100000000E-03 0. -1.
        -11    1    3    3    0    0 -0.28236088809E+02 -0.18409723500E+02 -0.25293427454E+01  0.33802251486E+02  0.51100000000E-03 0.  1.
         12    1    3    3    0    0 -0.17832137104E+01  0.20649364969E+01  0.11960018848E+02  0.12267268022E+02  0.00000000000E+00 0. -1.
</event>
<event>
 7    1  0.3461631E-013  0.5930196E+02  0.7816164E-02  0.1266605E+00
        -11   -1    0    0    0    0  0.00000000000E+00  0.00000000000E+00  0.45593999997E+02  0.45594000000E+02  0.51100000000E-03 0.  1.
         11   -1    0    0    0    0 -0.00000000000E+00 -0.00000000000E+00 -0.45593999997E+02  0.45594000000E+02  0.51100000000E-03 0. -1.
    9900012    2    1    2    0    0  0.91835753626E+01 -0.27334958741E+02  0.13608153212E+02  0.59301955095E+02  0.50000020184E+02 0.  0.
         12    1    1    2    0    0 -0.91835753626E+01  0.27334958741E+02 -0.13608153212E+02  0.31886044905E+02  0.00000000000E+00 0. -1.
         11    1    3    3    0    0  0.42528930825E+01 -0.13074198490E+02  0.93225789897E+01  0.16611208415E+02  0.51100000000E-03 0. -1.
        -11    1    3    3    0    0  0.22287644720E+02 -0.52601441757E+01  0.30159228899E+01  0.23097705840E+02  0.51100000000E-03 0.  1.
         12    1    3    3    0    0 -0.17356962440E+02 -0.90006160756E+01  0.12696513326E+01  0.19593040841E+02  0.00000000000E+00 0. -1.
</event>
<event>
 7    1  0.3461631E-013  0.5930190E+02  0.7816164E-02  0.1266605E+00
        -11   -1    0    0    0    0  0.00000000000E+00  0.00000000000E+00  0.45593999997E+02  0.45594000000E+02  0.51100000000E-03 0. -1.
         11   -1    0    0    0    0 -0.00000000000E+00 -0.00000000000E+00 -0.45593999997E+02  0.45594000000E+02  0.51100000000E-03 0.  1.
    9900012    2    1    2    0    0 -0.18024659667E+02 -0.25720050188E+02 -0.55058354420E+01  0.59301897044E+02  0.49999914313E+02 0.  0.
         12    1    1    2    0    0  0.18024659667E+02  0.25720050188E+02  0.55058354420E+01  0.31886102956E+02  0.00000000000E+00 0. -1.
         11    1    3    3    0    0 -0.89969418136E+01  0.74850338581E+01  0.76504535968E+01  0.13982136259E+02  0.51100000000E-03 0. -1.
        -11    1    3    3    0    0 -0.11159964013E+01 -0.33324556659E+01 -0.13971214032E+02  0.14406440592E+02  0.51100000000E-03 0.  1.
        -12    1    3    3    0    0 -0.79117214521E+01 -0.29872628380E+02  0.81492499301E+00  0.30913320194E+02  0.00000000000E+00 0.  1.
</event>
<event>
 7    1  0.3461631E-013  0.5930198E+02  0.7816164E-02  0.1266605E+00
        -11   -1    0    0    0    0  0.00000000000E+00  0.00000000000E+00  0.45593999997E+02  0.45594000000E+02  0.51100000000E-03 0. -1.
         11   -1    0    0    0    0 -0.00000000000E+00 -0.00000000000E+00 -0.45593999997E+02  0.45594000000E+02  0.51100000000E-03 0.  1.
    9900012    2    1    2    0    0  0.54054996386E+01 -0.31209245120E+02 -0.36717639617E+01  0.59301980213E+02  0.50000065993E+02 0.  0.
         12    1    1    2    0    0 -0.54054996386E+01  0.31209245120E+02  0.36717639617E+01  0.31886019787E+02  0.00000000000E+00 0. -1.
         11    1    3    3    0    0 -0.11123632987E+02  0.18672937201E+01  0.36859983367E+01  0.11866279141E+02  0.51100000000E-03 0. -1.
        -11    1    3    3    0    0  0.63176736440E+01  0.44229185618E+01 -0.31979648192E+01  0.83487836313E+01  0.51100000000E-03 0.  1.
        -12    1    3    3    0    0  0.10211458981E+02 -0.37499457401E+02 -0.41597974792E+01  0.39086917440E+02  0.00000000000E+00 0.  1.
</event>
<event>
 7    1  0.3461631E-013  0.5930196E+02  0.7816164E-02  0.1266605E+00
        -11   -1    0    0    0    0  0.00000000000E+00  0.00000000000E+00  0.45593999997E+02  0.45594000000E+02  0.51100000000E-03 0.  1.
         11   -1    0    0    0    0 -0.00000000000E+00 -0.00000000000E+00 -0.45593999997E+02  0.45594000000E+02  0.51100000000E-03 0. -1.
    9900012    2    1    2    0    0  0.30070793543E+02 -0.10136770123E+02  0.31165014152E+01  0.59301963653E+02  0.50000035792E+02 0.  0.
         12    1    1    2    0    0 -0.30070793543E+02  0.10136770123E+02 -0.31165014152E+01  0.31886036347E+02  0.00000000000E+00 0. -1.
         11    1    3    3    0    0 -0.86590145191E+01 -0.30708153006E+01  0.57469315275E+01  0.10836773565E+02  0.51100000000E-03 0. -1.
        -11    1    3    3    0    0  0.43974028963E+00 -0.24397147116E+01  0.80680634784E+01  0.84403334027E+01  0.51100000000E-03 0.  1.
         12    1    3    3    0    0  0.38290067773E+02 -0.46262401110E+01 -0.10698493591E+02  0.40024856686E+02  0.00000000000E+00 0. -1.
</event>
<event>
 7    1  0.3461631E-013  0.5930194E+02  0.7816164E-02  0.1266605E+00
        -11   -1    0    0    0    0  0.00000000000E+00  0.00000000000E+00  0.45593999997E+02  0.45594000000E+02  0.51100000000E-03 0.  1.
         11   -1    0    0    0    0 -0.00000000000E+00 -0.00000000000E+00 -0.45593999997E+02  0.45594000000E+02  0.51100000000E-03 0. -1.
    9900012    2    1    2    0    0 -0.21922166484E+02 -0.20489525521E+02  0.10785123937E+02  0.59301938190E+02  0.49999989353E+02 0.  0.
         12    1    1    2    0    0  0.21922166484E+02  0.20489525521E+02 -0.10785123937E+02  0.31886061810E+02  0.00000000000E+00 0. -1.
         11    1    3    3    0    0 -0.43220810428E+01 -0.57950766510E+01 -0.70347760769E+01  0.10087188540E+02  0.51100000000E-03 0. -1.
        -11    1    3    3    0    0 -0.23316682569E+02 -0.21931947880E+02  0.35267143408E+01  0.32204281363E+02  0.51100000000E-03 0.  1.
        -12    1    3    3    0    0  0.57165971277E+01  0.72374990092E+01  0.14293185674E+02  0.17010468287E+02  0.00000000000E+00 0.  1.
</event>
<event>
 7    1  0.3461631E-013  0.5930201E+02  0.7816164E-02  0.1266605E+00
        -11   -1    0    0    0    0  0.00000000000E+00  0.00000000000E+00  0.45593999997E+02  0.45594000000E+02  0.51100000000E-03 0.  1.
         11   -1    0    0    0    0 -0.00000000000E+00 -0.00000000000E+00 -0.45593999997E+02  0.45594000000E+02  0.51100000000E-03 0. -1.
    9900012    2    1    2    0    0  0.29863035961E+01 -0.31042468700E+02  0.66455532363E+01  0.59302011698E+02  0.50000123415E+02 0.  0.
         12    1    1    2    0    0 -0.29863035961E+01  0.31042468700E+02 -0.66455532363E+01  0.31885988302E+02  0.00000000000E+00 0. -1.
         11    1    3    3    0    0 -0.38871543513E+01 -0.87853058962E+01  0.48717010046E+01  0.10771491985E+02  0.51100000000E-03 0. -1.
        -11    1    3    3    0    0  0.41828200178E+01 -0.31278976046E+02  0.12780127350E+02  0.34047055396E+02  0.51100000000E-03 0.  1.
         12    1    3    3    0    0  0.26906379297E+01  0.90218132424E+01 -0.11006275118E+02  0.14483464317E+02  0.00000000000E+00 0. -1.
</event>
<event>
 7    1  0.3461631E-013  0.5930195E+02  0.7816164E-02  0.1266605E+00
        -11   -1    0    0    0    0  0.00000000000E+00  0.00000000000E+00  0.45593999997E+02  0.45594000000E+02  0.51100000000E-03 0.  1.
         11   -1    0    0    0    0 -0.00000000000E+00 -0.00000000000E+00 -0.45593999997E+02  0.45594000000E+02  0.51100000000E-03 0. -1.
    9900012    2    1    2    0    0  0.15082175795E+02 -0.11197912004E+02 -0.25765387414E+02  0.59301945860E+02  0.50000003342E+02 0.  0.
         12    1    1    2    0    0 -0.15082175795E+02  0.11197912004E+02  0.25765387414E+02  0.31886054140E+02  0.00000000000E+00 0. -1.
         11    1    3    3    0    0 -0.10084909303E+02 -0.18302263826E+02 -0.40628178393E+01  0.21288136270E+02  0.51100000000E-03 0. -1.
        -11    1    3    3    0    0 -0.60710233285E+00  0.53367833116E+01 -0.39616248499E+01  0.66741517116E+01  0.51100000000E-03 0.  1.
        -12    1    3    3    0    0  0.25774187432E+02  0.17675685097E+01 -0.17740944725E+02  0.31339657879E+02  0.00000000000E+00 0.  1.
</event>
<event>
 7    1  0.3461631E-013  0.5930194E+02  0.7816164E-02  0.1266605E+00
        -11   -1    0    0    0    0  0.00000000000E+00  0.00000000000E+00  0.45593999997E+02  0.45594000000E+02  0.51100000000E-03 0. -1.
         11   -1    0    0    0    0 -0.00000000000E+00 -0.00000000000E+00 -0.45593999997E+02  0.45594000000E+02  0.51100000000E-03 0.  1.
    9900012    2    1    2    0    0  0.47545269221E+01 -0.24104537522E+01 -0.31437321941E+02  0.59301936832E+02  0.49999986876E+02 0.  0.
         12    1    1    2    0    0 -0.47545269221E+01  0.24104537522E+01  0.31437321941E+02  0.31886063168E+02  0.00000000000E+00 0. -1.
         11    1    3    3    0    0  0.35909044189E+01  0.23107060076E+01  0.10419578211E+02  0.11260620194E+02  0.51100000000E-03 0. -1.
        -11    1    3    3    0    0  0.10467254056E+01 -0.13172043375E+02 -0.15527939778E+02  0.20389096958E+02  0.51100000000E-03 0.  1.
         12    1    3    3    0    0  0.11689709757E+00  0.84508836148E+01 -0.26328960374E+02  0.27652219679E+02  0.00000000000E+00 0. -1.
</event>
<event>
 7    1  0.3461631E-013  0.5930194E+02  0.7816164E-02  0.1266605E+00
        -11   -1    0    0    0    0  0.00000000000E+00  0.00000000000E+00  0.45593999997E+02  0.45594000000E+02  0.51100000000E-03 0.  1.
         11   -1    0    0    0    0 -0.00000000000E+00 -0.00000000000E+00 -0.45593999997E+02  0.45594000000E+02  0.51100000000E-03 0. -1.
    9900012    2    1    2    0    0 -0.30667927190E+02  0.85978791383E+01  0.15085333486E+01  0.59301937893E+02  0.49999988813E+02 0.  0.
         12    1    1    2    0    0  0.30667927190E+02 -0.85978791383E+01 -0.15085333486E+01  0.31886062107E+02  0.00000000000E+00 0. -1.
         11    1    3    3    0    0 -0.28484684963E+02  0.16246023601E+02 -0.37884155150E+00  0.32794116568E+02  0.51100000000E-03 0. -1.
        -11    1    3    3    0    0 -0.76040796229E+01 -0.89517458385E+01 -0.86496230506E+01  0.14586698038E+02  0.51100000000E-03 0.  1.
         12    1    3    3    0    0  0.54208373965E+01  0.13036013762E+01  0.10536997951E+02  0.11921123288E+02  0.00000000000E+00 0. -1.
</event>
<event>
 7    1  0.3461631E-013  0.5930194E+02  0.7816164E-02  0.1266605E+00
        -11   -1    0    0    0    0  0.00000000000E+00  0.00000000000E+00  0.45593999997E+02  0.45594000000E+02  0.51100000000E-03 0. -1.
         11   -1    0    0    0    0 -0.00000000000E+00 -0.00000000000E+00 -0.45593999997E+02  0.45594000000E+02  0.51100000000E-03 0.  1.
    9900012    2    1    2    0    0  0.41754865604E+01 -0.31258410836E+02  0.47114893705E+01  0.59301936146E+02  0.49999985626E+02 0.  0.
         12    1    1    2    0    0 -0.41754865604E+01  0.31258410836E+02 -0.47114893705E+01  0.31886063854E+02  0.00000000000E+00 0. -1.
         11    1    3    3    0    0 -0.27105938876E+01  0.49962675839E+01  0.89845071617E+01  0.10631621616E+02  0.51100000000E-03 0. -1.
        -11    1    3    3    0    0 -0.85730313697E+00 -0.34188061728E+02  0.69318443290E+01  0.34894254533E+02  0.51100000000E-03 0.  1.
         12    1    3    3    0    0  0.77433835850E+01 -0.20666166918E+01 -0.11204862120E+02  0.13776059997E+02  0.00000000000E+00 0. -1.
</event>
<event>
 7    1  0.3461631E-013  0.5930207E+02  0.7816164E-02  0.1266604E+00
        -11   -1    0    0    0    0  0.00000000000E+00  0.00000000000E+00  0.45593999997E+02  0.45594000000E+02  0.51100000000E-03 0.  1.
         11   -1    0    0    0    0 -0.00000000000E+00 -0.00000000000E+00 -0.45593999997E+02  0.45594000000E+02  0.51100000000E-03 0. -1.
    9900012    2    1    2    0    0 -0.48657927507E+01  0.35110604974E+01  0.31316277416E+02  0.59302067112E+02  0.50000224477E+02 0.  0.
         12    1    1    2    0    0  0.48657927507E+01 -0.35110604974E+01 -0.31316277416E+02  0.31885932888E+02  0.00000000000E+00 0. -1.
         11    1    3    3    0    0  0.92286818461E+01  0.10029934862E+02  0.97382337116E+01  0.16751159901E+02  0.51100000000E-03 0. -1.
        -11    1    3    3    0    0  0.28041740117E+01 -0.16384108151E+02  0.65002238394E+01  0.17848117605E+02  0.51100000000E-03 0.  1.
        -12    1    3    3    0    0 -0.16898648609E+02  0.98652337868E+01  0.15077819865E+02  0.24702789607E+02  0.00000000000E+00 0.  1.
</event>
<event>
 7    1  0.3461631E-013  0.5930195E+02  0.7816164E-02  0.1266605E+00
        -11   -1    0    0    0    0  0.00000000000E+00  0.00000000000E+00  0.45593999997E+02  0.45594000000E+02  0.51100000000E-03 0. -1.
         11   -1    0    0    0    0 -0.00000000000E+00 -0.00000000000E+00 -0.45593999997E+02  0.45594000000E+02  0.51100000000E-03 0.  1.
    9900012    2    1    2    0    0 -0.23487639970E+02  0.21203306517E+02 -0.39333210164E+01  0.59301945794E+02  0.50000003221E+02 0.  0.
         12    1    1    2    0    0  0.23487639970E+02 -0.21203306517E+02  0.39333210164E+01  0.31886054206E+02  0.00000000000E+00 0. -1.
         11    1    3    3    0    0 -0.24179666414E+02 -0.14003372255E+01 -0.46337907261E+01  0.24659465303E+02  0.51100000000E-03 0.  1.
        -11    1    3    3    0    0  0.41863105806E+01 -0.49020081794E+01  0.23635046552E+01  0.68659329289E+01  0.51100000000E-03 0. -1.
        -12    1    3    3    0    0 -0.34942841366E+01  0.27505651922E+02 -0.16630349455E+01  0.27776547562E+02  0.00000000000E+00 0.  1.
</event>
<event>
 7    1  0.3461631E-013  0.5930195E+02  0.7816164E-02  0.1266605E+00
        -11   -1    0    0    0    0  0.00000000000E+00  0.00000000000E+00  0.45593999997E+02  0.45594000000E+02  0.51100000000E-03 0. -1.
         11   -1    0    0    0    0 -0.00000000000E+00 -0.00000000000E+00 -0.45593999997E+02  0.45594000000E+02  0.51100000000E-03 0.  1.
    9900012    2    1    2    0    0  0.80983217786E+01 -0.30445100748E+02 -0.49227519116E+01  0.59301945657E+02  0.50000002971E+02 0.  0.
         12    1    1    2    0    0 -0.80983217786E+01  0.30445100748E+02  0.49227519116E+01  0.31886054343E+02  0.00000000000E+00 0. -1.
         11    1    3    3    0    0 -0.23233446355E+01  0.59187501150E+00 -0.87598039634E+01  0.90819828266E+01  0.51100000000E-03 0. -1.
        -11    1    3    3    0    0 -0.80636137512E+01 -0.23045522872E+02 -0.93535664990E+01  0.26145882997E+02  0.51100000000E-03 0.  1.
        -12    1    3    3    0    0  0.18485280165E+02 -0.79914528875E+01  0.13190618551E+02  0.24074079833E+02  0.00000000000E+00 0.  1.
</event>
<event>
 7    1  0.3756417E-013  0.5930193E+02  0.7816164E-02  0.1266605E+00
        -11   -1    0    0    0    0  0.00000000000E+00  0.00000000000E+00  0.45593999997E+02  0.45594000000E+02  0.51100000000E-03 0.  1.
         11   -1    0    0    0    0 -0.00000000000E+00 -0.00000000000E+00 -0.45593999997E+02  0.45594000000E+02  0.51100000000E-03 0. -1.
    9900012    2    1    2    0    0 -0.29164922161E+02  0.48901446245E+01  0.11925408632E+02  0.59301928273E+02  0.49999971268E+02 0.  0.
         12    1    1    2    0    0  0.29164922161E+02 -0.48901446245E+01 -0.11925408632E+02  0.31886071727E+02  0.00000000000E+00 0. -1.
         11    1    3    3    0    0 -0.16481555182E+02  0.43731226448E+01  0.89831376871E+01  0.19273365711E+02  0.51100000000E-03 0. -1.
        -11    1    3    3    0    0 -0.18107490846E+02  0.13305141903E+02  0.98270898731E+01  0.24525083515E+02  0.51100000000E-03 0.  1.
         12    1    3    3    0    0  0.54241238666E+01 -0.12788119923E+02 -0.68848189283E+01  0.15503479047E+02  0.00000000000E+00 0. -1.
</event>
<event>
 7    1  0.3461631E-013  0.5930194E+02  0.7816164E-02  0.1266605E+00
        -11   -1    0    0    0    0  0.00000000000E+00  0.00000000000E+00  0.45593999997E+02  0.45594000000E+02  0.51100000000E-03 0. -1.
         11   -1    0    0    0    0 -0.00000000000E+00 -0.00000000000E+00 -0.45593999997E+02  0.45594000000E+02  0.51100000000E-03 0.  1.
    9900012    2    1    2    0    0 -0.16028299744E+02  0.15986784230E+02 -0.22455220521E+02  0.59301943622E+02  0.49999999260E+02 0.  0.
         12    1    1    2    0    0  0.16028299744E+02 -0.15986784230E+02  0.22455220521E+02  0.31886056378E+02  0.00000000000E+00 0. -1.
         11    1    3    3    0    0 -0.10306562880E+02  0.92186400655E+01 -0.62698575915E+01  0.15182874482E+02  0.51100000000E-03 0. -1.
        -11    1    3    3    0    0 -0.17045396712E+02  0.14900172776E+02  0.15419454018E+00  0.22640328488E+02  0.51100000000E-03 0.  1.
         12    1    3    3    0    0  0.11323659848E+02 -0.81320286109E+01 -0.16339557469E+02  0.21478740652E+02  0.00000000000E+00 0. -1.
</event>
<event>
 7    1  0.3461631E-013  0.5930171E+02  0.7816164E-02  0.1266606E+00
        -11   -1    0    0    0    0  0.00000000000E+00  0.00000000000E+00  0.45593999997E+02  0.45594000000E+02  0.51100000000E-03 0.  1.
         11   -1    0    0    0    0 -0.00000000000E+00 -0.00000000000E+00 -0.45593999997E+02  0.45594000000E+02  0.51100000000E-03 0. -1.
    9900012    2    1    2    0    0 -0.68005698072E+01  0.20763190516E+02  0.23224499472E+02  0.59301714455E+02  0.49999581313E+02 0.  0.
         12    1    1    2    0    0  0.68005698072E+01 -0.20763190516E+02 -0.23224499472E+02  0.31886285545E+02  0.00000000000E+00 0. -1.
         11    1    3    3    0    0 -0.17217097867E+02  0.11893904109E+02 -0.39008949400E+01  0.21286389912E+02  0.51100000000E-03 0. -1.
        -11    1    3    3    0    0 -0.19448318580E+01  0.63659736827E+01 -0.14214256004E+01  0.68065000466E+01  0.51100000000E-03 0.  1.
         12    1    3    3    0    0  0.12361359918E+02  0.25033127239E+01  0.28546820013E+02  0.31208824496E+02  0.00000000000E+00 0. -1.
</event>
<event>
 7    1  0.3461631E-013  0.5930194E+02  0.7816164E-02  0.1266605E+00
        -11   -1    0    0    0    0  0.00000000000E+00  0.00000000000E+00  0.45593999997E+02  0.45594000000E+02  0.51100000000E-03 0.  1.
         11   -1    0    0    0    0 -0.00000000000E+00 -0.00000000000E+00 -0.45593999997E+02  0.45594000000E+02  0.51100000000E-03 0. -1.
    9900012    2    1    2    0    0 -0.81208196125E+01 -0.87250831214E+01  0.29574412041E+02  0.59301942950E+02  0.49999998034E+02 0.  0.
         12    1    1    2    0    0  0.81208196125E+01  0.87250831214E+01 -0.29574412041E+02  0.31886057050E+02  0.00000000000E+00 0. -1.
         11    1    3    3    0    0 -0.76459222625E+01 -0.27705851700E+00 -0.71099313192E+01  0.10444520683E+02  0.51100000000E-03 0. -1.
        -11    1    3    3    0    0 -0.15216872292E+02  0.12175550085E+00  0.17334852473E+02  0.23066537176E+02  0.51100000000E-03 0.  1.
         12    1    3    3    0    0  0.14741974942E+02 -0.85697801053E+01  0.19349490887E+02  0.25790885092E+02  0.00000000000E+00 0. -1.
</event>
<event>
 7    1  0.3461631E-013  0.5930194E+02  0.7816164E-02  0.1266605E+00
        -11   -1    0    0    0    0  0.00000000000E+00  0.00000000000E+00  0.45593999997E+02  0.45594000000E+02  0.51100000000E-03 0. -1.
         11   -1    0    0    0    0 -0.00000000000E+00 -0.00000000000E+00 -0.45593999997E+02  0.45594000000E+02  0.51100000000E-03 0.  1.
    9900012    2    1    2    0    0 -0.29292963054E+02  0.71254657215E+01 -0.10386078029E+02  0.59301944065E+02  0.50000000068E+02 0.  0.
         12    1    1    2    0    0  0.29292963054E+02 -0.71254657215E+01  0.10386078029E+02  0.31886055935E+02  0.00000000000E+00 0. -1.
         11    1    3    3    0    0 -0.28421449919E+01  0.11926954802E+02  0.10284126831E+02  0.16002915483E+02  0.51100000000E-03 0. -1.
        -11    1    3    3    0    0 -0.34667536105E+01 -0.95491268076E+01  0.23470311234E+01  0.10426541073E+02  0.51100000000E-03 0.  1.
        -12    1    3    3    0    0 -0.22984064452E+02  0.47476377266E+01 -0.23017235984E+02  0.32872487509E+02  0.00000000000E+00 0.  1.
</event>
<event>
 7    1  0.3461631E-013  0.5930195E+02  0.7816164E-02  0.1266605E+00
        -11   -1    0    0    0    0  0.00000000000E+00  0.00000000000E+00  0.45593999997E+02  0.45594000000E+02  0.51100000000E-03 0.  1.
         11   -1    0    0    0    0 -0.00000000000E+00 -0.00000000000E+00 -0.45593999997E+02  0.45594000000E+02  0.51100000000E-03 0. -1.
    9900012    2    1    2    0    0 -0.27218669441E+02  0.24146716451E+01  0.16432706311E+02  0.59301945964E+02  0.50000003531E+02 0.  0.
         12    1    1    2    0    0  0.27218669441E+02 -0.24146716451E+01 -0.16432706311E+02  0.31886054036E+02  0.00000000000E+00 0. -1.
         11    1    3    3    0    0 -0.36815320713E+01  0.15308886037E+02 -0.16855443335E+01  0.15835300124E+02  0.51100000000E-03 0. -1.
        -11    1    3    3    0    0  0.25135942848E+01 -0.35523826999E+01  0.14997571286E+02  0.15616168666E+02  0.51100000000E-03 0.  1.
         12    1    3    3    0    0 -0.26050731655E+02 -0.93418316915E+01  0.31206793584E+01  0.27850477173E+02  0.00000000000E+00 0. -1.
</event>
<event>
 7    1  0.3461631E-013  0.5930195E+02  0.7816164E-02  0.1266605E+00
        -11   -1    0    0    0    0  0.00000000000E+00  0.00000000000E+00  0.45593999997E+02  0.45594000000E+02  0.51100000000E-03 0.  1.
         11   -1    0    0    0    0 -0.00000000000E+00 -0.00000000000E+00 -0.45593999997E+02  0.45594000000E+02  0.51100000000E-03 0. -1.
    9900012    2    1    2    0    0 -0.42569550469E+01 -0.73657814493E+01  0.30730177558E+02  0.59301949517E+02  0.50000010012E+02 0.  0.
         12    1    1    2    0    0  0.42569550469E+01  0.73657814493E+01 -0.30730177558E+02  0.31886050483E+02  0.00000000000E+00 0. -1.
         11    1    3    3    0    0 -0.39872401972E+01  0.37142494981E+01 -0.43077982242E+01  0.69462838645E+01  0.51100000000E-03 0. -1.
        -11    1    3    3    0    0 -0.69019496450E+01  0.12512751764E+02  0.14792379182E+02  0.20567458466E+02  0.51100000000E-03 0.  1.
        -12    1    3    3    0    0  0.66322347953E+01 -0.23592782712E+02  0.20245596600E+02  0.31788207187E+02  0.00000000000E+00 0.  1.
</event>
<event>
 7    1  0.3461631E-013  0.5930203E+02  0.7816164E-02  0.1266604E+00
        -11   -1    0    0    0    0  0.00000000000E+00  0.00000000000E+00  0.45593999997E+02  0.45594000000E+02  0.51100000000E-03 0.  1.
         11   -1    0    0    0    0 -0.00000000000E+00 -0.00000000000E+00 -0.45593999997E+02  0.45594000000E+02  0.51100000000E-03 0. -1.
    9900012    2    1    2    0    0 -0.61605873492E+01  0.12192507378E+02  0.28811542260E+02  0.59302030671E+02  0.50000158017E+02 0.  0.
         12    1    1    2    0    0  0.61605873492E+01 -0.12192507378E+02 -0.28811542260E+02  0.31885969329E+02  0.00000000000E+00 0. -1.
         11    1    3    3    0    0 -0.25319338499E+01 -0.10556718349E+02 -0.56467855691E+01  0.12236877823E+02  0.51100000000E-03 0. -1.
        -11    1    3    3    0    0 -0.70331322067E+01  0.25372448801E+00  0.16961616326E+02  0.18363707507E+02  0.51100000000E-03 0.  1.
         12    1    3    3    0    0  0.34044787075E+01  0.22495501239E+02  0.17496711503E+02  0.28701445341E+02  0.00000000000E+00 0. -1.
</event>
<event>
 7    1  0.3461631E-013  0.5930187E+02  0.7816164E-02  0.1266605E+00
        -11   -1    0    0    0    0  0.00000000000E+00  0.00000000000E+00  0.45593999997E+02  0.45594000000E+02  0.51100000000E-03 0. -1.
         11   -1    0    0    0    0 -0.00000000000E+00 -0.00000000000E+00 -0.45593999997E+02  0.45594000000E+02  0.51100000000E-03 0.  1.
    9900012    2    1    2    0    0  0.80988717732E+01 -0.29314798368E+02 -0.95799930075E+01  0.59301868322E+02  0.49999861930E+02 0.  0.
         12    1    1    2    0    0 -0.80988717732E+01  0.29314798368E+02  0.95799930075E+01  0.31886131678E+02  0.00000000000E+00 0. -1.
         11    1    3    3    0    0 -0.11956098998E+02 -0.13672226822E+02  0.50658503642E+01  0.18855793001E+02  0.51100000000E-03 0. -1.
        -11    1    3    3    0    0 -0.41805848155E+01 -0.83469606846E+01  0.27529112425E+01  0.97328085689E+01  0.51100000000E-03 0.  1.
        -12    1    3    3    0    0  0.24235555587E+02 -0.72956108615E+01 -0.17398754614E+02  0.30713266752E+02  0.00000000000E+00 0.  1.
</event>
<event>
 7    1  0.3461631E-013  0.5930187E+02  0.7816164E-02  0.1266605E+00
        -11   -1    0    0    0    0  0.00000000000E+00  0.00000000000E+00  0.45593999997E+02  0.45594000000E+02  0.51100000000E-03 0. -1.
         11   -1    0    0    0    0 -0.00000000000E+00 -0.00000000000E+00 -0.45593999997E+02  0.45594000000E+02  0.51100000000E-03 0.  1.
    9900012    2    1    2    0    0 -0.19029724598E+02  0.11972786890E+02 -0.22610784013E+02  0.59301865116E+02  0.49999856083E+02 0.  0.
         12    1    1    2    0    0  0.19029724598E+02 -0.11972786890E+02  0.22610784013E+02  0.31886134884E+02  0.00000000000E+00 0. -1.
         11    1    3    3    0    0 -0.10704939803E+02 -0.10794417401E+02 -0.14744304594E+02  0.21178047630E+02  0.51100000000E-03 0. -1.
        -11    1    3    3    0    0  0.67370932040E+01  0.19456505280E+01 -0.10136354415E+02  0.12325569436E+02  0.51100000000E-03 0.  1.
         12    1    3    3    0    0 -0.15061877999E+02  0.20821553763E+02  0.22698749971E+01  0.25798248050E+02  0.00000000000E+00 0. -1.
</event>
<event>
 7    1  0.3461631E-013  0.5930194E+02  0.7816164E-02  0.1266605E+00
        -11   -1    0    0    0    0  0.00000000000E+00  0.00000000000E+00  0.45593999997E+02  0.45594000000E+02  0.51100000000E-03 0.  1.
         11   -1    0    0    0    0 -0.00000000000E+00 -0.00000000000E+00 -0.45593999997E+02  0.45594000000E+02  0.51100000000E-03 0. -1.
    9900012    2    1    2    0    0  0.13002848573E+02 -0.91783876738E-01  0.29114229570E+02  0.59301939429E+02  0.49999991613E+02 0.  0.
         12    1    1    2    0    0 -0.13002848573E+02  0.91783876738E-01 -0.29114229570E+02  0.31886060571E+02  0.00000000000E+00 0. -1.
         11    1    3    3    0    0 -0.71485695684E+01 -0.63413476523E+01  0.11475996847E+02  0.14933627851E+02  0.51100000000E-03 0. -1.
        -11    1    3    3    0    0  0.48107956016E+01 -0.10419972556E+02 -0.48390516004E+01  0.12455360414E+02  0.51100000000E-03 0.  1.
        -12    1    3    3    0    0  0.15340622540E+02  0.16669536332E+02  0.22477284323E+02  0.31912951164E+02  0.00000000000E+00 0.  1.
</event>
