<event>
 7    1  0.1339094E-013  0.7246153E+02  0.7816164E-02  0.1226708E+00
        -11   -1    0    0    0    0  0.00000000000E+00  0.00000000000E+00  0.45593999997E+02  0.45594000000E+02  0.51100000000E-03 0.  1.
         11   -1    0    0    0    0 -0.00000000000E+00 -0.00000000000E+00 -0.45593999997E+02  0.45594000000E+02  0.51100000000E-03 0. -1.
    9900012    2    1    2    0    0 -0.61193631478E+01  0.10948430950E+02  0.13905604894E+02  0.72461532285E+02  0.69999950486E+02 0.  0.
         12    1    1    2    0    0  0.61193631478E+01 -0.10948430950E+02 -0.13905604894E+02  0.18726467715E+02  0.00000000000E+00 0. -1.
         11    1    3    3    0    0 -0.78326253314E+01 -0.14033753345E+02  0.30397222816E+02  0.34384406461E+02  0.51100000000E-03 0. -1.
        -11    1    3    3    0    0 -0.72238478705E+01  0.79436133846E+01  0.25196659110E+01  0.11028766396E+02  0.51100000000E-03 0.  1.
         12    1    3    3    0    0  0.89371100541E+01  0.17038570910E+02 -0.19011283833E+02  0.27048359428E+02  0.00000000000E+00 0. -1.
</event>
<event>
 7    1  0.1339094E-013  0.7246147E+02  0.7816164E-02  0.1226708E+00
        -11   -1    0    0    0    0  0.00000000000E+00  0.00000000000E+00  0.45593999997E+02  0.45594000000E+02  0.51100000000E-03 0. -1.
         11   -1    0    0    0    0 -0.00000000000E+00 -0.00000000000E+00 -0.45593999997E+02  0.45594000000E+02  0.51100000000E-03 0.  1.
    9900012    2    1    2    0    0 -0.33134604796E+01  0.68491124378E+01 -0.17111206391E+02  0.72461474810E+02  0.69999875614E+02 0.  0.
         12    1    1    2    0    0  0.33134604796E+01 -0.68491124378E+01  0.17111206391E+02  0.18726525190E+02  0.00000000000E+00 0. -1.
         11    1    3    3    0    0 -0.78617078663E+01  0.31383370996E+02 -0.68638662609E+00  0.32360370092E+02  0.51100000000E-03 0. -1.
        -11    1    3    3    0    0  0.15176873955E+02 -0.92702089500E+01 -0.59420735542E+01  0.18750533736E+02  0.51100000000E-03 0.  1.
         12    1    3    3    0    0 -0.10628626568E+02 -0.15264049608E+02 -0.10482746210E+02  0.21350570982E+02  0.00000000000E+00 0. -1.
</event>
<event>
 7    1  0.1339094E-013  0.7246158E+02  0.7816164E-02  0.1226708E+00
        -11   -1    0    0    0    0  0.00000000000E+00  0.00000000000E+00  0.45593999997E+02  0.45594000000E+02  0.51100000000E-03 0.  1.
         11   -1    0    0    0    0 -0.00000000000E+00 -0.00000000000E+00 -0.45593999997E+02  0.45594000000E+02  0.51100000000E-03 0. -1.
    9900012    2    1    2    0    0  0.54311627089E+01 -0.38612476594E+01  0.17500628815E+02  0.72461580941E+02  0.70000013869E+02 0.  0.
         12    1    1    2    0    0 -0.54311627089E+01  0.38612476594E+01 -0.17500628815E+02  0.18726419059E+02  0.00000000000E+00 0. -1.
         11    1    3    3    0    0 -0.15939649543E+02 -0.12688862495E+02 -0.12076481606E+02  0.23683772233E+02  0.51100000000E-03 0. -1.
        -11    1    3    3    0    0  0.28910958783E+02  0.43401431707E+01  0.18303682903E+02  0.34492103278E+02  0.51100000000E-03 0.  1.
        -12    1    3    3    0    0 -0.75401465308E+01  0.44874716645E+01  0.11273427517E+02  0.14285705430E+02  0.00000000000E+00 0.  1.
</event>
<event>
 7    1  0.1339094E-013  0.7246141E+02  0.7816164E-02  0.1226708E+00
        -11   -1    0    0    0    0  0.00000000000E+00  0.00000000000E+00  0.45593999997E+02  0.45594000000E+02  0.51100000000E-03 0.  1.
         11   -1    0    0    0    0 -0.00000000000E+00 -0.00000000000E+00 -0.45593999997E+02  0.45594000000E+02  0.51100000000E-03 0. -1.
    9900012    2    1    2    0    0  0.17194264421E+02  0.55005284975E+01 -0.49786311717E+01  0.72461406314E+02  0.69999786385E+02 0.  0.
         12    1    1    2    0    0 -0.17194264421E+02 -0.55005284975E+01  0.49786311717E+01  0.18726593686E+02  0.00000000000E+00 0. -1.
         11    1    3    3    0    0 -0.11146525063E+02 -0.33804093824E+00 -0.20334213293E+02  0.23191367427E+02  0.51100000000E-03 0. -1.
        -11    1    3    3    0    0  0.34733044873E+02  0.11658877159E+01  0.33841523788E+01  0.34916989960E+02  0.51100000000E-03 0.  1.
        -12    1    3    3    0    0 -0.63922553883E+01  0.46726817198E+01  0.11971429742E+02  0.14353048926E+02  0.00000000000E+00 0.  1.
</event>
<event>
 7    1  0.1339094E-013  0.7246132E+02  0.7816164E-02  0.1226709E+00
        -11   -1    0    0    0    0  0.00000000000E+00  0.00000000000E+00  0.45593999997E+02  0.45594000000E+02  0.51100000000E-03 0.  1.
         11   -1    0    0    0    0 -0.00000000000E+00 -0.00000000000E+00 -0.45593999997E+02  0.45594000000E+02  0.51100000000E-03 0. -1.
    9900012    2    1    2    0    0  0.37279027294E+00  0.11676472906E+02  0.14635903392E+02  0.72461316893E+02  0.69999669897E+02 0.  0.
         12    1    1    2    0    0 -0.37279027294E+00 -0.11676472906E+02 -0.14635903392E+02  0.18726683107E+02  0.00000000000E+00 0. -1.
         11    1    3    3    0    0 -0.12632675847E+02  0.25715289213E+02  0.18424955831E+01  0.28709848286E+02  0.51100000000E-03 0. -1.
        -11    1    3    3    0    0 -0.28579412213E+01 -0.18139785419E+02  0.18818725426E+02  0.26293802882E+02  0.51100000000E-03 0.  1.
        -12    1    3    3    0    0  0.15863407342E+02  0.41009691118E+01 -0.60253176179E+01  0.17457665724E+02  0.00000000000E+00 0.  1.
</event>
<event>
 7    1  0.1339094E-013  0.7246159E+02  0.7816164E-02  0.1226708E+00
        -11   -1    0    0    0    0  0.00000000000E+00  0.00000000000E+00  0.45593999997E+02  0.45594000000E+02  0.51100000000E-03 0.  1.
         11   -1    0    0    0    0 -0.00000000000E+00 -0.00000000000E+00 -0.45593999997E+02  0.45594000000E+02  0.51100000000E-03 0. -1.
    9900012    2    1    2    0    0 -0.37290942158E+01 -0.16865825077E+02  0.72330030916E+01  0.72461587291E+02  0.70000022142E+02 0.  0.
         12    1    1    2    0    0  0.37290942158E+01  0.16865825077E+02 -0.72330030916E+01  0.18726412709E+02  0.00000000000E+00 0. -1.
         11    1    3    3    0    0 -0.86277750361E+01  0.20590362232E+02 -0.10989071762E+02  0.24882950335E+02  0.51100000000E-03 0. -1.
        -11    1    3    3    0    0 -0.82568289023E+01 -0.22248853443E+02  0.81734592463E+01  0.25099644208E+02  0.51100000000E-03 0.  1.
         12    1    3    3    0    0  0.13155509723E+02 -0.15207333866E+02  0.10048615607E+02  0.22478992749E+02  0.00000000000E+00 0. -1.
</event>
<event>
 7    1  0.1339094E-013  0.7246152E+02  0.7816164E-02  0.1226708E+00
        -11   -1    0    0    0    0  0.00000000000E+00  0.00000000000E+00  0.45593999997E+02  0.45594000000E+02  0.51100000000E-03 0. -1.
         11   -1    0    0    0    0 -0.00000000000E+00 -0.00000000000E+00 -0.45593999997E+02  0.45594000000E+02  0.51100000000E-03 0.  1.
    9900012    2    1    2    0    0 -0.18588713250E+02  0.65257483544E+00 -0.21713809802E+01  0.72461521165E+02  0.69999936000E+02 0.  0.
         12    1    1    2    0    0  0.18588713250E+02 -0.65257483544E+00  0.21713809802E+01  0.18726478835E+02  0.00000000000E+00 0. -1.
         11    1    3    3    0    0 -0.47694003918E+01 -0.10236996517E+02  0.53701140626E+01  0.12505255019E+02  0.51100000000E-03 0. -1.
        -11    1    3    3    0    0  0.12745163931E+02 -0.26551970556E+01 -0.22954996035E+02  0.26389791933E+02  0.51100000000E-03 0.  1.
        -12    1    3    3    0    0 -0.26564476789E+02  0.13544768408E+02  0.15413500992E+02  0.33566474213E+02  0.00000000000E+00 0.  1.
</event>
<event>
 7    1  0.1339094E-013  0.7246159E+02  0.7816164E-02  0.1226708E+00
        -11   -1    0    0    0    0  0.00000000000E+00  0.00000000000E+00  0.45593999997E+02  0.45594000000E+02  0.51100000000E-03 0.  1.
         11   -1    0    0    0    0 -0.00000000000E+00 -0.00000000000E+00 -0.45593999997E+02  0.45594000000E+02  0.51100000000E-03 0. -1.
    9900012    2    1    2    0    0  0.84633644607E+01 -0.16693572545E+02 -0.61196768697E+00  0.72461590660E+02  0.70000026530E+02 0.  0.
         12    1    1    2    0    0 -0.84633644607E+01  0.16693572545E+02  0.61196768697E+00  0.18726409340E+02  0.00000000000E+00 0. -1.
         11    1    3    3    0    0 -0.14366465923E+02 -0.10446561065E+02  0.48129095090E+01  0.18403534427E+02  0.51100000000E-03 0.  1.
        -11    1    3    3    0    0  0.29491399382E+02 -0.18978914951E+02  0.61511715048E+01  0.35605880994E+02  0.51100000000E-03 0. -1.
        -12    1    3    3    0    0 -0.66615689981E+01  0.12731903471E+02 -0.11576048701E+02  0.18452175239E+02  0.00000000000E+00 0.  1.
</event>
<event>
 7    1  0.1339094E-013  0.7246157E+02  0.7816164E-02  0.1226708E+00
        -11   -1    0    0    0    0  0.00000000000E+00  0.00000000000E+00  0.45593999997E+02  0.45594000000E+02  0.51100000000E-03 0. -1.
         11   -1    0    0    0    0 -0.00000000000E+00 -0.00000000000E+00 -0.45593999997E+02  0.45594000000E+02  0.51100000000E-03 0.  1.
    9900012    2    1    2    0    0  0.29369409735E+01 -0.58941919096E+01 -0.17530313158E+02  0.72461574821E+02  0.70000005897E+02 0.  0.
         12    1    1    2    0    0 -0.29369409735E+01  0.58941919096E+01  0.17530313158E+02  0.18726425179E+02  0.00000000000E+00 0. -1.
         11    1    3    3    0    0  0.30241020188E+02 -0.20308716958E+02 -0.12573194533E+02  0.38536327115E+02  0.51100000000E-03 0.  1.
        -11    1    3    3    0    0 -0.17674821430E+02  0.12352279590E+02  0.23097001341E+01  0.21686697273E+02  0.51100000000E-03 0. -1.
        -12    1    3    3    0    0 -0.96292577852E+01  0.20622454592E+01 -0.72668187596E+01  0.12238550433E+02  0.00000000000E+00 0.  1.
</event>
<event>
 7    1  0.1339094E-013  0.7246163E+02  0.7816164E-02  0.1226708E+00
        -11   -1    0    0    0    0  0.00000000000E+00  0.00000000000E+00  0.45593999997E+02  0.45594000000E+02  0.51100000000E-03 0. -1.
         11   -1    0    0    0    0 -0.00000000000E+00 -0.00000000000E+00 -0.45593999997E+02  0.45594000000E+02  0.51100000000E-03 0.  1.
    9900012    2    1    2    0    0 -0.10199093352E+02 -0.15494251367E+02 -0.25658673301E+01  0.72461628067E+02  0.70000075260E+02 0.  0.
         12    1    1    2    0    0  0.10199093352E+02  0.15494251367E+02  0.25658673301E+01  0.18726371933E+02  0.00000000000E+00 0. -1.
         11    1    3    3    0    0 -0.11620717732E+02 -0.15724419480E+02  0.20973196301E+02  0.28673566432E+02  0.51100000000E-03 0. -1.
        -11    1    3    3    0    0 -0.73330392224E+01 -0.70476271611E+00 -0.31236378054E+02  0.32093324367E+02  0.51100000000E-03 0.  1.
         12    1    3    3    0    0  0.87546636027E+01  0.93493082958E+00  0.76973144235E+01  0.11694737269E+02  0.00000000000E+00 0. -1.
</event>
<event>
 7    1  0.1339094E-013  0.7246154E+02  0.7816164E-02  0.1226708E+00
        -11   -1    0    0    0    0  0.00000000000E+00  0.00000000000E+00  0.45593999997E+02  0.45594000000E+02  0.51100000000E-03 0.  1.
         11   -1    0    0    0    0 -0.00000000000E+00 -0.00000000000E+00 -0.45593999997E+02  0.45594000000E+02  0.51100000000E-03 0. -1.
    9900012    2    1    2    0    0  0.31616583148E+01 -0.17404386762E+02  0.61458472834E+01  0.72461542762E+02  0.69999964133E+02 0.  0.
         12    1    1    2    0    0 -0.31616583148E+01  0.17404386762E+02 -0.61458472834E+01  0.18726457238E+02  0.00000000000E+00 0. -1.
         11    1    3    3    0    0  0.24335160057E+01  0.24780854787E+02  0.87495997214E+01  0.26392579633E+02  0.51100000000E-03 0. -1.
        -11    1    3    3    0    0  0.10450404674E+01 -0.16625202590E+02  0.78958767724E+01  0.18434596307E+02  0.51100000000E-03 0.  1.
         12    1    3    3    0    0 -0.31689815826E+00 -0.25560038959E+02 -0.10499629210E+02  0.27634366821E+02  0.00000000000E+00 0. -1.
</event>
<event>
 7    1  0.1339094E-013  0.7246165E+02  0.7816164E-02  0.1226708E+00
        -11   -1    0    0    0    0  0.00000000000E+00  0.00000000000E+00  0.45593999997E+02  0.45594000000E+02  0.51100000000E-03 0.  1.
         11   -1    0    0    0    0 -0.00000000000E+00 -0.00000000000E+00 -0.45593999997E+02  0.45594000000E+02  0.51100000000E-03 0. -1.
    9900012    2    1    2    0    0  0.18198593705E+02 -0.12186962538E+01  0.42428961083E+01  0.72461649561E+02  0.70000103259E+02 0.  0.
         12    1    1    2    0    0 -0.18198593705E+02  0.12186962538E+01 -0.42428961083E+01  0.18726350439E+02  0.00000000000E+00 0. -1.
         11    1    3    3    0    0 -0.42924740154E+00 -0.19944924405E+02 -0.54554174058E+01  0.20682017363E+02  0.51100000000E-03 0. -1.
        -11    1    3    3    0    0  0.62718161479E+01  0.30109668409E+02  0.14923572301E+02  0.34185388984E+02  0.51100000000E-03 0.  1.
        -12    1    3    3    0    0  0.12356024958E+02 -0.11383440258E+02 -0.52252587873E+01  0.17594243214E+02  0.00000000000E+00 0.  1.
</event>
<event>
 7    1  0.1339094E-013  0.7246157E+02  0.7816164E-02  0.1226708E+00
        -11   -1    0    0    0    0  0.00000000000E+00  0.00000000000E+00  0.45593999997E+02  0.45594000000E+02  0.51100000000E-03 0.  1.
         11   -1    0    0    0    0 -0.00000000000E+00 -0.00000000000E+00 -0.45593999997E+02  0.45594000000E+02  0.51100000000E-03 0. -1.
    9900012    2    1    2    0    0 -0.13058713026E+02  0.13353937935E+02  0.13496901242E+01  0.72461566605E+02  0.69999995194E+02 0.  0.
         12    1    1    2    0    0  0.13058713026E+02 -0.13353937935E+02 -0.13496901242E+01  0.18726433395E+02  0.00000000000E+00 0. -1.
         11    1    3    3    0    0 -0.50651248969E+00 -0.14430750085E+02  0.95330068669E+00  0.14471070637E+02  0.51100000000E-03 0. -1.
        -11    1    3    3    0    0 -0.25483091466E+02  0.34255761673E+02 -0.39881845099E+01  0.42880657346E+02  0.51100000000E-03 0.  1.
        -12    1    3    3    0    0  0.12930890930E+02 -0.64710736531E+01  0.43845739474E+01  0.15109838622E+02  0.00000000000E+00 0.  1.
</event>
<event>
 7    1  0.1339094E-013  0.7246168E+02  0.7816164E-02  0.1226708E+00
        -11   -1    0    0    0    0  0.00000000000E+00  0.00000000000E+00  0.45593999997E+02  0.45594000000E+02  0.51100000000E-03 0. -1.
         11   -1    0    0    0    0 -0.00000000000E+00 -0.00000000000E+00 -0.45593999997E+02  0.45594000000E+02  0.51100000000E-03 0.  1.
    9900012    2    1    2    0    0 -0.46383784561E+01 -0.15476930117E+02 -0.94670570616E+01  0.72461679220E+02  0.70000141896E+02 0.  0.
         12    1    1    2    0    0  0.46383784561E+01  0.15476930117E+02  0.94670570616E+01  0.18726320780E+02  0.00000000000E+00 0. -1.
         11    1    3    3    0    0  0.12167793493E+02 -0.38641736411E+02 -0.96119041568E+01  0.41636854986E+02  0.51100000000E-03 0. -1.
        -11    1    3    3    0    0 -0.78674614927E+01  0.25842765272E+01  0.11713901665E+01  0.83634676236E+01  0.51100000000E-03 0.  1.
         12    1    3    3    0    0 -0.89387104564E+01  0.20580529767E+02 -0.10265430714E+01  0.22461356610E+02  0.00000000000E+00 0. -1.
</event>
<event>
 7    1  0.1339094E-013  0.7246171E+02  0.7816164E-02  0.1226708E+00
        -11   -1    0    0    0    0  0.00000000000E+00  0.00000000000E+00  0.45593999997E+02  0.45594000000E+02  0.51100000000E-03 0.  1.
         11   -1    0    0    0    0 -0.00000000000E+00 -0.00000000000E+00 -0.45593999997E+02  0.45594000000E+02  0.51100000000E-03 0. -1.
    9900012    2    1    2    0    0  0.96096147143E+01 -0.49486690651E+01  0.15291826154E+02  0.72461709187E+02  0.70000180933E+02 0.  0.
         12    1    1    2    0    0 -0.96096147143E+01  0.49486690651E+01 -0.15291826154E+02  0.18726290813E+02  0.00000000000E+00 0. -1.
         11    1    3    3    0    0 -0.12041531422E+02 -0.16487454610E+02  0.17858682275E+02  0.27125028504E+02  0.51100000000E-03 0. -1.
        -11    1    3    3    0    0  0.24931844682E+02  0.32296247334E+01 -0.15562145946E+02  0.29567004276E+02  0.51100000000E-03 0.  1.
         12    1    3    3    0    0 -0.32806985461E+01  0.83091608114E+01  0.12995289825E+02  0.15769676407E+02  0.00000000000E+00 0. -1.
</event>
<event>
 7    1  0.1339094E-013  0.7246156E+02  0.7816164E-02  0.1226708E+00
        -11   -1    0    0    0    0  0.00000000000E+00  0.00000000000E+00  0.45593999997E+02  0.45594000000E+02  0.51100000000E-03 0.  1.
         11   -1    0    0    0    0 -0.00000000000E+00 -0.00000000000E+00 -0.45593999997E+02  0.45594000000E+02  0.51100000000E-03 0. -1.
    9900012    2    1    2    0    0 -0.60824750461E+01  0.17695555793E+02 -0.74173884739E+00  0.72461564834E+02  0.69999992887E+02 0.  0.
         12    1    1    2    0    0  0.60824750461E+01 -0.17695555793E+02  0.74173884739E+00  0.18726435166E+02  0.00000000000E+00 0. -1.
         11    1    3    3    0    0  0.33320013383E+00  0.10886764300E+02  0.23191787964E+02  0.25622093757E+02  0.51100000000E-03 0. -1.
        -11    1    3    3    0    0 -0.21379271290E+02  0.10810155884E+02 -0.98436174636E+01  0.25900376757E+02  0.51100000000E-03 0.  1.
         12    1    3    3    0    0  0.14963596110E+02 -0.40013643910E+01 -0.14089909348E+02  0.20939094320E+02  0.00000000000E+00 0. -1.
</event>
<event>
 7    1  0.1339094E-013  0.7246167E+02  0.7816164E-02  0.1226708E+00
        -11   -1    0    0    0    0  0.00000000000E+00  0.00000000000E+00  0.45593999997E+02  0.45594000000E+02  0.51100000000E-03 0. -1.
         11   -1    0    0    0    0 -0.00000000000E+00 -0.00000000000E+00 -0.45593999997E+02  0.45594000000E+02  0.51100000000E-03 0.  1.
    9900012    2    1    2    0    0 -0.26340596253E+01 -0.31417201458E+01 -0.18272025630E+02  0.72461665703E+02  0.70000124287E+02 0.  0.
         12    1    1    2    0    0  0.26340596253E+01  0.31417201458E+01  0.18272025630E+02  0.18726334297E+02  0.00000000000E+00 0. -1.
         11    1    3    3    0    0  0.98013370611E+01 -0.87401164748E+01  0.22307525541E+02  0.25885933250E+02  0.51100000000E-03 0. -1.
        -11    1    3    3    0    0 -0.47389769352E+01  0.11032368310E+02 -0.30501293120E+02  0.32779565818E+02  0.51100000000E-03 0.  1.
         12    1    3    3    0    0 -0.76964197512E+01 -0.54339719815E+01 -0.10078258051E+02  0.13796166635E+02  0.00000000000E+00 0. -1.
</event>
<event>
 7    1  0.1339094E-013  0.7246159E+02  0.7816164E-02  0.1226708E+00
        -11   -1    0    0    0    0  0.00000000000E+00  0.00000000000E+00  0.45593999997E+02  0.45594000000E+02  0.51100000000E-03 0.  1.
         11   -1    0    0    0    0 -0.00000000000E+00 -0.00000000000E+00 -0.45593999997E+02  0.45594000000E+02  0.51100000000E-03 0. -1.
    9900012    2    1    2    0    0  0.14942509164E+02 -0.98610432063E+01 -0.54917919762E+01  0.72461587307E+02  0.70000022162E+02 0.  0.
         12    1    1    2    0    0 -0.14942509164E+02  0.98610432063E+01  0.54917919762E+01  0.18726412693E+02  0.00000000000E+00 0. -1.
         11    1    3    3    0    0  0.93541828839E+01 -0.94010724379E+01 -0.16409170810E+02  0.21098383524E+02  0.51100000000E-03 0. -1.
        -11    1    3    3    0    0 -0.62202473447E+01 -0.14953468503E+02  0.23707723895E+02  0.28711563347E+02  0.51100000000E-03 0.  1.
        -12    1    3    3    0    0  0.11808573625E+02  0.14493497735E+02 -0.12790345061E+02  0.22651640436E+02  0.00000000000E+00 0.  1.
</event>
<event>
 7    1  0.1339094E-013  0.7246160E+02  0.7816164E-02  0.1226708E+00
        -11   -1    0    0    0    0  0.00000000000E+00  0.00000000000E+00  0.45593999997E+02  0.45594000000E+02  0.51100000000E-03 0. -1.
         11   -1    0    0    0    0 -0.00000000000E+00 -0.00000000000E+00 -0.45593999997E+02  0.45594000000E+02  0.51100000000E-03 0.  1.
    9900012    2    1    2    0    0  0.18489823742E+02 -0.25976197287E+01  0.14341819374E+01  0.72461599169E+02  0.70000037614E+02 0.  0.
         12    1    1    2    0    0 -0.18489823742E+02  0.25976197287E+01 -0.14341819374E+01  0.18726400831E+02  0.00000000000E+00 0. -1.
         11    1    3    3    0    0 -0.77987897418E+01 -0.79916625278E+01 -0.22063169621E+02  0.24727944625E+02  0.51100000000E-03 0.  1.
        -11    1    3    3    0    0  0.27814324964E+02 -0.14768748739E+01  0.27906552243E+02  0.39428333606E+02  0.51100000000E-03 0. -1.
         12    1    3    3    0    0 -0.15257114805E+01  0.68709176731E+01 -0.44092006848E+01  0.83053209372E+01  0.00000000000E+00 0. -1.
</event>
<event>
 7    1  0.1339094E-013  0.7246156E+02  0.7816164E-02  0.1226708E+00
        -11   -1    0    0    0    0  0.00000000000E+00  0.00000000000E+00  0.45593999997E+02  0.45594000000E+02  0.51100000000E-03 0.  1.
         11   -1    0    0    0    0 -0.00000000000E+00 -0.00000000000E+00 -0.45593999997E+02  0.45594000000E+02  0.51100000000E-03 0. -1.
    9900012    2    1    2    0    0  0.11920026894E+02  0.11275265319E+02  0.90255683394E+01  0.72461560590E+02  0.69999987358E+02 0.  0.
         12    1    1    2    0    0 -0.11920026894E+02 -0.11275265319E+02 -0.90255683394E+01  0.18726439410E+02  0.00000000000E+00 0. -1.
         11    1    3    3    0    0 -0.20380085072E+01  0.77118756667E+01 -0.24678279731E+02  0.25935381156E+02  0.51100000000E-03 0. -1.
        -11    1    3    3    0    0  0.18895332794E+02 -0.17406059378E+01  0.94212976565E+01  0.21185470498E+02  0.51100000000E-03 0.  1.
         12    1    3    3    0    0 -0.49372973929E+01  0.53039955897E+01  0.24282550414E+02  0.25340708936E+02  0.00000000000E+00 0. -1.
</event>
<event>
 7    1  0.1339094E-013  0.7246157E+02  0.7816164E-02  0.1226708E+00
        -11   -1    0    0    0    0  0.00000000000E+00  0.00000000000E+00  0.45593999997E+02  0.45594000000E+02  0.51100000000E-03 0.  1.
         11   -1    0    0    0    0 -0.00000000000E+00 -0.00000000000E+00 -0.45593999997E+02  0.45594000000E+02  0.51100000000E-03 0. -1.
    9900012    2    1    2    0    0 -0.16694684041E+02 -0.38029958293E+01 -0.75831303386E+01  0.72461571664E+02  0.70000001784E+02 0.  0.
         12    1    1    2    0    0  0.16694684041E+02  0.38029958293E+01  0.75831303386E+01  0.18726428336E+02  0.00000000000E+00 0. -1.
         11    1    3    3    0    0 -0.11924853424E+02 -0.17778602162E+02 -0.26243027088E+02  0.33867053238E+02  0.51100000000E-03 0. -1.
        -11    1    3    3    0    0 -0.64956069803E+01  0.51226580914E+01  0.25798126882E+02  0.27092026260E+02  0.51100000000E-03 0.  1.
        -12    1    3    3    0    0  0.17257763633E+01  0.88529482407E+01 -0.71382301328E+01  0.11502492166E+02  0.00000000000E+00 0.  1.
</event>
<event>
 7    1  0.1339094E-013  0.7246163E+02  0.7816164E-02  0.1226708E+00
        -11   -1    0    0    0    0  0.00000000000E+00  0.00000000000E+00  0.45593999997E+02  0.45594000000E+02  0.51100000000E-03 0. -1.
         11   -1    0    0    0    0 -0.00000000000E+00 -0.00000000000E+00 -0.45593999997E+02  0.45594000000E+02  0.51100000000E-03 0.  1.
    9900012    2    1    2    0    0 -0.21881912019E+01  0.50578240678E+01 -0.17897124443E+02  0.72461632804E+02  0.70000081430E+02 0.  0.
         12    1    1    2    0    0  0.21881912019E+01 -0.50578240678E+01  0.17897124443E+02  0.18726367196E+02  0.00000000000E+00 0. -1.
         11    1    3    3    0    0 -0.12208351937E+02 -0.12465965337E+02  0.16586358344E+02  0.24073874473E+02  0.51100000000E-03 0. -1.
        -11    1    3    3    0    0 -0.16775383601E+00  0.10614793046E+02 -0.34480818995E+02  0.36078093791E+02  0.51100000000E-03 0.  1.
        -12    1    3    3    0    0  0.10187914571E+02  0.69089963589E+01 -0.26637920337E-02  0.12309664540E+02  0.00000000000E+00 0.  1.
</event>
<event>
 7    1  0.1339094E-013  0.7246154E+02  0.7816164E-02  0.1226708E+00
        -11   -1    0    0    0    0  0.00000000000E+00  0.00000000000E+00  0.45593999997E+02  0.45594000000E+02  0.51100000000E-03 0.  1.
         11   -1    0    0    0    0 -0.00000000000E+00 -0.00000000000E+00 -0.45593999997E+02  0.45594000000E+02  0.51100000000E-03 0. -1.
    9900012    2    1    2    0    0  0.11922397558E+02  0.13232666391E+02  0.57821434259E+01  0.72461542622E+02  0.69999963952E+02 0.  0.
         12    1    1    2    0    0 -0.11922397558E+02 -0.13232666391E+02 -0.57821434259E+01  0.18726457378E+02  0.00000000000E+00 0. -1.
         11    1    3    3    0    0  0.16312692311E+02  0.31111716302E+02  0.83822511873E+01  0.36115162424E+02  0.51100000000E-03 0. -1.
        -11    1    3    3    0    0  0.99205215327E+01 -0.19455914841E+02 -0.21059377769E+01  0.21940472738E+02  0.51100000000E-03 0.  1.
         12    1    3    3    0    0 -0.14310816286E+02  0.15768649293E+01 -0.49416998443E+00  0.14405907460E+02  0.00000000000E+00 0. -1.
</event>
<event>
 7    1  0.1339094E-013  0.7246157E+02  0.7816164E-02  0.1226708E+00
        -11   -1    0    0    0    0  0.00000000000E+00  0.00000000000E+00  0.45593999997E+02  0.45594000000E+02  0.51100000000E-03 0. -1.
         11   -1    0    0    0    0 -0.00000000000E+00 -0.00000000000E+00 -0.45593999997E+02  0.45594000000E+02  0.51100000000E-03 0.  1.
    9900012    2    1    2    0    0 -0.67114131520E+00  0.64363087387E+01 -0.17572784530E+02  0.72461567959E+02  0.69999996958E+02 0.  0.
         12    1    1    2    0    0  0.67114131520E+00 -0.64363087387E+01  0.17572784530E+02  0.18726432041E+02  0.00000000000E+00 0. -1.
         11    1    3    3    0    0 -0.10851261222E+02  0.32804956634E+02 -0.98359056748E+01  0.35925758037E+02  0.51100000000E-03 0. -1.
        -11    1    3    3    0    0 -0.56937329972E+01 -0.14349422337E+02 -0.82642517502E+00  0.15459867259E+02  0.51100000000E-03 0.  1.
         12    1    3    3    0    0  0.15873852904E+02 -0.12019225558E+02 -0.69104536802E+01  0.21075942662E+02  0.00000000000E+00 0. -1.
</event>
<event>
 7    1  0.1339094E-013  0.7246188E+02  0.7816164E-02  0.1226707E+00
        -11   -1    0    0    0    0  0.00000000000E+00  0.00000000000E+00  0.45593999997E+02  0.45594000000E+02  0.51100000000E-03 0.  1.
         11   -1    0    0    0    0 -0.00000000000E+00 -0.00000000000E+00 -0.45593999997E+02  0.45594000000E+02  0.51100000000E-03 0. -1.
    9900012    2    1    2    0    0 -0.60827856128E+01  0.15479827345E+02  0.86047699867E+01  0.72461884494E+02  0.70000409302E+02 0.  0.
         12    1    1    2    0    0  0.60827856128E+01 -0.15479827345E+02 -0.86047699867E+01  0.18726115506E+02  0.00000000000E+00 0. -1.
         11    1    3    3    0    0 -0.21992336829E+02 -0.56086164875E+01 -0.78993636775E+01  0.24031633421E+02  0.51100000000E-03 0. -1.
        -11    1    3    3    0    0  0.71253637386E+01  0.77154826356E+01  0.27218355515E+02  0.29174275619E+02  0.51100000000E-03 0.  1.
         12    1    3    3    0    0  0.87841874775E+01  0.13372961197E+02 -0.10714221851E+02  0.19255975454E+02  0.00000000000E+00 0. -1.
</event>
<event>
 7    1  0.1339094E-013  0.7246162E+02  0.7816164E-02  0.1226708E+00
        -11   -1    0    0    0    0  0.00000000000E+00  0.00000000000E+00  0.45593999997E+02  0.45594000000E+02  0.51100000000E-03 0.  1.
         11   -1    0    0    0    0 -0.00000000000E+00 -0.00000000000E+00 -0.45593999997E+02  0.45594000000E+02  0.51100000000E-03 0. -1.
    9900012    2    1    2    0    0  0.18211580969E+02  0.17832743027E+01  0.39793697127E+01  0.72461624698E+02  0.70000070871E+02 0.  0.
         12    1    1    2    0    0 -0.18211580969E+02 -0.17832743027E+01 -0.39793697127E+01  0.18726375302E+02  0.00000000000E+00 0. -1.
         11    1    3    3    0    0  0.11729218973E+02 -0.11908418984E+02  0.14306090291E+02  0.22001119064E+02  0.51100000000E-03 0. -1.
        -11    1    3    3    0    0 -0.12903437203E+02  0.21746418381E+02  0.31987679932E+01  0.25487987779E+02  0.51100000000E-03 0.  1.
        -12    1    3    3    0    0  0.19385799199E+02 -0.80547250943E+01 -0.13525488571E+02  0.24972517855E+02  0.00000000000E+00 0.  1.
</event>
<event>
 7    1  0.1339094E-013  0.7246158E+02  0.7816164E-02  0.1226708E+00
        -11   -1    0    0    0    0  0.00000000000E+00  0.00000000000E+00  0.45593999997E+02  0.45594000000E+02  0.51100000000E-03 0.  1.
         11   -1    0    0    0    0 -0.00000000000E+00 -0.00000000000E+00 -0.45593999997E+02  0.45594000000E+02  0.51100000000E-03 0. -1.
    9900012    2    1    2    0    0 -0.60520824030E+01 -0.80535298858E+01  0.15785811565E+02  0.72461577709E+02  0.70000009659E+02 0.  0.
         12    1    1    2    0    0  0.60520824030E+01  0.80535298858E+01 -0.15785811565E+02  0.18726422291E+02  0.00000000000E+00 0. -1.
         11    1    3    3    0    0 -0.10375471074E+02  0.75281828905E+01 -0.33354708592E+01  0.13245727754E+02  0.51100000000E-03 0. -1.
        -11    1    3    3    0    0  0.13215996455E+02  0.86316283175E+01  0.27826473326E+02  0.31991876902E+02  0.51100000000E-03 0.  1.
        -12    1    3    3    0    0 -0.88926077845E+01 -0.24213341094E+02 -0.87051909013E+01  0.27223973052E+02  0.00000000000E+00 0.  1.
</event>
<event>
 8    1  0.1339094E-013  0.7246136E+02  0.7816164E-02  0.1226709E+00
        -11   -1    0    0    0    0  0.00000000000E+00  0.00000000000E+00  0.45593999997E+02  0.45594000000E+02  0.51100000000E-03 0. -1.
         11   -1    0    0    0    0 -0.00000000000E+00 -0.00000000000E+00 -0.45593999997E+02  0.45594000000E+02  0.51100000000E-03 0.  1.
    9900012    2    1    2    0    0  0.89646964467E+01 -0.14518740860E+02 -0.77153941897E+01  0.72461363194E+02  0.69999730213E+02 0.  0.
         24    2    3    3    0    0  0.93094428088E+01 -0.79267807740E+01  0.10133339297E+02  0.53431122125E+02  0.51016670485E+02 0.  0.
         12    1    1    2    0    0 -0.89646964467E+01  0.14518740860E+02  0.77153941897E+01  0.18726636806E+02  0.00000000000E+00 0. -1.
         11    1    3    3    0    0 -0.34474636212E+00 -0.65919600863E+01 -0.17848733486E+02  0.19030241070E+02  0.51100000000E-03 0.  1.
        -11    1    4    4    0    0  0.15553236586E+02  0.17713085943E+02  0.12944440348E+02  0.26892659186E+02  0.51100000000E-03 0. -1.
         12    1    4    4    0    0 -0.62437937772E+01 -0.25639866717E+02 -0.28111010509E+01  0.26538462938E+02  0.00000000000E+00 0. -1.
</event>
<event>
 7    1  0.1339094E-013  0.7246156E+02  0.7816164E-02  0.1226708E+00
        -11   -1    0    0    0    0  0.00000000000E+00  0.00000000000E+00  0.45593999997E+02  0.45594000000E+02  0.51100000000E-03 0.  1.
         11   -1    0    0    0    0 -0.00000000000E+00 -0.00000000000E+00 -0.45593999997E+02  0.45594000000E+02  0.51100000000E-03 0. -1.
    9900012    2    1    2    0    0 -0.59332848220E+01 -0.10447493881E+02  0.14364037664E+02  0.72461559463E+02  0.69999985890E+02 0.  0.
         12    1    1    2    0    0  0.59332848220E+01  0.10447493881E+02 -0.14364037664E+02  0.18726440537E+02  0.00000000000E+00 0. -1.
         11    1    3    3    0    0  0.12389742287E+02 -0.10624689123E+02  0.90526295583E+01  0.18663864420E+02  0.51100000000E-03 0. -1.
        -11    1    3    3    0    0 -0.32789480989E+02 -0.29902860497E+01  0.14916019299E+02  0.36146638934E+02  0.51100000000E-03 0.  1.
        -12    1    3    3    0    0  0.14466453881E+02  0.31674812914E+01 -0.96046111936E+01  0.17651056110E+02  0.00000000000E+00 0.  1.
</event>
<event>
 7    1  0.1339094E-013  0.7246156E+02  0.7816164E-02  0.1226708E+00
        -11   -1    0    0    0    0  0.00000000000E+00  0.00000000000E+00  0.45593999997E+02  0.45594000000E+02  0.51100000000E-03 0.  1.
         11   -1    0    0    0    0 -0.00000000000E+00 -0.00000000000E+00 -0.45593999997E+02  0.45594000000E+02  0.51100000000E-03 0. -1.
    9900012    2    1    2    0    0  0.67124372762E+01  0.62878326489E+01  0.16312144151E+02  0.72461556119E+02  0.69999981534E+02 0.  0.
         12    1    1    2    0    0 -0.67124372762E+01 -0.62878326489E+01 -0.16312144151E+02  0.18726443881E+02  0.00000000000E+00 0. -1.
         11    1    3    3    0    0  0.15796806158E+02  0.75724489739E+01  0.31725302455E+02  0.36240528202E+02  0.51100000000E-03 0. -1.
        -11    1    3    3    0    0  0.86852025271E+01 -0.97623736413E+01 -0.54856798708E+01  0.14171427802E+02  0.51100000000E-03 0.  1.
         12    1    3    3    0    0 -0.17769571409E+02  0.84777573164E+01 -0.99274784323E+01  0.22049600115E+02  0.00000000000E+00 0. -1.
</event>
<event>
 7    1  0.1339094E-013  0.7246160E+02  0.7816164E-02  0.1226708E+00
        -11   -1    0    0    0    0  0.00000000000E+00  0.00000000000E+00  0.45593999997E+02  0.45594000000E+02  0.51100000000E-03 0. -1.
         11   -1    0    0    0    0 -0.00000000000E+00 -0.00000000000E+00 -0.45593999997E+02  0.45594000000E+02  0.51100000000E-03 0.  1.
    9900012    2    1    2    0    0 -0.11707561871E+02  0.14608951135E+02 -0.43525956279E+00  0.72461603947E+02  0.70000043839E+02 0.  0.
         12    1    1    2    0    0  0.11707561871E+02 -0.14608951135E+02  0.43525956279E+00  0.18726396053E+02  0.00000000000E+00 0. -1.
         11    1    3    3    0    0  0.22588140513E+02  0.11232406347E+02  0.17791301256E+02  0.30869425728E+02  0.51100000000E-03 0. -1.
        -11    1    3    3    0    0 -0.15382870454E+02  0.67972718515E+01 -0.30254562097E+01  0.17087685436E+02  0.51100000000E-03 0.  1.
         12    1    3    3    0    0 -0.18912831929E+02 -0.34207270629E+01 -0.15201104609E+02  0.24504492783E+02  0.00000000000E+00 0. -1.
</event>
<event>
 7    1  0.1339094E-013  0.7246140E+02  0.7816164E-02  0.1226708E+00
        -11   -1    0    0    0    0  0.00000000000E+00  0.00000000000E+00  0.45593999997E+02  0.45594000000E+02  0.51100000000E-03 0.  1.
         11   -1    0    0    0    0 -0.00000000000E+00 -0.00000000000E+00 -0.45593999997E+02  0.45594000000E+02  0.51100000000E-03 0. -1.
    9900012    2    1    2    0    0 -0.10011728767E+02 -0.31307172588E+00  0.15822539914E+02  0.72461401373E+02  0.69999779948E+02 0.  0.
         12    1    1    2    0    0  0.10011728767E+02  0.31307172588E+00 -0.15822539914E+02  0.18726598627E+02  0.00000000000E+00 0. -1.
         11    1    3    3    0    0  0.96738192197E+01 -0.41624880863E+00 -0.21224612047E+02  0.23328956217E+02  0.51100000000E-03 0. -1.
        -11    1    3    3    0    0 -0.13288673234E+02  0.12549084334E+02  0.20769036528E+02  0.27666247171E+02  0.51100000000E-03 0.  1.
        -12    1    3    3    0    0 -0.63968747527E+01 -0.12445907251E+02  0.16278115433E+02  0.21466197985E+02  0.00000000000E+00 0.  1.
</event>
<event>
 7    1  0.1339094E-013  0.7246165E+02  0.7816164E-02  0.1226708E+00
        -11   -1    0    0    0    0  0.00000000000E+00  0.00000000000E+00  0.45593999997E+02  0.45594000000E+02  0.51100000000E-03 0. -1.
         11   -1    0    0    0    0 -0.00000000000E+00 -0.00000000000E+00 -0.45593999997E+02  0.45594000000E+02  0.51100000000E-03 0.  1.
    9900012    2    1    2    0    0 -0.93631438350E+00  0.10471144692E+02  0.15496922714E+02  0.72461650399E+02  0.70000104351E+02 0.  0.
         12    1    1    2    0    0  0.93631438350E+00 -0.10471144692E+02 -0.15496922714E+02  0.18726349601E+02  0.00000000000E+00 0. -1.
         11    1    3    3    0    0 -0.18343431020E+02 -0.13209769609E+02  0.12648617345E+02  0.25903030627E+02  0.51100000000E-03 0. -1.
        -11    1    3    3    0    0  0.85819777300E+01  0.12751501566E+02 -0.16563920156E+02  0.22596782628E+02  0.51100000000E-03 0.  1.
         12    1    3    3    0    0  0.88251389062E+01  0.10929412735E+02  0.19412225525E+02  0.23961837143E+02  0.00000000000E+00 0. -1.
</event>
<event>
 7    1  0.1339094E-013  0.7246161E+02  0.7816164E-02  0.1226708E+00
        -11   -1    0    0    0    0  0.00000000000E+00  0.00000000000E+00  0.45593999997E+02  0.45594000000E+02  0.51100000000E-03 0. -1.
         11   -1    0    0    0    0 -0.00000000000E+00 -0.00000000000E+00 -0.45593999997E+02  0.45594000000E+02  0.51100000000E-03 0.  1.
    9900012    2    1    2    0    0  0.17878201551E+02  0.92040073915E+00  0.54954967008E+01  0.72461609205E+02  0.70000050688E+02 0.  0.
         12    1    1    2    0    0 -0.17878201551E+02 -0.92040073915E+00 -0.54954967008E+01  0.18726390795E+02  0.00000000000E+00 0. -1.
         11    1    3    3    0    0 -0.57848941964E+01 -0.69105649374E+01  0.47594760018E+01  0.10191835982E+02  0.51100000000E-03 0. -1.
        -11    1    3    3    0    0  0.14967775204E+02  0.31934323067E+02  0.68488470055E+01  0.35926897861E+02  0.51100000000E-03 0.  1.
        -12    1    3    3    0    0  0.86953205441E+01 -0.24103357391E+02 -0.61128263065E+01  0.26342875362E+02  0.00000000000E+00 0.  1.
</event>
<event>
 7    1  0.1339094E-013  0.7246159E+02  0.7816164E-02  0.1226708E+00
        -11   -1    0    0    0    0  0.00000000000E+00  0.00000000000E+00  0.45593999997E+02  0.45594000000E+02  0.51100000000E-03 0. -1.
         11   -1    0    0    0    0 -0.00000000000E+00 -0.00000000000E+00 -0.45593999997E+02  0.45594000000E+02  0.51100000000E-03 0.  1.
    9900012    2    1    2    0    0 -0.18559654909E+02  0.10773011895E+01 -0.22488279277E+01  0.72461585628E+02  0.70000019974E+02 0.  0.
         12    1    1    2    0    0  0.18559654909E+02 -0.10773011895E+01  0.22488279277E+01  0.18726414372E+02  0.00000000000E+00 0. -1.
         11    1    3    3    0    0 -0.62103778811E+01 -0.24871796234E+01  0.85247575997E+01  0.10836343862E+02  0.51100000000E-03 0. -1.
        -11    1    3    3    0    0 -0.64284138407E+01  0.86394424533E+01 -0.34766908068E+02  0.36396460917E+02  0.51100000000E-03 0.  1.
        -12    1    3    3    0    0 -0.59208631874E+01 -0.50749616403E+01  0.23993322541E+02  0.25228780848E+02  0.00000000000E+00 0.  1.
</event>
<event>
 7    1  0.1339094E-013  0.7246166E+02  0.7816164E-02  0.1226708E+00
        -11   -1    0    0    0    0  0.00000000000E+00  0.00000000000E+00  0.45593999997E+02  0.45594000000E+02  0.51100000000E-03 0.  1.
         11   -1    0    0    0    0 -0.00000000000E+00 -0.00000000000E+00 -0.45593999997E+02  0.45594000000E+02  0.51100000000E-03 0. -1.
    9900012    2    1    2    0    0  0.14622120283E+02 -0.83783800294E+01 -0.81652938657E+01  0.72461663535E+02  0.70000121464E+02 0.  0.
         12    1    1    2    0    0 -0.14622120283E+02  0.83783800294E+01  0.81652938657E+01  0.18726336465E+02  0.00000000000E+00 0. -1.
         11    1    3    3    0    0 -0.86441090295E+01 -0.11388910664E+00 -0.32061371076E+02  0.33206401600E+02  0.51100000000E-03 0. -1.
        -11    1    3    3    0    0 -0.10698619871E+01  0.42170593584E+00  0.97092410153E+01  0.97771060096E+01  0.51100000000E-03 0.  1.
         12    1    3    3    0    0  0.24336091299E+02 -0.86861968586E+01  0.14186836195E+02  0.29478155926E+02  0.00000000000E+00 0. -1.
</event>
<event>
 7    1  0.1339094E-013  0.7246160E+02  0.7816164E-02  0.1226708E+00
        -11   -1    0    0    0    0  0.00000000000E+00  0.00000000000E+00  0.45593999997E+02  0.45594000000E+02  0.51100000000E-03 0. -1.
         11   -1    0    0    0    0 -0.00000000000E+00 -0.00000000000E+00 -0.45593999997E+02  0.45594000000E+02  0.51100000000E-03 0.  1.
    9900012    2    1    2    0    0  0.66049265419E+01  0.12201468545E+02 -0.12576855058E+02  0.72461596917E+02  0.70000034681E+02 0.  0.
         12    1    1    2    0    0 -0.66049265419E+01 -0.12201468545E+02  0.12576855058E+02  0.18726403083E+02  0.00000000000E+00 0. -1.
         11    1    3    3    0    0 -0.14971610347E+02  0.23767581561E+02  0.61966252374E+01  0.28765347455E+02  0.51100000000E-03 0. -1.
        -11    1    3    3    0    0  0.13184689393E+01 -0.16518696254E+02 -0.15300012796E+02  0.22554291789E+02  0.51100000000E-03 0.  1.
         12    1    3    3    0    0  0.20258067949E+02  0.49525832381E+01 -0.34734674990E+01  0.21141957673E+02  0.00000000000E+00 0. -1.
</event>
<event>
 7    1  0.1339094E-013  0.7246160E+02  0.7816164E-02  0.1226708E+00
        -11   -1    0    0    0    0  0.00000000000E+00  0.00000000000E+00  0.45593999997E+02  0.45594000000E+02  0.51100000000E-03 0.  1.
         11   -1    0    0    0    0 -0.00000000000E+00 -0.00000000000E+00 -0.45593999997E+02  0.45594000000E+02  0.51100000000E-03 0. -1.
    9900012    2    1    2    0    0 -0.67662688147E+01 -0.11846034457E+02  0.12828376105E+02  0.72461597261E+02  0.70000035129E+02 0.  0.
         12    1    1    2    0    0  0.67662688147E+01  0.11846034457E+02 -0.12828376105E+02  0.18726402739E+02  0.00000000000E+00 0. -1.
         11    1    3    3    0    0 -0.61273800805E+01  0.21827496437E+02 -0.91694597313E+01  0.24455334374E+02  0.51100000000E-03 0. -1.
        -11    1    3    3    0    0 -0.48781251509E+01 -0.20748005102E+02 -0.94414876714E+00  0.21334648763E+02  0.51100000000E-03 0.  1.
         12    1    3    3    0    0  0.42392364167E+01 -0.12925525792E+02  0.22941984604E+02  0.26671614124E+02  0.00000000000E+00 0. -1.
</event>
<event>
 7    1  0.1339094E-013  0.7246157E+02  0.7816164E-02  0.1226708E+00
        -11   -1    0    0    0    0  0.00000000000E+00  0.00000000000E+00  0.45593999997E+02  0.45594000000E+02  0.51100000000E-03 0. -1.
         11   -1    0    0    0    0 -0.00000000000E+00 -0.00000000000E+00 -0.45593999997E+02  0.45594000000E+02  0.51100000000E-03 0.  1.
    9900012    2    1    2    0    0  0.36505020205E+01 -0.17464882115E+02 -0.56860372438E+01  0.72461567028E+02  0.69999995746E+02 0.  0.
         12    1    1    2    0    0 -0.36505020205E+01  0.17464882115E+02  0.56860372438E+01  0.18726432972E+02  0.00000000000E+00 0. -1.
         11    1    3    3    0    0  0.26084730989E+01  0.12519903631E+02  0.19082541521E+02  0.22971624017E+02  0.51100000000E-03 0. -1.
        -11    1    3    3    0    0 -0.87248444926E+01 -0.25336309439E+02 -0.54437343201E+01  0.27343842653E+02  0.51100000000E-03 0.  1.
        -12    1    3    3    0    0  0.97668734142E+01 -0.46484763069E+01 -0.19324844445E+02  0.22146100358E+02  0.00000000000E+00 0.  1.
</event>
<event>
 7    1  0.1339094E-013  0.7246178E+02  0.7816164E-02  0.1226707E+00
        -11   -1    0    0    0    0  0.00000000000E+00  0.00000000000E+00  0.45593999997E+02  0.45594000000E+02  0.51100000000E-03 0.  1.
         11   -1    0    0    0    0 -0.00000000000E+00 -0.00000000000E+00 -0.45593999997E+02  0.45594000000E+02  0.51100000000E-03 0. -1.
    9900012    2    1    2    0    0 -0.65474301409E+01  0.13884298174E+02  0.10725153407E+02  0.72461775265E+02  0.70000267012E+02 0.  0.
         12    1    1    2    0    0  0.65474301409E+01 -0.13884298174E+02 -0.10725153407E+02  0.18726224735E+02  0.00000000000E+00 0. -1.
         11    1    3    3    0    0  0.25084962259E+01 -0.49976622437E+01 -0.26572086701E+02  0.27154096802E+02  0.51100000000E-03 0. -1.
        -11    1    3    3    0    0 -0.19941409390E+01  0.11884010237E+02  0.82435751933E+01  0.14600096905E+02  0.51100000000E-03 0.  1.
         12    1    3    3    0    0 -0.70617854279E+01  0.69979501805E+01  0.29053664915E+02  0.30707581558E+02  0.00000000000E+00 0. -1.
</event>
<event>
 7    1  0.1339094E-013  0.7246155E+02  0.7816164E-02  0.1226708E+00
        -11   -1    0    0    0    0  0.00000000000E+00  0.00000000000E+00  0.45593999997E+02  0.45594000000E+02  0.51100000000E-03 0.  1.
         11   -1    0    0    0    0 -0.00000000000E+00 -0.00000000000E+00 -0.45593999997E+02  0.45594000000E+02  0.51100000000E-03 0. -1.
    9900012    2    1    2    0    0 -0.92841187658E+01 -0.13739199252E+02 -0.87016954169E+01  0.72461549176E+02  0.69999972489E+02 0.  0.
         12    1    1    2    0    0  0.92841187658E+01  0.13739199252E+02  0.87016954169E+01  0.18726450824E+02  0.00000000000E+00 0. -1.
         11    1    3    3    0    0  0.12827183143E+02  0.99782875576E+01  0.21042644717E+02  0.26587511108E+02  0.51100000000E-03 0.  1.
        -11    1    3    3    0    0 -0.23872361537E+02 -0.21981452078E+02 -0.27594029774E+02  0.42596999428E+02  0.51100000000E-03 0. -1.
        -12    1    3    3    0    0  0.17610596281E+01 -0.17360347316E+01 -0.21503103597E+01  0.32770386397E+01  0.00000000000E+00 0.  1.
</event>
<event>
 7    1  0.1339094E-013  0.7246155E+02  0.7816164E-02  0.1226708E+00
        -11   -1    0    0    0    0  0.00000000000E+00  0.00000000000E+00  0.45593999997E+02  0.45594000000E+02  0.51100000000E-03 0.  1.
         11   -1    0    0    0    0 -0.00000000000E+00 -0.00000000000E+00 -0.45593999997E+02  0.45594000000E+02  0.51100000000E-03 0. -1.
    9900012    2    1    2    0    0  0.25427063677E+01  0.12294664981E+02 -0.13894450273E+02  0.72461551029E+02  0.69999974904E+02 0.  0.
         12    1    1    2    0    0 -0.25427063677E+01 -0.12294664981E+02  0.13894450273E+02  0.18726448971E+02  0.00000000000E+00 0. -1.
         11    1    3    3    0    0  0.35701633903E+01 -0.14742220109E+02 -0.11599959399E+02  0.19095501530E+02  0.51100000000E-03 0. -1.
        -11    1    3    3    0    0  0.12709391990E+01  0.91683906182E+01  0.21565796756E+02  0.23468239451E+02  0.51100000000E-03 0.  1.
        -12    1    3    3    0    0 -0.22983962216E+01  0.17868494472E+02 -0.23860287630E+02  0.29897810048E+02  0.00000000000E+00 0.  1.
</event>
<event>
 7    1  0.1339094E-013  0.7246155E+02  0.7816164E-02  0.1226708E+00
        -11   -1    0    0    0    0  0.00000000000E+00  0.00000000000E+00  0.45593999997E+02  0.45594000000E+02  0.51100000000E-03 0. -1.
         11   -1    0    0    0    0 -0.00000000000E+00 -0.00000000000E+00 -0.45593999997E+02  0.45594000000E+02  0.51100000000E-03 0.  1.
    9900012    2    1    2    0    0  0.28592772996E+01  0.33123928392E+01 -0.18208035820E+02  0.72461548617E+02  0.69999971761E+02 0.  0.
         12    1    1    2    0    0 -0.28592772996E+01 -0.33123928392E+01  0.18208035820E+02  0.18726451383E+02  0.00000000000E+00 0. -1.
         11    1    3    3    0    0 -0.10539758331E+02 -0.26207939595E+02 -0.11600691816E+02  0.30537168407E+02  0.51100000000E-03 0. -1.
        -11    1    3    3    0    0 -0.76479787914E+01  0.66472656050E+01 -0.33440144997E+01  0.10670527300E+02  0.51100000000E-03 0.  1.
         12    1    3    3    0    0  0.21047014422E+02  0.22873066829E+02 -0.32633295043E+01  0.31253852910E+02  0.00000000000E+00 0. -1.
</event>
<event>
 7    1  0.1339094E-013  0.7246156E+02  0.7816164E-02  0.1226708E+00
        -11   -1    0    0    0    0  0.00000000000E+00  0.00000000000E+00  0.45593999997E+02  0.45594000000E+02  0.51100000000E-03 0. -1.
         11   -1    0    0    0    0 -0.00000000000E+00 -0.00000000000E+00 -0.45593999997E+02  0.45594000000E+02  0.51100000000E-03 0.  1.
    9900012    2    1    2    0    0  0.13412829897E+01 -0.18468586667E+02 -0.27913964665E+01  0.72461558059E+02  0.69999984061E+02 0.  0.
         12    1    1    2    0    0 -0.13412829897E+01  0.18468586667E+02  0.27913964665E+01  0.18726441941E+02  0.00000000000E+00 0. -1.
         11    1    3    3    0    0  0.81515138234E+01 -0.28154400846E+02  0.16331622185E+02  0.33553529592E+02  0.51100000000E-03 0. -1.
        -11    1    3    3    0    0  0.82977794438E+01  0.87379880446E+01 -0.20424730081E+02  0.23714450825E+02  0.51100000000E-03 0.  1.
         12    1    3    3    0    0 -0.15108010278E+02  0.94782613432E+00  0.13017114302E+01  0.15193577642E+02  0.00000000000E+00 0. -1.
</event>
<event>
 7    1  0.1339094E-013  0.7246170E+02  0.7816164E-02  0.1226708E+00
        -11   -1    0    0    0    0  0.00000000000E+00  0.00000000000E+00  0.45593999997E+02  0.45594000000E+02  0.51100000000E-03 0. -1.
         11   -1    0    0    0    0 -0.00000000000E+00 -0.00000000000E+00 -0.45593999997E+02  0.45594000000E+02  0.51100000000E-03 0.  1.
    9900012    2    1    2    0    0 -0.11998257304E+02 -0.76135059839E+01 -0.12196339411E+02  0.72461699065E+02  0.70000167747E+02 0.  0.
         12    1    1    2    0    0  0.11998257304E+02  0.76135059839E+01  0.12196339411E+02  0.18726300935E+02  0.00000000000E+00 0. -1.
         11    1    3    3    0    0 -0.23878045177E+02  0.40991938180E+01  0.13411732445E+02  0.27691857989E+02  0.51100000000E-03 0. -1.
        -11    1    3    3    0    0  0.12849009376E+02 -0.18898640611E+02 -0.56579969870E+01  0.23542909528E+02  0.51100000000E-03 0.  1.
        -12    1    3    3    0    0 -0.96922150237E+00  0.71859408090E+01 -0.19950074869E+02  0.21226931548E+02  0.00000000000E+00 0.  1.
</event>
<event>
 7    1  0.1339094E-013  0.7246156E+02  0.7816164E-02  0.1226708E+00
        -11   -1    0    0    0    0  0.00000000000E+00  0.00000000000E+00  0.45593999997E+02  0.45594000000E+02  0.51100000000E-03 0.  1.
         11   -1    0    0    0    0 -0.00000000000E+00 -0.00000000000E+00 -0.45593999997E+02  0.45594000000E+02  0.51100000000E-03 0. -1.
    9900012    2    1    2    0    0  0.17863216472E+02  0.71624151627E+00  0.55742245494E+01  0.72461561899E+02  0.69999989063E+02 0.  0.
         12    1    1    2    0    0 -0.17863216472E+02 -0.71624151627E+00 -0.55742245494E+01  0.18726438101E+02  0.00000000000E+00 0. -1.
         11    1    3    3    0    0  0.23777142023E+02  0.11805782997E+02 -0.12816683988E+02  0.29478744608E+02  0.51100000000E-03 0. -1.
        -11    1    3    3    0    0  0.36905828024E+01 -0.19411398565E+02  0.22196362501E+02  0.29717020446E+02  0.51100000000E-03 0.  1.
         12    1    3    3    0    0 -0.96045083534E+01  0.83218570850E+01 -0.38054539627E+01  0.13265796844E+02  0.00000000000E+00 0. -1.
</event>
<event>
 7    1  0.1339094E-013  0.7246159E+02  0.7816164E-02  0.1226708E+00
        -11   -1    0    0    0    0  0.00000000000E+00  0.00000000000E+00  0.45593999997E+02  0.45594000000E+02  0.51100000000E-03 0. -1.
         11   -1    0    0    0    0 -0.00000000000E+00 -0.00000000000E+00 -0.45593999997E+02  0.45594000000E+02  0.51100000000E-03 0.  1.
    9900012    2    1    2    0    0  0.18057143690E+02 -0.43606521525E+01 -0.23669686307E+01  0.72461594421E+02  0.70000031429E+02 0.  0.
         12    1    1    2    0    0 -0.18057143690E+02  0.43606521525E+01  0.23669686307E+01  0.18726405579E+02  0.00000000000E+00 0. -1.
         11    1    3    3    0    0  0.24077070383E+02  0.19793655619E+02  0.92776935797E+01  0.32520297038E+02  0.51100000000E-03 0. -1.
        -11    1    3    3    0    0  0.71158198321E+01 -0.23977618318E+02 -0.65837499454E+01  0.25863233280E+02  0.51100000000E-03 0.  1.
         12    1    3    3    0    0 -0.13135746525E+02 -0.17668945359E+00 -0.50609122651E+01  0.14078064103E+02  0.00000000000E+00 0. -1.
</event>
<event>
 7    1  0.1339094E-013  0.7246157E+02  0.7816164E-02  0.1226708E+00
        -11   -1    0    0    0    0  0.00000000000E+00  0.00000000000E+00  0.45593999997E+02  0.45594000000E+02  0.51100000000E-03 0.  1.
         11   -1    0    0    0    0 -0.00000000000E+00 -0.00000000000E+00 -0.45593999997E+02  0.45594000000E+02  0.51100000000E-03 0. -1.
    9900012    2    1    2    0    0 -0.16527435615E+01  0.18543248836E+02  0.20237484519E+01  0.72461569575E+02  0.69999999063E+02 0.  0.
         12    1    1    2    0    0  0.16527435615E+01 -0.18543248836E+02 -0.20237484519E+01  0.18726430425E+02  0.00000000000E+00 0. -1.
         11    1    3    3    0    0  0.12994764201E+02 -0.36875060113E+01 -0.22283287507E+02  0.26057753157E+02  0.51100000000E-03 0. -1.
        -11    1    3    3    0    0 -0.22168079601E+02  0.22527848632E+02  0.16884939410E+02  0.35833348941E+02  0.51100000000E-03 0.  1.
        -12    1    3    3    0    0  0.75205718384E+01 -0.29709378478E+00  0.74220965490E+01  0.10570467477E+02  0.00000000000E+00 0.  1.
</event>
<event>
 7    1  0.1339094E-013  0.7246151E+02  0.7816164E-02  0.1226708E+00
        -11   -1    0    0    0    0  0.00000000000E+00  0.00000000000E+00  0.45593999997E+02  0.45594000000E+02  0.51100000000E-03 0.  1.
         11   -1    0    0    0    0 -0.00000000000E+00 -0.00000000000E+00 -0.45593999997E+02  0.45594000000E+02  0.51100000000E-03 0. -1.
    9900012    2    1    2    0    0  0.11130541329E+02 -0.33506564520E+01  0.14682158012E+02  0.72461505057E+02  0.69999915017E+02 0.  0.
         12    1    1    2    0    0 -0.11130541329E+02  0.33506564520E+01 -0.14682158012E+02  0.18726494943E+02  0.00000000000E+00 0. -1.
         11    1    3    3    0    0  0.36228935100E+02 -0.79663813321E+01  0.14503734739E+02  0.39829101065E+02  0.51100000000E-03 0. -1.
        -11    1    3    3    0    0 -0.43780017131E+01 -0.15272092197E+01  0.83306980075E+01  0.95341384799E+01  0.51100000000E-03 0.  1.
         12    1    3    3    0    0 -0.20720392057E+02  0.61429340998E+01 -0.81522747339E+01  0.23098265513E+02  0.00000000000E+00 0. -1.
</event>
<event>
 7    1  0.1339094E-013  0.7246151E+02  0.7816164E-02  0.1226708E+00
        -11   -1    0    0    0    0  0.00000000000E+00  0.00000000000E+00  0.45593999997E+02  0.45594000000E+02  0.51100000000E-03 0.  1.
         11   -1    0    0    0    0 -0.00000000000E+00 -0.00000000000E+00 -0.45593999997E+02  0.45594000000E+02  0.51100000000E-03 0. -1.
    9900012    2    1    2    0    0  0.13404064104E+02  0.87339723788E+01  0.97329464984E+01  0.72461509256E+02  0.69999920487E+02 0.  0.
         12    1    1    2    0    0 -0.13404064104E+02 -0.87339723788E+01 -0.97329464984E+01  0.18726490744E+02  0.00000000000E+00 0. -1.
         11    1    3    3    0    0  0.10793894369E+01 -0.45318445559E+01  0.10033179387E+02  0.11061979276E+02  0.51100000000E-03 0. -1.
        -11    1    3    3    0    0  0.21550488840E+02  0.27373852210E+02  0.15649997528E+02  0.38192587984E+02  0.51100000000E-03 0.  1.
        -12    1    3    3    0    0 -0.92258141720E+01 -0.14108035275E+02 -0.15950230417E+02  0.23206941996E+02  0.00000000000E+00 0.  1.
</event>
<event>
 7    1  0.1339094E-013  0.7246144E+02  0.7816164E-02  0.1226708E+00
        -11   -1    0    0    0    0  0.00000000000E+00  0.00000000000E+00  0.45593999997E+02  0.45594000000E+02  0.51100000000E-03 0.  1.
         11   -1    0    0    0    0 -0.00000000000E+00 -0.00000000000E+00 -0.45593999997E+02  0.45594000000E+02  0.51100000000E-03 0. -1.
    9900012    2    1    2    0    0  0.98051812828E+01  0.55599877129E+01  0.14954226847E+02  0.72461442817E+02  0.69999833937E+02 0.  0.
         12    1    1    2    0    0 -0.98051812828E+01 -0.55599877129E+01 -0.14954226847E+02  0.18726557183E+02  0.00000000000E+00 0. -1.
         11    1    3    3    0    0 -0.11044803553E+02  0.24722826281E+02  0.13111495711E+02  0.30085164864E+02  0.51100000000E-03 0. -1.
        -11    1    3    3    0    0  0.16867937560E+02 -0.20560729912E+02 -0.11058653417E+02  0.28802165677E+02  0.51100000000E-03 0.  1.
         12    1    3    3    0    0  0.39820472760E+01  0.13978913432E+01  0.12901384553E+02  0.13574112276E+02  0.00000000000E+00 0. -1.
</event>
<event>
 7    1  0.1339094E-013  0.7246162E+02  0.7816164E-02  0.1226708E+00
        -11   -1    0    0    0    0  0.00000000000E+00  0.00000000000E+00  0.45593999997E+02  0.45594000000E+02  0.51100000000E-03 0.  1.
         11   -1    0    0    0    0 -0.00000000000E+00 -0.00000000000E+00 -0.45593999997E+02  0.45594000000E+02  0.51100000000E-03 0. -1.
    9900012    2    1    2    0    0 -0.42892429364E+00 -0.58024175542E+01 -0.17799585714E+02  0.72461620822E+02  0.70000065822E+02 0.  0.
         12    1    1    2    0    0  0.42892429364E+00  0.58024175542E+01  0.17799585714E+02  0.18726379178E+02  0.00000000000E+00 0. -1.
         11    1    3    3    0    0  0.57913036533E+01 -0.45883306357E+01 -0.10230989605E+02  0.12620028708E+02  0.51100000000E-03 0. -1.
        -11    1    3    3    0    0  0.11671400582E+02  0.24911620228E+02 -0.11593504555E+01  0.27534605638E+02  0.51100000000E-03 0.  1.
        -12    1    3    3    0    0 -0.17891628529E+02 -0.26125707146E+02 -0.64092456530E+01  0.32306986476E+02  0.00000000000E+00 0.  1.
</event>
<event>
 7    1  0.1339094E-013  0.7246156E+02  0.7816164E-02  0.1226708E+00
        -11   -1    0    0    0    0  0.00000000000E+00  0.00000000000E+00  0.45593999997E+02  0.45594000000E+02  0.51100000000E-03 0.  1.
         11   -1    0    0    0    0 -0.00000000000E+00 -0.00000000000E+00 -0.45593999997E+02  0.45594000000E+02  0.51100000000E-03 0. -1.
    9900012    2    1    2    0    0 -0.53941132443E+01 -0.15470912742E+02  0.90682962765E+01  0.72461558904E+02  0.69999985162E+02 0.  0.
         12    1    1    2    0    0  0.53941132443E+01  0.15470912742E+02 -0.90682962765E+01  0.18726441096E+02  0.00000000000E+00 0. -1.
         11    1    3    3    0    0 -0.13711208574E+02 -0.47164991527E+01  0.21224075216E+02  0.25704162579E+02  0.51100000000E-03 0.  1.
        -11    1    3    3    0    0  0.43900695557E+01  0.17925932236E+01 -0.26719623033E+02  0.27137139799E+02  0.51100000000E-03 0. -1.
         12    1    3    3    0    0  0.39270257743E+01 -0.12547006813E+02  0.14563844093E+02  0.19620256527E+02  0.00000000000E+00 0. -1.
</event>
<event>
 7    1  0.1339094E-013  0.7246155E+02  0.7816164E-02  0.1226708E+00
        -11   -1    0    0    0    0  0.00000000000E+00  0.00000000000E+00  0.45593999997E+02  0.45594000000E+02  0.51100000000E-03 0. -1.
         11   -1    0    0    0    0 -0.00000000000E+00 -0.00000000000E+00 -0.45593999997E+02  0.45594000000E+02  0.51100000000E-03 0.  1.
    9900012    2    1    2    0    0  0.93265108628E+01  0.16110378825E+02 -0.20375636633E+01  0.72461554090E+02  0.69999978890E+02 0.  0.
         12    1    1    2    0    0 -0.93265108628E+01 -0.16110378825E+02  0.20375636633E+01  0.18726445910E+02  0.00000000000E+00 0. -1.
         11    1    3    3    0    0  0.59048051297E+00  0.10786189283E+00  0.54786083184E+01  0.55113928177E+01  0.51100000000E-03 0. -1.
        -11    1    3    3    0    0 -0.21580587431E+02  0.26516003953E+02 -0.67802349332E+01  0.34853863567E+02  0.51100000000E-03 0.  1.
        -12    1    3    3    0    0  0.30316617781E+02 -0.10513487021E+02 -0.73593704847E+00  0.32096297705E+02  0.00000000000E+00 0.  1.
</event>
<event>
 7    1  0.1339094E-013  0.7246116E+02  0.7816164E-02  0.1226709E+00
        -11   -1    0    0    0    0  0.00000000000E+00  0.00000000000E+00  0.45593999997E+02  0.45594000000E+02  0.51100000000E-03 0.  1.
         11   -1    0    0    0    0 -0.00000000000E+00 -0.00000000000E+00 -0.45593999997E+02  0.45594000000E+02  0.51100000000E-03 0. -1.
    9900012    2    1    2    0    0 -0.53245628688E+01  0.12026580020E+02  0.13330605287E+02  0.72461157393E+02  0.69999462117E+02 0.  0.
         12    1    1    2    0    0  0.53245628688E+01 -0.12026580020E+02 -0.13330605287E+02  0.18726842607E+02  0.00000000000E+00 0. -1.
         11    1    3    3    0    0 -0.78994235674E+01 -0.91746134635E+01 -0.28654050568E+01  0.12441260841E+02  0.51100000000E-03 0. -1.
        -11    1    3    3    0    0  0.83227946469E+01  0.24935857499E+02  0.32812934744E+02  0.42044673702E+02  0.51100000000E-03 0.  1.
        -12    1    3    3    0    0 -0.57479339483E+01 -0.37346640149E+01 -0.16616924400E+02  0.17975222850E+02  0.00000000000E+00 0.  1.
</event>
<event>
 7    1  0.1339094E-013  0.7246158E+02  0.7816164E-02  0.1226708E+00
        -11   -1    0    0    0    0  0.00000000000E+00  0.00000000000E+00  0.45593999997E+02  0.45594000000E+02  0.51100000000E-03 0. -1.
         11   -1    0    0    0    0 -0.00000000000E+00 -0.00000000000E+00 -0.45593999997E+02  0.45594000000E+02  0.51100000000E-03 0.  1.
    9900012    2    1    2    0    0 -0.62891443355E+01 -0.13426208588E+02 -0.11439517588E+02  0.72461575456E+02  0.70000006725E+02 0.  0.
         12    1    1    2    0    0  0.62891443355E+01  0.13426208588E+02  0.11439517588E+02  0.18726424544E+02  0.00000000000E+00 0. -1.
         11    1    3    3    0    0 -0.16718441819E+02  0.81506306543E+01  0.45015025465E+01  0.19136420835E+02  0.51100000000E-03 0. -1.
        -11    1    3    3    0    0  0.13529712316E+02 -0.32539859724E+01  0.12926693125E+02  0.18993181289E+02  0.51100000000E-03 0.  1.
        -12    1    3    3    0    0 -0.31004148322E+01 -0.18322853270E+02 -0.28867713260E+02  0.34331973333E+02  0.00000000000E+00 0.  1.
</event>
<event>
 7    1  0.1339094E-013  0.7246147E+02  0.7816164E-02  0.1226708E+00
        -11   -1    0    0    0    0  0.00000000000E+00  0.00000000000E+00  0.45593999997E+02  0.45594000000E+02  0.51100000000E-03 0.  1.
         11   -1    0    0    0    0 -0.00000000000E+00 -0.00000000000E+00 -0.45593999997E+02  0.45594000000E+02  0.51100000000E-03 0. -1.
    9900012    2    1    2    0    0  0.17032514778E+02  0.51887806167E+01 -0.58011248619E+01  0.72461466588E+02  0.69999864903E+02 0.  0.
         12    1    1    2    0    0 -0.17032514778E+02 -0.51887806167E+01  0.58011248619E+01  0.18726533412E+02  0.00000000000E+00 0. -1.
         11    1    3    3    0    0 -0.77160774321E+01  0.21024205774E+02 -0.10937022004E+02  0.24923353104E+02  0.51100000000E-03 0. -1.
        -11    1    3    3    0    0  0.18018995055E+02 -0.21997740167E+02 -0.97647709744E+01  0.30065520246E+02  0.51100000000E-03 0.  1.
         12    1    3    3    0    0  0.67295971555E+01  0.61623150096E+01  0.14900668116E+02  0.17472593238E+02  0.00000000000E+00 0. -1.
</event>
<event>
 7    1  0.1339094E-013  0.7246156E+02  0.7816164E-02  0.1226708E+00
        -11   -1    0    0    0    0  0.00000000000E+00  0.00000000000E+00  0.45593999997E+02  0.45594000000E+02  0.51100000000E-03 0. -1.
         11   -1    0    0    0    0 -0.00000000000E+00 -0.00000000000E+00 -0.45593999997E+02  0.45594000000E+02  0.51100000000E-03 0.  1.
    9900012    2    1    2    0    0  0.49641527384E+00 -0.71616269553E+01 -0.17295782192E+02  0.72461563862E+02  0.69999991621E+02 0.  0.
         12    1    1    2    0    0 -0.49641527384E+00  0.71616269553E+01  0.17295782192E+02  0.18726436138E+02  0.00000000000E+00 0. -1.
         11    1    3    3    0    0 -0.18047756007E+02  0.71441460214E+01 -0.27476104890E+02  0.33640699449E+02  0.51100000000E-03 0.  1.
        -11    1    3    3    0    0  0.18918181726E+02 -0.90319938598E+00  0.15422490603E+02  0.24424712600E+02  0.51100000000E-03 0. -1.
         12    1    3    3    0    0 -0.37401044470E+00 -0.13402573591E+02 -0.52421679057E+01  0.14396151813E+02  0.00000000000E+00 0. -1.
</event>
<event>
 7    1  0.1339094E-013  0.7246153E+02  0.7816164E-02  0.1226708E+00
        -11   -1    0    0    0    0  0.00000000000E+00  0.00000000000E+00  0.45593999997E+02  0.45594000000E+02  0.51100000000E-03 0.  1.
         11   -1    0    0    0    0 -0.00000000000E+00 -0.00000000000E+00 -0.45593999997E+02  0.45594000000E+02  0.51100000000E-03 0. -1.
    9900012    2    1    2    0    0 -0.45612652010E+01 -0.18162425810E+02 -0.44708087017E-01  0.72461525416E+02  0.69999941538E+02 0.  0.
         12    1    1    2    0    0  0.45612652010E+01  0.18162425810E+02  0.44708087017E-01  0.18726474584E+02  0.00000000000E+00 0. -1.
         11    1    3    3    0    0  0.18986018104E+02 -0.19872687757E+02  0.20005348338E+01  0.27557117810E+02  0.51100000000E-03 0. -1.
        -11    1    3    3    0    0 -0.29543758453E+02 -0.21956705128E+01 -0.12566245053E+02  0.32180198065E+02  0.51100000000E-03 0.  1.
        -12    1    3    3    0    0  0.59964751475E+01  0.39059324597E+01  0.10521002132E+02  0.12724209541E+02  0.00000000000E+00 0.  1.
</event>
<event>
 7    1  0.1339094E-013  0.7246163E+02  0.7816164E-02  0.1226708E+00
        -11   -1    0    0    0    0  0.00000000000E+00  0.00000000000E+00  0.45593999997E+02  0.45594000000E+02  0.51100000000E-03 0. -1.
         11   -1    0    0    0    0 -0.00000000000E+00 -0.00000000000E+00 -0.45593999997E+02  0.45594000000E+02  0.51100000000E-03 0.  1.
    9900012    2    1    2    0    0  0.70306946805E+01 -0.16316881816E+02 -0.59165674027E+01  0.72461626359E+02  0.70000073035E+02 0.  0.
         12    1    1    2    0    0 -0.70306946805E+01  0.16316881816E+02  0.59165674027E+01  0.18726373641E+02  0.00000000000E+00 0. -1.
         11    1    3    3    0    0  0.63400796425E+01  0.24971146554E+02  0.70447501004E+01  0.26709235749E+02  0.51100000000E-03 0. -1.
        -11    1    3    3    0    0 -0.11344644328E+01 -0.21266485873E+02 -0.14221110188E+02  0.25608404991E+02  0.51100000000E-03 0.  1.
        -12    1    3    3    0    0  0.18250794708E+01 -0.20021542497E+02  0.12597926845E+01  0.20143985619E+02  0.00000000000E+00 0.  1.
</event>
<event>
 7    1  0.1339094E-013  0.7246154E+02  0.7816164E-02  0.1226708E+00
        -11   -1    0    0    0    0  0.00000000000E+00  0.00000000000E+00  0.45593999997E+02  0.45594000000E+02  0.51100000000E-03 0. -1.
         11   -1    0    0    0    0 -0.00000000000E+00 -0.00000000000E+00 -0.45593999997E+02  0.45594000000E+02  0.51100000000E-03 0.  1.
    9900012    2    1    2    0    0 -0.65151471725E+01 -0.13477519715E+01 -0.17504758318E+02  0.72461544334E+02  0.69999966182E+02 0.  0.
         12    1    1    2    0    0  0.65151471725E+01  0.13477519715E+01  0.17504758318E+02  0.18726455666E+02  0.00000000000E+00 0. -1.
         11    1    3    3    0    0  0.72058974061E+01 -0.33411210725E+01  0.37159988436E+01  0.87690760696E+01  0.51100000000E-03 0. -1.
        -11    1    3    3    0    0 -0.11518817166E+02  0.15747982685E+02 -0.37496859250E+02  0.42269333582E+02  0.51100000000E-03 0.  1.
        -12    1    3    3    0    0 -0.22022274127E+01 -0.13754613584E+02  0.16276102089E+02  0.21423134683E+02  0.00000000000E+00 0.  1.
</event>
<event>
 7    1  0.1339094E-013  0.7246158E+02  0.7816164E-02  0.1226708E+00
        -11   -1    0    0    0    0  0.00000000000E+00  0.00000000000E+00  0.45593999997E+02  0.45594000000E+02  0.51100000000E-03 0. -1.
         11   -1    0    0    0    0 -0.00000000000E+00 -0.00000000000E+00 -0.45593999997E+02  0.45594000000E+02  0.51100000000E-03 0.  1.
    9900012    2    1    2    0    0  0.11819500301E+02 -0.13688505897E+02 -0.48583080151E+01  0.72461576480E+02  0.70000008059E+02 0.  0.
         12    1    1    2    0    0 -0.11819500301E+02  0.13688505897E+02  0.48583080151E+01  0.18726423520E+02  0.00000000000E+00 0. -1.
         11    1    3    3    0    0 -0.12043968463E+02  0.17895111588E+02  0.37858113789E+01  0.21900332489E+02  0.51100000000E-03 0.  1.
        -11    1    3    3    0    0  0.27239140169E+02 -0.11787329488E+02 -0.63155695269E+01  0.30344658711E+02  0.51100000000E-03 0. -1.
        -12    1    3    3    0    0 -0.33756714044E+01 -0.19796287997E+02 -0.23285498671E+01  0.20216585280E+02  0.00000000000E+00 0.  1.
</event>
<event>
 7    1  0.1339094E-013  0.7246171E+02  0.7816164E-02  0.1226708E+00
        -11   -1    0    0    0    0  0.00000000000E+00  0.00000000000E+00  0.45593999997E+02  0.45594000000E+02  0.51100000000E-03 0.  1.
         11   -1    0    0    0    0 -0.00000000000E+00 -0.00000000000E+00 -0.45593999997E+02  0.45594000000E+02  0.51100000000E-03 0. -1.
    9900012    2    1    2    0    0 -0.13742199584E+02 -0.12227663457E+02 -0.35085835003E+01  0.72461709358E+02  0.70000181156E+02 0.  0.
         12    1    1    2    0    0  0.13742199584E+02  0.12227663457E+02  0.35085835003E+01  0.18726290642E+02  0.00000000000E+00 0. -1.
         11    1    3    3    0    0  0.13204579648E+02  0.36436883397E+01 -0.13155479260E+02  0.18992209541E+02  0.51100000000E-03 0. -1.
        -11    1    3    3    0    0 -0.32684319995E+02 -0.22976097351E+02  0.15240655097E+02  0.42760301579E+02  0.51100000000E-03 0.  1.
        -12    1    3    3    0    0  0.57375407632E+01  0.71047455542E+01 -0.55937593373E+01  0.10709198239E+02  0.00000000000E+00 0.  1.
</event>
<event>
 7    1  0.1339094E-013  0.7246157E+02  0.7816164E-02  0.1226708E+00
        -11   -1    0    0    0    0  0.00000000000E+00  0.00000000000E+00  0.45593999997E+02  0.45594000000E+02  0.51100000000E-03 0.  1.
         11   -1    0    0    0    0 -0.00000000000E+00 -0.00000000000E+00 -0.45593999997E+02  0.45594000000E+02  0.51100000000E-03 0. -1.
    9900012    2    1    2    0    0  0.65608342667E+01 -0.16945758363E+02  0.45250464554E+01  0.72461566325E+02  0.69999994829E+02 0.  0.
         12    1    1    2    0    0 -0.65608342667E+01  0.16945758363E+02 -0.45250464554E+01  0.18726433675E+02  0.00000000000E+00 0. -1.
         11    1    3    3    0    0 -0.47525427231E+01 -0.11230035201E+02 -0.14254988628E+02  0.18759132550E+02  0.51100000000E-03 0. -1.
        -11    1    3    3    0    0  0.23347303658E+02 -0.19095021279E+02  0.40196068628E+01  0.30428172231E+02  0.51100000000E-03 0.  1.
        -12    1    3    3    0    0 -0.12033926668E+02  0.13379298117E+02  0.14760428221E+02  0.23274261544E+02  0.00000000000E+00 0.  1.
</event>
<event>
 7    1  0.1339094E-013  0.7246161E+02  0.7816164E-02  0.1226708E+00
        -11   -1    0    0    0    0  0.00000000000E+00  0.00000000000E+00  0.45593999997E+02  0.45594000000E+02  0.51100000000E-03 0. -1.
         11   -1    0    0    0    0 -0.00000000000E+00 -0.00000000000E+00 -0.45593999997E+02  0.45594000000E+02  0.51100000000E-03 0.  1.
    9900012    2    1    2    0    0  0.13389606485E+02  0.78876433509E+01 -0.10448981778E+02  0.72461609540E+02  0.70000051125E+02 0.  0.
         12    1    1    2    0    0 -0.13389606485E+02 -0.78876433509E+01  0.10448981778E+02  0.18726390460E+02  0.00000000000E+00 0. -1.
         11    1    3    3    0    0  0.14262204917E+02 -0.49716001945E+01 -0.81029069167E+01  0.17140139975E+02  0.51100000000E-03 0.  1.
        -11    1    3    3    0    0 -0.44585450486E+01  0.11198789941E+02  0.24966787388E+02  0.27724213115E+02  0.51100000000E-03 0. -1.
        -12    1    3    3    0    0  0.35859466163E+01  0.16604536040E+01 -0.27312862250E+02  0.27597256451E+02  0.00000000000E+00 0.  1.
</event>
<event>
 7    1  0.1339094E-013  0.7246155E+02  0.7816164E-02  0.1226708E+00
        -11   -1    0    0    0    0  0.00000000000E+00  0.00000000000E+00  0.45593999997E+02  0.45594000000E+02  0.51100000000E-03 0.  1.
         11   -1    0    0    0    0 -0.00000000000E+00 -0.00000000000E+00 -0.45593999997E+02  0.45594000000E+02  0.51100000000E-03 0. -1.
    9900012    2    1    2    0    0 -0.71043372182E+01  0.11809487542E+02  0.12678498604E+02  0.72461549985E+02  0.69999973543E+02 0.  0.
         12    1    1    2    0    0  0.71043372182E+01 -0.11809487542E+02 -0.12678498604E+02  0.18726450015E+02  0.00000000000E+00 0. -1.
         11    1    3    3    0    0 -0.21180300211E+02  0.26255207464E+02  0.35909577031E+01  0.33923974023E+02  0.51100000000E-03 0. -1.
        -11    1    3    3    0    0  0.20256999814E+02 -0.11414241226E+02 -0.41480667552E+01  0.23618581717E+02  0.51100000000E-03 0.  1.
         12    1    3    3    0    0 -0.61810368209E+01 -0.30314786959E+01  0.13235607656E+02  0.14918994246E+02  0.00000000000E+00 0. -1.
</event>
<event>
 7    1  0.1339094E-013  0.7246158E+02  0.7816164E-02  0.1226708E+00
        -11   -1    0    0    0    0  0.00000000000E+00  0.00000000000E+00  0.45593999997E+02  0.45594000000E+02  0.51100000000E-03 0.  1.
         11   -1    0    0    0    0 -0.00000000000E+00 -0.00000000000E+00 -0.45593999997E+02  0.45594000000E+02  0.51100000000E-03 0. -1.
    9900012    2    1    2    0    0  0.91503772298E+01 -0.88157204753E+01  0.13756174417E+02  0.72461583751E+02  0.70000017530E+02 0.  0.
         12    1    1    2    0    0 -0.91503772298E+01  0.88157204753E+01 -0.13756174417E+02  0.18726416249E+02  0.00000000000E+00 0. -1.
         11    1    3    3    0    0  0.16121638740E+02 -0.11788617841E+02  0.37048781190E+02  0.42089083314E+02  0.51100000000E-03 0.  1.
        -11    1    3    3    0    0 -0.40339087652E+01  0.53849766944E+01 -0.25226231129E+02  0.26108104702E+02  0.51100000000E-03 0. -1.
         12    1    3    3    0    0 -0.29373527448E+01 -0.24120793291E+01  0.19336243554E+01  0.42643957350E+01  0.00000000000E+00 0. -1.
</event>
<event>
 7    1  0.1339094E-013  0.7246157E+02  0.7816164E-02  0.1226708E+00
        -11   -1    0    0    0    0  0.00000000000E+00  0.00000000000E+00  0.45593999997E+02  0.45594000000E+02  0.51100000000E-03 0.  1.
         11   -1    0    0    0    0 -0.00000000000E+00 -0.00000000000E+00 -0.45593999997E+02  0.45594000000E+02  0.51100000000E-03 0. -1.
    9900012    2    1    2    0    0 -0.28169635653E+01  0.51928287059E+01  0.17770150695E+02  0.72461574569E+02  0.70000005568E+02 0.  0.
         12    1    1    2    0    0  0.28169635653E+01 -0.51928287059E+01 -0.17770150695E+02  0.18726425431E+02  0.00000000000E+00 0. -1.
         11    1    3    3    0    0 -0.15041323807E+01  0.16108881347E+02 -0.14691119896E+02  0.21853774881E+02  0.51100000000E-03 0. -1.
        -11    1    3    3    0    0 -0.11999463003E+02 -0.20854294360E+02  0.17864792858E+02  0.29967307682E+02  0.51100000000E-03 0.  1.
        -12    1    3    3    0    0  0.10686631818E+02  0.99382417181E+01  0.14596477733E+02  0.20640492006E+02  0.00000000000E+00 0.  1.
</event>
<event>
 7    1  0.1339094E-013  0.7246167E+02  0.7816164E-02  0.1226708E+00
        -11   -1    0    0    0    0  0.00000000000E+00  0.00000000000E+00  0.45593999997E+02  0.45594000000E+02  0.51100000000E-03 0. -1.
         11   -1    0    0    0    0 -0.00000000000E+00 -0.00000000000E+00 -0.45593999997E+02  0.45594000000E+02  0.51100000000E-03 0.  1.
    9900012    2    1    2    0    0  0.74996785720E+00  0.16265228630E+02 -0.92496042596E+01  0.72461673795E+02  0.70000134829E+02 0.  0.
         12    1    1    2    0    0 -0.74996785720E+00 -0.16265228630E+02  0.92496042596E+01  0.18726326205E+02  0.00000000000E+00 0. -1.
         11    1    3    3    0    0 -0.11538903552E+02  0.18501135847E+02  0.10325665981E+02  0.24125872026E+02  0.51100000000E-03 0. -1.
        -11    1    3    3    0    0  0.23752216932E+02  0.42002804646E+01  0.74656707950E+00  0.24132292221E+02  0.51100000000E-03 0.  1.
        -12    1    3    3    0    0 -0.11463345523E+02 -0.64361876815E+01 -0.20321837320E+02  0.24203509549E+02  0.00000000000E+00 0.  1.
</event>
<event>
 7    1  0.1339094E-013  0.7246159E+02  0.7816164E-02  0.1226708E+00
        -11   -1    0    0    0    0  0.00000000000E+00  0.00000000000E+00  0.45593999997E+02  0.45594000000E+02  0.51100000000E-03 0. -1.
         11   -1    0    0    0    0 -0.00000000000E+00 -0.00000000000E+00 -0.45593999997E+02  0.45594000000E+02  0.51100000000E-03 0.  1.
    9900012    2    1    2    0    0 -0.12223725225E+02 -0.13911056378E+02 -0.27823438364E+01  0.72461591238E+02  0.70000027283E+02 0.  0.
         12    1    1    2    0    0  0.12223725225E+02  0.13911056378E+02  0.27823438364E+01  0.18726408762E+02  0.00000000000E+00 0. -1.
         11    1    3    3    0    0  0.11292633984E+02 -0.18692936073E+02  0.97819288146E+01  0.23929805117E+02  0.51100000000E-03 0. -1.
        -11    1    3    3    0    0 -0.11461841224E+02  0.11910749660E+02  0.11882567742E+02  0.20357681059E+02  0.51100000000E-03 0.  1.
        -12    1    3    3    0    0 -0.12054517985E+02 -0.71288699638E+01 -0.24446840393E+02  0.28174105062E+02  0.00000000000E+00 0.  1.
</event>
<event>
 7    1  0.1339094E-013  0.7246161E+02  0.7816164E-02  0.1226708E+00
        -11   -1    0    0    0    0  0.00000000000E+00  0.00000000000E+00  0.45593999997E+02  0.45594000000E+02  0.51100000000E-03 0.  1.
         11   -1    0    0    0    0 -0.00000000000E+00 -0.00000000000E+00 -0.45593999997E+02  0.45594000000E+02  0.51100000000E-03 0. -1.
    9900012    2    1    2    0    0  0.11846082304E+02  0.43022644351E+00 -0.14497001044E+02  0.72461606861E+02  0.70000047635E+02 0.  0.
         12    1    1    2    0    0 -0.11846082304E+02 -0.43022644351E+00  0.14497001044E+02  0.18726393139E+02  0.00000000000E+00 0. -1.
         11    1    3    3    0    0 -0.12702977251E+02  0.68333291116E+01 -0.33568858339E+02  0.36536670185E+02  0.51100000000E-03 0. -1.
        -11    1    3    3    0    0  0.18848251137E+02  0.16928299063E+01  0.17731124530E+02  0.25932894582E+02  0.51100000000E-03 0.  1.
         12    1    3    3    0    0  0.57008084171E+01 -0.80959325744E+01  0.13407327648E+01  0.99920420937E+01  0.00000000000E+00 0. -1.
</event>
<event>
 7    1  0.1339094E-013  0.7246159E+02  0.7816164E-02  0.1226708E+00
        -11   -1    0    0    0    0  0.00000000000E+00  0.00000000000E+00  0.45593999997E+02  0.45594000000E+02  0.51100000000E-03 0.  1.
         11   -1    0    0    0    0 -0.00000000000E+00 -0.00000000000E+00 -0.45593999997E+02  0.45594000000E+02  0.51100000000E-03 0. -1.
    9900012    2    1    2    0    0 -0.52543477730E+01 -0.17470620181E+02  0.42246363627E+01  0.72461593713E+02  0.70000030508E+02 0.  0.
         12    1    1    2    0    0  0.52543477730E+01  0.17470620181E+02 -0.42246363627E+01  0.18726406287E+02  0.00000000000E+00 0. -1.
         11    1    3    3    0    0  0.77852533828E+01  0.20457462069E+01  0.15738867789E+01  0.82019733986E+01  0.51100000000E-03 0. -1.
        -11    1    3    3    0    0 -0.26182965055E+02 -0.21008341051E+02 -0.19233079849E+02  0.38688621241E+02  0.51100000000E-03 0.  1.
        -12    1    3    3    0    0  0.13143363899E+02  0.14919746637E+01  0.21883829433E+02  0.25570999074E+02  0.00000000000E+00 0.  1.
</event>
<event>
 7    1  0.1339094E-013  0.7246153E+02  0.7816164E-02  0.1226708E+00
        -11   -1    0    0    0    0  0.00000000000E+00  0.00000000000E+00  0.45593999997E+02  0.45594000000E+02  0.51100000000E-03 0.  1.
         11   -1    0    0    0    0 -0.00000000000E+00 -0.00000000000E+00 -0.45593999997E+02  0.45594000000E+02  0.51100000000E-03 0. -1.
    9900012    2    1    2    0    0  0.10383360654E+02 -0.14280278421E+02  0.62401970005E+01  0.72461532398E+02  0.69999950633E+02 0.  0.
         12    1    1    2    0    0 -0.10383360654E+02  0.14280278421E+02 -0.62401970005E+01  0.18726467602E+02  0.00000000000E+00 0. -1.
         11    1    3    3    0    0  0.22246177069E+02  0.10163793078E+02 -0.68035471654E+01  0.25386676391E+02  0.51100000000E-03 0. -1.
        -11    1    3    3    0    0  0.74222612246E+01 -0.22957284986E+02  0.13654070752E+02  0.27722924520E+02  0.51100000000E-03 0.  1.
         12    1    3    3    0    0 -0.19285077640E+02 -0.14867865137E+01 -0.61032658623E+00  0.19351931486E+02  0.00000000000E+00 0. -1.
</event>
<event>
 7    1  0.1339094E-013  0.7246166E+02  0.7816164E-02  0.1226708E+00
        -11   -1    0    0    0    0  0.00000000000E+00  0.00000000000E+00  0.45593999997E+02  0.45594000000E+02  0.51100000000E-03 0.  1.
         11   -1    0    0    0    0 -0.00000000000E+00 -0.00000000000E+00 -0.45593999997E+02  0.45594000000E+02  0.51100000000E-03 0. -1.
    9900012    2    1    2    0    0  0.42978509154E+01  0.13263219108E+02 -0.12501657081E+02  0.72461656700E+02  0.70000112560E+02 0.  0.
         12    1    1    2    0    0 -0.42978509154E+01 -0.13263219108E+02  0.12501657081E+02  0.18726343300E+02  0.00000000000E+00 0. -1.
         11    1    3    3    0    0 -0.80125840478E+01  0.48360765040E+01 -0.29664378810E+02  0.31105698987E+02  0.51100000000E-03 0. -1.
        -11    1    3    3    0    0  0.94976021739E+01  0.15589853088E+02  0.24613790721E+02  0.30644520885E+02  0.51100000000E-03 0.  1.
         12    1    3    3    0    0  0.28128327894E+01 -0.71627104840E+01 -0.74510689928E+01  0.10711436828E+02  0.00000000000E+00 0. -1.
</event>
<event>
 7    1  0.1339094E-013  0.7246159E+02  0.7816164E-02  0.1226708E+00
        -11   -1    0    0    0    0  0.00000000000E+00  0.00000000000E+00  0.45593999997E+02  0.45594000000E+02  0.51100000000E-03 0. -1.
         11   -1    0    0    0    0 -0.00000000000E+00 -0.00000000000E+00 -0.45593999997E+02  0.45594000000E+02  0.51100000000E-03 0.  1.
    9900012    2    1    2    0    0 -0.69290036818E+01 -0.86707419489E+01 -0.15082630562E+02  0.72461585431E+02  0.70000019718E+02 0.  0.
         12    1    1    2    0    0  0.69290036818E+01  0.86707419489E+01  0.15082630562E+02  0.18726414569E+02  0.00000000000E+00 0. -1.
         11    1    3    3    0    0 -0.27166732233E+02 -0.16461814657E+02  0.11262878422E+02  0.33702746367E+02  0.51100000000E-03 0. -1.
        -11    1    3    3    0    0  0.15812316357E+02  0.47665591079E+01 -0.28534254370E+02  0.32968971883E+02  0.51100000000E-03 0.  1.
         12    1    3    3    0    0  0.44254121942E+01  0.30245136004E+01  0.21887453859E+01  0.57898671808E+01  0.00000000000E+00 0. -1.
</event>
<event>
 7    1  0.1339094E-013  0.7246208E+02  0.7816164E-02  0.1226707E+00
        -11   -1    0    0    0    0  0.00000000000E+00  0.00000000000E+00  0.45593999997E+02  0.45594000000E+02  0.51100000000E-03 0. -1.
         11   -1    0    0    0    0 -0.00000000000E+00 -0.00000000000E+00 -0.45593999997E+02  0.45594000000E+02  0.51100000000E-03 0.  1.
    9900012    2    1    2    0    0 -0.59261669093E+01 -0.13985191133E+02 -0.10952400393E+02  0.72462079471E+02  0.70000663294E+02 0.  0.
         12    1    1    2    0    0  0.59261669093E+01  0.13985191133E+02  0.10952400393E+02  0.18725920529E+02  0.00000000000E+00 0. -1.
         11    1    3    3    0    0 -0.24177583121E+02  0.12231465663E+02 -0.16058005125E+02  0.31496409426E+02  0.51100000000E-03 0. -1.
        -11    1    3    3    0    0  0.10835776405E+02 -0.70793735239E+01 -0.92591501395E+01  0.15914252774E+02  0.51100000000E-03 0.  1.
         12    1    3    3    0    0  0.74156398071E+01 -0.19137283272E+02  0.14364754871E+02  0.25051417271E+02  0.00000000000E+00 0. -1.
</event>
<event>
 7    1  0.1339094E-013  0.7246156E+02  0.7816164E-02  0.1226708E+00
        -11   -1    0    0    0    0  0.00000000000E+00  0.00000000000E+00  0.45593999997E+02  0.45594000000E+02  0.51100000000E-03 0. -1.
         11   -1    0    0    0    0 -0.00000000000E+00 -0.00000000000E+00 -0.45593999997E+02  0.45594000000E+02  0.51100000000E-03 0.  1.
    9900012    2    1    2    0    0 -0.76522874580E+01  0.15905016429E+02 -0.62571901663E+01  0.72461562012E+02  0.69999989210E+02 0.  0.
         12    1    1    2    0    0  0.76522874580E+01 -0.15905016429E+02  0.62571901663E+01  0.18726437988E+02  0.00000000000E+00 0. -1.
         11    1    3    3    0    0 -0.69337544704E+00 -0.65282616344E+01 -0.19153095684E+02  0.20246976170E+02  0.51100000000E-03 0. -1.
        -11    1    3    3    0    0 -0.13648607341E+02  0.34164054163E+02  0.11931798658E+02  0.38676024856E+02  0.51100000000E-03 0.  1.
        -12    1    3    3    0    0  0.66896953296E+01 -0.11730776100E+02  0.96410686009E+00  0.13538560985E+02  0.00000000000E+00 0.  1.
</event>
<event>
 7    1  0.1339094E-013  0.7246155E+02  0.7816164E-02  0.1226708E+00
        -11   -1    0    0    0    0  0.00000000000E+00  0.00000000000E+00  0.45593999997E+02  0.45594000000E+02  0.51100000000E-03 0.  1.
         11   -1    0    0    0    0 -0.00000000000E+00 -0.00000000000E+00 -0.45593999997E+02  0.45594000000E+02  0.51100000000E-03 0. -1.
    9900012    2    1    2    0    0  0.71115670305E+01 -0.83175899220E+01  0.15196158856E+02  0.72461549943E+02  0.69999973489E+02 0.  0.
         12    1    1    2    0    0 -0.71115670305E+01  0.83175899220E+01 -0.15196158856E+02  0.18726450057E+02  0.00000000000E+00 0. -1.
         11    1    3    3    0    0 -0.88895645511E+00  0.35317237792E+01 -0.19226140890E+02  0.19568030310E+02  0.51100000000E-03 0. -1.
        -11    1    3    3    0    0 -0.57457499700E+01 -0.20611724069E+01  0.35464782261E+02  0.35986287048E+02  0.51100000000E-03 0.  1.
        -12    1    3    3    0    0  0.13746273456E+02 -0.97881412942E+01 -0.10424825145E+01  0.16907232586E+02  0.00000000000E+00 0.  1.
</event>
<event>
 7    1  0.1339094E-013  0.7246157E+02  0.7816164E-02  0.1226708E+00
        -11   -1    0    0    0    0  0.00000000000E+00  0.00000000000E+00  0.45593999997E+02  0.45594000000E+02  0.51100000000E-03 0. -1.
         11   -1    0    0    0    0 -0.00000000000E+00 -0.00000000000E+00 -0.45593999997E+02  0.45594000000E+02  0.51100000000E-03 0.  1.
    9900012    2    1    2    0    0  0.32556315324E+01  0.54563704961E+01 -0.17615566376E+02  0.72461566960E+02  0.69999995657E+02 0.  0.
         12    1    1    2    0    0 -0.32556315324E+01 -0.54563704961E+01  0.17615566376E+02  0.18726433040E+02  0.00000000000E+00 0. -1.
         11    1    3    3    0    0  0.21808379888E+02  0.45981372894E+01  0.63596971596E+01  0.23177446971E+02  0.51100000000E-03 0. -1.
        -11    1    3    3    0    0 -0.17049988635E+02  0.64256053046E+01 -0.33508782783E+02  0.38142221223E+02  0.51100000000E-03 0.  1.
        -12    1    3    3    0    0 -0.15027597207E+01 -0.55673720979E+01  0.95335192478E+01  0.11141898766E+02  0.00000000000E+00 0.  1.
</event>
<event>
 7    1  0.1339094E-013  0.7246168E+02  0.7816164E-02  0.1226708E+00
        -11   -1    0    0    0    0  0.00000000000E+00  0.00000000000E+00  0.45593999997E+02  0.45594000000E+02  0.51100000000E-03 0.  1.
         11   -1    0    0    0    0 -0.00000000000E+00 -0.00000000000E+00 -0.45593999997E+02  0.45594000000E+02  0.51100000000E-03 0. -1.
    9900012    2    1    2    0    0  0.16657080177E+02  0.69977626394E+01 -0.49242151448E+01  0.72461684378E+02  0.70000148615E+02 0.  0.
         12    1    1    2    0    0 -0.16657080177E+02 -0.69977626394E+01  0.49242151448E+01  0.18726315622E+02  0.00000000000E+00 0. -1.
         11    1    3    3    0    0 -0.62552545419E+01  0.32603805269E+02 -0.49992426952E+01  0.33572738273E+02  0.51100000000E-03 0. -1.
        -11    1    3    3    0    0  0.21705076304E+02 -0.12306685907E+02 -0.31547150589E+01  0.25149892301E+02  0.51100000000E-03 0.  1.
         12    1    3    3    0    0  0.12072584150E+01 -0.13299356722E+02  0.32297426093E+01  0.13739053804E+02  0.00000000000E+00 0. -1.
</event>
<event>
 7    1  0.1339094E-013  0.7246157E+02  0.7816164E-02  0.1226708E+00
        -11   -1    0    0    0    0  0.00000000000E+00  0.00000000000E+00  0.45593999997E+02  0.45594000000E+02  0.51100000000E-03 0.  1.
         11   -1    0    0    0    0 -0.00000000000E+00 -0.00000000000E+00 -0.45593999997E+02  0.45594000000E+02  0.51100000000E-03 0. -1.
    9900012    2    1    2    0    0  0.16850606832E+01  0.17641343632E+02  0.60516855134E+01  0.72461565951E+02  0.69999994341E+02 0.  0.
         12    1    1    2    0    0 -0.16850606832E+01 -0.17641343632E+02 -0.60516855134E+01  0.18726434049E+02  0.00000000000E+00 0. -1.
         11    1    3    3    0    0  0.21258199156E+02 -0.91169427771E+01 -0.14270978284E+01  0.23174690622E+02  0.51100000000E-03 0. -1.
        -11    1    3    3    0    0 -0.11923317200E+02 -0.43212292516E-01  0.16170609802E+02  0.20091191651E+02  0.51100000000E-03 0.  1.
        -12    1    3    3    0    0 -0.76498212729E+01  0.26801498702E+02 -0.86918264600E+01  0.29195683677E+02  0.00000000000E+00 0.  1.
</event>
<event>
 7    1  0.1339094E-013  0.7246160E+02  0.7816164E-02  0.1226708E+00
        -11   -1    0    0    0    0  0.00000000000E+00  0.00000000000E+00  0.45593999997E+02  0.45594000000E+02  0.51100000000E-03 0.  1.
         11   -1    0    0    0    0 -0.00000000000E+00 -0.00000000000E+00 -0.45593999997E+02  0.45594000000E+02  0.51100000000E-03 0. -1.
    9900012    2    1    2    0    0 -0.10215995708E+02  0.25685523776E+01  0.15482700704E+02  0.72461600167E+02  0.70000038914E+02 0.  0.
         12    1    1    2    0    0  0.10215995708E+02 -0.25685523776E+01 -0.15482700704E+02  0.18726399833E+02  0.00000000000E+00 0. -1.
         11    1    3    3    0    0  0.99227593493E+01  0.13750619983E+02  0.18398920464E+02  0.25021210552E+02  0.51100000000E-03 0. -1.
        -11    1    3    3    0    0 -0.47680291743E+01 -0.24287149637E+02  0.58315159821E+01  0.25428454900E+02  0.51100000000E-03 0.  1.
         12    1    3    3    0    0 -0.15370725883E+02  0.13105082032E+02 -0.87477357416E+01  0.22011934714E+02  0.00000000000E+00 0. -1.
</event>
<event>
 7    1  0.1339094E-013  0.7246156E+02  0.7816164E-02  0.1226708E+00
        -11   -1    0    0    0    0  0.00000000000E+00  0.00000000000E+00  0.45593999997E+02  0.45594000000E+02  0.51100000000E-03 0.  1.
         11   -1    0    0    0    0 -0.00000000000E+00 -0.00000000000E+00 -0.45593999997E+02  0.45594000000E+02  0.51100000000E-03 0. -1.
    9900012    2    1    2    0    0  0.76843224611E+01  0.37062401884E+01  0.16670172975E+02  0.72461556263E+02  0.69999981722E+02 0.  0.
         12    1    1    2    0    0 -0.76843224611E+01 -0.37062401884E+01 -0.16670172975E+02  0.18726443737E+02  0.00000000000E+00 0. -1.
         11    1    3    3    0    0 -0.78176011467E+01  0.27965329404E+01  0.33127829134E+02  0.34152431064E+02  0.51100000000E-03 0. -1.
        -11    1    3    3    0    0  0.15992303389E+02 -0.89701034788E+01 -0.20605553708E+02  0.27582700520E+02  0.51100000000E-03 0.  1.
         12    1    3    3    0    0 -0.49037978104E+00  0.98798107269E+01  0.41478975492E+01  0.10726424680E+02  0.00000000000E+00 0. -1.
</event>
<event>
 7    1  0.1339094E-013  0.7246162E+02  0.7816164E-02  0.1226708E+00
        -11   -1    0    0    0    0  0.00000000000E+00  0.00000000000E+00  0.45593999997E+02  0.45594000000E+02  0.51100000000E-03 0.  1.
         11   -1    0    0    0    0 -0.00000000000E+00 -0.00000000000E+00 -0.45593999997E+02  0.45594000000E+02  0.51100000000E-03 0. -1.
    9900012    2    1    2    0    0 -0.15272212060E+02  0.65783145261E+01  0.86117826787E+01  0.72461615295E+02  0.70000058622E+02 0.  0.
         12    1    1    2    0    0  0.15272212060E+02 -0.65783145261E+01 -0.86117826787E+01  0.18726384705E+02  0.00000000000E+00 0. -1.
         11    1    3    3    0    0 -0.20448348874E+02 -0.34961825636E+01 -0.74736022359E+01  0.22050237977E+02  0.51100000000E-03 0. -1.
        -11    1    3    3    0    0  0.18369920485E+02 -0.32049323299E+01 -0.76730482348E+01  0.20164355664E+02  0.51100000000E-03 0.  1.
        -12    1    3    3    0    0 -0.13193783671E+02  0.13279429420E+02  0.23758433149E+02  0.30247021655E+02  0.00000000000E+00 0.  1.
</event>
<event>
 7    1  0.1339094E-013  0.7246148E+02  0.7816164E-02  0.1226708E+00
        -11   -1    0    0    0    0  0.00000000000E+00  0.00000000000E+00  0.45593999997E+02  0.45594000000E+02  0.51100000000E-03 0.  1.
         11   -1    0    0    0    0 -0.00000000000E+00 -0.00000000000E+00 -0.45593999997E+02  0.45594000000E+02  0.51100000000E-03 0. -1.
    9900012    2    1    2    0    0 -0.63267899047E+01  0.15293416143E+02  0.87616009402E+01  0.72461481401E+02  0.69999884199E+02 0.  0.
         12    1    1    2    0    0  0.63267899047E+01 -0.15293416143E+02 -0.87616009402E+01  0.18726518599E+02  0.00000000000E+00 0. -1.
         11    1    3    3    0    0  0.15316161586E+02  0.20427061395E+02  0.81439848792E+01  0.26798771109E+02  0.51100000000E-03 0. -1.
        -11    1    3    3    0    0  0.77850640792E+01 -0.12715268260E+02 -0.24882465953E+01  0.15115443791E+02  0.51100000000E-03 0.  1.
        -12    1    3    3    0    0 -0.29428015570E+02  0.75816230074E+01  0.31058626563E+01  0.30547266500E+02  0.00000000000E+00 0.  1.
</event>
<event>
 7    1  0.1339094E-013  0.7246158E+02  0.7816164E-02  0.1226708E+00
        -11   -1    0    0    0    0  0.00000000000E+00  0.00000000000E+00  0.45593999997E+02  0.45594000000E+02  0.51100000000E-03 0. -1.
         11   -1    0    0    0    0 -0.00000000000E+00 -0.00000000000E+00 -0.45593999997E+02  0.45594000000E+02  0.51100000000E-03 0.  1.
    9900012    2    1    2    0    0  0.96070027314E+01  0.10950206159E+02 -0.11767637252E+02  0.72461580083E+02  0.70000012751E+02 0.  0.
         12    1    1    2    0    0 -0.96070027314E+01 -0.10950206159E+02  0.11767637252E+02  0.18726419917E+02  0.00000000000E+00 0. -1.
         11    1    3    3    0    0 -0.13378768220E+02  0.28289598444E+02  0.95707096374E+01  0.32724475587E+02  0.51100000000E-03 0. -1.
        -11    1    3    3    0    0  0.96045278644E+01 -0.13480376426E+02 -0.31825085620E+01  0.16855143580E+02  0.51100000000E-03 0.  1.
         12    1    3    3    0    0  0.13381243087E+02 -0.38590158590E+01 -0.18155838328E+02  0.22881960916E+02  0.00000000000E+00 0. -1.
</event>
<event>
 7    1  0.1339094E-013  0.7246158E+02  0.7816164E-02  0.1226708E+00
        -11   -1    0    0    0    0  0.00000000000E+00  0.00000000000E+00  0.45593999997E+02  0.45594000000E+02  0.51100000000E-03 0. -1.
         11   -1    0    0    0    0 -0.00000000000E+00 -0.00000000000E+00 -0.45593999997E+02  0.45594000000E+02  0.51100000000E-03 0.  1.
    9900012    2    1    2    0    0 -0.10841028719E+02  0.13435644927E+02  0.72549431583E+01  0.72461583938E+02  0.70000017773E+02 0.  0.
         12    1    1    2    0    0  0.10841028719E+02 -0.13435644927E+02 -0.72549431583E+01  0.18726416062E+02  0.00000000000E+00 0. -1.
         11    1    3    3    0    0 -0.77363665023E+01 -0.72578573600E+01  0.86747363213E+01  0.13703244529E+02  0.51100000000E-03 0. -1.
        -11    1    3    3    0    0 -0.13865846714E+02  0.35756222729E+02  0.59957174342E+01  0.38816462960E+02  0.51100000000E-03 0.  1.
        -12    1    3    3    0    0  0.10761184497E+02 -0.15062720441E+02 -0.74155105972E+01  0.19941876449E+02  0.00000000000E+00 0.  1.
</event>
<event>
 7    1  0.1339094E-013  0.7246156E+02  0.7816164E-02  0.1226708E+00
        -11   -1    0    0    0    0  0.00000000000E+00  0.00000000000E+00  0.45593999997E+02  0.45594000000E+02  0.51100000000E-03 0.  1.
         11   -1    0    0    0    0 -0.00000000000E+00 -0.00000000000E+00 -0.45593999997E+02  0.45594000000E+02  0.51100000000E-03 0. -1.
    9900012    2    1    2    0    0 -0.11685781314E+02 -0.47323778191E+01  0.13846537611E+02  0.72461561776E+02  0.69999988903E+02 0.  0.
         12    1    1    2    0    0  0.11685781314E+02  0.47323778191E+01 -0.13846537611E+02  0.18726438224E+02  0.00000000000E+00 0. -1.
         11    1    3    3    0    0  0.85116822159E+01  0.17250958871E+02  0.13425244543E+02  0.23458079789E+02  0.51100000000E-03 0. -1.
        -11    1    3    3    0    0 -0.12429409714E+02 -0.21791783457E+02  0.17264812007E+02  0.30453994582E+02  0.51100000000E-03 0.  1.
         12    1    3    3    0    0 -0.77680538162E+01 -0.19155323280E+00 -0.16843518939E+02  0.18549487405E+02  0.00000000000E+00 0. -1.
</event>
<event>
 7    1  0.1339094E-013  0.7246150E+02  0.7816164E-02  0.1226708E+00
        -11   -1    0    0    0    0  0.00000000000E+00  0.00000000000E+00  0.45593999997E+02  0.45594000000E+02  0.51100000000E-03 0. -1.
         11   -1    0    0    0    0 -0.00000000000E+00 -0.00000000000E+00 -0.45593999997E+02  0.45594000000E+02  0.51100000000E-03 0.  1.
    9900012    2    1    2    0    0  0.36783578865E+01  0.16774416207E+02 -0.74679588525E+01  0.72461500988E+02  0.69999909715E+02 0.  0.
         12    1    1    2    0    0 -0.36783578865E+01 -0.16774416207E+02  0.74679588525E+01  0.18726499012E+02  0.00000000000E+00 0. -1.
         11    1    3    3    0    0  0.13497683145E+02  0.16569174346E+02 -0.58268911157E+00  0.21379067230E+02  0.51100000000E-03 0. -1.
        -11    1    3    3    0    0 -0.25617893959E+02  0.14370476408E+02 -0.47728534970E+01  0.29758481377E+02  0.51100000000E-03 0.  1.
        -12    1    3    3    0    0  0.15798568700E+02 -0.14165234547E+02 -0.21124162440E+01  0.21323952381E+02  0.00000000000E+00 0.  1.
</event>
<event>
 7    1  0.1339094E-013  0.7246153E+02  0.7816164E-02  0.1226708E+00
        -11   -1    0    0    0    0  0.00000000000E+00  0.00000000000E+00  0.45593999997E+02  0.45594000000E+02  0.51100000000E-03 0.  1.
         11   -1    0    0    0    0 -0.00000000000E+00 -0.00000000000E+00 -0.45593999997E+02  0.45594000000E+02  0.51100000000E-03 0. -1.
    9900012    2    1    2    0    0  0.68809715339E+01  0.16423648766E+02  0.57962715604E+01  0.72461527507E+02  0.69999944261E+02 0.  0.
         12    1    1    2    0    0 -0.68809715339E+01 -0.16423648766E+02 -0.57962715604E+01  0.18726472493E+02  0.00000000000E+00 0. -1.
         11    1    3    3    0    0 -0.25087172419E+02  0.12391207551E+02  0.16605516760E+02  0.32536924128E+02  0.51100000000E-03 0.  1.
        -11    1    3    3    0    0  0.30124017720E+02  0.91833288641E+01 -0.49001107910E+01  0.31871634076E+02  0.51100000000E-03 0. -1.
        -12    1    3    3    0    0  0.18441262333E+01 -0.51508876490E+01 -0.59091344089E+01  0.80529693033E+01  0.00000000000E+00 0.  1.
</event>
<event>
 7    1  0.1339094E-013  0.7246160E+02  0.7816164E-02  0.1226708E+00
        -11   -1    0    0    0    0  0.00000000000E+00  0.00000000000E+00  0.45593999997E+02  0.45594000000E+02  0.51100000000E-03 0. -1.
         11   -1    0    0    0    0 -0.00000000000E+00 -0.00000000000E+00 -0.45593999997E+02  0.45594000000E+02  0.51100000000E-03 0.  1.
    9900012    2    1    2    0    0  0.18719350934E+02 -0.47394942145E+00 -0.19837150067E+00  0.72461599420E+02  0.70000037941E+02 0.  0.
         12    1    1    2    0    0 -0.18719350934E+02  0.47394942145E+00  0.19837150067E+00  0.18726400580E+02  0.00000000000E+00 0. -1.
         11    1    3    3    0    0  0.11313245103E+00 -0.25376786204E+02 -0.20673030171E+02  0.32731762154E+02  0.51100000000E-03 0. -1.
        -11    1    3    3    0    0  0.17193451416E+02  0.15173319921E+02  0.19017065438E+02  0.29790823875E+02  0.51100000000E-03 0.  1.
         12    1    3    3    0    0  0.14127670669E+01  0.97295168619E+01  0.14575932328E+01  0.99390133908E+01  0.00000000000E+00 0. -1.
</event>
<event>
 7    1  0.1339094E-013  0.7246156E+02  0.7816164E-02  0.1226708E+00
        -11   -1    0    0    0    0  0.00000000000E+00  0.00000000000E+00  0.45593999997E+02  0.45594000000E+02  0.51100000000E-03 0.  1.
         11   -1    0    0    0    0 -0.00000000000E+00 -0.00000000000E+00 -0.45593999997E+02  0.45594000000E+02  0.51100000000E-03 0. -1.
    9900012    2    1    2    0    0 -0.47992751173E+01  0.13203249954E+02  0.12382267006E+02  0.72461564482E+02  0.69999992428E+02 0.  0.
         12    1    1    2    0    0  0.47992751173E+01 -0.13203249954E+02 -0.12382267006E+02  0.18726435518E+02  0.00000000000E+00 0. -1.
         11    1    3    3    0    0 -0.14114034093E+02 -0.15729936483E+02  0.14119682784E+02  0.25416575346E+02  0.51100000000E-03 0. -1.
        -11    1    3    3    0    0 -0.33360326364E+01  0.30088464084E+02 -0.10010628871E+02  0.31885066651E+02  0.51100000000E-03 0.  1.
        -12    1    3    3    0    0  0.12650791612E+02 -0.11552776470E+01  0.82732130936E+01  0.15159922485E+02  0.00000000000E+00 0.  1.
</event>
<event>
 7    1  0.1339094E-013  0.7246168E+02  0.7816164E-02  0.1226708E+00
        -11   -1    0    0    0    0  0.00000000000E+00  0.00000000000E+00  0.45593999997E+02  0.45594000000E+02  0.51100000000E-03 0.  1.
         11   -1    0    0    0    0 -0.00000000000E+00 -0.00000000000E+00 -0.45593999997E+02  0.45594000000E+02  0.51100000000E-03 0. -1.
    9900012    2    1    2    0    0  0.10772310845E+02 -0.89391548497E+00  0.15291605572E+02  0.72461682508E+02  0.70000146179E+02 0.  0.
         12    1    1    2    0    0 -0.10772310845E+02  0.89391548497E+00 -0.15291605572E+02  0.18726317492E+02  0.00000000000E+00 0. -1.
         11    1    3    3    0    0 -0.22714572572E+02 -0.48547332618E+01  0.18649413776E+02  0.29787931728E+02  0.51100000000E-03 0. -1.
        -11    1    3    3    0    0  0.17207495413E+02  0.11784842406E+02  0.68183368413E+01  0.21942427542E+02  0.51100000000E-03 0.  1.
         12    1    3    3    0    0  0.16279388004E+02 -0.78240246290E+01 -0.10176145045E+02  0.20731323237E+02  0.00000000000E+00 0. -1.
</event>
<event>
 7    1  0.1339094E-013  0.7246144E+02  0.7816164E-02  0.1226708E+00
        -11   -1    0    0    0    0  0.00000000000E+00  0.00000000000E+00  0.45593999997E+02  0.45594000000E+02  0.51100000000E-03 0. -1.
         11   -1    0    0    0    0 -0.00000000000E+00 -0.00000000000E+00 -0.45593999997E+02  0.45594000000E+02  0.51100000000E-03 0.  1.
    9900012    2    1    2    0    0  0.10280519853E+01 -0.18000029093E+01 -0.18611479803E+02  0.72461439135E+02  0.69999829141E+02 0.  0.
         12    1    1    2    0    0 -0.10280519853E+01  0.18000029093E+01  0.18611479803E+02  0.18726560865E+02  0.00000000000E+00 0. -1.
         11    1    3    3    0    0 -0.13929824012E+02 -0.13916728971E+02  0.85000836380E+01  0.21446835766E+02  0.51100000000E-03 0. -1.
        -11    1    3    3    0    0  0.24531485045E+01  0.22708564175E+02 -0.25972951561E+02  0.34587440459E+02  0.51100000000E-03 0.  1.
        -12    1    3    3    0    0  0.12504727492E+02 -0.10591838113E+02 -0.11386118795E+01  0.16427162910E+02  0.00000000000E+00 0.  1.
</event>
<event>
 7    1  0.1339094E-013  0.7246163E+02  0.7816164E-02  0.1226708E+00
        -11   -1    0    0    0    0  0.00000000000E+00  0.00000000000E+00  0.45593999997E+02  0.45594000000E+02  0.51100000000E-03 0. -1.
         11   -1    0    0    0    0 -0.00000000000E+00 -0.00000000000E+00 -0.45593999997E+02  0.45594000000E+02  0.51100000000E-03 0.  1.
    9900012    2    1    2    0    0  0.32541717674E+01  0.16878765804E+02  0.74293168454E+01  0.72461625077E+02  0.70000071365E+02 0.  0.
         12    1    1    2    0    0 -0.32541717674E+01 -0.16878765804E+02 -0.74293168454E+01  0.18726374923E+02  0.00000000000E+00 0. -1.
         11    1    3    3    0    0  0.16582544184E+02 -0.40245178290E+00  0.20109184173E+02  0.26067643304E+02  0.51100000000E-03 0. -1.
        -11    1    3    3    0    0  0.20716367566E+01  0.86702795986E+01 -0.23883923549E+02  0.25493278164E+02  0.51100000000E-03 0.  1.
        -12    1    3    3    0    0 -0.15400009173E+02  0.86109379882E+01  0.11204056221E+02  0.20900703609E+02  0.00000000000E+00 0.  1.
</event>
<event>
 7    1  0.1339094E-013  0.7246154E+02  0.7816164E-02  0.1226708E+00
        -11   -1    0    0    0    0  0.00000000000E+00  0.00000000000E+00  0.45593999997E+02  0.45594000000E+02  0.51100000000E-03 0. -1.
         11   -1    0    0    0    0 -0.00000000000E+00 -0.00000000000E+00 -0.45593999997E+02  0.45594000000E+02  0.51100000000E-03 0.  1.
    9900012    2    1    2    0    0 -0.74186754578E+01  0.24314086455E+01 -0.17021515422E+02  0.72461535283E+02  0.69999954391E+02 0.  0.
         12    1    1    2    0    0  0.74186754578E+01 -0.24314086455E+01  0.17021515422E+02  0.18726464717E+02  0.00000000000E+00 0. -1.
         11    1    3    3    0    0  0.10188864087E+02  0.51626577797E+01 -0.21649639833E+02  0.24478008332E+02  0.51100000000E-03 0.  1.
        -11    1    3    3    0    0 -0.20699121560E+02  0.65958057703E+01  0.20138290199E+02  0.29622778727E+02  0.51100000000E-03 0. -1.
         12    1    3    3    0    0  0.30915820149E+01 -0.93270549045E+01 -0.15510165788E+02  0.18360748223E+02  0.00000000000E+00 0. -1.
</event>
<event>
 7    1  0.1339094E-013  0.7246162E+02  0.7816164E-02  0.1226708E+00
        -11   -1    0    0    0    0  0.00000000000E+00  0.00000000000E+00  0.45593999997E+02  0.45594000000E+02  0.51100000000E-03 0. -1.
         11   -1    0    0    0    0 -0.00000000000E+00 -0.00000000000E+00 -0.45593999997E+02  0.45594000000E+02  0.51100000000E-03 0.  1.
    9900012    2    1    2    0    0  0.96404491053E+01 -0.10259296030E+02 -0.12348523620E+02  0.72461616217E+02  0.70000059823E+02 0.  0.
         12    1    1    2    0    0 -0.96404491053E+01  0.10259296030E+02  0.12348523620E+02  0.18726383783E+02  0.00000000000E+00 0. -1.
         11    1    3    3    0    0 -0.21963289889E+02  0.15351972754E+02 -0.10804343244E+02  0.28892957678E+02  0.51100000000E-03 0.  1.
        -11    1    3    3    0    0  0.17473219361E+02 -0.14063621801E+02  0.68911218772E+01  0.23464577856E+02  0.51100000000E-03 0. -1.
        -12    1    3    3    0    0  0.14130519634E+02 -0.11547646983E+02 -0.84353022534E+01  0.20104080682E+02  0.00000000000E+00 0.  1.
</event>
<event>
 7    1  0.1339094E-013  0.7246150E+02  0.7816164E-02  0.1226708E+00
        -11   -1    0    0    0    0  0.00000000000E+00  0.00000000000E+00  0.45593999997E+02  0.45594000000E+02  0.51100000000E-03 0. -1.
         11   -1    0    0    0    0 -0.00000000000E+00 -0.00000000000E+00 -0.45593999997E+02  0.45594000000E+02  0.51100000000E-03 0.  1.
    9900012    2    1    2    0    0 -0.18541822379E+02 -0.10376625247E+01 -0.24095627173E+01  0.72461497039E+02  0.69999904572E+02 0.  0.
         12    1    1    2    0    0  0.18541822379E+02  0.10376625247E+01  0.24095627173E+01  0.18726502961E+02  0.00000000000E+00 0. -1.
         11    1    3    3    0    0  0.15061769040E+02 -0.55406394961E+00  0.83316086996E+01  0.17221485919E+02  0.51100000000E-03 0. -1.
        -11    1    3    3    0    0 -0.21864590598E+02 -0.14950121516E+02 -0.21153583529E+02  0.33897500671E+02  0.51100000000E-03 0.  1.
        -12    1    3    3    0    0 -0.11739000821E+02  0.14466522941E+02  0.10412412112E+02  0.21342510449E+02  0.00000000000E+00 0.  1.
</event>
<event>
 7    1  0.1339094E-013  0.7246162E+02  0.7816164E-02  0.1226708E+00
        -11   -1    0    0    0    0  0.00000000000E+00  0.00000000000E+00  0.45593999997E+02  0.45594000000E+02  0.51100000000E-03 0.  1.
         11   -1    0    0    0    0 -0.00000000000E+00 -0.00000000000E+00 -0.45593999997E+02  0.45594000000E+02  0.51100000000E-03 0. -1.
    9900012    2    1    2    0    0  0.59812422145E+01 -0.33135840856E+01  0.17433359728E+02  0.72461624768E+02  0.70000070963E+02 0.  0.
         12    1    1    2    0    0 -0.59812422145E+01  0.33135840856E+01 -0.17433359728E+02  0.18726375232E+02  0.00000000000E+00 0. -1.
         11    1    3    3    0    0 -0.13950393199E+02  0.19294811946E+02 -0.42079241710E+01  0.24178706841E+02  0.51100000000E-03 0. -1.
        -11    1    3    3    0    0  0.83657475710E+01  0.47718100506E+01  0.15002355936E+02  0.17827691591E+02  0.51100000000E-03 0.  1.
         12    1    3    3    0    0  0.11565887842E+02 -0.27380206082E+02  0.66389279624E+01  0.30455226336E+02  0.00000000000E+00 0. -1.
</event>
<event>
 7    1  0.1339094E-013  0.7246088E+02  0.7816164E-02  0.1226710E+00
        -11   -1    0    0    0    0  0.00000000000E+00  0.00000000000E+00  0.45593999997E+02  0.45594000000E+02  0.51100000000E-03 0.  1.
         11   -1    0    0    0    0 -0.00000000000E+00 -0.00000000000E+00 -0.45593999997E+02  0.45594000000E+02  0.51100000000E-03 0. -1.
    9900012    2    1    2    0    0 -0.10308965123E+02  0.86200778240E+01  0.13043176713E+02  0.72460881632E+02  0.69999102884E+02 0.  0.
         12    1    1    2    0    0  0.10308965123E+02 -0.86200778240E+01 -0.13043176713E+02  0.18727118368E+02  0.00000000000E+00 0. -1.
         11    1    3    3    0    0 -0.15841623641E+02 -0.11818123813E+02  0.27292103530E+01  0.19951783866E+02  0.51100000000E-03 0. -1.
        -11    1    3    3    0    0 -0.52936439701E+01  0.32366177326E+02  0.14510499384E+02  0.35862887416E+02  0.51100000000E-03 0.  1.
        -12    1    3    3    0    0  0.10826302488E+02 -0.11927975689E+02 -0.41965330240E+01  0.16646210350E+02  0.00000000000E+00 0.  1.
</event>
<event>
 7    1  0.1339094E-013  0.7246152E+02  0.7816164E-02  0.1226708E+00
        -11   -1    0    0    0    0  0.00000000000E+00  0.00000000000E+00  0.45593999997E+02  0.45594000000E+02  0.51100000000E-03 0. -1.
         11   -1    0    0    0    0 -0.00000000000E+00 -0.00000000000E+00 -0.45593999997E+02  0.45594000000E+02  0.51100000000E-03 0.  1.
    9900012    2    1    2    0    0  0.14327280954E+02  0.80417964866E-01 -0.12058339333E+02  0.72461521579E+02  0.69999936539E+02 0.  0.
         12    1    1    2    0    0 -0.14327280954E+02 -0.80417964866E-01  0.12058339333E+02  0.18726478421E+02  0.00000000000E+00 0. -1.
         11    1    3    3    0    0  0.14725957165E+02  0.11401376987E+02  0.12167679545E+02  0.22246294914E+02  0.51100000000E-03 0. -1.
        -11    1    3    3    0    0  0.29525687344E+01  0.11067684834E+02 -0.25068394191E+02  0.27561489389E+02  0.51100000000E-03 0.  1.
        -12    1    3    3    0    0 -0.33512449457E+01 -0.22388643857E+02  0.84237531329E+00  0.22653737276E+02  0.00000000000E+00 0.  1.
</event>
<event>
 7    1  0.1339094E-013  0.7246154E+02  0.7816164E-02  0.1226708E+00
        -11   -1    0    0    0    0  0.00000000000E+00  0.00000000000E+00  0.45593999997E+02  0.45594000000E+02  0.51100000000E-03 0. -1.
         11   -1    0    0    0    0 -0.00000000000E+00 -0.00000000000E+00 -0.45593999997E+02  0.45594000000E+02  0.51100000000E-03 0.  1.
    9900012    2    1    2    0    0 -0.10584036195E+02 -0.12536779214E+02 -0.90270543163E+01  0.72461538379E+02  0.69999958424E+02 0.  0.
         12    1    1    2    0    0  0.10584036195E+02  0.12536779214E+02  0.90270543163E+01  0.18726461621E+02  0.00000000000E+00 0. -1.
         11    1    3    3    0    0 -0.35052525924E+02 -0.10032702739E+02 -0.23850376656E+02  0.43568052111E+02  0.51100000000E-03 0. -1.
        -11    1    3    3    0    0  0.21831390392E+02 -0.14797594545E+01  0.12294098224E+02  0.25098688131E+02  0.51100000000E-03 0.  1.
         12    1    3    3    0    0  0.26370993374E+01 -0.10243170209E+01  0.25292241149E+01  0.37947981367E+01  0.00000000000E+00 0. -1.
</event>
<event>
 7    1  0.1339094E-013  0.7246150E+02  0.7816164E-02  0.1226708E+00
        -11   -1    0    0    0    0  0.00000000000E+00  0.00000000000E+00  0.45593999997E+02  0.45594000000E+02  0.51100000000E-03 0.  1.
         11   -1    0    0    0    0 -0.00000000000E+00 -0.00000000000E+00 -0.45593999997E+02  0.45594000000E+02  0.51100000000E-03 0. -1.
    9900012    2    1    2    0    0  0.16529083528E+02 -0.87847015484E+01 -0.54781599613E+00  0.72461503106E+02  0.69999912475E+02 0.  0.
         12    1    1    2    0    0 -0.16529083528E+02  0.87847015484E+01  0.54781599613E+00  0.18726496894E+02  0.00000000000E+00 0. -1.
         11    1    3    3    0    0  0.47948084181E+00 -0.17725274744E+02  0.21552077231E+02  0.27908910761E+02  0.51100000000E-03 0.  1.
        -11    1    3    3    0    0 -0.21062586325E+01  0.14420720541E+02  0.10674508101E+01  0.14612766947E+02  0.51100000000E-03 0. -1.
         12    1    3    3    0    0  0.18155861318E+02 -0.54801473454E+01 -0.23167344037E+02  0.29939825398E+02  0.00000000000E+00 0. -1.
</event>
<event>
 7    1  0.1339094E-013  0.7246157E+02  0.7816164E-02  0.1226708E+00
        -11   -1    0    0    0    0  0.00000000000E+00  0.00000000000E+00  0.45593999997E+02  0.45594000000E+02  0.51100000000E-03 0.  1.
         11   -1    0    0    0    0 -0.00000000000E+00 -0.00000000000E+00 -0.45593999997E+02  0.45594000000E+02  0.51100000000E-03 0. -1.
    9900012    2    1    2    0    0 -0.37994317793E+01  0.75811988514E+01  0.16696371466E+02  0.72461572738E+02  0.70000003184E+02 0.  0.
         12    1    1    2    0    0  0.37994317793E+01 -0.75811988514E+01 -0.16696371466E+02  0.18726427262E+02  0.00000000000E+00 0. -1.
         11    1    3    3    0    0 -0.62604785026E+01  0.13221213437E+02 -0.15919075982E+02  0.21619691400E+02  0.51100000000E-03 0. -1.
        -11    1    3    3    0    0  0.20327870911E+02 -0.10161294973E+01  0.19619883645E+02  0.28270031649E+02  0.51100000000E-03 0.  1.
         12    1    3    3    0    0 -0.17866824188E+02 -0.46238850888E+01  0.12995563802E+02  0.22571849690E+02  0.00000000000E+00 0. -1.
</event>
<event>
 7    1  0.1339094E-013  0.7246141E+02  0.7816164E-02  0.1226708E+00
        -11   -1    0    0    0    0  0.00000000000E+00  0.00000000000E+00  0.45593999997E+02  0.45594000000E+02  0.51100000000E-03 0. -1.
         11   -1    0    0    0    0 -0.00000000000E+00 -0.00000000000E+00 -0.45593999997E+02  0.45594000000E+02  0.51100000000E-03 0.  1.
    9900012    2    1    2    0    0  0.90422008756E+01 -0.15855463309E+02 -0.41866721372E+01  0.72461405622E+02  0.69999785483E+02 0.  0.
         12    1    1    2    0    0 -0.90422008756E+01  0.15855463309E+02  0.41866721372E+01  0.18726594378E+02  0.00000000000E+00 0. -1.
         11    1    3    3    0    0 -0.99826116029E+01  0.90908373510E+01  0.11096114968E+02  0.17476258919E+02  0.51100000000E-03 0. -1.
        -11    1    3    3    0    0  0.28138171199E+02 -0.58379809986E+01  0.23215089746E+00  0.28738347114E+02  0.51100000000E-03 0.  1.
        -12    1    3    3    0    0 -0.91133587200E+01 -0.19108319661E+02 -0.15514938003E+02  0.26246799589E+02  0.00000000000E+00 0.  1.
</event>
<event>
 7    1  0.1339094E-013  0.7246174E+02  0.7816164E-02  0.1226708E+00
        -11   -1    0    0    0    0  0.00000000000E+00  0.00000000000E+00  0.45593999997E+02  0.45594000000E+02  0.51100000000E-03 0. -1.
         11   -1    0    0    0    0 -0.00000000000E+00 -0.00000000000E+00 -0.45593999997E+02  0.45594000000E+02  0.51100000000E-03 0.  1.
    9900012    2    1    2    0    0 -0.16064574975E+02 -0.63680561017E+01  0.72145642915E+01  0.72461744486E+02  0.70000226917E+02 0.  0.
         12    1    1    2    0    0  0.16064574975E+02  0.63680561017E+01 -0.72145642915E+01  0.18726255514E+02  0.00000000000E+00 0. -1.
         11    1    3    3    0    0 -0.28187104479E+02  0.64917530143E+01  0.40717613322E+01  0.29210185839E+02  0.51100000000E-03 0. -1.
        -11    1    3    3    0    0 -0.13011800950E+01 -0.24432982727E+02 -0.26365809212E+01  0.24609251793E+02  0.51100000000E-03 0.  1.
        -12    1    3    3    0    0  0.13423709599E+02  0.11573173611E+02  0.57793838804E+01  0.18642306855E+02  0.00000000000E+00 0.  1.
</event>
<event>
 7    1  0.1339094E-013  0.7246157E+02  0.7816164E-02  0.1226708E+00
        -11   -1    0    0    0    0  0.00000000000E+00  0.00000000000E+00  0.45593999997E+02  0.45594000000E+02  0.51100000000E-03 0.  1.
         11   -1    0    0    0    0 -0.00000000000E+00 -0.00000000000E+00 -0.45593999997E+02  0.45594000000E+02  0.51100000000E-03 0. -1.
    9900012    2    1    2    0    0 -0.11035231829E+02 -0.14461266086E+02  0.44468477755E+01  0.72461574461E+02  0.70000005428E+02 0.  0.
         12    1    1    2    0    0  0.11035231829E+02  0.14461266086E+02 -0.44468477755E+01  0.18726425539E+02  0.00000000000E+00 0. -1.
         11    1    3    3    0    0 -0.44365528409E+01  0.72893156853E+01  0.30715429553E+01  0.90692613072E+01  0.51100000000E-03 0. -1.
        -11    1    3    3    0    0  0.68806643558E+01 -0.18344399671E+02 -0.26078867218E+02  0.32618520152E+02  0.51100000000E-03 0.  1.
        -12    1    3    3    0    0 -0.13479343343E+02 -0.34061821003E+01  0.27454172038E+02  0.30773793003E+02  0.00000000000E+00 0.  1.
</event>
<event>
 8    1  0.1339094E-013  0.7246155E+02  0.7816164E-02  0.1226708E+00
        -11   -1    0    0    0    0  0.00000000000E+00  0.00000000000E+00  0.45593999997E+02  0.45594000000E+02  0.51100000000E-03 0. -1.
         11   -1    0    0    0    0 -0.00000000000E+00 -0.00000000000E+00 -0.45593999997E+02  0.45594000000E+02  0.51100000000E-03 0.  1.
    9900012    2    1    2    0    0 -0.71924601934E+01 -0.79264807968E+01 -0.15366176967E+02  0.72461548761E+02  0.69999971948E+02 0.  0.
         24    2    3    3    0    0  0.11646338957E+02 -0.45227201384E+01 -0.15743126231E+02  0.53314015471E+02  0.49380623868E+02 0.  0.
         12    1    1    2    0    0  0.71924601934E+01  0.79264807968E+01  0.15366176967E+02  0.18726451239E+02  0.00000000000E+00 0. -1.
         11    1    3    3    0    0 -0.18838799150E+02 -0.34037606585E+01  0.37694926457E+00  0.19147533289E+02  0.51100000000E-03 0. -1.
        -11    1    4    4    0    0  0.64845741732E+01  0.21326530954E+02  0.60076734332E+00  0.22298689342E+02  0.51100000000E-03 0.  1.
         12    1    4    4    0    0  0.51617647838E+01 -0.25849251092E+02 -0.16343893574E+02  0.31015326129E+02  0.00000000000E+00 0. -1.
</event>
<event>
 7    1  0.1339094E-013  0.7246158E+02  0.7816164E-02  0.1226708E+00
        -11   -1    0    0    0    0  0.00000000000E+00  0.00000000000E+00  0.45593999997E+02  0.45594000000E+02  0.51100000000E-03 0. -1.
         11   -1    0    0    0    0 -0.00000000000E+00 -0.00000000000E+00 -0.45593999997E+02  0.45594000000E+02  0.51100000000E-03 0.  1.
    9900012    2    1    2    0    0  0.17820554440E+02  0.21748681797E+01 -0.53269674443E+01  0.72461580313E+02  0.70000013051E+02 0.  0.
         12    1    1    2    0    0 -0.17820554440E+02 -0.21748681797E+01  0.53269674443E+01  0.18726419687E+02  0.00000000000E+00 0. -1.
         11    1    3    3    0    0  0.21944674092E+02  0.13969890765E+02 -0.18738786946E+01  0.26081372483E+02  0.51100000000E-03 0. -1.
        -11    1    3    3    0    0 -0.86985811468E+01 -0.18622249103E+02 -0.19512237902E+02  0.28340446429E+02  0.51100000000E-03 0.  1.
        -12    1    3    3    0    0  0.45744614947E+01  0.68272265177E+01  0.16059149152E+02  0.18039761400E+02  0.00000000000E+00 0.  1.
</event>
<event>
 7    1  0.1339094E-013  0.7246160E+02  0.7816164E-02  0.1226708E+00
        -11   -1    0    0    0    0  0.00000000000E+00  0.00000000000E+00  0.45593999997E+02  0.45594000000E+02  0.51100000000E-03 0. -1.
         11   -1    0    0    0    0 -0.00000000000E+00 -0.00000000000E+00 -0.45593999997E+02  0.45594000000E+02  0.51100000000E-03 0.  1.
    9900012    2    1    2    0    0  0.11113540577E+02  0.84985723975E+01 -0.12447558523E+02  0.72461595376E+02  0.70000032674E+02 0.  0.
         12    1    1    2    0    0 -0.11113540577E+02 -0.84985723975E+01  0.12447558523E+02  0.18726404624E+02  0.00000000000E+00 0. -1.
         11    1    3    3    0    0 -0.39933575096E+00 -0.87302204774E+01 -0.85436513266E+00  0.87810112554E+01  0.51100000000E-03 0. -1.
        -11    1    3    3    0    0  0.50699117838E+01  0.37197183717E+02  0.36906388089E+01  0.37722079702E+02  0.51100000000E-03 0.  1.
        -12    1    3    3    0    0  0.64429645442E+01 -0.19968390842E+02 -0.15283832199E+02  0.25958504418E+02  0.00000000000E+00 0.  1.
</event>
<event>
 7    1  0.1339094E-013  0.7246141E+02  0.7816164E-02  0.1226708E+00
        -11   -1    0    0    0    0  0.00000000000E+00  0.00000000000E+00  0.45593999997E+02  0.45594000000E+02  0.51100000000E-03 0. -1.
         11   -1    0    0    0    0 -0.00000000000E+00 -0.00000000000E+00 -0.45593999997E+02  0.45594000000E+02  0.51100000000E-03 0.  1.
    9900012    2    1    2    0    0 -0.16980359549E+02 -0.73170091883E+01 -0.29687986706E+01  0.72461414635E+02  0.69999797224E+02 0.  0.
         12    1    1    2    0    0  0.16980359549E+02  0.73170091883E+01  0.29687986706E+01  0.18726585365E+02  0.00000000000E+00 0. -1.
         11    1    3    3    0    0 -0.30913273917E+01 -0.21153374778E+02 -0.46711532401E+01  0.21882441418E+02  0.51100000000E-03 0. -1.
        -11    1    3    3    0    0 -0.92246557611E+01  0.19875495963E+02 -0.18693529425E+02  0.28802389767E+02  0.51100000000E-03 0.  1.
        -12    1    3    3    0    0 -0.46643763965E+01 -0.60391303733E+01  0.20395883995E+02  0.21776583450E+02  0.00000000000E+00 0.  1.
</event>
<event>
 7    1  0.1339094E-013  0.7246160E+02  0.7816164E-02  0.1226708E+00
        -11   -1    0    0    0    0  0.00000000000E+00  0.00000000000E+00  0.45593999997E+02  0.45594000000E+02  0.51100000000E-03 0. -1.
         11   -1    0    0    0    0 -0.00000000000E+00 -0.00000000000E+00 -0.45593999997E+02  0.45594000000E+02  0.51100000000E-03 0.  1.
    9900012    2    1    2    0    0 -0.14303638029E+02 -0.10397774487E+02 -0.61619971746E+01  0.72461601939E+02  0.70000041223E+02 0.  0.
         12    1    1    2    0    0  0.14303638029E+02  0.10397774487E+02  0.61619971746E+01  0.18726398061E+02  0.00000000000E+00 0. -1.
         11    1    3    3    0    0  0.87077380997E+01 -0.55088027554E+01  0.23937215701E+01  0.10578351187E+02  0.51100000000E-03 0. -1.
        -11    1    3    3    0    0 -0.27022965038E+02  0.21219909502E+02 -0.85899742538E+00  0.34369507933E+02  0.51100000000E-03 0.  1.
        -12    1    3    3    0    0  0.40115889091E+01 -0.26108881234E+02 -0.76967213194E+01  0.27513742819E+02  0.00000000000E+00 0.  1.
</event>
<event>
 7    1  0.1339094E-013  0.7246158E+02  0.7816164E-02  0.1226708E+00
        -11   -1    0    0    0    0  0.00000000000E+00  0.00000000000E+00  0.45593999997E+02  0.45594000000E+02  0.51100000000E-03 0.  1.
         11   -1    0    0    0    0 -0.00000000000E+00 -0.00000000000E+00 -0.45593999997E+02  0.45594000000E+02  0.51100000000E-03 0. -1.
    9900012    2    1    2    0    0 -0.66025408820E+01 -0.17273069335E+02  0.29540380571E+01  0.72461579862E+02  0.70000012464E+02 0.  0.
         12    1    1    2    0    0  0.66025408820E+01  0.17273069335E+02 -0.29540380571E+01  0.18726420138E+02  0.00000000000E+00 0. -1.
         11    1    3    3    0    0 -0.24283054224E+02 -0.24397636081E+02 -0.85385231796E+01  0.35465726373E+02  0.51100000000E-03 0. -1.
        -11    1    3    3    0    0  0.20446059319E+02  0.15046796712E+02  0.39080367278E+01  0.25685018674E+02  0.51100000000E-03 0.  1.
        -12    1    3    3    0    0 -0.27655459768E+01 -0.79222299663E+01  0.75845245089E+01  0.11310834815E+02  0.00000000000E+00 0.  1.
</event>
<event>
 7    1  0.1339094E-013  0.7246157E+02  0.7816164E-02  0.1226708E+00
        -11   -1    0    0    0    0  0.00000000000E+00  0.00000000000E+00  0.45593999997E+02  0.45594000000E+02  0.51100000000E-03 0.  1.
         11   -1    0    0    0    0 -0.00000000000E+00 -0.00000000000E+00 -0.45593999997E+02  0.45594000000E+02  0.51100000000E-03 0. -1.
    9900012    2    1    2    0    0  0.78080877109E+01  0.15462246568E+02 -0.71156002554E+01  0.72461572962E+02  0.70000003475E+02 0.  0.
         12    1    1    2    0    0 -0.78080877109E+01 -0.15462246568E+02  0.71156002554E+01  0.18726427038E+02  0.00000000000E+00 0. -1.
         11    1    3    3    0    0  0.11348610356E+02  0.21305036938E+02 -0.11225822991E+02  0.26621695251E+02  0.51100000000E-03 0. -1.
        -11    1    3    3    0    0  0.17013167700E+02 -0.59392398941E+01  0.14200384962E+02  0.22942828488E+02  0.51100000000E-03 0.  1.
        -12    1    3    3    0    0 -0.20553690346E+02  0.96449523958E-01 -0.10090162227E+02  0.22897049222E+02  0.00000000000E+00 0.  1.
</event>
<event>
 7    1  0.1339094E-013  0.7246157E+02  0.7816164E-02  0.1226708E+00
        -11   -1    0    0    0    0  0.00000000000E+00  0.00000000000E+00  0.45593999997E+02  0.45594000000E+02  0.51100000000E-03 0. -1.
         11   -1    0    0    0    0 -0.00000000000E+00 -0.00000000000E+00 -0.45593999997E+02  0.45594000000E+02  0.51100000000E-03 0.  1.
    9900012    2    1    2    0    0  0.60039316723E+01  0.15674851277E+02  0.83024764028E+01  0.72461567545E+02  0.69999996419E+02 0.  0.
         12    1    1    2    0    0 -0.60039316723E+01 -0.15674851277E+02 -0.83024764028E+01  0.18726432455E+02  0.00000000000E+00 0. -1.
         11    1    3    3    0    0  0.84725594613E+01  0.28159524234E+02  0.30569478683E+01  0.29564979273E+02  0.51100000000E-03 0. -1.
        -11    1    3    3    0    0 -0.11897807427E+02 -0.15618447420E+02 -0.11987487259E+02  0.23004207711E+02  0.51100000000E-03 0.  1.
         12    1    3    3    0    0  0.94291796382E+01  0.31337744631E+01  0.17233015793E+02  0.19892380561E+02  0.00000000000E+00 0. -1.
</event>
<event>
 7    1  0.1339094E-013  0.7246157E+02  0.7816164E-02  0.1226708E+00
        -11   -1    0    0    0    0  0.00000000000E+00  0.00000000000E+00  0.45593999997E+02  0.45594000000E+02  0.51100000000E-03 0.  1.
         11   -1    0    0    0    0 -0.00000000000E+00 -0.00000000000E+00 -0.45593999997E+02  0.45594000000E+02  0.51100000000E-03 0. -1.
    9900012    2    1    2    0    0  0.17896494373E+02 -0.13127582146E+01  0.53545703958E+01  0.72461567636E+02  0.69999996536E+02 0.  0.
         12    1    1    2    0    0 -0.17896494373E+02  0.13127582146E+01 -0.53545703958E+01  0.18726432364E+02  0.00000000000E+00 0. -1.
         11    1    3    3    0    0 -0.70324930789E+01  0.73685129700E+01  0.33595508167E+01  0.10725554729E+02  0.51100000000E-03 0. -1.
        -11    1    3    3    0    0  0.42523739592E+02 -0.10517846396E+02  0.37140390865E+01  0.43962343071E+02  0.51100000000E-03 0.  1.
        -12    1    3    3    0    0 -0.17594752140E+02  0.18365752109E+01 -0.17190195074E+01  0.17773669836E+02  0.00000000000E+00 0.  1.
</event>
<event>
 7    1  0.1339094E-013  0.7246172E+02  0.7816164E-02  0.1226708E+00
        -11   -1    0    0    0    0  0.00000000000E+00  0.00000000000E+00  0.45593999997E+02  0.45594000000E+02  0.51100000000E-03 0. -1.
         11   -1    0    0    0    0 -0.00000000000E+00 -0.00000000000E+00 -0.45593999997E+02  0.45594000000E+02  0.51100000000E-03 0.  1.
    9900012    2    1    2    0    0 -0.17544847733E+02 -0.47460070593E+01 -0.45085821243E+01  0.72461719596E+02  0.70000194493E+02 0.  0.
         12    1    1    2    0    0  0.17544847733E+02  0.47460070593E+01  0.45085821243E+01  0.18726280404E+02  0.00000000000E+00 0. -1.
         11    1    3    3    0    0 -0.33163121988E+02  0.14705428548E+02 -0.11723377581E+01  0.36296234858E+02  0.51100000000E-03 0. -1.
        -11    1    3    3    0    0  0.31401566643E+00  0.19189839272E+01 -0.90582586050E+01  0.92646184145E+01  0.51100000000E-03 0.  1.
         12    1    3    3    0    0  0.15304258589E+02 -0.21370419534E+02  0.57220142387E+01  0.26900866324E+02  0.00000000000E+00 0. -1.
</event>
<event>
 7    1  0.1339094E-013  0.7246142E+02  0.7816164E-02  0.1226708E+00
        -11   -1    0    0    0    0  0.00000000000E+00  0.00000000000E+00  0.45593999997E+02  0.45594000000E+02  0.51100000000E-03 0. -1.
         11   -1    0    0    0    0 -0.00000000000E+00 -0.00000000000E+00 -0.45593999997E+02  0.45594000000E+02  0.51100000000E-03 0.  1.
    9900012    2    1    2    0    0  0.57820577106E+01  0.10155203489E+02 -0.14632992214E+02  0.72461419682E+02  0.69999803799E+02 0.  0.
         12    1    1    2    0    0 -0.57820577106E+01 -0.10155203489E+02  0.14632992214E+02  0.18726580318E+02  0.00000000000E+00 0. -1.
         11    1    3    3    0    0  0.23206769207E+02  0.14076321045E+02 -0.15600255410E+02  0.31305988569E+02  0.51100000000E-03 0.  1.
        -11    1    3    3    0    0 -0.25890260006E+02  0.27344154062E+01  0.91876312599E+01  0.27607882194E+02  0.51100000000E-03 0. -1.
         12    1    3    3    0    0  0.84655485106E+01 -0.66555329617E+01 -0.82203680645E+01  0.13547548919E+02  0.00000000000E+00 0. -1.
</event>
<event>
 7    1  0.1339094E-013  0.7246175E+02  0.7816164E-02  0.1226708E+00
        -11   -1    0    0    0    0  0.00000000000E+00  0.00000000000E+00  0.45593999997E+02  0.45594000000E+02  0.51100000000E-03 0. -1.
         11   -1    0    0    0    0 -0.00000000000E+00 -0.00000000000E+00 -0.45593999997E+02  0.45594000000E+02  0.51100000000E-03 0.  1.
    9900012    2    1    2    0    0  0.31962569986E+01  0.73542252717E+01 -0.16922527160E+02  0.72461745339E+02  0.70000228028E+02 0.  0.
         12    1    1    2    0    0 -0.31962569986E+01 -0.73542252717E+01  0.16922527160E+02  0.18726254661E+02  0.00000000000E+00 0. -1.
         11    1    3    3    0    0 -0.10847896552E+02  0.10189293256E+01  0.69301265140E+01  0.12912851363E+02  0.51100000000E-03 0. -1.
        -11    1    3    3    0    0  0.26517590851E+02  0.42516105179E+00 -0.33486463607E+02  0.42716584972E+02  0.51100000000E-03 0.  1.
        -12    1    3    3    0    0 -0.12473437301E+02  0.59101348943E+01  0.96338099335E+01  0.16832309004E+02  0.00000000000E+00 0.  1.
</event>
<event>
 7    1  0.1339094E-013  0.7246159E+02  0.7816164E-02  0.1226708E+00
        -11   -1    0    0    0    0  0.00000000000E+00  0.00000000000E+00  0.45593999997E+02  0.45594000000E+02  0.51100000000E-03 0.  1.
         11   -1    0    0    0    0 -0.00000000000E+00 -0.00000000000E+00 -0.45593999997E+02  0.45594000000E+02  0.51100000000E-03 0. -1.
    9900012    2    1    2    0    0  0.96753552088E+01  0.14402359544E+02  0.70454287283E+01  0.72461587508E+02  0.70000022424E+02 0.  0.
         12    1    1    2    0    0 -0.96753552088E+01 -0.14402359544E+02 -0.70454287283E+01  0.18726412492E+02  0.00000000000E+00 0. -1.
         11    1    3    3    0    0 -0.81145850222E+01  0.21609251801E+02 -0.12607318749E+02  0.26301154723E+02  0.51100000000E-03 0. -1.
        -11    1    3    3    0    0  0.19625981377E+01 -0.19929227582E+02  0.15761335919E+02  0.25484222838E+02  0.51100000000E-03 0.  1.
         12    1    3    3    0    0  0.15827342093E+02  0.12722335325E+02  0.38914115582E+01  0.20676209947E+02  0.00000000000E+00 0. -1.
</event>
<event>
 7    1  0.1339094E-013  0.7246158E+02  0.7816164E-02  0.1226708E+00
        -11   -1    0    0    0    0  0.00000000000E+00  0.00000000000E+00  0.45593999997E+02  0.45594000000E+02  0.51100000000E-03 0.  1.
         11   -1    0    0    0    0 -0.00000000000E+00 -0.00000000000E+00 -0.45593999997E+02  0.45594000000E+02  0.51100000000E-03 0. -1.
    9900012    2    1    2    0    0  0.14230601769E+02  0.61231573930E+01  0.10520254217E+02  0.72461579307E+02  0.70000011741E+02 0.  0.
         12    1    1    2    0    0 -0.14230601769E+02 -0.61231573930E+01 -0.10520254217E+02  0.18726420693E+02  0.00000000000E+00 0. -1.
         11    1    3    3    0    0  0.72346273193E+01  0.43713773873E+01 -0.10813710824E+02  0.13725345706E+02  0.51100000000E-03 0. -1.
        -11    1    3    3    0    0 -0.21048998352E+02  0.12015421214E+02  0.51845150734E+01  0.24785275374E+02  0.51100000000E-03 0.  1.
        -12    1    3    3    0    0  0.28044972802E+02 -0.10263641209E+02  0.16149449967E+02  0.33950958227E+02  0.00000000000E+00 0.  1.
</event>
<event>
 7    1  0.1339094E-013  0.7246150E+02  0.7816164E-02  0.1226708E+00
        -11   -1    0    0    0    0  0.00000000000E+00  0.00000000000E+00  0.45593999997E+02  0.45594000000E+02  0.51100000000E-03 0. -1.
         11   -1    0    0    0    0 -0.00000000000E+00 -0.00000000000E+00 -0.45593999997E+02  0.45594000000E+02  0.51100000000E-03 0.  1.
    9900012    2    1    2    0    0 -0.20292604772E+01  0.17622160697E+02 -0.60019458554E+01  0.72461500067E+02  0.69999908516E+02 0.  0.
         12    1    1    2    0    0  0.20292604772E+01 -0.17622160697E+02  0.60019458554E+01  0.18726499933E+02  0.00000000000E+00 0. -1.
         11    1    3    3    0    0  0.22125369141E+02  0.27404378817E+02 -0.93517265580E+01  0.36441552215E+02  0.51100000000E-03 0.  1.
        -11    1    3    3    0    0 -0.12730441322E+02 -0.11269945442E+02  0.12667904553E+02  0.21202632208E+02  0.51100000000E-03 0. -1.
        -12    1    3    3    0    0 -0.11424188296E+02  0.14877273214E+01 -0.93181238506E+01  0.14817315644E+02  0.00000000000E+00 0.  1.
</event>
<event>
 7    1  0.1339094E-013  0.7246197E+02  0.7816164E-02  0.1226707E+00
        -11   -1    0    0    0    0  0.00000000000E+00  0.00000000000E+00  0.45593999997E+02  0.45594000000E+02  0.51100000000E-03 0.  1.
         11   -1    0    0    0    0 -0.00000000000E+00 -0.00000000000E+00 -0.45593999997E+02  0.45594000000E+02  0.51100000000E-03 0. -1.
    9900012    2    1    2    0    0  0.51469334290E+01 -0.13473493428E+02  0.11943118776E+02  0.72461974394E+02  0.70000526413E+02 0.  0.
         12    1    1    2    0    0 -0.51469334290E+01  0.13473493428E+02 -0.11943118776E+02  0.18726025606E+02  0.00000000000E+00 0. -1.
         11    1    3    3    0    0 -0.21611663494E+02 -0.28954631174E+01  0.12603033300E+02  0.25184998596E+02  0.51100000000E-03 0.  1.
        -11    1    3    3    0    0  0.12788534965E+02 -0.24203859555E+02 -0.33452370672E+01  0.27578325823E+02  0.51100000000E-03 0. -1.
         12    1    3    3    0    0  0.13970061958E+02  0.13625829244E+02  0.26853225431E+01  0.19698649975E+02  0.00000000000E+00 0. -1.
</event>
<event>
 7    1  0.1339094E-013  0.7246157E+02  0.7816164E-02  0.1226708E+00
        -11   -1    0    0    0    0  0.00000000000E+00  0.00000000000E+00  0.45593999997E+02  0.45594000000E+02  0.51100000000E-03 0.  1.
         11   -1    0    0    0    0 -0.00000000000E+00 -0.00000000000E+00 -0.45593999997E+02  0.45594000000E+02  0.51100000000E-03 0. -1.
    9900012    2    1    2    0    0  0.62033973805E+01 -0.11420077336E+01  0.17632150844E+02  0.72461573109E+02  0.70000003667E+02 0.  0.
         12    1    1    2    0    0 -0.62033973805E+01  0.11420077336E+01 -0.17632150844E+02  0.18726426891E+02  0.00000000000E+00 0. -1.
         11    1    3    3    0    0 -0.11829478739E+01 -0.20534232984E+02 -0.73938539549E+01  0.21856879157E+02  0.51100000000E-03 0.  1.
        -11    1    3    3    0    0 -0.20324636555E+01  0.29391553247E+02  0.21350670102E+02  0.36384686681E+02  0.51100000000E-03 0. -1.
        -12    1    3    3    0    0  0.94188089099E+01 -0.99993279969E+01  0.36753346961E+01  0.14220007271E+02  0.00000000000E+00 0.  1.
</event>
<event>
 7    1  0.1339094E-013  0.7246163E+02  0.7816164E-02  0.1226708E+00
        -11   -1    0    0    0    0  0.00000000000E+00  0.00000000000E+00  0.45593999997E+02  0.45594000000E+02  0.51100000000E-03 0.  1.
         11   -1    0    0    0    0 -0.00000000000E+00 -0.00000000000E+00 -0.45593999997E+02  0.45594000000E+02  0.51100000000E-03 0. -1.
    9900012    2    1    2    0    0  0.29315923550E+01 -0.13676791631E+02  0.12451033869E+02  0.72461625352E+02  0.70000071723E+02 0.  0.
         12    1    1    2    0    0 -0.29315923550E+01  0.13676791631E+02 -0.12451033869E+02  0.18726374648E+02  0.00000000000E+00 0. -1.
         11    1    3    3    0    0  0.12872735806E+02  0.18530991692E+02 -0.89632302335E+01  0.24278477644E+02  0.51100000000E-03 0. -1.
        -11    1    3    3    0    0 -0.13792718574E+02 -0.10539000150E+02  0.19477155454E+02  0.26089637688E+02  0.51100000000E-03 0.  1.
         12    1    3    3    0    0  0.38515751225E+01 -0.21668783172E+02  0.19371086485E+01  0.22093510020E+02  0.00000000000E+00 0. -1.
</event>
<event>
 7    1  0.1339094E-013  0.7246150E+02  0.7816164E-02  0.1226708E+00
        -11   -1    0    0    0    0  0.00000000000E+00  0.00000000000E+00  0.45593999997E+02  0.45594000000E+02  0.51100000000E-03 0.  1.
         11   -1    0    0    0    0 -0.00000000000E+00 -0.00000000000E+00 -0.45593999997E+02  0.45594000000E+02  0.51100000000E-03 0. -1.
    9900012    2    1    2    0    0  0.40965776859E+01  0.49926139034E+01  0.17577644499E+02  0.72461501970E+02  0.69999910995E+02 0.  0.
         12    1    1    2    0    0 -0.40965776859E+01 -0.49926139034E+01 -0.17577644499E+02  0.18726498030E+02  0.00000000000E+00 0. -1.
         11    1    3    3    0    0  0.22956884976E+02  0.30905905145E+01  0.24169068363E+02  0.33477069516E+02  0.51100000000E-03 0. -1.
        -11    1    3    3    0    0 -0.11578815557E+02 -0.10304487479E+02  0.89703902942E+01  0.17908638535E+02  0.51100000000E-03 0.  1.
         12    1    3    3    0    0 -0.72814917337E+01  0.12206510868E+02 -0.15561814158E+02  0.21075793919E+02  0.00000000000E+00 0. -1.
</event>
<event>
 7    1  0.1339094E-013  0.7246153E+02  0.7816164E-02  0.1226708E+00
        -11   -1    0    0    0    0  0.00000000000E+00  0.00000000000E+00  0.45593999997E+02  0.45594000000E+02  0.51100000000E-03 0.  1.
         11   -1    0    0    0    0 -0.00000000000E+00 -0.00000000000E+00 -0.45593999997E+02  0.45594000000E+02  0.51100000000E-03 0. -1.
    9900012    2    1    2    0    0  0.15504773193E+02  0.37373965424E+01 -0.98140058416E+01  0.72461525816E+02  0.69999942059E+02 0.  0.
         12    1    1    2    0    0 -0.15504773193E+02 -0.37373965424E+01  0.98140058416E+01  0.18726474184E+02  0.00000000000E+00 0. -1.
         11    1    3    3    0    0  0.11944657580E+02 -0.16564458985E+02 -0.53354132245E+01  0.21107410564E+02  0.51100000000E-03 0. -1.
        -11    1    3    3    0    0  0.15719280438E+02  0.31112844948E+02 -0.38687839250E+01  0.35072387823E+02  0.51100000000E-03 0.  1.
        -12    1    3    3    0    0 -0.12159164824E+02 -0.10810989421E+02 -0.60980869202E+00  0.16281727430E+02  0.00000000000E+00 0.  1.
</event>
<event>
 7    1  0.1339094E-013  0.7246155E+02  0.7816164E-02  0.1226708E+00
        -11   -1    0    0    0    0  0.00000000000E+00  0.00000000000E+00  0.45593999997E+02  0.45594000000E+02  0.51100000000E-03 0.  1.
         11   -1    0    0    0    0 -0.00000000000E+00 -0.00000000000E+00 -0.45593999997E+02  0.45594000000E+02  0.51100000000E-03 0. -1.
    9900012    2    1    2    0    0  0.41724642113E+01  0.96642138883E+01  0.15487842612E+02  0.72461554624E+02  0.69999979586E+02 0.  0.
         12    1    1    2    0    0 -0.41724642113E+01 -0.96642138883E+01 -0.15487842612E+02  0.18726445376E+02  0.00000000000E+00 0. -1.
         11    1    3    3    0    0  0.23376536432E+02  0.29601527111E+02  0.68921213293E+01  0.38343372302E+02  0.51100000000E-03 0. -1.
        -11    1    3    3    0    0  0.16653027247E+01 -0.78110167172E+01  0.56923203006E+01  0.98075341441E+01  0.51100000000E-03 0.  1.
         12    1    3    3    0    0 -0.20869374945E+02 -0.12126296505E+02  0.29034009816E+01  0.24310648177E+02  0.00000000000E+00 0. -1.
</event>
<event>
 7    1  0.1339094E-013  0.7246158E+02  0.7816164E-02  0.1226708E+00
        -11   -1    0    0    0    0  0.00000000000E+00  0.00000000000E+00  0.45593999997E+02  0.45594000000E+02  0.51100000000E-03 0.  1.
         11   -1    0    0    0    0 -0.00000000000E+00 -0.00000000000E+00 -0.45593999997E+02  0.45594000000E+02  0.51100000000E-03 0. -1.
    9900012    2    1    2    0    0 -0.22308916511E+01 -0.18249375873E+02 -0.35584040879E+01  0.72461579174E+02  0.70000011567E+02 0.  0.
         12    1    1    2    0    0  0.22308916511E+01  0.18249375873E+02  0.35584040879E+01  0.18726420826E+02  0.00000000000E+00 0. -1.
         11    1    3    3    0    0  0.23744998496E+02  0.81697995875E+01 -0.53892263429E+01  0.25682958157E+02  0.51100000000E-03 0. -1.
        -11    1    3    3    0    0 -0.11249261873E+02 -0.12421392858E+02 -0.13341979875E+02  0.21420675070E+02  0.51100000000E-03 0.  1.
         12    1    3    3    0    0 -0.14726628275E+02 -0.13997782602E+02  0.15172802130E+02  0.25357945946E+02  0.00000000000E+00 0. -1.
</event>
<event>
 7    1  0.1339094E-013  0.7246158E+02  0.7816164E-02  0.1226708E+00
        -11   -1    0    0    0    0  0.00000000000E+00  0.00000000000E+00  0.45593999997E+02  0.45594000000E+02  0.51100000000E-03 0.  1.
         11   -1    0    0    0    0 -0.00000000000E+00 -0.00000000000E+00 -0.45593999997E+02  0.45594000000E+02  0.51100000000E-03 0. -1.
    9900012    2    1    2    0    0 -0.17655502876E+02 -0.28917238968E+01 -0.55317199680E+01  0.72461580836E+02  0.70000013733E+02 0.  0.
         12    1    1    2    0    0  0.17655502876E+02  0.28917238968E+01  0.55317199680E+01  0.18726419164E+02  0.00000000000E+00 0. -1.
         11    1    3    3    0    0 -0.90392063442E+01 -0.20774688253E+02 -0.17190469265E+02  0.28439535108E+02  0.51100000000E-03 0. -1.
        -11    1    3    3    0    0 -0.20028621265E+02  0.15321285613E+02  0.17747301489E+02  0.30835923417E+02  0.51100000000E-03 0.  1.
         12    1    3    3    0    0  0.11412324734E+02  0.25616787433E+01 -0.60885521915E+01  0.13186122311E+02  0.00000000000E+00 0. -1.
</event>
<event>
 7    1  0.1339094E-013  0.7246156E+02  0.7816164E-02  0.1226708E+00
        -11   -1    0    0    0    0  0.00000000000E+00  0.00000000000E+00  0.45593999997E+02  0.45594000000E+02  0.51100000000E-03 0.  1.
         11   -1    0    0    0    0 -0.00000000000E+00 -0.00000000000E+00 -0.45593999997E+02  0.45594000000E+02  0.51100000000E-03 0. -1.
    9900012    2    1    2    0    0 -0.87125716937E+01 -0.68495644792E+01  0.15094838930E+02  0.72461558763E+02  0.69999984979E+02 0.  0.
         12    1    1    2    0    0  0.87125716937E+01  0.68495644792E+01 -0.15094838930E+02  0.18726441237E+02  0.00000000000E+00 0. -1.
         11    1    3    3    0    0 -0.36939537346E+01  0.79078417125E+01 -0.25682897252E+02  0.27125457900E+02  0.51100000000E-03 0. -1.
        -11    1    3    3    0    0 -0.73448081304E+01 -0.64628677859E+01  0.13108738700E+02  0.16357074832E+02  0.51100000000E-03 0.  1.
         12    1    3    3    0    0  0.23261901713E+01 -0.82945384058E+01  0.27668997482E+02  0.28979026032E+02  0.00000000000E+00 0. -1.
</event>
<event>
 7    1  0.1339094E-013  0.7246158E+02  0.7816164E-02  0.1226708E+00
        -11   -1    0    0    0    0  0.00000000000E+00  0.00000000000E+00  0.45593999997E+02  0.45594000000E+02  0.51100000000E-03 0.  1.
         11   -1    0    0    0    0 -0.00000000000E+00 -0.00000000000E+00 -0.45593999997E+02  0.45594000000E+02  0.51100000000E-03 0. -1.
    9900012    2    1    2    0    0 -0.39626317550E+01  0.10713479647E+02  0.14839060023E+02  0.72461580189E+02  0.70000012889E+02 0.  0.
         12    1    1    2    0    0  0.39626317550E+01 -0.10713479647E+02 -0.14839060023E+02  0.18726419811E+02  0.00000000000E+00 0. -1.
         11    1    3    3    0    0  0.81926676511E+01 -0.54252725333E+01 -0.17598261326E+02  0.20155698630E+02  0.51100000000E-03 0. -1.
        -11    1    3    3    0    0  0.10057359436E+02  0.15853815245E+02  0.16065956380E+02  0.24710501640E+02  0.51100000000E-03 0.  1.
         12    1    3    3    0    0 -0.22212658842E+02  0.28493693598E+00  0.16371364969E+02  0.27595379918E+02  0.00000000000E+00 0. -1.
</event>
<event>
 7    1  0.1339094E-013  0.7246156E+02  0.7816164E-02  0.1226708E+00
        -11   -1    0    0    0    0  0.00000000000E+00  0.00000000000E+00  0.45593999997E+02  0.45594000000E+02  0.51100000000E-03 0.  1.
         11   -1    0    0    0    0 -0.00000000000E+00 -0.00000000000E+00 -0.45593999997E+02  0.45594000000E+02  0.51100000000E-03 0. -1.
    9900012    2    1    2    0    0 -0.15319334559E+02 -0.63060020671E+01  0.87310915273E+01  0.72461557928E+02  0.69999983891E+02 0.  0.
         12    1    1    2    0    0  0.15319334559E+02  0.63060020671E+01 -0.87310915273E+01  0.18726442072E+02  0.00000000000E+00 0. -1.
         11    1    3    3    0    0 -0.14816855703E+01  0.89684500485E+01 -0.18428809887E+02  0.20548710969E+02  0.51100000000E-03 0. -1.
        -11    1    3    3    0    0 -0.24317973450E+02  0.76156076890E+00  0.19880602855E+02  0.31419455401E+02  0.51100000000E-03 0.  1.
        -12    1    3    3    0    0  0.10480324461E+02 -0.16036012885E+02  0.72792985589E+01  0.20493391558E+02  0.00000000000E+00 0.  1.
</event>
<event>
 7    1  0.1339094E-013  0.7246161E+02  0.7816164E-02  0.1226708E+00
        -11   -1    0    0    0    0  0.00000000000E+00  0.00000000000E+00  0.45593999997E+02  0.45594000000E+02  0.51100000000E-03 0.  1.
         11   -1    0    0    0    0 -0.00000000000E+00 -0.00000000000E+00 -0.45593999997E+02  0.45594000000E+02  0.51100000000E-03 0. -1.
    9900012    2    1    2    0    0  0.15507350279E+02  0.60396138583E+01 -0.85861957562E+01  0.72461612047E+02  0.70000054390E+02 0.  0.
         12    1    1    2    0    0 -0.15507350279E+02 -0.60396138583E+01  0.85861957562E+01  0.18726387953E+02  0.00000000000E+00 0. -1.
         11    1    3    3    0    0  0.75675045359E+01  0.90432404136E+01 -0.73053982986E+01  0.13871415452E+02  0.51100000000E-03 0. -1.
        -11    1    3    3    0    0  0.14405223922E+02 -0.19024828104E+02  0.20030526758E+02  0.31155682677E+02  0.51100000000E-03 0.  1.
        -12    1    3    3    0    0 -0.64653781792E+01  0.16021201549E+02 -0.21311324216E+02  0.27434513917E+02  0.00000000000E+00 0.  1.
</event>
<event>
 7    1  0.1339094E-013  0.7246151E+02  0.7816164E-02  0.1226708E+00
        -11   -1    0    0    0    0  0.00000000000E+00  0.00000000000E+00  0.45593999997E+02  0.45594000000E+02  0.51100000000E-03 0.  1.
         11   -1    0    0    0    0 -0.00000000000E+00 -0.00000000000E+00 -0.45593999997E+02  0.45594000000E+02  0.51100000000E-03 0. -1.
    9900012    2    1    2    0    0  0.58792182814E+01 -0.12686174831E+02  0.12457020930E+02  0.72461505136E+02  0.69999915119E+02 0.  0.
         12    1    1    2    0    0 -0.58792182814E+01  0.12686174831E+02 -0.12457020930E+02  0.18726494864E+02  0.00000000000E+00 0. -1.
         11    1    3    3    0    0  0.16933716008E+02  0.49105958558E+01 -0.24153470132E+02  0.29904093519E+02  0.51100000000E-03 0. -1.
        -11    1    3    3    0    0 -0.29378442105E+01 -0.85536980616E+01  0.11238710389E+02  0.14425854935E+02  0.51100000000E-03 0.  1.
         12    1    3    3    0    0 -0.81166535163E+01 -0.90430726250E+01  0.25371780674E+02  0.28131556682E+02  0.00000000000E+00 0. -1.
</event>
<event>
 7    1  0.1339094E-013  0.7246160E+02  0.7816164E-02  0.1226708E+00
        -11   -1    0    0    0    0  0.00000000000E+00  0.00000000000E+00  0.45593999997E+02  0.45594000000E+02  0.51100000000E-03 0. -1.
         11   -1    0    0    0    0 -0.00000000000E+00 -0.00000000000E+00 -0.45593999997E+02  0.45594000000E+02  0.51100000000E-03 0.  1.
    9900012    2    1    2    0    0  0.31435451707E+01 -0.15263651466E+02 -0.10383510692E+02  0.72461595471E+02  0.70000032797E+02 0.  0.
         12    1    1    2    0    0 -0.31435451707E+01  0.15263651466E+02  0.10383510692E+02  0.18726404529E+02  0.00000000000E+00 0. -1.
         11    1    3    3    0    0  0.13363544390E+02 -0.44588258280E+01 -0.93831863992E+01  0.16926595455E+02  0.51100000000E-03 0. -1.
        -11    1    3    3    0    0 -0.16761892556E+02 -0.18598168540E+02 -0.21271687104E+02  0.32853273621E+02  0.51100000000E-03 0.  1.
        -12    1    3    3    0    0  0.65418933361E+01  0.77933429025E+01  0.20271362811E+02  0.22681726395E+02  0.00000000000E+00 0.  1.
</event>
<event>
 7    1  0.1339094E-013  0.7246159E+02  0.7816164E-02  0.1226708E+00
        -11   -1    0    0    0    0  0.00000000000E+00  0.00000000000E+00  0.45593999997E+02  0.45594000000E+02  0.51100000000E-03 0. -1.
         11   -1    0    0    0    0 -0.00000000000E+00 -0.00000000000E+00 -0.45593999997E+02  0.45594000000E+02  0.51100000000E-03 0.  1.
    9900012    2    1    2    0    0 -0.19829267487E+01  0.13000102061E+01 -0.18575689932E+02  0.72461594005E+02  0.70000030887E+02 0.  0.
         12    1    1    2    0    0  0.19829267487E+01 -0.13000102061E+01  0.18575689932E+02  0.18726405995E+02  0.00000000000E+00 0. -1.
         11    1    3    3    0    0  0.26170856395E+02  0.98678067816E+01 -0.61235166418E+01  0.28631884176E+02  0.51100000000E-03 0. -1.
        -11    1    3    3    0    0 -0.18804164780E+02  0.70134473192E+01 -0.15559818222E+02  0.25394743546E+02  0.51100000000E-03 0.  1.
         12    1    3    3    0    0 -0.93496183634E+01 -0.15581243895E+02  0.31076449316E+01  0.18434966283E+02  0.00000000000E+00 0. -1.
</event>
<event>
 7    1  0.1339094E-013  0.7246152E+02  0.7816164E-02  0.1226708E+00
        -11   -1    0    0    0    0  0.00000000000E+00  0.00000000000E+00  0.45593999997E+02  0.45594000000E+02  0.51100000000E-03 0.  1.
         11   -1    0    0    0    0 -0.00000000000E+00 -0.00000000000E+00 -0.45593999997E+02  0.45594000000E+02  0.51100000000E-03 0. -1.
    9900012    2    1    2    0    0  0.45750959690E+01 -0.85313898111E+01  0.16030129267E+02  0.72461517160E+02  0.69999930782E+02 0.  0.
         12    1    1    2    0    0 -0.45750959690E+01  0.85313898111E+01 -0.16030129267E+02  0.18726482840E+02  0.00000000000E+00 0. -1.
         11    1    3    3    0    0  0.11440375472E+02 -0.21345637162E+02 -0.15116476845E+02  0.28548665280E+02  0.51100000000E-03 0.  1.
        -11    1    3    3    0    0 -0.42488385364E+01  0.14941618121E+02  0.35297711959E+02  0.38564660647E+02  0.51100000000E-03 0. -1.
         12    1    3    3    0    0 -0.26164409662E+01 -0.21273707709E+01 -0.41511058460E+01  0.53481912336E+01  0.00000000000E+00 0. -1.
</event>
<event>
 7    1  0.1339094E-013  0.7246161E+02  0.7816164E-02  0.1226708E+00
        -11   -1    0    0    0    0  0.00000000000E+00  0.00000000000E+00  0.45593999997E+02  0.45594000000E+02  0.51100000000E-03 0.  1.
         11   -1    0    0    0    0 -0.00000000000E+00 -0.00000000000E+00 -0.45593999997E+02  0.45594000000E+02  0.51100000000E-03 0. -1.
    9900012    2    1    2    0    0  0.40922400398E+01  0.14544952381E+02  0.11062349328E+02  0.72461611107E+02  0.70000053166E+02 0.  0.
         12    1    1    2    0    0 -0.40922400398E+01 -0.14544952381E+02 -0.11062349328E+02  0.18726388893E+02  0.00000000000E+00 0. -1.
         11    1    3    3    0    0  0.16247726502E+02 -0.11313339979E+02  0.24957623896E+02  0.31856918695E+02  0.51100000000E-03 0.  1.
        -11    1    3    3    0    0 -0.15833092173E+02  0.17829394604E+02 -0.18924532720E+02  0.30441945711E+02  0.51100000000E-03 0. -1.
         12    1    3    3    0    0  0.36776057113E+01  0.80288977562E+01  0.50292581523E+01  0.10162746701E+02  0.00000000000E+00 0. -1.
</event>
<event>
 7    1  0.1339094E-013  0.7246163E+02  0.7816164E-02  0.1226708E+00
        -11   -1    0    0    0    0  0.00000000000E+00  0.00000000000E+00  0.45593999997E+02  0.45594000000E+02  0.51100000000E-03 0.  1.
         11   -1    0    0    0    0 -0.00000000000E+00 -0.00000000000E+00 -0.45593999997E+02  0.45594000000E+02  0.51100000000E-03 0. -1.
    9900012    2    1    2    0    0 -0.13807203717E+02 -0.42949744834E+01  0.11899217177E+02  0.72461626893E+02  0.70000073730E+02 0.  0.
         12    1    1    2    0    0  0.13807203717E+02  0.42949744834E+01 -0.11899217177E+02  0.18726373107E+02  0.00000000000E+00 0. -1.
         11    1    3    3    0    0 -0.33937664347E+01  0.20560294580E+02 -0.19748469470E+02  0.28709674511E+02  0.51100000000E-03 0. -1.
        -11    1    3    3    0    0  0.18882672905E+01 -0.89422913777E+01  0.15347731418E+02  0.17862894178E+02  0.51100000000E-03 0.  1.
         12    1    3    3    0    0 -0.12301704573E+02 -0.15912977686E+02  0.16299955229E+02  0.25889058205E+02  0.00000000000E+00 0. -1.
</event>
<event>
 7    1  0.1339094E-013  0.7246157E+02  0.7816164E-02  0.1226708E+00
        -11   -1    0    0    0    0  0.00000000000E+00  0.00000000000E+00  0.45593999997E+02  0.45594000000E+02  0.51100000000E-03 0.  1.
         11   -1    0    0    0    0 -0.00000000000E+00 -0.00000000000E+00 -0.45593999997E+02  0.45594000000E+02  0.51100000000E-03 0. -1.
    9900012    2    1    2    0    0 -0.15193278763E+02 -0.10794657826E+02 -0.18217614985E+01  0.72461570225E+02  0.69999999910E+02 0.  0.
         12    1    1    2    0    0  0.15193278763E+02  0.10794657826E+02  0.18217614985E+01  0.18726429775E+02  0.00000000000E+00 0. -1.
         11    1    3    3    0    0 -0.22091931108E+02 -0.84081719096E+00  0.12866384128E+02  0.25579371267E+02  0.51100000000E-03 0.  1.
        -11    1    3    3    0    0  0.24287036482E+02 -0.83876477271E+01 -0.29931550122E+01  0.25868354270E+02  0.51100000000E-03 0. -1.
         12    1    3    3    0    0 -0.17388384137E+02 -0.15661929078E+01 -0.11694990614E+02  0.21013844688E+02  0.00000000000E+00 0. -1.
</event>
<event>
 7    1  0.1339094E-013  0.7246156E+02  0.7816164E-02  0.1226708E+00
        -11   -1    0    0    0    0  0.00000000000E+00  0.00000000000E+00  0.45593999997E+02  0.45594000000E+02  0.51100000000E-03 0. -1.
         11   -1    0    0    0    0 -0.00000000000E+00 -0.00000000000E+00 -0.45593999997E+02  0.45594000000E+02  0.51100000000E-03 0.  1.
    9900012    2    1    2    0    0 -0.15207747169E+02  0.71042707962E+01 -0.83025999389E+01  0.72461564054E+02  0.69999991871E+02 0.  0.
         12    1    1    2    0    0  0.15207747169E+02 -0.71042707962E+01  0.83025999389E+01  0.18726435946E+02  0.00000000000E+00 0. -1.
         11    1    3    3    0    0  0.25668760378E+02  0.92952836187E+01 -0.29049216987E+01  0.27454073053E+02  0.51100000000E-03 0. -1.
        -11    1    3    3    0    0 -0.23082636739E+02 -0.96193647650E+01 -0.85490069343E-01  0.25006951156E+02  0.51100000000E-03 0.  1.
         12    1    3    3    0    0 -0.17793870808E+02  0.74283519425E+01 -0.53121881708E+01  0.20000539845E+02  0.00000000000E+00 0. -1.
</event>
<event>
 7    1  0.1339094E-013  0.7246154E+02  0.7816164E-02  0.1226708E+00
        -11   -1    0    0    0    0  0.00000000000E+00  0.00000000000E+00  0.45593999997E+02  0.45594000000E+02  0.51100000000E-03 0. -1.
         11   -1    0    0    0    0 -0.00000000000E+00 -0.00000000000E+00 -0.45593999997E+02  0.45594000000E+02  0.51100000000E-03 0.  1.
    9900012    2    1    2    0    0  0.17015968523E+02  0.35315175302E+01  0.69760680489E+01  0.72461539409E+02  0.69999959766E+02 0.  0.
         12    1    1    2    0    0 -0.17015968523E+02 -0.35315175302E+01 -0.69760680489E+01  0.18726460591E+02  0.00000000000E+00 0. -1.
         11    1    3    3    0    0 -0.84953456633E+01  0.41562755865E+00  0.28010509055E+02  0.29273405371E+02  0.51100000000E-03 0.  1.
        -11    1    3    3    0    0  0.21284023082E+02 -0.87840906190E+01 -0.64824306047E+01  0.23920530792E+02  0.51100000000E-03 0. -1.
        -12    1    3    3    0    0  0.42272911045E+01  0.11899980591E+02 -0.14552010401E+02  0.19267603246E+02  0.00000000000E+00 0.  1.
</event>
<event>
 7    1  0.1339094E-013  0.7246152E+02  0.7816164E-02  0.1226708E+00
        -11   -1    0    0    0    0  0.00000000000E+00  0.00000000000E+00  0.45593999997E+02  0.45594000000E+02  0.51100000000E-03 0.  1.
         11   -1    0    0    0    0 -0.00000000000E+00 -0.00000000000E+00 -0.45593999997E+02  0.45594000000E+02  0.51100000000E-03 0. -1.
    9900012    2    1    2    0    0 -0.27086758541E+01 -0.87148629197E+01  0.16352223538E+02  0.72461522082E+02  0.69999937194E+02 0.  0.
         12    1    1    2    0    0  0.27086758541E+01  0.87148629197E+01 -0.16352223538E+02  0.18726477918E+02  0.00000000000E+00 0. -1.
         11    1    3    3    0    0 -0.36717187950E+01  0.74668035904E+01 -0.22963617843E+02  0.24424627315E+02  0.51100000000E-03 0. -1.
        -11    1    3    3    0    0 -0.76188017695E+01  0.12467248800E+01  0.75284073097E+01  0.10783198979E+02  0.51100000000E-03 0.  1.
         12    1    3    3    0    0  0.85818447105E+01 -0.17428391390E+02  0.31787434071E+02  0.37253695788E+02  0.00000000000E+00 0. -1.
</event>
<event>
 7    1  0.1339094E-013  0.7246153E+02  0.7816164E-02  0.1226708E+00
        -11   -1    0    0    0    0  0.00000000000E+00  0.00000000000E+00  0.45593999997E+02  0.45594000000E+02  0.51100000000E-03 0. -1.
         11   -1    0    0    0    0 -0.00000000000E+00 -0.00000000000E+00 -0.45593999997E+02  0.45594000000E+02  0.51100000000E-03 0.  1.
    9900012    2    1    2    0    0  0.13804149891E+02  0.12626595178E+02  0.83386677415E+00  0.72461526925E+02  0.69999943504E+02 0.  0.
         12    1    1    2    0    0 -0.13804149891E+02 -0.12626595178E+02 -0.83386677415E+00  0.18726473075E+02  0.00000000000E+00 0. -1.
         11    1    3    3    0    0  0.26275356917E+02 -0.28129471318E+01  0.23796674157E+02  0.35561056704E+02  0.51100000000E-03 0. -1.
        -11    1    3    3    0    0  0.24304073130E+01  0.50336277890E+01 -0.16805227707E+02  0.17710447960E+02  0.51100000000E-03 0.  1.
         12    1    3    3    0    0 -0.14901614338E+02  0.10405914521E+02 -0.61575796766E+01  0.19190022261E+02  0.00000000000E+00 0. -1.
</event>
<event>
 7    1  0.1339094E-013  0.7246150E+02  0.7816164E-02  0.1226708E+00
        -11   -1    0    0    0    0  0.00000000000E+00  0.00000000000E+00  0.45593999997E+02  0.45594000000E+02  0.51100000000E-03 0.  1.
         11   -1    0    0    0    0 -0.00000000000E+00 -0.00000000000E+00 -0.45593999997E+02  0.45594000000E+02  0.51100000000E-03 0. -1.
    9900012    2    1    2    0    0 -0.17622202317E+02  0.55046541975E+01 -0.31366586753E+01  0.72461498459E+02  0.69999906421E+02 0.  0.
         12    1    1    2    0    0  0.17622202317E+02 -0.55046541975E+01  0.31366586753E+01  0.18726501541E+02  0.00000000000E+00 0. -1.
         11    1    3    3    0    0 -0.60492995002E+01  0.23850215454E+02 -0.10122111686E+02  0.26606088531E+02  0.51100000000E-03 0. -1.
        -11    1    3    3    0    0 -0.59558510037E+01 -0.22676153270E+02  0.20141746393E+02  0.30909060748E+02  0.51100000000E-03 0.  1.
        -12    1    3    3    0    0 -0.56170518128E+01  0.43305920138E+01 -0.13156293382E+02  0.14946349180E+02  0.00000000000E+00 0.  1.
</event>
<event>
 7    1  0.1339094E-013  0.7246163E+02  0.7816164E-02  0.1226708E+00
        -11   -1    0    0    0    0  0.00000000000E+00  0.00000000000E+00  0.45593999997E+02  0.45594000000E+02  0.51100000000E-03 0.  1.
         11   -1    0    0    0    0 -0.00000000000E+00 -0.00000000000E+00 -0.45593999997E+02  0.45594000000E+02  0.51100000000E-03 0. -1.
    9900012    2    1    2    0    0 -0.89856296823E+01 -0.15779031038E+02 -0.45779256975E+01  0.72461634496E+02  0.70000083635E+02 0.  0.
         12    1    1    2    0    0  0.89856296823E+01  0.15779031038E+02  0.45779256975E+01  0.18726365504E+02  0.00000000000E+00 0. -1.
         11    1    3    3    0    0 -0.11381220362E+02  0.10237220596E+02  0.14143463516E+02  0.20841555195E+02  0.51100000000E-03 0. -1.
        -11    1    3    3    0    0  0.11119451368E+02 -0.16409109271E+02 -0.28957531420E+02  0.35091875013E+02  0.51100000000E-03 0.  1.
        -12    1    3    3    0    0 -0.87238606883E+01 -0.96071423637E+01  0.10236142206E+02  0.16528204288E+02  0.00000000000E+00 0.  1.
</event>
<event>
 7    1  0.1339094E-013  0.7246157E+02  0.7816164E-02  0.1226708E+00
        -11   -1    0    0    0    0  0.00000000000E+00  0.00000000000E+00  0.45593999997E+02  0.45594000000E+02  0.51100000000E-03 0.  1.
         11   -1    0    0    0    0 -0.00000000000E+00 -0.00000000000E+00 -0.45593999997E+02  0.45594000000E+02  0.51100000000E-03 0. -1.
    9900012    2    1    2    0    0  0.72481260610E+01 -0.95274798579E+01 -0.14400381670E+02  0.72461569585E+02  0.69999999076E+02 0.  0.
         12    1    1    2    0    0 -0.72481260610E+01  0.95274798579E+01  0.14400381670E+02  0.18726430415E+02  0.00000000000E+00 0. -1.
         11    1    3    3    0    0  0.12200420285E+02 -0.52772784024E+00  0.22683734923E+02  0.25761998799E+02  0.51100000000E-03 0.  1.
        -11    1    3    3    0    0 -0.10144456931E+02 -0.12342976720E+02 -0.37239626122E+02  0.40522201750E+02  0.51100000000E-03 0. -1.
         12    1    3    3    0    0  0.51921627074E+01  0.33432247024E+01  0.15550952878E+00  0.61773690358E+01  0.00000000000E+00 0. -1.
</event>
<event>
 7    1  0.1339094E-013  0.7246154E+02  0.7816164E-02  0.1226708E+00
        -11   -1    0    0    0    0  0.00000000000E+00  0.00000000000E+00  0.45593999997E+02  0.45594000000E+02  0.51100000000E-03 0.  1.
         11   -1    0    0    0    0 -0.00000000000E+00 -0.00000000000E+00 -0.45593999997E+02  0.45594000000E+02  0.51100000000E-03 0. -1.
    9900012    2    1    2    0    0 -0.48480323142E+01  0.16817436943E+02 -0.66596365455E+01  0.72461538466E+02  0.69999958538E+02 0.  0.
         12    1    1    2    0    0  0.48480323142E+01 -0.16817436943E+02  0.66596365455E+01  0.18726461534E+02  0.00000000000E+00 0. -1.
         11    1    3    3    0    0 -0.52147304491E+00  0.13343937805E+02 -0.26570227649E+02  0.29737343659E+02  0.51100000000E-03 0. -1.
        -11    1    3    3    0    0 -0.48342800044E+01 -0.16552432002E+02  0.12768796252E+02  0.21456827033E+02  0.51100000000E-03 0.  1.
        -12    1    3    3    0    0  0.50772073515E+00  0.20025931140E+02  0.71417948515E+01  0.21267367775E+02  0.00000000000E+00 0.  1.
</event>
<event>
 8    1  0.1339094E-013  0.7246156E+02  0.7816164E-02  0.1226708E+00
        -11   -1    0    0    0    0  0.00000000000E+00  0.00000000000E+00  0.45593999997E+02  0.45594000000E+02  0.51100000000E-03 0.  1.
         11   -1    0    0    0    0 -0.00000000000E+00 -0.00000000000E+00 -0.45593999997E+02  0.45594000000E+02  0.51100000000E-03 0. -1.
    9900012    2    1    2    0    0 -0.12244272169E+02 -0.17808441679E+01  0.14056523667E+02  0.72461562418E+02  0.69999989740E+02 0.  0.
        -24    2    3    3    0    0 -0.24156693499E+02 -0.67903776386E+01  0.58339046575E+01  0.57144491185E+02  0.51007875469E+02 0.  0.
         12    1    1    2    0    0  0.12244272169E+02  0.17808441679E+01 -0.14056523667E+02  0.18726437582E+02  0.00000000000E+00 0. -1.
         11    1    4    4    0    0 -0.26920769451E+02  0.22349015952E+01 -0.17355118859E+02  0.32107985982E+02  0.51100000000E-03 0. -1.
        -11    1    3    3    0    0  0.11912421330E+02  0.50095334706E+01  0.82226190098E+01  0.15317071234E+02  0.51100000000E-03 0.  1.
        -12    1    4    4    0    0  0.27640759521E+01 -0.90252792337E+01  0.23189023516E+02  0.25036505202E+02  0.00000000000E+00 0.  1.
</event>
<event>
 7    1  0.1339094E-013  0.7246135E+02  0.7816164E-02  0.1226709E+00
        -11   -1    0    0    0    0  0.00000000000E+00  0.00000000000E+00  0.45593999997E+02  0.45594000000E+02  0.51100000000E-03 0. -1.
         11   -1    0    0    0    0 -0.00000000000E+00 -0.00000000000E+00 -0.45593999997E+02  0.45594000000E+02  0.51100000000E-03 0.  1.
    9900012    2    1    2    0    0 -0.17528093292E+02  0.38615766059E+00 -0.65805919312E+01  0.72461351545E+02  0.69999715038E+02 0.  0.
         12    1    1    2    0    0  0.17528093292E+02 -0.38615766059E+00  0.65805919312E+01  0.18726648455E+02  0.00000000000E+00 0. -1.
         11    1    3    3    0    0 -0.43412543921E+02 -0.51745379699E+01 -0.79623268325E+01  0.44438985832E+02  0.51100000000E-03 0. -1.
        -11    1    3    3    0    0  0.33545696587E+01  0.45670733975E+00 -0.29837644330E+01  0.45127120052E+01  0.51100000000E-03 0.  1.
         12    1    3    3    0    0  0.22529880971E+02  0.51039882908E+01  0.43654993343E+01  0.23509653708E+02  0.00000000000E+00 0. -1.
</event>
<event>
 7    1  0.1339094E-013  0.7246156E+02  0.7816164E-02  0.1226708E+00
        -11   -1    0    0    0    0  0.00000000000E+00  0.00000000000E+00  0.45593999997E+02  0.45594000000E+02  0.51100000000E-03 0. -1.
         11   -1    0    0    0    0 -0.00000000000E+00 -0.00000000000E+00 -0.45593999997E+02  0.45594000000E+02  0.51100000000E-03 0.  1.
    9900012    2    1    2    0    0  0.36240099317E+00  0.15401203106E+02 -0.10646652115E+02  0.72461558991E+02  0.69999985276E+02 0.  0.
         12    1    1    2    0    0 -0.36240099317E+00 -0.15401203106E+02  0.10646652115E+02  0.18726441009E+02  0.00000000000E+00 0. -1.
         11    1    3    3    0    0  0.23508899924E+02  0.36722984195E+01 -0.90451838998E+01  0.25455245105E+02  0.51100000000E-03 0. -1.
        -11    1    3    3    0    0 -0.19031232914E+02  0.23041736125E+02  0.87393785443E+01  0.31136572828E+02  0.51100000000E-03 0.  1.
        -12    1    3    3    0    0 -0.41152660175E+01 -0.11312831439E+02 -0.10340846760E+02  0.15869741058E+02  0.00000000000E+00 0.  1.
</event>
<event>
 7    1  0.1339094E-013  0.7246163E+02  0.7816164E-02  0.1226708E+00
        -11   -1    0    0    0    0  0.00000000000E+00  0.00000000000E+00  0.45593999997E+02  0.45594000000E+02  0.51100000000E-03 0. -1.
         11   -1    0    0    0    0 -0.00000000000E+00 -0.00000000000E+00 -0.45593999997E+02  0.45594000000E+02  0.51100000000E-03 0.  1.
    9900012    2    1    2    0    0 -0.63132369621E+01 -0.15837626380E+02  0.77453029365E+01  0.72461625875E+02  0.70000072404E+02 0.  0.
         12    1    1    2    0    0  0.63132369621E+01  0.15837626380E+02 -0.77453029365E+01  0.18726374125E+02  0.00000000000E+00 0. -1.
         11    1    3    3    0    0  0.20039989714E+01 -0.44736658810E+01  0.23722216630E+02  0.24223403155E+02  0.51100000000E-03 0. -1.
        -11    1    3    3    0    0 -0.25705153798E+02 -0.35905964507E+01 -0.56131068797E+01  0.26554741267E+02  0.51100000000E-03 0.  1.
        -12    1    3    3    0    0  0.17387917864E+02 -0.77733640479E+01 -0.10363806814E+02  0.21683481454E+02  0.00000000000E+00 0.  1.
</event>
<event>
 7    1  0.1339094E-013  0.7246173E+02  0.7816164E-02  0.1226708E+00
        -11   -1    0    0    0    0  0.00000000000E+00  0.00000000000E+00  0.45593999997E+02  0.45594000000E+02  0.51100000000E-03 0. -1.
         11   -1    0    0    0    0 -0.00000000000E+00 -0.00000000000E+00 -0.45593999997E+02  0.45594000000E+02  0.51100000000E-03 0.  1.
    9900012    2    1    2    0    0 -0.20551268739E+00  0.18379256870E+02  0.35824564558E+01  0.72461726671E+02  0.70000203709E+02 0.  0.
         12    1    1    2    0    0  0.20551268739E+00 -0.18379256870E+02 -0.35824564558E+01  0.18726273329E+02  0.00000000000E+00 0. -1.
         11    1    3    3    0    0  0.78920936210E+01  0.71656628844E+01 -0.16515352002E+02  0.19656772836E+02  0.51100000000E-03 0.  1.
        -11    1    3    3    0    0  0.10556172013E+02  0.18496717582E+02  0.24333229105E+02  0.32336780418E+02  0.51100000000E-03 0. -1.
        -12    1    3    3    0    0 -0.18653778321E+02 -0.72831235964E+01 -0.42354206469E+01  0.20468173417E+02  0.00000000000E+00 0.  1.
</event>
<event>
 7    1  0.1339094E-013  0.7246157E+02  0.7816164E-02  0.1226708E+00
        -11   -1    0    0    0    0  0.00000000000E+00  0.00000000000E+00  0.45593999997E+02  0.45594000000E+02  0.51100000000E-03 0. -1.
         11   -1    0    0    0    0 -0.00000000000E+00 -0.00000000000E+00 -0.45593999997E+02  0.45594000000E+02  0.51100000000E-03 0.  1.
    9900012    2    1    2    0    0 -0.85326953609E+01 -0.44818428926E+01 -0.16055696705E+02  0.72461569413E+02  0.69999998853E+02 0.  0.
         12    1    1    2    0    0  0.85326953609E+01  0.44818428926E+01  0.16055696705E+02  0.18726430587E+02  0.00000000000E+00 0. -1.
         11    1    3    3    0    0 -0.13084087436E+02 -0.18492327767E+02 -0.20999955849E+02  0.30889442795E+02  0.51100000000E-03 0. -1.
        -11    1    3    3    0    0 -0.37753006075E+01  0.10318782021E+02  0.20664324895E+02  0.23403941563E+02  0.51100000000E-03 0.  1.
        -12    1    3    3    0    0  0.83266926828E+01  0.36917028528E+01 -0.15720065750E+02  0.18168185055E+02  0.00000000000E+00 0.  1.
</event>
<event>
 7    1  0.1339094E-013  0.7246154E+02  0.7816164E-02  0.1226708E+00
        -11   -1    0    0    0    0  0.00000000000E+00  0.00000000000E+00  0.45593999997E+02  0.45594000000E+02  0.51100000000E-03 0.  1.
         11   -1    0    0    0    0 -0.00000000000E+00 -0.00000000000E+00 -0.45593999997E+02  0.45594000000E+02  0.51100000000E-03 0. -1.
    9900012    2    1    2    0    0 -0.49203792280E+01  0.54026938680E+01  0.17241840190E+02  0.72461540486E+02  0.69999961169E+02 0.  0.
         12    1    1    2    0    0  0.49203792280E+01 -0.54026938680E+01 -0.17241840190E+02  0.18726459514E+02  0.00000000000E+00 0. -1.
         11    1    3    3    0    0 -0.90547129102E+01 -0.18675720180E+02 -0.17495179188E+02  0.27145011424E+02  0.51100000000E-03 0. -1.
        -11    1    3    3    0    0  0.14889385568E+01  0.17209508197E+02  0.11034563972E+02  0.20497456250E+02  0.51100000000E-03 0.  1.
         12    1    3    3    0    0  0.26453951255E+01  0.68689058505E+01  0.23702455406E+02  0.24819072812E+02  0.00000000000E+00 0. -1.
</event>
<event>
 7    1  0.1339094E-013  0.7246151E+02  0.7816164E-02  0.1226708E+00
        -11   -1    0    0    0    0  0.00000000000E+00  0.00000000000E+00  0.45593999997E+02  0.45594000000E+02  0.51100000000E-03 0.  1.
         11   -1    0    0    0    0 -0.00000000000E+00 -0.00000000000E+00 -0.45593999997E+02  0.45594000000E+02  0.51100000000E-03 0. -1.
    9900012    2    1    2    0    0 -0.10627477143E+01 -0.42221150574E+01  0.18213336142E+02  0.72461513365E+02  0.69999925839E+02 0.  0.
         12    1    1    2    0    0  0.10627477143E+01  0.42221150574E+01 -0.18213336142E+02  0.18726486635E+02  0.00000000000E+00 0. -1.
         11    1    3    3    0    0 -0.82075646410E+01  0.19681035983E+02  0.14713219331E+02  0.25907259949E+02  0.51100000000E-03 0. -1.
        -11    1    3    3    0    0  0.21336915587E+02 -0.92726460767E+01 -0.60594599544E+01  0.24040860784E+02  0.51100000000E-03 0.  1.
         12    1    3    3    0    0 -0.14192098660E+02 -0.14630504964E+02  0.95595767658E+01  0.22513392633E+02  0.00000000000E+00 0. -1.
</event>
<event>
 8    1  0.1339094E-013  0.7246152E+02  0.7816164E-02  0.1226708E+00
        -11   -1    0    0    0    0  0.00000000000E+00  0.00000000000E+00  0.45593999997E+02  0.45594000000E+02  0.51100000000E-03 0.  1.
         11   -1    0    0    0    0 -0.00000000000E+00 -0.00000000000E+00 -0.45593999997E+02  0.45594000000E+02  0.51100000000E-03 0. -1.
    9900012    2    1    2    0    0  0.78948841408E+01 -0.13403524978E+02  0.10425807532E+02  0.72461517679E+02  0.69999931458E+02 0.  0.
        -24    2    3    3    0    0  0.97647592253E+01  0.22841545999E+01  0.16855811220E+02  0.55404417367E+02  0.51816630602E+02 0.  0.
         12    1    1    2    0    0 -0.78948841408E+01  0.13403524978E+02 -0.10425807532E+02  0.18726482321E+02  0.00000000000E+00 0. -1.
         11    1    4    4    0    0  0.13581161949E+02  0.11181304405E+02  0.32529686548E+02  0.36981752733E+02  0.51100000000E-03 0. -1.
        -11    1    3    3    0    0 -0.18698750845E+01 -0.15687679578E+02 -0.64300036871E+01  0.17057100312E+02  0.51100000000E-03 0.  1.
        -12    1    4    4    0    0 -0.38164027239E+01 -0.88971498049E+01 -0.15673875328E+02  0.18422664634E+02  0.00000000000E+00 0.  1.
</event>
<event>
 7    1  0.1339094E-013  0.7246137E+02  0.7816164E-02  0.1226709E+00
        -11   -1    0    0    0    0  0.00000000000E+00  0.00000000000E+00  0.45593999997E+02  0.45594000000E+02  0.51100000000E-03 0. -1.
         11   -1    0    0    0    0 -0.00000000000E+00 -0.00000000000E+00 -0.45593999997E+02  0.45594000000E+02  0.51100000000E-03 0.  1.
    9900012    2    1    2    0    0  0.10582625869E+01  0.13706308858E+02 -0.12716284413E+02  0.72461368923E+02  0.69999737676E+02 0.  0.
         12    1    1    2    0    0 -0.10582625869E+01 -0.13706308858E+02  0.12716284413E+02  0.18726631077E+02  0.00000000000E+00 0. -1.
         11    1    3    3    0    0 -0.17731449937E+02 -0.13927927504E+02 -0.76628971191E+01  0.23814102418E+02  0.51100000000E-03 0. -1.
        -11    1    3    3    0    0  0.27164872461E+02  0.22654495776E+02 -0.11228986048E+02  0.37111273255E+02  0.51100000000E-03 0.  1.
        -12    1    3    3    0    0 -0.83751599375E+01  0.49797405870E+01  0.61755987537E+01  0.11535993250E+02  0.00000000000E+00 0.  1.
</event>
<event>
 7    1  0.1339094E-013  0.7246128E+02  0.7816164E-02  0.1226709E+00
        -11   -1    0    0    0    0  0.00000000000E+00  0.00000000000E+00  0.45593999997E+02  0.45594000000E+02  0.51100000000E-03 0. -1.
         11   -1    0    0    0    0 -0.00000000000E+00 -0.00000000000E+00 -0.45593999997E+02  0.45594000000E+02  0.51100000000E-03 0.  1.
    9900012    2    1    2    0    0 -0.11680305121E+02  0.11585309485E+02 -0.89465680148E+01  0.72461281045E+02  0.69999623198E+02 0.  0.
         12    1    1    2    0    0  0.11680305121E+02 -0.11585309485E+02  0.89465680148E+01  0.18726718955E+02  0.00000000000E+00 0. -1.
         11    1    3    3    0    0  0.62912860800E+01 -0.21759286843E+01  0.57212213633E+01  0.87776602992E+01  0.51100000000E-03 0. -1.
        -11    1    3    3    0    0  0.33408560587E+01 -0.56494727991E+01 -0.30223058686E+02  0.30927514266E+02  0.51100000000E-03 0.  1.
        -12    1    3    3    0    0 -0.21312447260E+02  0.19410710968E+02  0.15555269308E+02  0.32756106480E+02  0.00000000000E+00 0.  1.
</event>
<event>
 7    1  0.1339094E-013  0.7246159E+02  0.7816164E-02  0.1226708E+00
        -11   -1    0    0    0    0  0.00000000000E+00  0.00000000000E+00  0.45593999997E+02  0.45594000000E+02  0.51100000000E-03 0.  1.
         11   -1    0    0    0    0 -0.00000000000E+00 -0.00000000000E+00 -0.45593999997E+02  0.45594000000E+02  0.51100000000E-03 0. -1.
    9900012    2    1    2    0    0 -0.51388028267E+01  0.17718092864E+02 -0.32156291900E+01  0.72461591367E+02  0.70000027451E+02 0.  0.
         12    1    1    2    0    0  0.51388028267E+01 -0.17718092864E+02  0.32156291900E+01  0.18726408633E+02  0.00000000000E+00 0. -1.
         11    1    3    3    0    0 -0.21121392442E+02 -0.71071065180E+01 -0.25349403534E+02  0.33752280538E+02  0.51100000000E-03 0. -1.
        -11    1    3    3    0    0  0.29410945443E+01  0.15006688073E+02  0.12526345809E+02  0.19767651950E+02  0.51100000000E-03 0.  1.
         12    1    3    3    0    0  0.13041495071E+02  0.98185113086E+01  0.96074285351E+01  0.18941658878E+02  0.00000000000E+00 0. -1.
</event>
<event>
 7    1  0.1339094E-013  0.7246152E+02  0.7816164E-02  0.1226708E+00
        -11   -1    0    0    0    0  0.00000000000E+00  0.00000000000E+00  0.45593999997E+02  0.45594000000E+02  0.51100000000E-03 0.  1.
         11   -1    0    0    0    0 -0.00000000000E+00 -0.00000000000E+00 -0.45593999997E+02  0.45594000000E+02  0.51100000000E-03 0. -1.
    9900012    2    1    2    0    0  0.63921800621E+01  0.20454508397E+01  0.17482487450E+02  0.72461516013E+02  0.69999929288E+02 0.  0.
         12    1    1    2    0    0 -0.63921800621E+01 -0.20454508397E+01 -0.17482487450E+02  0.18726483987E+02  0.00000000000E+00 0. -1.
         11    1    3    3    0    0  0.27072748726E+02 -0.60048492586E+01 -0.15569602578E+02  0.31802585789E+02  0.51100000000E-03 0. -1.
        -11    1    3    3    0    0 -0.11469170544E+02  0.11455540594E+00  0.17381585617E+02  0.20824853294E+02  0.51100000000E-03 0.  1.
         12    1    3    3    0    0 -0.92113981200E+01  0.79357446924E+01  0.15670504410E+02  0.19834076929E+02  0.00000000000E+00 0. -1.
</event>
<event>
 7    1  0.1339094E-013  0.7246157E+02  0.7816164E-02  0.1226708E+00
        -11   -1    0    0    0    0  0.00000000000E+00  0.00000000000E+00  0.45593999997E+02  0.45594000000E+02  0.51100000000E-03 0.  1.
         11   -1    0    0    0    0 -0.00000000000E+00 -0.00000000000E+00 -0.45593999997E+02  0.45594000000E+02  0.51100000000E-03 0. -1.
    9900012    2    1    2    0    0 -0.83276068344E+01 -0.15463229516E+00  0.16772189129E+02  0.72461567480E+02  0.69999996334E+02 0.  0.
         12    1    1    2    0    0  0.83276068344E+01  0.15463229516E+00 -0.16772189129E+02  0.18726432520E+02  0.00000000000E+00 0. -1.
         11    1    3    3    0    0 -0.18386474743E+02 -0.11955408986E+02 -0.17348769318E+02  0.27963799002E+02  0.51100000000E-03 0. -1.
        -11    1    3    3    0    0 -0.61108293498E+01  0.93994929959E+01  0.83485665630E+01  0.13978242659E+02  0.51100000000E-03 0.  1.
         12    1    3    3    0    0  0.16169697258E+02  0.24012836948E+01  0.25772391884E+02  0.30519525819E+02  0.00000000000E+00 0. -1.
</event>
<event>
 7    1  0.1339094E-013  0.7246157E+02  0.7816164E-02  0.1226708E+00
        -11   -1    0    0    0    0  0.00000000000E+00  0.00000000000E+00  0.45593999997E+02  0.45594000000E+02  0.51100000000E-03 0.  1.
         11   -1    0    0    0    0 -0.00000000000E+00 -0.00000000000E+00 -0.45593999997E+02  0.45594000000E+02  0.51100000000E-03 0. -1.
    9900012    2    1    2    0    0 -0.20813507221E+01  0.13755898085E+02  0.12534854828E+02  0.72461565782E+02  0.69999994122E+02 0.  0.
         12    1    1    2    0    0  0.20813507221E+01 -0.13755898085E+02 -0.12534854828E+02  0.18726434218E+02  0.00000000000E+00 0. -1.
         11    1    3    3    0    0 -0.23842953217E+02  0.47447694098E+01  0.23671187431E+02  0.33931171060E+02  0.51100000000E-03 0.  1.
        -11    1    3    3    0    0  0.16767052343E+02  0.91331572550E+01 -0.20439860268E+02  0.27970278757E+02  0.51100000000E-03 0. -1.
         12    1    3    3    0    0  0.49945501514E+01 -0.12202858000E+00  0.93035276648E+01  0.10560115965E+02  0.00000000000E+00 0. -1.
</event>
<event>
 7    1  0.1339094E-013  0.7246162E+02  0.7816164E-02  0.1226708E+00
        -11   -1    0    0    0    0  0.00000000000E+00  0.00000000000E+00  0.45593999997E+02  0.45594000000E+02  0.51100000000E-03 0.  1.
         11   -1    0    0    0    0 -0.00000000000E+00 -0.00000000000E+00 -0.45593999997E+02  0.45594000000E+02  0.51100000000E-03 0. -1.
    9900012    2    1    2    0    0  0.12911653387E+02 -0.82160334380E+01  0.10791819477E+02  0.72461618441E+02  0.70000062721E+02 0.  0.
         12    1    1    2    0    0 -0.12911653387E+02  0.82160334380E+01 -0.10791819477E+02  0.18726381559E+02  0.00000000000E+00 0. -1.
         11    1    3    3    0    0 -0.21441769706E+02 -0.11825864110E+02 -0.60964634729E+01  0.25234250874E+02  0.51100000000E-03 0. -1.
        -11    1    3    3    0    0  0.13646307196E+02  0.74560355311E+00  0.21822396940E+02  0.25748682164E+02  0.51100000000E-03 0.  1.
         12    1    3    3    0    0  0.20707115897E+02  0.28642271186E+01 -0.49341139896E+01  0.21478685403E+02  0.00000000000E+00 0. -1.
</event>
<event>
 7    1  0.1339094E-013  0.7246159E+02  0.7816164E-02  0.1226708E+00
        -11   -1    0    0    0    0  0.00000000000E+00  0.00000000000E+00  0.45593999997E+02  0.45594000000E+02  0.51100000000E-03 0. -1.
         11   -1    0    0    0    0 -0.00000000000E+00 -0.00000000000E+00 -0.45593999997E+02  0.45594000000E+02  0.51100000000E-03 0.  1.
    9900012    2    1    2    0    0  0.83070527948E+01  0.31970899647E+01 -0.16475734486E+02  0.72461592517E+02  0.70000028949E+02 0.  0.
         12    1    1    2    0    0 -0.83070527948E+01 -0.31970899647E+01  0.16475734486E+02  0.18726407483E+02  0.00000000000E+00 0. -1.
         11    1    3    3    0    0  0.16151787265E+02  0.30662839867E+02 -0.17118393763E+02  0.38653969859E+02  0.51100000000E-03 0. -1.
        -11    1    3    3    0    0  0.48123875259E+01 -0.14360625718E+02 -0.24043582530E+01  0.15335174717E+02  0.51100000000E-03 0.  1.
         12    1    3    3    0    0 -0.12657121997E+02 -0.13105124184E+02  0.30470175300E+01  0.18472447941E+02  0.00000000000E+00 0. -1.
</event>
<event>
 7    1  0.1339094E-013  0.7246151E+02  0.7816164E-02  0.1226708E+00
        -11   -1    0    0    0    0  0.00000000000E+00  0.00000000000E+00  0.45593999997E+02  0.45594000000E+02  0.51100000000E-03 0.  1.
         11   -1    0    0    0    0 -0.00000000000E+00 -0.00000000000E+00 -0.45593999997E+02  0.45594000000E+02  0.51100000000E-03 0. -1.
    9900012    2    1    2    0    0  0.15081447628E+02  0.83193082139E+01 -0.73498737072E+01  0.72461505528E+02  0.69999915629E+02 0.  0.
         12    1    1    2    0    0 -0.15081447628E+02 -0.83193082139E+01  0.73498737072E+01  0.18726494472E+02  0.00000000000E+00 0. -1.
         11    1    3    3    0    0  0.21982322246E+02  0.65811412419E+01  0.10374036677E+02  0.25182425392E+02  0.51100000000E-03 0. -1.
        -11    1    3    3    0    0 -0.25303301379E+02  0.40544200490E+00 -0.88893029345E+01  0.26822400169E+02  0.51100000000E-03 0.  1.
         12    1    3    3    0    0  0.18402426760E+02  0.13327249671E+01 -0.88346074493E+01  0.20456679967E+02  0.00000000000E+00 0. -1.
</event>
<event>
 7    1  0.1339094E-013  0.7246176E+02  0.7816164E-02  0.1226708E+00
        -11   -1    0    0    0    0  0.00000000000E+00  0.00000000000E+00  0.45593999997E+02  0.45594000000E+02  0.51100000000E-03 0.  1.
         11   -1    0    0    0    0 -0.00000000000E+00 -0.00000000000E+00 -0.45593999997E+02  0.45594000000E+02  0.51100000000E-03 0. -1.
    9900012    2    1    2    0    0  0.17024020224E+02  0.58441746158E+01  0.51672568863E+01  0.72461756777E+02  0.70000242928E+02 0.  0.
         12    1    1    2    0    0 -0.17024020224E+02 -0.58441746158E+01 -0.51672568863E+01  0.18726243223E+02  0.00000000000E+00 0. -1.
         11    1    3    3    0    0 -0.12730524816E+02  0.80412214351E+00 -0.32077064286E+00  0.12759928236E+02  0.51100000000E-03 0. -1.
        -11    1    3    3    0    0  0.19411978774E+02 -0.29851611165E+01  0.27677908685E+02  0.33938219403E+02  0.51100000000E-03 0.  1.
        -12    1    3    3    0    0  0.10342566266E+02  0.80252135889E+01 -0.22189881156E+02  0.25763609138E+02  0.00000000000E+00 0.  1.
</event>
<event>
 7    1  0.1339094E-013  0.7246157E+02  0.7816164E-02  0.1226708E+00
        -11   -1    0    0    0    0  0.00000000000E+00  0.00000000000E+00  0.45593999997E+02  0.45594000000E+02  0.51100000000E-03 0.  1.
         11   -1    0    0    0    0 -0.00000000000E+00 -0.00000000000E+00 -0.45593999997E+02  0.45594000000E+02  0.51100000000E-03 0. -1.
    9900012    2    1    2    0    0 -0.15401736229E+02  0.38502772712E+01  0.99318190184E+01  0.72461571004E+02  0.70000000924E+02 0.  0.
         12    1    1    2    0    0  0.15401736229E+02 -0.38502772712E+01 -0.99318190184E+01  0.18726428996E+02  0.00000000000E+00 0. -1.
         11    1    3    3    0    0 -0.24191344949E+02  0.96235858046E+01 -0.68759168485E-01  0.26035347170E+02  0.51100000000E-03 0. -1.
        -11    1    3    3    0    0  0.12203796599E+02  0.71075756033E+01  0.23525782028E+02  0.27439254777E+02  0.51100000000E-03 0.  1.
        -12    1    3    3    0    0 -0.34141878790E+01 -0.12880884137E+02 -0.13525203841E+02  0.18986969057E+02  0.00000000000E+00 0.  1.
</event>
<event>
 7    1  0.1339094E-013  0.7246150E+02  0.7816164E-02  0.1226708E+00
        -11   -1    0    0    0    0  0.00000000000E+00  0.00000000000E+00  0.45593999997E+02  0.45594000000E+02  0.51100000000E-03 0.  1.
         11   -1    0    0    0    0 -0.00000000000E+00 -0.00000000000E+00 -0.45593999997E+02  0.45594000000E+02  0.51100000000E-03 0. -1.
    9900012    2    1    2    0    0  0.12002338815E+02 -0.35239369569E+01  0.13935842522E+02  0.72461495374E+02  0.69999902402E+02 0.  0.
         12    1    1    2    0    0 -0.12002338815E+02  0.35239369569E+01 -0.13935842522E+02  0.18726504626E+02  0.00000000000E+00 0. -1.
         11    1    3    3    0    0  0.30259433787E+02 -0.14124156260E+02  0.15218138993E+02  0.36697641312E+02  0.51100000000E-03 0.  1.
        -11    1    3    3    0    0 -0.24605488497E+02  0.28415239138E+01  0.28260988025E+01  0.24929724367E+02  0.51100000000E-03 0. -1.
         12    1    3    3    0    0  0.63483935257E+01  0.77586953899E+01 -0.41083952740E+01  0.10834129694E+02  0.00000000000E+00 0. -1.
</event>
<event>
 7    1  0.1339094E-013  0.7246150E+02  0.7816164E-02  0.1226708E+00
        -11   -1    0    0    0    0  0.00000000000E+00  0.00000000000E+00  0.45593999997E+02  0.45594000000E+02  0.51100000000E-03 0.  1.
         11   -1    0    0    0    0 -0.00000000000E+00 -0.00000000000E+00 -0.45593999997E+02  0.45594000000E+02  0.51100000000E-03 0. -1.
    9900012    2    1    2    0    0 -0.13465373677E+02 -0.11049253111E+02 -0.68760014312E+01  0.72461503311E+02  0.69999912741E+02 0.  0.
         12    1    1    2    0    0  0.13465373677E+02  0.11049253111E+02  0.68760014312E+01  0.18726496689E+02  0.00000000000E+00 0. -1.
         11    1    3    3    0    0  0.21508708029E+02 -0.40746128977E+01  0.18169458943E+01  0.21966526443E+02  0.51100000000E-03 0. -1.
        -11    1    3    3    0    0 -0.18156018067E+02 -0.14503194795E+02 -0.18425740494E+02  0.29656223029E+02  0.51100000000E-03 0.  1.
        -12    1    3    3    0    0 -0.16818063638E+02  0.75285545821E+01  0.97327931690E+01  0.20838753838E+02  0.00000000000E+00 0.  1.
</event>
<event>
 7    1  0.1339094E-013  0.7246149E+02  0.7816164E-02  0.1226708E+00
        -11   -1    0    0    0    0  0.00000000000E+00  0.00000000000E+00  0.45593999997E+02  0.45594000000E+02  0.51100000000E-03 0. -1.
         11   -1    0    0    0    0 -0.00000000000E+00 -0.00000000000E+00 -0.45593999997E+02  0.45594000000E+02  0.51100000000E-03 0.  1.
    9900012    2    1    2    0    0  0.14123790608E+02 -0.94448274943E+00 -0.12260039188E+02  0.72461492859E+02  0.69999899126E+02 0.  0.
         12    1    1    2    0    0 -0.14123790608E+02  0.94448274943E+00  0.12260039188E+02  0.18726507141E+02  0.00000000000E+00 0. -1.
         11    1    3    3    0    0 -0.13100909754E+02  0.82864933199E+00 -0.65108503051E+01  0.14653042962E+02  0.51100000000E-03 0. -1.
        -11    1    3    3    0    0  0.15221836497E+02 -0.25455065717E+02  0.31043689512E+01  0.29821163355E+02  0.51100000000E-03 0.  1.
        -12    1    3    3    0    0  0.12002863865E+02  0.23681933635E+02 -0.88535578339E+01  0.27987286542E+02  0.00000000000E+00 0.  1.
</event>
<event>
 7    1  0.1339094E-013  0.7246168E+02  0.7816164E-02  0.1226708E+00
        -11   -1    0    0    0    0  0.00000000000E+00  0.00000000000E+00  0.45593999997E+02  0.45594000000E+02  0.51100000000E-03 0. -1.
         11   -1    0    0    0    0 -0.00000000000E+00 -0.00000000000E+00 -0.45593999997E+02  0.45594000000E+02  0.51100000000E-03 0.  1.
    9900012    2    1    2    0    0 -0.22600264304E+01  0.22616091394E+01 -0.18451357822E+02  0.72461676259E+02  0.70000138039E+02 0.  0.
         12    1    1    2    0    0  0.22600264304E+01 -0.22616091394E+01  0.18451357822E+02  0.18726323741E+02  0.00000000000E+00 0. -1.
         11    1    3    3    0    0 -0.32899945103E+01 -0.16029858856E+02 -0.35718368126E+02  0.39288449456E+02  0.51100000000E-03 0.  1.
        -11    1    3    3    0    0  0.78556489024E+00  0.55930345934E+01  0.19478975262E+02  0.20281262921E+02  0.51100000000E-03 0. -1.
         12    1    3    3    0    0  0.24440318968E+00  0.12698433402E+02 -0.22119649582E+01  0.12891963883E+02  0.00000000000E+00 0. -1.
</event>
<event>
 7    1  0.1339094E-013  0.7246158E+02  0.7816164E-02  0.1226708E+00
        -11   -1    0    0    0    0  0.00000000000E+00  0.00000000000E+00  0.45593999997E+02  0.45594000000E+02  0.51100000000E-03 0. -1.
         11   -1    0    0    0    0 -0.00000000000E+00 -0.00000000000E+00 -0.45593999997E+02  0.45594000000E+02  0.51100000000E-03 0.  1.
    9900012    2    1    2    0    0 -0.15165193906E+01  0.10623417457E+02  0.15346723715E+02  0.72461581274E+02  0.70000014303E+02 0.  0.
         12    1    1    2    0    0  0.15165193906E+01 -0.10623417457E+02 -0.15346723715E+02  0.18726418726E+02  0.00000000000E+00 0. -1.
         11    1    3    3    0    0  0.12362859796E+02 -0.11123449548E+02  0.25805503401E+02  0.30700088571E+02  0.51100000000E-03 0. -1.
        -11    1    3    3    0    0 -0.75807097266E+00 -0.21745661542E+01 -0.14054399204E+02  0.14241823858E+02  0.51100000000E-03 0.  1.
         12    1    3    3    0    0 -0.13121308214E+02  0.23921433159E+02  0.35956195175E+01  0.27519668845E+02  0.00000000000E+00 0. -1.
</event>
<event>
 7    1  0.1339094E-013  0.7246163E+02  0.7816164E-02  0.1226708E+00
        -11   -1    0    0    0    0  0.00000000000E+00  0.00000000000E+00  0.45593999997E+02  0.45594000000E+02  0.51100000000E-03 0.  1.
         11   -1    0    0    0    0 -0.00000000000E+00 -0.00000000000E+00 -0.45593999997E+02  0.45594000000E+02  0.51100000000E-03 0. -1.
    9900012    2    1    2    0    0  0.67158321321E+00 -0.77557440331E+01  0.17031563747E+02  0.72461634811E+02  0.70000084045E+02 0.  0.
         12    1    1    2    0    0 -0.67158321321E+00  0.77557440331E+01 -0.17031563747E+02  0.18726365189E+02  0.00000000000E+00 0. -1.
         11    1    3    3    0    0 -0.10219133864E+02  0.25374443083E+02 -0.49543522352E+01  0.27799975990E+02  0.51100000000E-03 0. -1.
        -11    1    3    3    0    0  0.15264268379E+02 -0.28944840839E+02  0.19671789402E+02  0.38180898351E+02  0.51100000000E-03 0.  1.
        -12    1    3    3    0    0 -0.43735513014E+01 -0.41853462769E+01  0.23141265795E+01  0.64807604700E+01  0.00000000000E+00 0.  1.
</event>
<event>
 7    1  0.1339094E-013  0.7246163E+02  0.7816164E-02  0.1226708E+00
        -11   -1    0    0    0    0  0.00000000000E+00  0.00000000000E+00  0.45593999997E+02  0.45594000000E+02  0.51100000000E-03 0. -1.
         11   -1    0    0    0    0 -0.00000000000E+00 -0.00000000000E+00 -0.45593999997E+02  0.45594000000E+02  0.51100000000E-03 0.  1.
    9900012    2    1    2    0    0  0.38540199245E+01  0.96043021819E+01 -0.15607079023E+02  0.72461628071E+02  0.70000075265E+02 0.  0.
         12    1    1    2    0    0 -0.38540199245E+01 -0.96043021819E+01  0.15607079023E+02  0.18726371929E+02  0.00000000000E+00 0. -1.
         11    1    3    3    0    0 -0.23918958844E+02 -0.12614294062E+02 -0.13772315659E+02  0.30346559701E+02  0.51100000000E-03 0. -1.
        -11    1    3    3    0    0  0.27090587220E+02  0.21831174433E+02  0.50754065569E+01  0.35160486985E+02  0.51100000000E-03 0.  1.
        -12    1    3    3    0    0  0.68239154814E+00  0.38742181017E+00 -0.69101699216E+01  0.69545813842E+01  0.00000000000E+00 0.  1.
</event>
<event>
 7    1  0.1339094E-013  0.7246158E+02  0.7816164E-02  0.1226708E+00
        -11   -1    0    0    0    0  0.00000000000E+00  0.00000000000E+00  0.45593999997E+02  0.45594000000E+02  0.51100000000E-03 0. -1.
         11   -1    0    0    0    0 -0.00000000000E+00 -0.00000000000E+00 -0.45593999997E+02  0.45594000000E+02  0.51100000000E-03 0.  1.
    9900012    2    1    2    0    0 -0.19193913221E+01 -0.18551690944E+02  0.16821313842E+01  0.72461578400E+02  0.70000010560E+02 0.  0.
         12    1    1    2    0    0  0.19193913221E+01  0.18551690944E+02 -0.16821313842E+01  0.18726421600E+02  0.00000000000E+00 0. -1.
         11    1    3    3    0    0  0.14327989351E+01 -0.17072874310E+02  0.20977026037E+02  0.27084526424E+02  0.51100000000E-03 0. -1.
        -11    1    3    3    0    0 -0.17908807660E+02  0.11734777221E+02 -0.10030576159E+02  0.23644086926E+02  0.51100000000E-03 0.  1.
         12    1    3    3    0    0  0.14556617402E+02 -0.13213593854E+02 -0.92643184939E+01  0.21732965051E+02  0.00000000000E+00 0. -1.
</event>
<event>
 7    1  0.1339094E-013  0.7246154E+02  0.7816164E-02  0.1226708E+00
        -11   -1    0    0    0    0  0.00000000000E+00  0.00000000000E+00  0.45593999997E+02  0.45594000000E+02  0.51100000000E-03 0.  1.
         11   -1    0    0    0    0 -0.00000000000E+00 -0.00000000000E+00 -0.45593999997E+02  0.45594000000E+02  0.51100000000E-03 0. -1.
    9900012    2    1    2    0    0  0.96767692156E+01  0.72854079183E+01  0.14281572060E+02  0.72461539270E+02  0.69999959585E+02 0.  0.
         12    1    1    2    0    0 -0.96767692156E+01 -0.72854079183E+01 -0.14281572060E+02  0.18726460730E+02  0.00000000000E+00 0. -1.
         11    1    3    3    0    0 -0.18783859411E+02 -0.10985175666E+02  0.59130104259E+01  0.22549304897E+02  0.51100000000E-03 0.  1.
        -11    1    3    3    0    0  0.30765857187E+02  0.16485561784E+02  0.18405946378E+02  0.39459987052E+02  0.51100000000E-03 0. -1.
        -12    1    3    3    0    0 -0.23052285605E+01  0.17850217997E+01 -0.10037384745E+02  0.10452247321E+02  0.00000000000E+00 0.  1.
</event>
<event>
 7    1  0.1339094E-013  0.7246156E+02  0.7816164E-02  0.1226708E+00
        -11   -1    0    0    0    0  0.00000000000E+00  0.00000000000E+00  0.45593999997E+02  0.45594000000E+02  0.51100000000E-03 0.  1.
         11   -1    0    0    0    0 -0.00000000000E+00 -0.00000000000E+00 -0.45593999997E+02  0.45594000000E+02  0.51100000000E-03 0. -1.
    9900012    2    1    2    0    0 -0.14274757054E+02 -0.93261304304E+01  0.77417244759E+01  0.72461556247E+02  0.69999981701E+02 0.  0.
         12    1    1    2    0    0  0.14274757054E+02  0.93261304304E+01 -0.77417244759E+01  0.18726443753E+02  0.00000000000E+00 0. -1.
         11    1    3    3    0    0 -0.24696127124E+02  0.49124269474E+01  0.26460767186E+02  0.36526741352E+02  0.51100000000E-03 0.  1.
        -11    1    3    3    0    0  0.12934019267E+02 -0.18090453459E+02 -0.69502384433E+01  0.23299338519E+02  0.51100000000E-03 0. -1.
        -12    1    3    3    0    0 -0.25126491968E+01  0.38518960807E+01 -0.11768804267E+02  0.12635476377E+02  0.00000000000E+00 0.  1.
</event>
<event>
 7    1  0.1339094E-013  0.7246137E+02  0.7816164E-02  0.1226709E+00
        -11   -1    0    0    0    0  0.00000000000E+00  0.00000000000E+00  0.45593999997E+02  0.45594000000E+02  0.51100000000E-03 0.  1.
         11   -1    0    0    0    0 -0.00000000000E+00 -0.00000000000E+00 -0.45593999997E+02  0.45594000000E+02  0.51100000000E-03 0. -1.
    9900012    2    1    2    0    0 -0.14086491182E+02 -0.28072765812E+00 -0.12336065274E+02  0.72461373281E+02  0.69999743353E+02 0.  0.
         12    1    1    2    0    0  0.14086491182E+02  0.28072765812E+00  0.12336065274E+02  0.18726626719E+02  0.00000000000E+00 0. -1.
         11    1    3    3    0    0 -0.31288919812E+02  0.35473342000E+01  0.61462139627E+01  0.32083578811E+02  0.51100000000E-03 0. -1.
        -11    1    3    3    0    0  0.16475885442E+02 -0.22370511924E+00  0.45179140327E+01  0.17085560937E+02  0.51100000000E-03 0.  1.
        -12    1    3    3    0    0  0.72654318892E+00 -0.36043567388E+01 -0.23000193270E+02  0.23292233533E+02  0.00000000000E+00 0.  1.
</event>
<event>
 7    1  0.1339094E-013  0.7246158E+02  0.7816164E-02  0.1226708E+00
        -11   -1    0    0    0    0  0.00000000000E+00  0.00000000000E+00  0.45593999997E+02  0.45594000000E+02  0.51100000000E-03 0. -1.
         11   -1    0    0    0    0 -0.00000000000E+00 -0.00000000000E+00 -0.45593999997E+02  0.45594000000E+02  0.51100000000E-03 0.  1.
    9900012    2    1    2    0    0 -0.11959804425E+02 -0.13417723177E+02  0.52542034235E+01  0.72461578271E+02  0.70000010392E+02 0.  0.
         12    1    1    2    0    0  0.11959804425E+02  0.13417723177E+02 -0.52542034235E+01  0.18726421729E+02  0.00000000000E+00 0. -1.
         11    1    3    3    0    0  0.20159488944E+02  0.68948275086E+01  0.16649556783E+02  0.27039811060E+02  0.51100000000E-03 0. -1.
        -11    1    3    3    0    0 -0.47108555677E+01 -0.12912207654E+02  0.22418660179E+01  0.13926350211E+02  0.51100000000E-03 0.  1.
         12    1    3    3    0    0 -0.27408437802E+02 -0.74003430313E+01 -0.13637219377E+02  0.31495417001E+02  0.00000000000E+00 0. -1.
</event>
<event>
 7    1  0.1339094E-013  0.7246162E+02  0.7816164E-02  0.1226708E+00
        -11   -1    0    0    0    0  0.00000000000E+00  0.00000000000E+00  0.45593999997E+02  0.45594000000E+02  0.51100000000E-03 0.  1.
         11   -1    0    0    0    0 -0.00000000000E+00 -0.00000000000E+00 -0.45593999997E+02  0.45594000000E+02  0.51100000000E-03 0. -1.
    9900012    2    1    2    0    0  0.98363030419E+01  0.87792994566E+01  0.13298427537E+02  0.72461624712E+02  0.70000070889E+02 0.  0.
         12    1    1    2    0    0 -0.98363030419E+01 -0.87792994566E+01 -0.13298427537E+02  0.18726375288E+02  0.00000000000E+00 0. -1.
         11    1    3    3    0    0  0.98408108991E+00 -0.14479932467E+02 -0.36367659155E+01  0.14962049540E+02  0.51100000000E-03 0. -1.
        -11    1    3    3    0    0  0.27159262013E+02  0.19222784639E+02  0.16558720115E+01  0.33314904694E+02  0.51100000000E-03 0.  1.
        -12    1    3    3    0    0 -0.18307040061E+02  0.40364472840E+01  0.15279321441E+02  0.24184670479E+02  0.00000000000E+00 0.  1.
</event>
<event>
 7    1  0.1339094E-013  0.7246156E+02  0.7816164E-02  0.1226708E+00
        -11   -1    0    0    0    0  0.00000000000E+00  0.00000000000E+00  0.45593999997E+02  0.45594000000E+02  0.51100000000E-03 0.  1.
         11   -1    0    0    0    0 -0.00000000000E+00 -0.00000000000E+00 -0.45593999997E+02  0.45594000000E+02  0.51100000000E-03 0. -1.
    9900012    2    1    2    0    0  0.32028909886E+01  0.15578290412E+02 -0.98862501499E+01  0.72461559204E+02  0.69999985553E+02 0.  0.
         12    1    1    2    0    0 -0.32028909886E+01 -0.15578290412E+02  0.98862501499E+01  0.18726440796E+02  0.00000000000E+00 0. -1.
         11    1    3    3    0    0 -0.23897883407E+02  0.22052240376E+02 -0.65866858758E+01  0.33178224305E+02  0.51100000000E-03 0. -1.
        -11    1    3    3    0    0  0.18578210710E+02  0.82019997815E+01  0.41853282737E+01  0.20734987018E+02  0.51100000000E-03 0.  1.
         12    1    3    3    0    0  0.85225636855E+01 -0.14675949745E+02 -0.74848925478E+01  0.18548347882E+02  0.00000000000E+00 0. -1.
</event>
<event>
 8    1  0.1339094E-013  0.7246160E+02  0.7816164E-02  0.1226708E+00
        -11   -1    0    0    0    0  0.00000000000E+00  0.00000000000E+00  0.45593999997E+02  0.45594000000E+02  0.51100000000E-03 0.  1.
         11   -1    0    0    0    0 -0.00000000000E+00 -0.00000000000E+00 -0.45593999997E+02  0.45594000000E+02  0.51100000000E-03 0. -1.
    9900012    2    1    2    0    0 -0.10075885461E+02 -0.52493007126E+01  0.14886215532E+02  0.72461600489E+02  0.70000039334E+02 0.  0.
        -24    2    3    3    0    0 -0.22224535835E+01 -0.99630511521E+01 -0.32462870203E+01  0.52146987903E+02  0.51034971145E+02 0.  0.
         12    1    1    2    0    0  0.10075885461E+02  0.52493007126E+01 -0.14886215532E+02  0.18726399511E+02  0.00000000000E+00 0. -1.
         11    1    4    4    0    0  0.64311024758E+01 -0.25390616639E+02 -0.15678465769E+02  0.30526329315E+02  0.51100000000E-03 0. -1.
        -11    1    3    3    0    0 -0.78534318776E+01  0.47137504395E+01  0.18132502552E+02  0.20314612586E+02  0.51100000000E-03 0.  1.
        -12    1    4    4    0    0 -0.86535560594E+01  0.15427565487E+02  0.12432178748E+02  0.21620658587E+02  0.00000000000E+00 0.  1.
</event>
<event>
 7    1  0.1339094E-013  0.7246154E+02  0.7816164E-02  0.1226708E+00
        -11   -1    0    0    0    0  0.00000000000E+00  0.00000000000E+00  0.45593999997E+02  0.45594000000E+02  0.51100000000E-03 0. -1.
         11   -1    0    0    0    0 -0.00000000000E+00 -0.00000000000E+00 -0.45593999997E+02  0.45594000000E+02  0.51100000000E-03 0.  1.
    9900012    2    1    2    0    0 -0.75193181155E+01  0.11073804622E+02 -0.13096215546E+02  0.72461543973E+02  0.69999965711E+02 0.  0.
         12    1    1    2    0    0  0.75193181155E+01 -0.11073804622E+02  0.13096215546E+02  0.18726456027E+02  0.00000000000E+00 0. -1.
         11    1    3    3    0    0  0.96536135706E+01  0.12583997633E+02  0.84083086923E+01  0.17951292620E+02  0.51100000000E-03 0. -1.
        -11    1    3    3    0    0 -0.22151097610E+02  0.16532187151E+02 -0.22683672945E+02  0.35756584790E+02  0.51100000000E-03 0.  1.
        -12    1    3    3    0    0  0.49781659237E+01 -0.18042380162E+02  0.11791487073E+01  0.18753666563E+02  0.00000000000E+00 0.  1.
</event>
<event>
 7    1  0.1339094E-013  0.7246159E+02  0.7816164E-02  0.1226708E+00
        -11   -1    0    0    0    0  0.00000000000E+00  0.00000000000E+00  0.45593999997E+02  0.45594000000E+02  0.51100000000E-03 0.  1.
         11   -1    0    0    0    0 -0.00000000000E+00 -0.00000000000E+00 -0.45593999997E+02  0.45594000000E+02  0.51100000000E-03 0. -1.
    9900012    2    1    2    0    0  0.47063040509E+01 -0.15496710483E+02  0.94011198962E+01  0.72461591136E+02  0.70000027151E+02 0.  0.
         12    1    1    2    0    0 -0.47063040509E+01  0.15496710483E+02 -0.94011198962E+01  0.18726408864E+02  0.00000000000E+00 0. -1.
         11    1    3    3    0    0  0.34890007684E+02 -0.15636031365E+02  0.11994899859E+02  0.40070883893E+02  0.51100000000E-03 0. -1.
        -11    1    3    3    0    0 -0.82784560552E+01  0.35497081919E+01  0.30582468702E+01  0.95124201487E+01  0.51100000000E-03 0.  1.
         12    1    3    3    0    0 -0.21905247578E+02 -0.34103873101E+01 -0.56520268333E+01  0.22878287095E+02  0.00000000000E+00 0. -1.
</event>
<event>
 7    1  0.1339094E-013  0.7246157E+02  0.7816164E-02  0.1226708E+00
        -11   -1    0    0    0    0  0.00000000000E+00  0.00000000000E+00  0.45593999997E+02  0.45594000000E+02  0.51100000000E-03 0.  1.
         11   -1    0    0    0    0 -0.00000000000E+00 -0.00000000000E+00 -0.45593999997E+02  0.45594000000E+02  0.51100000000E-03 0. -1.
    9900012    2    1    2    0    0  0.10627577125E+01  0.14871720054E+02  0.11330564218E+02  0.72461569566E+02  0.69999999051E+02 0.  0.
         12    1    1    2    0    0 -0.10627577125E+01 -0.14871720054E+02 -0.11330564218E+02  0.18726430434E+02  0.00000000000E+00 0. -1.
         11    1    3    3    0    0 -0.56264245094E+01 -0.10211537056E+01 -0.62254854357E+01  0.84531696317E+01  0.51100000000E-03 0. -1.
        -11    1    3    3    0    0  0.10638034212E+02  0.36420702810E+02  0.20120848565E+02  0.42947455248E+02  0.51100000000E-03 0.  1.
        -12    1    3    3    0    0 -0.39488519905E+01 -0.20527829051E+02 -0.25647989107E+01  0.21060944685E+02  0.00000000000E+00 0.  1.
</event>
<event>
 7    1  0.1339094E-013  0.7246158E+02  0.7816164E-02  0.1226708E+00
        -11   -1    0    0    0    0  0.00000000000E+00  0.00000000000E+00  0.45593999997E+02  0.45594000000E+02  0.51100000000E-03 0.  1.
         11   -1    0    0    0    0 -0.00000000000E+00 -0.00000000000E+00 -0.45593999997E+02  0.45594000000E+02  0.51100000000E-03 0. -1.
    9900012    2    1    2    0    0 -0.12154698595E+01  0.74326850724E+01  0.17145161163E+02  0.72461582145E+02  0.70000015438E+02 0.  0.
         12    1    1    2    0    0  0.12154698595E+01 -0.74326850724E+01 -0.17145161163E+02  0.18726417855E+02  0.00000000000E+00 0. -1.
         11    1    3    3    0    0 -0.12991160691E+02 -0.17581608673E+02 -0.32851252574E+01  0.22106000720E+02  0.51100000000E-03 0. -1.
        -11    1    3    3    0    0  0.85536506468E+01  0.25573935299E+01  0.25578613760E+02  0.27091893311E+02  0.51100000000E-03 0.  1.
         12    1    3    3    0    0  0.32220401844E+01  0.22456900216E+02 -0.51483273394E+01  0.23263688114E+02  0.00000000000E+00 0. -1.
</event>
<event>
 7    1  0.1339094E-013  0.7246164E+02  0.7816164E-02  0.1226708E+00
        -11   -1    0    0    0    0  0.00000000000E+00  0.00000000000E+00  0.45593999997E+02  0.45594000000E+02  0.51100000000E-03 0. -1.
         11   -1    0    0    0    0 -0.00000000000E+00 -0.00000000000E+00 -0.45593999997E+02  0.45594000000E+02  0.51100000000E-03 0.  1.
    9900012    2    1    2    0    0 -0.82846268243E+01  0.74461101480E+01 -0.15053143506E+02  0.72461635501E+02  0.70000084943E+02 0.  0.
         12    1    1    2    0    0  0.82846268243E+01 -0.74461101480E+01  0.15053143506E+02  0.18726364499E+02  0.00000000000E+00 0. -1.
         11    1    3    3    0    0 -0.38525042164E+01  0.83837428947E+01  0.24859841805E+02  0.26516799741E+02  0.51100000000E-03 0. -1.
        -11    1    3    3    0    0  0.82299370451E+01 -0.14414850505E+01 -0.25084012911E+02  0.26438938082E+02  0.51100000000E-03 0.  1.
        -12    1    3    3    0    0 -0.12662059653E+02  0.50385230389E+00 -0.14828972399E+02  0.19505897678E+02  0.00000000000E+00 0.  1.
</event>
<event>
 7    1  0.1339094E-013  0.7246158E+02  0.7816164E-02  0.1226708E+00
        -11   -1    0    0    0    0  0.00000000000E+00  0.00000000000E+00  0.45593999997E+02  0.45594000000E+02  0.51100000000E-03 0.  1.
         11   -1    0    0    0    0 -0.00000000000E+00 -0.00000000000E+00 -0.45593999997E+02  0.45594000000E+02  0.51100000000E-03 0. -1.
    9900012    2    1    2    0    0  0.46969383003E+01 -0.35096798485E+01  0.17784819576E+02  0.72461577774E+02  0.70000009743E+02 0.  0.
         12    1    1    2    0    0 -0.46969383003E+01  0.35096798485E+01 -0.17784819576E+02  0.18726422226E+02  0.00000000000E+00 0. -1.
         11    1    3    3    0    0  0.21058679482E+01  0.26515305494E+01 -0.60603250996E+01  0.69421059228E+01  0.51100000000E-03 0. -1.
        -11    1    3    3    0    0 -0.12577861295E+02 -0.28337346850E+02  0.23062176666E+02  0.38640287448E+02  0.51100000000E-03 0.  1.
        -12    1    3    3    0    0  0.15168931647E+02  0.22176136452E+02  0.78296801007E+00  0.26879184403E+02  0.00000000000E+00 0.  1.
</event>
<event>
 7    1  0.1339094E-013  0.7246156E+02  0.7816164E-02  0.1226708E+00
        -11   -1    0    0    0    0  0.00000000000E+00  0.00000000000E+00  0.45593999997E+02  0.45594000000E+02  0.51100000000E-03 0. -1.
         11   -1    0    0    0    0 -0.00000000000E+00 -0.00000000000E+00 -0.45593999997E+02  0.45594000000E+02  0.51100000000E-03 0.  1.
    9900012    2    1    2    0    0  0.13132688812E+00 -0.12629662190E+02  0.13825844869E+02  0.72461558797E+02  0.69999985022E+02 0.  0.
         12    1    1    2    0    0 -0.13132688812E+00  0.12629662190E+02 -0.13825844869E+02  0.18726441203E+02  0.00000000000E+00 0. -1.
         11    1    3    3    0    0  0.20875928692E+02  0.59963305332E+01 -0.14091443536E+02  0.25890715707E+02  0.51100000000E-03 0. -1.
        -11    1    3    3    0    0 -0.22015404118E+02 -0.18980843134E+02  0.13424707698E+02  0.32018326027E+02  0.51100000000E-03 0.  1.
         12    1    3    3    0    0  0.12708023134E+01  0.35485041076E+00  0.14492580706E+02  0.14552517063E+02  0.00000000000E+00 0. -1.
</event>
<event>
 7    1  0.1339094E-013  0.7246145E+02  0.7816164E-02  0.1226708E+00
        -11   -1    0    0    0    0  0.00000000000E+00  0.00000000000E+00  0.45593999997E+02  0.45594000000E+02  0.51100000000E-03 0.  1.
         11   -1    0    0    0    0 -0.00000000000E+00 -0.00000000000E+00 -0.45593999997E+02  0.45594000000E+02  0.51100000000E-03 0. -1.
    9900012    2    1    2    0    0  0.78166964065E+01 -0.26507760422E+01  0.16809409020E+02  0.72461452322E+02  0.69999846319E+02 0.  0.
         12    1    1    2    0    0 -0.78166964065E+01  0.26507760422E+01 -0.16809409020E+02  0.18726547678E+02  0.00000000000E+00 0. -1.
         11    1    3    3    0    0 -0.68332624810E+01 -0.12762442693E+02  0.17676785154E+02  0.22848241798E+02  0.51100000000E-03 0.  1.
        -11    1    3    3    0    0  0.23993925826E+02  0.22876101852E+02 -0.42906732746E+01  0.33428047952E+02  0.51100000000E-03 0. -1.
         12    1    3    3    0    0 -0.93439669385E+01 -0.12764435202E+02  0.34232971408E+01  0.16185162572E+02  0.00000000000E+00 0. -1.
</event>
<event>
 7    1  0.1339094E-013  0.7246144E+02  0.7816164E-02  0.1226708E+00
        -11   -1    0    0    0    0  0.00000000000E+00  0.00000000000E+00  0.45593999997E+02  0.45594000000E+02  0.51100000000E-03 0. -1.
         11   -1    0    0    0    0 -0.00000000000E+00 -0.00000000000E+00 -0.45593999997E+02  0.45594000000E+02  0.51100000000E-03 0.  1.
    9900012    2    1    2    0    0 -0.18001070779E+02  0.50472391292E+01 -0.10820285591E+01  0.72461442446E+02  0.69999833454E+02 0.  0.
         12    1    1    2    0    0  0.18001070779E+02 -0.50472391292E+01  0.10820285591E+01  0.18726557554E+02  0.00000000000E+00 0. -1.
         11    1    3    3    0    0  0.22654319033E+02  0.14293694206E+02  0.34362290013E+01  0.27006212895E+02  0.51100000000E-03 0. -1.
        -11    1    3    3    0    0 -0.12282298862E+02  0.50697304723E+01 -0.30946618290E+01  0.13643092189E+02  0.51100000000E-03 0.  1.
         12    1    3    3    0    0 -0.28373090950E+02 -0.14316185549E+02 -0.14235957315E+01  0.31812137362E+02  0.00000000000E+00 0. -1.
</event>
<event>
 7    1  0.1339094E-013  0.7246142E+02  0.7816164E-02  0.1226708E+00
        -11   -1    0    0    0    0  0.00000000000E+00  0.00000000000E+00  0.45593999997E+02  0.45594000000E+02  0.51100000000E-03 0.  1.
         11   -1    0    0    0    0 -0.00000000000E+00 -0.00000000000E+00 -0.45593999997E+02  0.45594000000E+02  0.51100000000E-03 0. -1.
    9900012    2    1    2    0    0  0.85348591653E+01 -0.68209688753E+01 -0.15209050176E+02  0.72461424109E+02  0.69999809566E+02 0.  0.
         12    1    1    2    0    0 -0.85348591653E+01  0.68209688753E+01  0.15209050176E+02  0.18726575891E+02  0.00000000000E+00 0. -1.
         11    1    3    3    0    0  0.29028569546E+02 -0.35416547115E+01 -0.31690695683E+02  0.43121935962E+02  0.51100000000E-03 0. -1.
        -11    1    3    3    0    0 -0.43055228186E+01 -0.34833773846E+01 -0.87226002562E+00  0.56064500852E+01  0.51100000000E-03 0.  1.
         12    1    3    3    0    0 -0.16188187562E+02  0.20406322077E+00  0.17353905533E+02  0.23733038061E+02  0.00000000000E+00 0. -1.
</event>
<event>
 7    1  0.1339094E-013  0.7246157E+02  0.7816164E-02  0.1226708E+00
        -11   -1    0    0    0    0  0.00000000000E+00  0.00000000000E+00  0.45593999997E+02  0.45594000000E+02  0.51100000000E-03 0. -1.
         11   -1    0    0    0    0 -0.00000000000E+00 -0.00000000000E+00 -0.45593999997E+02  0.45594000000E+02  0.51100000000E-03 0.  1.
    9900012    2    1    2    0    0  0.11158272722E+02  0.12442490972E+02 -0.84472765577E+01  0.72461571804E+02  0.70000001967E+02 0.  0.
         12    1    1    2    0    0 -0.11158272722E+02 -0.12442490972E+02  0.84472765577E+01  0.18726428196E+02  0.00000000000E+00 0. -1.
         11    1    3    3    0    0 -0.71757477389E+01 -0.14786884745E+02  0.12754363438E+02  0.20804256849E+02  0.51100000000E-03 0. -1.
        -11    1    3    3    0    0  0.13774709007E+02  0.33137775796E+01 -0.23248303410E+02  0.27225123357E+02  0.51100000000E-03 0.  1.
        -12    1    3    3    0    0  0.45593114534E+01  0.23915598137E+02  0.20466634147E+01  0.24432191599E+02  0.00000000000E+00 0.  1.
</event>
<event>
 7    1  0.1339094E-013  0.7246158E+02  0.7816164E-02  0.1226708E+00
        -11   -1    0    0    0    0  0.00000000000E+00  0.00000000000E+00  0.45593999997E+02  0.45594000000E+02  0.51100000000E-03 0.  1.
         11   -1    0    0    0    0 -0.00000000000E+00 -0.00000000000E+00 -0.45593999997E+02  0.45594000000E+02  0.51100000000E-03 0. -1.
    9900012    2    1    2    0    0  0.87290126631E+01 -0.39532413442E+00  0.16562811799E+02  0.72461583420E+02  0.70000017098E+02 0.  0.
         12    1    1    2    0    0 -0.87290126631E+01  0.39532413442E+00 -0.16562811799E+02  0.18726416580E+02  0.00000000000E+00 0. -1.
         11    1    3    3    0    0 -0.29926318069E+01 -0.60614292778E+01  0.82567506095E+01  0.10671021549E+02  0.51100000000E-03 0. -1.
        -11    1    3    3    0    0  0.65753423928E+01  0.30195966231E+02  0.16988659028E+02  0.35265366013E+02  0.51100000000E-03 0.  1.
        -12    1    3    3    0    0  0.51463020772E+01 -0.24529861087E+02 -0.86825978389E+01  0.26525195857E+02  0.00000000000E+00 0.  1.
</event>
<event>
 7    1  0.1339094E-013  0.7246162E+02  0.7816164E-02  0.1226708E+00
        -11   -1    0    0    0    0  0.00000000000E+00  0.00000000000E+00  0.45593999997E+02  0.45594000000E+02  0.51100000000E-03 0.  1.
         11   -1    0    0    0    0 -0.00000000000E+00 -0.00000000000E+00 -0.45593999997E+02  0.45594000000E+02  0.51100000000E-03 0. -1.
    9900012    2    1    2    0    0 -0.18759315174E+01  0.11267059354E+02  0.14839527577E+02  0.72461619564E+02  0.70000064183E+02 0.  0.
         12    1    1    2    0    0  0.18759315174E+01 -0.11267059354E+02 -0.14839527577E+02  0.18726380436E+02  0.00000000000E+00 0. -1.
         11    1    3    3    0    0 -0.16139122176E+02  0.45555424778E+00 -0.23432609960E+02  0.28456387755E+02  0.51100000000E-03 0. -1.
        -11    1    3    3    0    0  0.70232998084E+01  0.59521074948E+01  0.31909814502E+02  0.33211302077E+02  0.51100000000E-03 0.  1.
        -12    1    3    3    0    0  0.72398908499E+01  0.48593976110E+01  0.63623230352E+01  0.10793929732E+02  0.00000000000E+00 0.  1.
</event>
<event>
 7    1  0.1339094E-013  0.7246158E+02  0.7816164E-02  0.1226708E+00
        -11   -1    0    0    0    0  0.00000000000E+00  0.00000000000E+00  0.45593999997E+02  0.45594000000E+02  0.51100000000E-03 0.  1.
         11   -1    0    0    0    0 -0.00000000000E+00 -0.00000000000E+00 -0.45593999997E+02  0.45594000000E+02  0.51100000000E-03 0. -1.
    9900012    2    1    2    0    0 -0.13126157908E+01 -0.18609387563E+02  0.16268330336E+01  0.72461578788E+02  0.70000011065E+02 0.  0.
         12    1    1    2    0    0  0.13126157908E+01  0.18609387563E+02 -0.16268330336E+01  0.18726421212E+02  0.00000000000E+00 0. -1.
         11    1    3    3    0    0 -0.24880577546E+02 -0.41378232730E+01 -0.15731074117E+02  0.29725938397E+02  0.51100000000E-03 0.  1.
        -11    1    3    3    0    0  0.20352516510E+02 -0.33937429579E+01  0.22126012227E+02  0.30253972250E+02  0.51100000000E-03 0. -1.
        -12    1    3    3    0    0  0.32154452445E+01 -0.11077821332E+02 -0.47681050762E+01  0.12481668142E+02  0.00000000000E+00 0.  1.
</event>
<event>
 7    1  0.1339094E-013  0.7246158E+02  0.7816164E-02  0.1226708E+00
        -11   -1    0    0    0    0  0.00000000000E+00  0.00000000000E+00  0.45593999997E+02  0.45594000000E+02  0.51100000000E-03 0.  1.
         11   -1    0    0    0    0 -0.00000000000E+00 -0.00000000000E+00 -0.45593999997E+02  0.45594000000E+02  0.51100000000E-03 0. -1.
    9900012    2    1    2    0    0 -0.24790843022E+01 -0.12517648315E+02  0.13705524186E+02  0.72461580921E+02  0.70000013843E+02 0.  0.
         12    1    1    2    0    0  0.24790843022E+01  0.12517648315E+02 -0.13705524186E+02  0.18726419079E+02  0.00000000000E+00 0. -1.
         11    1    3    3    0    0  0.27823865914E+02 -0.11545523313E+02 -0.27091402921E+01  0.30245761098E+02  0.51100000000E-03 0. -1.
        -11    1    3    3    0    0 -0.12747110835E+02 -0.11844381881E+02  0.11893614591E+02  0.21076913557E+02  0.51100000000E-03 0.  1.
         12    1    3    3    0    0 -0.17555839382E+02  0.10872256880E+02  0.45210498875E+01  0.21138906267E+02  0.00000000000E+00 0. -1.
</event>
<event>
 7    1  0.1339094E-013  0.7246153E+02  0.7816164E-02  0.1226708E+00
        -11   -1    0    0    0    0  0.00000000000E+00  0.00000000000E+00  0.45593999997E+02  0.45594000000E+02  0.51100000000E-03 0.  1.
         11   -1    0    0    0    0 -0.00000000000E+00 -0.00000000000E+00 -0.45593999997E+02  0.45594000000E+02  0.51100000000E-03 0. -1.
    9900012    2    1    2    0    0 -0.13800049153E+01  0.15581206886E+01  0.18610436314E+02  0.72461534946E+02  0.69999953952E+02 0.  0.
         12    1    1    2    0    0  0.13800049153E+01 -0.15581206886E+01 -0.18610436314E+02  0.18726465054E+02  0.00000000000E+00 0. -1.
         11    1    3    3    0    0 -0.53463204059E+01 -0.55395205693E+01 -0.19959075592E+02  0.21392384831E+02  0.51100000000E-03 0. -1.
        -11    1    3    3    0    0 -0.17694049970E+00  0.19572845105E+02  0.28194606581E+02  0.34322928400E+02  0.51100000000E-03 0.  1.
        -12    1    3    3    0    0  0.41432559903E+01 -0.12475203847E+02  0.10374905325E+02  0.16746221715E+02  0.00000000000E+00 0.  1.
</event>
<event>
 7    1  0.2009018E-013  0.7246161E+02  0.7816164E-02  0.1226708E+00
        -11   -1    0    0    0    0  0.00000000000E+00  0.00000000000E+00  0.45593999997E+02  0.45594000000E+02  0.51100000000E-03 0. -1.
         11   -1    0    0    0    0 -0.00000000000E+00 -0.00000000000E+00 -0.45593999997E+02  0.45594000000E+02  0.51100000000E-03 0.  1.
    9900012    2    1    2    0    0 -0.65702934588E+01  0.92017747521E+01 -0.14927702032E+02  0.72461609459E+02  0.70000051019E+02 0.  0.
         12    1    1    2    0    0  0.65702934588E+01 -0.92017747521E+01  0.14927702032E+02  0.18726390541E+02  0.00000000000E+00 0. -1.
         11    1    3    3    0    0 -0.38671549870E+01  0.67106990173E+01  0.22127751851E+02  0.23444098857E+02  0.51100000000E-03 0. -1.
        -11    1    3    3    0    0 -0.15005712199E+02  0.81799179761E+01 -0.27700422479E+02  0.32548361902E+02  0.51100000000E-03 0.  1.
        -12    1    3    3    0    0  0.12302573727E+02 -0.56888422413E+01 -0.93550314037E+01  0.16469148701E+02  0.00000000000E+00 0.  1.
</event>
<event>
 7    1  0.1339094E-013  0.7246153E+02  0.7816164E-02  0.1226708E+00
        -11   -1    0    0    0    0  0.00000000000E+00  0.00000000000E+00  0.45593999997E+02  0.45594000000E+02  0.51100000000E-03 0.  1.
         11   -1    0    0    0    0 -0.00000000000E+00 -0.00000000000E+00 -0.45593999997E+02  0.45594000000E+02  0.51100000000E-03 0. -1.
    9900012    2    1    2    0    0  0.92924633850E+01 -0.13421805479E+01  0.16202755220E+02  0.72461532071E+02  0.69999950207E+02 0.  0.
         12    1    1    2    0    0 -0.92924633850E+01  0.13421805479E+01 -0.16202755220E+02  0.18726467929E+02  0.00000000000E+00 0. -1.
         11    1    3    3    0    0 -0.15056228173E+02 -0.74700055551E+01 -0.14599302930E+02  0.22262763443E+02  0.51100000000E-03 0. -1.
        -11    1    3    3    0    0 -0.28059021299E+01  0.18701970441E+01  0.20609368553E+02  0.20883409592E+02  0.51100000000E-03 0.  1.
         12    1    3    3    0    0  0.27154593688E+02  0.42576279630E+01  0.10192689597E+02  0.29315359037E+02  0.00000000000E+00 0. -1.
</event>
<event>
 7    1  0.1339094E-013  0.7246146E+02  0.7816164E-02  0.1226708E+00
        -11   -1    0    0    0    0  0.00000000000E+00  0.00000000000E+00  0.45593999997E+02  0.45594000000E+02  0.51100000000E-03 0. -1.
         11   -1    0    0    0    0 -0.00000000000E+00 -0.00000000000E+00 -0.45593999997E+02  0.45594000000E+02  0.51100000000E-03 0.  1.
    9900012    2    1    2    0    0  0.19036682674E+01  0.16100757727E+02 -0.93714894876E+01  0.72461463549E+02  0.69999860944E+02 0.  0.
         12    1    1    2    0    0 -0.19036682674E+01 -0.16100757727E+02  0.93714894876E+01  0.18726536451E+02  0.00000000000E+00 0. -1.
         11    1    3    3    0    0  0.44653171619E+01  0.21424064403E+02  0.27279792514E+01  0.22053831049E+02  0.51100000000E-03 0. -1.
        -11    1    3    3    0    0 -0.25529166288E+02 -0.28217699801E+01 -0.83105134285E+01  0.26995654296E+02  0.51100000000E-03 0.  1.
        -12    1    3    3    0    0  0.22967517393E+02 -0.25015366958E+01 -0.37889553105E+01  0.23411978203E+02  0.00000000000E+00 0.  1.
</event>
<event>
 7    1  0.1339094E-013  0.7246158E+02  0.7816164E-02  0.1226708E+00
        -11   -1    0    0    0    0  0.00000000000E+00  0.00000000000E+00  0.45593999997E+02  0.45594000000E+02  0.51100000000E-03 0.  1.
         11   -1    0    0    0    0 -0.00000000000E+00 -0.00000000000E+00 -0.45593999997E+02  0.45594000000E+02  0.51100000000E-03 0. -1.
    9900012    2    1    2    0    0  0.40577610054E+01  0.17763622322E+02  0.43205469158E+01  0.72461579413E+02  0.70000011878E+02 0.  0.
         12    1    1    2    0    0 -0.40577610054E+01 -0.17763622322E+02 -0.43205469158E+01  0.18726420587E+02  0.00000000000E+00 0. -1.
         11    1    3    3    0    0  0.13533969468E+02  0.22425289438E+02  0.24700679255E+02  0.36002576183E+02  0.51100000000E-03 0. -1.
        -11    1    3    3    0    0 -0.92280744510E+01  0.10573136027E+02 -0.14351943985E+02  0.20073038134E+02  0.51100000000E-03 0.  1.
         12    1    3    3    0    0 -0.24813401209E+00 -0.15234803143E+02 -0.60281883542E+01  0.16385965096E+02  0.00000000000E+00 0. -1.
</event>
<event>
 7    1  0.1339094E-013  0.7246157E+02  0.7816164E-02  0.1226708E+00
        -11   -1    0    0    0    0  0.00000000000E+00  0.00000000000E+00  0.45593999997E+02  0.45594000000E+02  0.51100000000E-03 0. -1.
         11   -1    0    0    0    0 -0.00000000000E+00 -0.00000000000E+00 -0.45593999997E+02  0.45594000000E+02  0.51100000000E-03 0.  1.
    9900012    2    1    2    0    0 -0.28585379303E+01 -0.10105017339E+02 -0.15504722633E+02  0.72461573794E+02  0.70000004559E+02 0.  0.
         12    1    1    2    0    0  0.28585379303E+01  0.10105017339E+02  0.15504722633E+02  0.18726426206E+02  0.00000000000E+00 0. -1.
         11    1    3    3    0    0  0.29518750201E+02  0.67191657827E+01  0.66299172359E+00  0.30281072645E+02  0.51100000000E-03 0. -1.
        -11    1    3    3    0    0 -0.15510804018E+02 -0.11429249324E+02 -0.17519664436E+01  0.19346373512E+02  0.51100000000E-03 0.  1.
         12    1    3    3    0    0 -0.16866484114E+02 -0.53949337982E+01 -0.14415747913E+02  0.22834127637E+02  0.00000000000E+00 0. -1.
</event>
<event>
 7    1  0.1339094E-013  0.7246157E+02  0.7816164E-02  0.1226708E+00
        -11   -1    0    0    0    0  0.00000000000E+00  0.00000000000E+00  0.45593999997E+02  0.45594000000E+02  0.51100000000E-03 0. -1.
         11   -1    0    0    0    0 -0.00000000000E+00 -0.00000000000E+00 -0.45593999997E+02  0.45594000000E+02  0.51100000000E-03 0.  1.
    9900012    2    1    2    0    0 -0.28831640296E+01  0.47826182832E+01 -0.17874374429E+02  0.72461565911E+02  0.69999994289E+02 0.  0.
         12    1    1    2    0    0  0.28831640296E+01 -0.47826182832E+01  0.17874374429E+02  0.18726434089E+02  0.00000000000E+00 0. -1.
         11    1    3    3    0    0  0.14951744537E+02 -0.14474683352E+02  0.14081967112E+02  0.25127135150E+02  0.51100000000E-03 0.  1.
        -11    1    3    3    0    0 -0.17566697356E+02  0.16560809768E+02 -0.11574895001E+02  0.26773633871E+02  0.51100000000E-03 0. -1.
        -12    1    3    3    0    0 -0.26821121107E+00  0.26964918674E+01 -0.20381446540E+02  0.20560796889E+02  0.00000000000E+00 0.  1.
</event>
<event>
 7    1  0.1339094E-013  0.7246189E+02  0.7816164E-02  0.1226707E+00
        -11   -1    0    0    0    0  0.00000000000E+00  0.00000000000E+00  0.45593999997E+02  0.45594000000E+02  0.51100000000E-03 0.  1.
         11   -1    0    0    0    0 -0.00000000000E+00 -0.00000000000E+00 -0.45593999997E+02  0.45594000000E+02  0.51100000000E-03 0. -1.
    9900012    2    1    2    0    0 -0.44834396696E+01 -0.15308030694E+02  0.98096946707E+01  0.72461891367E+02  0.70000418256E+02 0.  0.
         12    1    1    2    0    0  0.44834396696E+01  0.15308030694E+02 -0.98096946707E+01  0.18726108633E+02  0.00000000000E+00 0. -1.
         11    1    3    3    0    0  0.19319033581E+02 -0.63471436984E+01 -0.55642313848E+01  0.21082503712E+02  0.51100000000E-03 0. -1.
        -11    1    3    3    0    0 -0.20304027128E+02 -0.54897336766E+01 -0.11558488918E+02  0.23999778327E+02  0.51100000000E-03 0.  1.
         12    1    3    3    0    0 -0.34984461225E+01 -0.34711533187E+01  0.26932414973E+02  0.27379609327E+02  0.00000000000E+00 0. -1.
</event>
<event>
 7    1  0.1339094E-013  0.7246157E+02  0.7816164E-02  0.1226708E+00
        -11   -1    0    0    0    0  0.00000000000E+00  0.00000000000E+00  0.45593999997E+02  0.45594000000E+02  0.51100000000E-03 0.  1.
         11   -1    0    0    0    0 -0.00000000000E+00 -0.00000000000E+00 -0.45593999997E+02  0.45594000000E+02  0.51100000000E-03 0. -1.
    9900012    2    1    2    0    0 -0.13662912410E+02  0.12751028986E+02  0.11896120435E+01  0.72461572350E+02  0.70000002678E+02 0.  0.
         12    1    1    2    0    0  0.13662912410E+02 -0.12751028986E+02 -0.11896120435E+01  0.18726427650E+02  0.00000000000E+00 0. -1.
         11    1    3    3    0    0  0.10959381708E+02 -0.14484298071E+02 -0.83215246870E+01  0.19978756503E+02  0.51100000000E-03 0. -1.
        -11    1    3    3    0    0 -0.22311875051E+01  0.27737192798E+02 -0.77361770164E+00  0.27837538444E+02  0.51100000000E-03 0.  1.
         12    1    3    3    0    0 -0.22391106613E+02 -0.50186574137E+00  0.10284754432E+02  0.24645277404E+02  0.00000000000E+00 0. -1.
</event>
<event>
 7    1  0.1339094E-013  0.7246159E+02  0.7816164E-02  0.1226708E+00
        -11   -1    0    0    0    0  0.00000000000E+00  0.00000000000E+00  0.45593999997E+02  0.45594000000E+02  0.51100000000E-03 0. -1.
         11   -1    0    0    0    0 -0.00000000000E+00 -0.00000000000E+00 -0.45593999997E+02  0.45594000000E+02  0.51100000000E-03 0.  1.
    9900012    2    1    2    0    0 -0.65507363854E+01  0.14206799950E+02  0.10292385746E+02  0.72461587734E+02  0.70000022718E+02 0.  0.
         12    1    1    2    0    0  0.65507363854E+01 -0.14206799950E+02 -0.10292385746E+02  0.18726412266E+02  0.00000000000E+00 0. -1.
         11    1    3    3    0    0  0.17346278470E+02  0.51390478906E+01  0.32910926102E+02  0.37555721896E+02  0.51100000000E-03 0. -1.
        -11    1    3    3    0    0 -0.11280683327E+02  0.63547174945E+01 -0.15399446661E+02  0.20119125440E+02  0.51100000000E-03 0.  1.
         12    1    3    3    0    0 -0.12616331529E+02  0.27130345652E+01 -0.72190936948E+01  0.14786740397E+02  0.00000000000E+00 0. -1.
</event>
<event>
 7    1  0.1339094E-013  0.7246158E+02  0.7816164E-02  0.1226708E+00
        -11   -1    0    0    0    0  0.00000000000E+00  0.00000000000E+00  0.45593999997E+02  0.45594000000E+02  0.51100000000E-03 0.  1.
         11   -1    0    0    0    0 -0.00000000000E+00 -0.00000000000E+00 -0.45593999997E+02  0.45594000000E+02  0.51100000000E-03 0. -1.
    9900012    2    1    2    0    0  0.16075813009E+02  0.70169782782E+01  0.65581413659E+01  0.72461575722E+02  0.70000007071E+02 0.  0.
         12    1    1    2    0    0 -0.16075813009E+02 -0.70169782782E+01 -0.65581413659E+01  0.18726424278E+02  0.00000000000E+00 0. -1.
         11    1    3    3    0    0 -0.12347160529E+02  0.87822325725E+01 -0.18839499955E+02  0.24176574218E+02  0.51100000000E-03 0. -1.
        -11    1    3    3    0    0  0.82980324471E+01 -0.13477197481E+02  0.17738600425E+02  0.23772886651E+02  0.51100000000E-03 0.  1.
         12    1    3    3    0    0  0.20124941091E+02  0.11711943187E+02  0.76590408963E+01  0.24512114853E+02  0.00000000000E+00 0. -1.
</event>
<event>
 7    1  0.1339094E-013  0.7246189E+02  0.7816164E-02  0.1226707E+00
        -11   -1    0    0    0    0  0.00000000000E+00  0.00000000000E+00  0.45593999997E+02  0.45594000000E+02  0.51100000000E-03 0.  1.
         11   -1    0    0    0    0 -0.00000000000E+00 -0.00000000000E+00 -0.45593999997E+02  0.45594000000E+02  0.51100000000E-03 0. -1.
    9900012    2    1    2    0    0  0.76719133994E+01  0.17027274829E+02 -0.13714759369E+01  0.72461887495E+02  0.70000413211E+02 0.  0.
         12    1    1    2    0    0 -0.76719133994E+01 -0.17027274829E+02  0.13714759369E+01  0.18726112505E+02  0.00000000000E+00 0. -1.
         11    1    3    3    0    0 -0.57496620828E+01  0.80336667861E+01 -0.50948433117E+01  0.11115567675E+02  0.51100000000E-03 0. -1.
        -11    1    3    3    0    0  0.34562252829E+02  0.10183742584E+02 -0.83301685843E+01  0.36981747424E+02  0.51100000000E-03 0.  1.
        -12    1    3    3    0    0 -0.21140677347E+02 -0.11901345406E+01  0.12053535959E+02  0.24364572396E+02  0.00000000000E+00 0.  1.
</event>
<event>
 7    1  0.1339094E-013  0.7246155E+02  0.7816164E-02  0.1226708E+00
        -11   -1    0    0    0    0  0.00000000000E+00  0.00000000000E+00  0.45593999997E+02  0.45594000000E+02  0.51100000000E-03 0.  1.
         11   -1    0    0    0    0 -0.00000000000E+00 -0.00000000000E+00 -0.45593999997E+02  0.45594000000E+02  0.51100000000E-03 0. -1.
    9900012    2    1    2    0    0  0.86720624640E+01  0.16135628958E+02  0.38880221374E+01  0.72461550647E+02  0.69999974406E+02 0.  0.
         12    1    1    2    0    0 -0.86720624640E+01 -0.16135628958E+02 -0.38880221374E+01  0.18726449353E+02  0.00000000000E+00 0. -1.
         11    1    3    3    0    0 -0.12491684003E+02  0.38806877592E+01 -0.24012151066E+02  0.27343834877E+02  0.51100000000E-03 0. -1.
        -11    1    3    3    0    0  0.80676324617E+00  0.11010220161E+02  0.20752990411E+02  0.23506646426E+02  0.51100000000E-03 0.  1.
         12    1    3    3    0    0  0.20356983221E+02  0.12447210374E+01  0.71471827926E+01  0.21611069344E+02  0.00000000000E+00 0. -1.
</event>
<event>
 7    1  0.1339094E-013  0.7246153E+02  0.7816164E-02  0.1226708E+00
        -11   -1    0    0    0    0  0.00000000000E+00  0.00000000000E+00  0.45593999997E+02  0.45594000000E+02  0.51100000000E-03 0.  1.
         11   -1    0    0    0    0 -0.00000000000E+00 -0.00000000000E+00 -0.45593999997E+02  0.45594000000E+02  0.51100000000E-03 0. -1.
    9900012    2    1    2    0    0  0.20658333019E+00 -0.10412001668E+02  0.15563677842E+02  0.72461534146E+02  0.69999952911E+02 0.  0.
         12    1    1    2    0    0 -0.20658333019E+00  0.10412001668E+02 -0.15563677842E+02  0.18726465854E+02  0.00000000000E+00 0. -1.
         11    1    3    3    0    0 -0.18343426968E+02 -0.11376398603E+02 -0.17373844774E+02  0.27708378527E+02  0.51100000000E-03 0. -1.
        -11    1    3    3    0    0  0.16495648068E+02  0.21228798412E+01  0.59518030675E+01  0.17664568606E+02  0.51100000000E-03 0.  1.
         12    1    3    3    0    0  0.20543622303E+01 -0.11584829055E+01  0.26985719549E+02  0.27088587013E+02  0.00000000000E+00 0. -1.
</event>
<event>
 7    1  0.1339094E-013  0.7246165E+02  0.7816164E-02  0.1226708E+00
        -11   -1    0    0    0    0  0.00000000000E+00  0.00000000000E+00  0.45593999997E+02  0.45594000000E+02  0.51100000000E-03 0.  1.
         11   -1    0    0    0    0 -0.00000000000E+00 -0.00000000000E+00 -0.45593999997E+02  0.45594000000E+02  0.51100000000E-03 0. -1.
    9900012    2    1    2    0    0  0.36097168700E+01 -0.61974999914E+01  0.17298468831E+02  0.72461652628E+02  0.70000107254E+02 0.  0.
         12    1    1    2    0    0 -0.36097168700E+01  0.61974999914E+01 -0.17298468831E+02  0.18726347372E+02  0.00000000000E+00 0. -1.
         11    1    3    3    0    0  0.10519867491E+01  0.35885327904E+01 -0.99602553734E+01  0.10639122665E+02  0.51100000000E-03 0. -1.
        -11    1    3    3    0    0  0.12161198285E+02 -0.17664368490E+02  0.39142096874E+02  0.44632145432E+02  0.51100000000E-03 0.  1.
        -12    1    3    3    0    0 -0.96034681638E+01  0.78783357080E+01 -0.11883372670E+02  0.17190384531E+02  0.00000000000E+00 0.  1.
</event>
<event>
 7    1  0.1339094E-013  0.7246166E+02  0.7816164E-02  0.1226708E+00
        -11   -1    0    0    0    0  0.00000000000E+00  0.00000000000E+00  0.45593999997E+02  0.45594000000E+02  0.51100000000E-03 0.  1.
         11   -1    0    0    0    0 -0.00000000000E+00 -0.00000000000E+00 -0.45593999997E+02  0.45594000000E+02  0.51100000000E-03 0. -1.
    9900012    2    1    2    0    0 -0.12364610376E+01  0.18681594812E+02  0.38057473896E+00  0.72461664060E+02  0.70000122147E+02 0.  0.
         12    1    1    2    0    0  0.12364610376E+01 -0.18681594812E+02 -0.38057473896E+00  0.18726335940E+02  0.00000000000E+00 0. -1.
         11    1    3    3    0    0 -0.98449312642E+01  0.32779128167E+01 -0.22381545799E+02  0.24669839413E+02  0.51100000000E-03 0. -1.
        -11    1    3    3    0    0  0.22271918164E+02  0.75470502615E+01  0.49935313779E+01  0.24040209281E+02  0.51100000000E-03 0.  1.
         12    1    3    3    0    0 -0.13663447938E+02  0.78566317338E+01  0.17768589161E+02  0.23751615366E+02  0.00000000000E+00 0. -1.
</event>
<event>
 7    1  0.1339094E-013  0.7246154E+02  0.7816164E-02  0.1226708E+00
        -11   -1    0    0    0    0  0.00000000000E+00  0.00000000000E+00  0.45593999997E+02  0.45594000000E+02  0.51100000000E-03 0.  1.
         11   -1    0    0    0    0 -0.00000000000E+00 -0.00000000000E+00 -0.45593999997E+02  0.45594000000E+02  0.51100000000E-03 0. -1.
    9900012    2    1    2    0    0  0.12804001357E+02  0.10234328505E+02  0.90551838046E+01  0.72461540526E+02  0.69999961221E+02 0.  0.
         12    1    1    2    0    0 -0.12804001357E+02 -0.10234328505E+02 -0.90551838046E+01  0.18726459474E+02  0.00000000000E+00 0. -1.
         11    1    3    3    0    0 -0.18980032080E+02  0.71185251594E+01 -0.16854364036E+02  0.26362560679E+02  0.51100000000E-03 0. -1.
        -11    1    3    3    0    0  0.11107732373E+02 -0.26094802981E+01  0.21287206190E+02  0.24152355031E+02  0.51100000000E-03 0.  1.
        -12    1    3    3    0    0  0.20676301064E+02  0.57252836436E+01  0.46223416510E+01  0.21946624817E+02  0.00000000000E+00 0.  1.
</event>
<event>
 7    1  0.1339094E-013  0.7246161E+02  0.7816164E-02  0.1226708E+00
        -11   -1    0    0    0    0  0.00000000000E+00  0.00000000000E+00  0.45593999997E+02  0.45594000000E+02  0.51100000000E-03 0.  1.
         11   -1    0    0    0    0 -0.00000000000E+00 -0.00000000000E+00 -0.45593999997E+02  0.45594000000E+02  0.51100000000E-03 0. -1.
    9900012    2    1    2    0    0  0.61969521330E+01  0.72712359184E+01  0.16106041073E+02  0.72461610957E+02  0.70000052971E+02 0.  0.
         12    1    1    2    0    0 -0.61969521330E+01 -0.72712359184E+01 -0.16106041073E+02  0.18726389043E+02  0.00000000000E+00 0. -1.
         11    1    3    3    0    0  0.76850248018E+01 -0.29944166075E+02  0.15332308591E+02  0.34507859614E+02  0.51100000000E-03 0. -1.
        -11    1    3    3    0    0  0.19688881262E+01  0.27055186331E+02  0.17112828303E+01  0.27180657039E+02  0.51100000000E-03 0.  1.
         12    1    3    3    0    0 -0.34569607950E+01  0.10160215662E+02 -0.93755034802E+00  0.10773094305E+02  0.00000000000E+00 0. -1.
</event>
<event>
 7    1  0.1339094E-013  0.7246156E+02  0.7816164E-02  0.1226708E+00
        -11   -1    0    0    0    0  0.00000000000E+00  0.00000000000E+00  0.45593999997E+02  0.45594000000E+02  0.51100000000E-03 0.  1.
         11   -1    0    0    0    0 -0.00000000000E+00 -0.00000000000E+00 -0.45593999997E+02  0.45594000000E+02  0.51100000000E-03 0. -1.
    9900012    2    1    2    0    0 -0.17446704550E+02 -0.13025283802E+01  0.66779801510E+01  0.72461561505E+02  0.69999988550E+02 0.  0.
         12    1    1    2    0    0  0.17446704550E+02  0.13025283802E+01 -0.66779801510E+01  0.18726438495E+02  0.00000000000E+00 0. -1.
         11    1    3    3    0    0  0.18742293764E+02  0.10388430281E+02  0.24172233410E+00  0.21430153737E+02  0.51100000000E-03 0. -1.
        -11    1    3    3    0    0 -0.30970237393E+02 -0.18115784153E+02 -0.57119591524E+01  0.36331304922E+02  0.51100000000E-03 0.  1.
         12    1    3    3    0    0 -0.52187609204E+01  0.64248254925E+01  0.12148216969E+02  0.14700102846E+02  0.00000000000E+00 0. -1.
</event>
<event>
 7    1  0.1339094E-013  0.7246158E+02  0.7816164E-02  0.1226708E+00
        -11   -1    0    0    0    0  0.00000000000E+00  0.00000000000E+00  0.45593999997E+02  0.45594000000E+02  0.51100000000E-03 0.  1.
         11   -1    0    0    0    0 -0.00000000000E+00 -0.00000000000E+00 -0.45593999997E+02  0.45594000000E+02  0.51100000000E-03 0. -1.
    9900012    2    1    2    0    0 -0.40090127681E+01  0.18084867746E+02  0.27466457955E+01  0.72461583154E+02  0.70000016752E+02 0.  0.
         12    1    1    2    0    0  0.40090127681E+01 -0.18084867746E+02 -0.27466457955E+01  0.18726416846E+02  0.00000000000E+00 0. -1.
         11    1    3    3    0    0  0.52194607109E+01  0.51057083550E+00 -0.36917451520E+01  0.64134573531E+01  0.51100000000E-03 0. -1.
        -11    1    3    3    0    0 -0.46358893192E-01 -0.12135939804E+02  0.26427551075E+02  0.29080898201E+02  0.51100000000E-03 0.  1.
        -12    1    3    3    0    0 -0.91821145858E+01  0.29710236714E+02 -0.19989160128E+02  0.36967227601E+02  0.00000000000E+00 0.  1.
</event>
<event>
 7    1  0.1339094E-013  0.7246147E+02  0.7816164E-02  0.1226708E+00
        -11   -1    0    0    0    0  0.00000000000E+00  0.00000000000E+00  0.45593999997E+02  0.45594000000E+02  0.51100000000E-03 0.  1.
         11   -1    0    0    0    0 -0.00000000000E+00 -0.00000000000E+00 -0.45593999997E+02  0.45594000000E+02  0.51100000000E-03 0. -1.
    9900012    2    1    2    0    0 -0.86332191092E+01 -0.16516534898E+02  0.18315100434E+01  0.72461472659E+02  0.69999872812E+02 0.  0.
         12    1    1    2    0    0  0.86332191092E+01  0.16516534898E+02 -0.18315100434E+01  0.18726527341E+02  0.00000000000E+00 0. -1.
         11    1    3    3    0    0  0.13482963314E+02 -0.25733502822E+02 -0.66155935654E+01  0.29795461831E+02  0.51100000000E-03 0.  1.
        -11    1    3    3    0    0 -0.31420603230E+02  0.65405123106E+01  0.56434279608E+01  0.32586513899E+02  0.51100000000E-03 0. -1.
        -12    1    3    3    0    0  0.93044208072E+01  0.26764556140E+01  0.28036756481E+01  0.10079496929E+02  0.00000000000E+00 0.  1.
</event>
<event>
 7    1  0.1339094E-013  0.7246096E+02  0.7816164E-02  0.1226710E+00
        -11   -1    0    0    0    0  0.00000000000E+00  0.00000000000E+00  0.45593999997E+02  0.45594000000E+02  0.51100000000E-03 0.  1.
         11   -1    0    0    0    0 -0.00000000000E+00 -0.00000000000E+00 -0.45593999997E+02  0.45594000000E+02  0.51100000000E-03 0. -1.
    9900012    2    1    2    0    0  0.16187215151E+02  0.32608400145E+01 -0.88341911456E+01  0.72460962189E+02  0.69999207826E+02 0.  0.
         12    1    1    2    0    0 -0.16187215151E+02 -0.32608400145E+01  0.88341911456E+01  0.18727037811E+02  0.00000000000E+00 0. -1.
         11    1    3    3    0    0  0.23477658611E+02  0.10284764579E+01 -0.14558152851E+01  0.23545224910E+02  0.51100000000E-03 0. -1.
        -11    1    3    3    0    0 -0.24355685266E+02 -0.95348338821E+01  0.18594043062E+01  0.26221553093E+02  0.51100000000E-03 0.  1.
        -12    1    3    3    0    0  0.17065241807E+02  0.11767197439E+02 -0.92377801667E+01  0.22694184187E+02  0.00000000000E+00 0.  1.
</event>
<event>
 7    1  0.1339094E-013  0.7246170E+02  0.7816164E-02  0.1226708E+00
        -11   -1    0    0    0    0  0.00000000000E+00  0.00000000000E+00  0.45593999997E+02  0.45594000000E+02  0.51100000000E-03 0. -1.
         11   -1    0    0    0    0 -0.00000000000E+00 -0.00000000000E+00 -0.45593999997E+02  0.45594000000E+02  0.51100000000E-03 0.  1.
    9900012    2    1    2    0    0 -0.12143373157E+02  0.10229109679E+02 -0.99286494390E+01  0.72461700949E+02  0.70000170202E+02 0.  0.
         12    1    1    2    0    0  0.12143373157E+02 -0.10229109679E+02  0.99286494390E+01  0.18726299051E+02  0.00000000000E+00 0. -1.
         11    1    3    3    0    0  0.70606073053E+01 -0.28107924432E+01  0.24624021842E+01  0.79885013899E+01  0.51100000000E-03 0.  1.
        -11    1    3    3    0    0 -0.33122331766E+02  0.17902782585E+02  0.87925501634E+01  0.38664032698E+02  0.51100000000E-03 0. -1.
        -12    1    3    3    0    0  0.13918351303E+02 -0.48628804623E+01 -0.21183601787E+02  0.25809166861E+02  0.00000000000E+00 0.  1.
</event>
<event>
 8    1  0.1339094E-013  0.7246158E+02  0.7816164E-02  0.1226708E+00
        -11   -1    0    0    0    0  0.00000000000E+00  0.00000000000E+00  0.45593999997E+02  0.45594000000E+02  0.51100000000E-03 0. -1.
         11   -1    0    0    0    0 -0.00000000000E+00 -0.00000000000E+00 -0.45593999997E+02  0.45594000000E+02  0.51100000000E-03 0.  1.
    9900012    2    1    2    0    0  0.14007471374E+02 -0.10436070349E+02 -0.67496566625E+01  0.72461583266E+02  0.70000016898E+02 0.  0.
         24    2    3    3    0    0  0.46412918153E+01  0.51729144855E+01 -0.15591726800E+02  0.52224292646E+02  0.49355588982E+02 0.  0.
         12    1    1    2    0    0 -0.14007471374E+02  0.10436070349E+02  0.67496566625E+01  0.18726416734E+02  0.00000000000E+00 0. -1.
         11    1    3    3    0    0  0.93661795590E+01 -0.15608984834E+02  0.88420701374E+01  0.20237290621E+02  0.51100000000E-03 0. -1.
        -11    1    4    4    0    0  0.86975017582E+01  0.10241566287E+02 -0.31930881104E+02  0.34642710419E+02  0.51100000000E-03 0.  1.
         12    1    4    4    0    0 -0.40562099429E+01 -0.50686518019E+01  0.16339154304E+02  0.17581582226E+02  0.00000000000E+00 0. -1.
</event>
<event>
 8    1  0.1339094E-013  0.7246157E+02  0.7816164E-02  0.1226708E+00
        -11   -1    0    0    0    0  0.00000000000E+00  0.00000000000E+00  0.45593999997E+02  0.45594000000E+02  0.51100000000E-03 0.  1.
         11   -1    0    0    0    0 -0.00000000000E+00 -0.00000000000E+00 -0.45593999997E+02  0.45594000000E+02  0.51100000000E-03 0. -1.
    9900012    2    1    2    0    0 -0.35486647150E+01  0.10793883054E+02  0.14885506517E+02  0.72461568495E+02  0.69999997656E+02 0.  0.
        -24    2    3    3    0    0  0.14504044853E+01  0.21933539109E+02  0.94699716194E+00  0.53931466682E+02  0.49239440328E+02 0.  0.
         12    1    1    2    0    0  0.35486647150E+01 -0.10793883054E+02 -0.14885506517E+02  0.18726431505E+02  0.00000000000E+00 0. -1.
         11    1    4    4    0    0  0.11727377979E+02  0.38202137745E+01 -0.20571464896E+02  0.23985633112E+02  0.51100000000E-03 0. -1.
        -11    1    3    3    0    0 -0.49990692003E+01 -0.11139656055E+02  0.13938509355E+02  0.18530101813E+02  0.51100000000E-03 0.  1.
        -12    1    4    4    0    0 -0.10276973494E+02  0.18113325335E+02  0.21518462058E+02  0.29945833570E+02  0.00000000000E+00 0.  1.
</event>
<event>
 7    1  0.1339094E-013  0.7246158E+02  0.7816164E-02  0.1226708E+00
        -11   -1    0    0    0    0  0.00000000000E+00  0.00000000000E+00  0.45593999997E+02  0.45594000000E+02  0.51100000000E-03 0.  1.
         11   -1    0    0    0    0 -0.00000000000E+00 -0.00000000000E+00 -0.45593999997E+02  0.45594000000E+02  0.51100000000E-03 0. -1.
    9900012    2    1    2    0    0 -0.47751242443E+01 -0.51226798914E+01  0.17367647255E+02  0.72461579307E+02  0.70000011740E+02 0.  0.
         12    1    1    2    0    0  0.47751242443E+01  0.51226798914E+01 -0.17367647255E+02  0.18726420693E+02  0.00000000000E+00 0. -1.
         11    1    3    3    0    0 -0.46241742807E+01  0.12553046153E+02 -0.59790152431E+01  0.14653005802E+02  0.51100000000E-03 0. -1.
        -11    1    3    3    0    0  0.67864447501E-01 -0.36699184546E+01  0.37626708130E+02  0.37805318039E+02  0.51100000000E-03 0.  1.
        -12    1    3    3    0    0 -0.21881441108E+00 -0.14005807589E+02 -0.14280045632E+02  0.20003255466E+02  0.00000000000E+00 0.  1.
</event>
<event>
 7    1  0.1339094E-013  0.7246166E+02  0.7816164E-02  0.1226708E+00
        -11   -1    0    0    0    0  0.00000000000E+00  0.00000000000E+00  0.45593999997E+02  0.45594000000E+02  0.51100000000E-03 0. -1.
         11   -1    0    0    0    0 -0.00000000000E+00 -0.00000000000E+00 -0.45593999997E+02  0.45594000000E+02  0.51100000000E-03 0.  1.
    9900012    2    1    2    0    0 -0.16502151039E+02  0.15798507507E+01 -0.87097095366E+01  0.72461656055E+02  0.70000111720E+02 0.  0.
         12    1    1    2    0    0  0.16502151039E+02 -0.15798507507E+01  0.87097095366E+01  0.18726343945E+02  0.00000000000E+00 0. -1.
         11    1    3    3    0    0 -0.12210450684E+02 -0.14034893777E+02 -0.22601964384E+02  0.29273232543E+02  0.51100000000E-03 0.  1.
        -11    1    3    3    0    0  0.94990239746E+01  0.13582418562E+02 -0.70659401856E+01  0.18017798462E+02  0.51100000000E-03 0. -1.
         12    1    3    3    0    0 -0.13790724330E+02  0.20323259663E+01  0.20958195033E+02  0.25170625050E+02  0.00000000000E+00 0. -1.
</event>
<event>
 7    1  0.1339094E-013  0.7246133E+02  0.7816164E-02  0.1226709E+00
        -11   -1    0    0    0    0  0.00000000000E+00  0.00000000000E+00  0.45593999997E+02  0.45594000000E+02  0.51100000000E-03 0. -1.
         11   -1    0    0    0    0 -0.00000000000E+00 -0.00000000000E+00 -0.45593999997E+02  0.45594000000E+02  0.51100000000E-03 0.  1.
    9900012    2    1    2    0    0  0.47263319522E+01 -0.14709459189E+02 -0.10582139934E+02  0.72461332146E+02  0.69999689767E+02 0.  0.
         12    1    1    2    0    0 -0.47263319522E+01  0.14709459189E+02  0.10582139934E+02  0.18726667854E+02  0.00000000000E+00 0. -1.
         11    1    3    3    0    0  0.26199353179E+02  0.11874988391E+02 -0.18562378227E+02  0.34234242243E+02  0.51100000000E-03 0.  1.
        -11    1    3    3    0    0 -0.88393248592E+01 -0.19851437384E+02 -0.21486902844E+00  0.21731530069E+02  0.51100000000E-03 0. -1.
         12    1    3    3    0    0 -0.12633696367E+02 -0.67330101961E+01  0.81951073218E+01  0.16495559833E+02  0.00000000000E+00 0. -1.
</event>
<event>
 7    1  0.1339094E-013  0.7246164E+02  0.7816164E-02  0.1226708E+00
        -11   -1    0    0    0    0  0.00000000000E+00  0.00000000000E+00  0.45593999997E+02  0.45594000000E+02  0.51100000000E-03 0.  1.
         11   -1    0    0    0    0 -0.00000000000E+00 -0.00000000000E+00 -0.45593999997E+02  0.45594000000E+02  0.51100000000E-03 0. -1.
    9900012    2    1    2    0    0  0.16488624664E+02  0.40854509218E+01 -0.78810516100E+01  0.72461638180E+02  0.70000088433E+02 0.  0.
         12    1    1    2    0    0 -0.16488624664E+02 -0.40854509218E+01  0.78810516100E+01  0.18726361820E+02  0.00000000000E+00 0. -1.
         11    1    3    3    0    0 -0.13949393268E+02  0.15716194822E+02 -0.18316011472E+01  0.21093579953E+02  0.51100000000E-03 0. -1.
        -11    1    3    3    0    0  0.13046654538E+02 -0.25576938532E+02 -0.30205901478E+01  0.28870728158E+02  0.51100000000E-03 0.  1.
         12    1    3    3    0    0  0.17391363393E+02  0.13946194632E+02 -0.30288603150E+01  0.22497330068E+02  0.00000000000E+00 0. -1.
</event>
<event>
 7    1  0.1339094E-013  0.7246159E+02  0.7816164E-02  0.1226708E+00
        -11   -1    0    0    0    0  0.00000000000E+00  0.00000000000E+00  0.45593999997E+02  0.45594000000E+02  0.51100000000E-03 0.  1.
         11   -1    0    0    0    0 -0.00000000000E+00 -0.00000000000E+00 -0.45593999997E+02  0.45594000000E+02  0.51100000000E-03 0. -1.
    9900012    2    1    2    0    0 -0.11800887007E+02 -0.44076098087E+00 -0.14533517507E+02  0.72461592562E+02  0.70000029008E+02 0.  0.
         12    1    1    2    0    0  0.11800887007E+02  0.44076098087E+00  0.14533517507E+02  0.18726407438E+02  0.00000000000E+00 0. -1.
         11    1    3    3    0    0  0.91952523414E+01 -0.57460449813E+01 -0.11224729951E+02  0.15606545463E+02  0.51100000000E-03 0. -1.
        -11    1    3    3    0    0 -0.13671582558E+02 -0.14838013030E+02  0.17701851985E+02  0.26840908409E+02  0.51100000000E-03 0.  1.
        -12    1    3    3    0    0 -0.73245567913E+01  0.20143297030E+02 -0.21010639540E+02  0.30014138690E+02  0.00000000000E+00 0.  1.
</event>
<event>
 7    1  0.1339094E-013  0.7246163E+02  0.7816164E-02  0.1226708E+00
        -11   -1    0    0    0    0  0.00000000000E+00  0.00000000000E+00  0.45593999997E+02  0.45594000000E+02  0.51100000000E-03 0. -1.
         11   -1    0    0    0    0 -0.00000000000E+00 -0.00000000000E+00 -0.45593999997E+02  0.45594000000E+02  0.51100000000E-03 0.  1.
    9900012    2    1    2    0    0 -0.12196869738E+02 -0.10277141924E+02 -0.98129345351E+01  0.72461629243E+02  0.70000076791E+02 0.  0.
         12    1    1    2    0    0  0.12196869738E+02  0.10277141924E+02  0.98129345351E+01  0.18726370757E+02  0.00000000000E+00 0. -1.
         11    1    3    3    0    0 -0.22961513326E+02 -0.23121734888E+02 -0.13967009282E+02  0.35453110823E+02  0.51100000000E-03 0. -1.
        -11    1    3    3    0    0  0.77892645762E+01  0.14502678615E+02 -0.12081381695E+02  0.20419601210E+02  0.51100000000E-03 0.  1.
         12    1    3    3    0    0  0.29753790119E+01 -0.16580856515E+01  0.16235456443E+02  0.16588917210E+02  0.00000000000E+00 0. -1.
</event>
<event>
 7    1  0.1339094E-013  0.7246158E+02  0.7816164E-02  0.1226708E+00
        -11   -1    0    0    0    0  0.00000000000E+00  0.00000000000E+00  0.45593999997E+02  0.45594000000E+02  0.51100000000E-03 0.  1.
         11   -1    0    0    0    0 -0.00000000000E+00 -0.00000000000E+00 -0.45593999997E+02  0.45594000000E+02  0.51100000000E-03 0. -1.
    9900012    2    1    2    0    0  0.14203517049E+02 -0.61189896029E+00  0.12188709034E+02  0.72461576294E+02  0.70000007816E+02 0.  0.
         12    1    1    2    0    0 -0.14203517049E+02  0.61189896029E+00 -0.12188709034E+02  0.18726423706E+02  0.00000000000E+00 0. -1.
         11    1    3    3    0    0  0.14323872890E+02 -0.20348764459E+02  0.42222879650E+01  0.25240310329E+02  0.51100000000E-03 0.  1.
        -11    1    3    3    0    0 -0.85400579069E+01  0.27628485192E+02 -0.55528624237E+01  0.29446562862E+02  0.51100000000E-03 0. -1.
         12    1    3    3    0    0  0.84197020656E+01 -0.78916196932E+01  0.13519283492E+02  0.17774703103E+02  0.00000000000E+00 0. -1.
</event>
<event>
 7    1  0.1339094E-013  0.7246164E+02  0.7816164E-02  0.1226708E+00
        -11   -1    0    0    0    0  0.00000000000E+00  0.00000000000E+00  0.45593999997E+02  0.45594000000E+02  0.51100000000E-03 0. -1.
         11   -1    0    0    0    0 -0.00000000000E+00 -0.00000000000E+00 -0.45593999997E+02  0.45594000000E+02  0.51100000000E-03 0.  1.
    9900012    2    1    2    0    0 -0.43411472810E+01  0.92690673590E+01 -0.15681687542E+02  0.72461641743E+02  0.70000093075E+02 0.  0.
         12    1    1    2    0    0  0.43411472810E+01 -0.92690673590E+01  0.15681687542E+02  0.18726358257E+02  0.00000000000E+00 0. -1.
         11    1    3    3    0    0  0.62986705203E+01 -0.10095393326E+02  0.17721906342E+02  0.21346104595E+02  0.51100000000E-03 0. -1.
        -11    1    3    3    0    0 -0.15328100728E+02  0.26064562758E+02 -0.23653257391E+02  0.38389955577E+02  0.51100000000E-03 0.  1.
         12    1    3    3    0    0  0.46882829272E+01 -0.67001020737E+01 -0.97503364925E+01  0.12725581571E+02  0.00000000000E+00 0. -1.
</event>
<event>
 7    1  0.1339094E-013  0.7246159E+02  0.7816164E-02  0.1226708E+00
        -11   -1    0    0    0    0  0.00000000000E+00  0.00000000000E+00  0.45593999997E+02  0.45594000000E+02  0.51100000000E-03 0.  1.
         11   -1    0    0    0    0 -0.00000000000E+00 -0.00000000000E+00 -0.45593999997E+02  0.45594000000E+02  0.51100000000E-03 0. -1.
    9900012    2    1    2    0    0  0.92100198774E+01 -0.58076518147E+01  0.15235650149E+02  0.72461592945E+02  0.70000029507E+02 0.  0.
         12    1    1    2    0    0 -0.92100198774E+01  0.58076518147E+01 -0.15235650149E+02  0.18726407055E+02  0.00000000000E+00 0. -1.
         11    1    3    3    0    0  0.39464943411E+01 -0.27809241094E+02 -0.92908023200E+01  0.29584585781E+02  0.51100000000E-03 0.  1.
        -11    1    3    3    0    0  0.79109005077E+01  0.20744415600E+02  0.45200623028E+01  0.22657097981E+02  0.51100000000E-03 0. -1.
        -12    1    3    3    0    0 -0.26473749715E+01  0.12571736792E+01  0.20006390166E+02  0.20219909183E+02  0.00000000000E+00 0.  1.
</event>
<event>
 7    1  0.1339094E-013  0.7246162E+02  0.7816164E-02  0.1226708E+00
        -11   -1    0    0    0    0  0.00000000000E+00  0.00000000000E+00  0.45593999997E+02  0.45594000000E+02  0.51100000000E-03 0. -1.
         11   -1    0    0    0    0 -0.00000000000E+00 -0.00000000000E+00 -0.45593999997E+02  0.45594000000E+02  0.51100000000E-03 0.  1.
    9900012    2    1    2    0    0  0.51662345219E+00  0.71732581417E+01 -0.17290309203E+02  0.72461619557E+02  0.70000064174E+02 0.  0.
         12    1    1    2    0    0 -0.51662345219E+00 -0.71732581417E+01  0.17290309203E+02  0.18726380443E+02  0.00000000000E+00 0. -1.
         11    1    3    3    0    0 -0.91336684281E+00  0.79921031726E+01  0.20366564231E+02  0.21897600118E+02  0.51100000000E-03 0. -1.
        -11    1    3    3    0    0 -0.66909912325E+01 -0.95552881148E+01 -0.36800872492E+02  0.38605402615E+02  0.51100000000E-03 0.  1.
         12    1    3    3    0    0  0.81209815275E+01  0.87364430839E+01 -0.85600094081E+00  0.11958616824E+02  0.00000000000E+00 0. -1.
</event>
<event>
 7    1  0.1339094E-013  0.7246156E+02  0.7816164E-02  0.1226708E+00
        -11   -1    0    0    0    0  0.00000000000E+00  0.00000000000E+00  0.45593999997E+02  0.45594000000E+02  0.51100000000E-03 0.  1.
         11   -1    0    0    0    0 -0.00000000000E+00 -0.00000000000E+00 -0.45593999997E+02  0.45594000000E+02  0.51100000000E-03 0. -1.
    9900012    2    1    2    0    0  0.11509945744E+02 -0.14574613341E+02  0.24044240654E+01  0.72461562534E+02  0.69999989891E+02 0.  0.
         12    1    1    2    0    0 -0.11509945744E+02  0.14574613341E+02 -0.24044240654E+01  0.18726437466E+02  0.00000000000E+00 0. -1.
         11    1    3    3    0    0  0.22159089044E+02 -0.27692284244E+02 -0.79339718731E+01  0.36343303976E+02  0.51100000000E-03 0.  1.
        -11    1    3    3    0    0 -0.93922701570E+01  0.17243657338E+02 -0.49360169825E+01  0.20246548372E+02  0.51100000000E-03 0. -1.
        -12    1    3    3    0    0 -0.12568731429E+01 -0.41259864341E+01  0.15274412921E+02  0.15871710186E+02  0.00000000000E+00 0.  1.
</event>
<event>
 7    1  0.1339094E-013  0.7246158E+02  0.7816164E-02  0.1226708E+00
        -11   -1    0    0    0    0  0.00000000000E+00  0.00000000000E+00  0.45593999997E+02  0.45594000000E+02  0.51100000000E-03 0.  1.
         11   -1    0    0    0    0 -0.00000000000E+00 -0.00000000000E+00 -0.45593999997E+02  0.45594000000E+02  0.51100000000E-03 0. -1.
    9900012    2    1    2    0    0 -0.17004292820E+02  0.50993460899E+01  0.59606577554E+01  0.72461581610E+02  0.70000014740E+02 0.  0.
         12    1    1    2    0    0  0.17004292820E+02 -0.50993460899E+01 -0.59606577554E+01  0.18726418390E+02  0.00000000000E+00 0. -1.
         11    1    3    3    0    0 -0.28192402461E+02 -0.53905680105E+01 -0.11617646600E+02  0.30965133502E+02  0.51100000000E-03 0. -1.
        -11    1    3    3    0    0  0.17303725114E+01  0.12676243456E+02  0.25785379954E+02  0.28784842484E+02  0.51100000000E-03 0.  1.
        -12    1    3    3    0    0  0.94577371296E+01 -0.21863293557E+01 -0.82070755986E+01  0.12711605624E+02  0.00000000000E+00 0.  1.
</event>
<event>
 7    1  0.1339094E-013  0.7246160E+02  0.7816164E-02  0.1226708E+00
        -11   -1    0    0    0    0  0.00000000000E+00  0.00000000000E+00  0.45593999997E+02  0.45594000000E+02  0.51100000000E-03 0.  1.
         11   -1    0    0    0    0 -0.00000000000E+00 -0.00000000000E+00 -0.45593999997E+02  0.45594000000E+02  0.51100000000E-03 0. -1.
    9900012    2    1    2    0    0  0.12153555977E+02  0.14072422893E+02  0.22217364196E+01  0.72461598272E+02  0.70000036446E+02 0.  0.
         12    1    1    2    0    0 -0.12153555977E+02 -0.14072422893E+02 -0.22217364196E+01  0.18726401728E+02  0.00000000000E+00 0. -1.
         11    1    3    3    0    0  0.38592503605E+02  0.41471281158E+00  0.49900086637E+01  0.38915980110E+02  0.51100000000E-03 0. -1.
        -11    1    3    3    0    0 -0.11370000238E+02  0.14376769040E+02 -0.20293581188E+01  0.18441439426E+02  0.51100000000E-03 0.  1.
         12    1    3    3    0    0 -0.15068947389E+02 -0.71905895905E+00 -0.73891412525E+00  0.15104178736E+02  0.00000000000E+00 0. -1.
</event>
<event>
 7    1  0.1339094E-013  0.7246155E+02  0.7816164E-02  0.1226708E+00
        -11   -1    0    0    0    0  0.00000000000E+00  0.00000000000E+00  0.45593999997E+02  0.45594000000E+02  0.51100000000E-03 0. -1.
         11   -1    0    0    0    0 -0.00000000000E+00 -0.00000000000E+00 -0.45593999997E+02  0.45594000000E+02  0.51100000000E-03 0.  1.
    9900012    2    1    2    0    0 -0.17981990087E+02  0.51924133729E+01 -0.60553165931E+00  0.72461553655E+02  0.69999978324E+02 0.  0.
         12    1    1    2    0    0  0.17981990087E+02 -0.51924133729E+01  0.60553165931E+00  0.18726446345E+02  0.00000000000E+00 0. -1.
         11    1    3    3    0    0 -0.25769645488E+02 -0.23233647711E+02 -0.10458620117E+02  0.36238925889E+02  0.51100000000E-03 0. -1.
        -11    1    3    3    0    0 -0.37621138207E+01  0.16864163483E+02  0.27634596317E+00  0.17280910790E+02  0.51100000000E-03 0.  1.
         12    1    3    3    0    0  0.11549769222E+02  0.11561897601E+02  0.95767424948E+01  0.18941716977E+02  0.00000000000E+00 0. -1.
</event>
<event>
 7    1  0.1339094E-013  0.7246155E+02  0.7816164E-02  0.1226708E+00
        -11   -1    0    0    0    0  0.00000000000E+00  0.00000000000E+00  0.45593999997E+02  0.45594000000E+02  0.51100000000E-03 0.  1.
         11   -1    0    0    0    0 -0.00000000000E+00 -0.00000000000E+00 -0.45593999997E+02  0.45594000000E+02  0.51100000000E-03 0. -1.
    9900012    2    1    2    0    0 -0.13584478256E+02 -0.76259378469E+01 -0.10391673015E+02  0.72461552243E+02  0.69999976485E+02 0.  0.
         12    1    1    2    0    0  0.13584478256E+02  0.76259378469E+01  0.10391673015E+02  0.18726447757E+02  0.00000000000E+00 0. -1.
         11    1    3    3    0    0 -0.22297898942E+02 -0.17162089911E+01 -0.31987939275E+02  0.39030371890E+02  0.51100000000E-03 0. -1.
        -11    1    3    3    0    0  0.45507282550E+01  0.89226560360E+01  0.99564806451E+01  0.14122833479E+02  0.51100000000E-03 0.  1.
         12    1    3    3    0    0  0.41626924308E+01 -0.14832384892E+02  0.11639785615E+02  0.19308346874E+02  0.00000000000E+00 0. -1.
</event>
<event>
 7    1  0.1339094E-013  0.7246177E+02  0.7816164E-02  0.1226707E+00
        -11   -1    0    0    0    0  0.00000000000E+00  0.00000000000E+00  0.45593999997E+02  0.45594000000E+02  0.51100000000E-03 0. -1.
         11   -1    0    0    0    0 -0.00000000000E+00 -0.00000000000E+00 -0.45593999997E+02  0.45594000000E+02  0.51100000000E-03 0.  1.
    9900012    2    1    2    0    0  0.37635951748E+01 -0.17521939947E+02  0.54303557234E+01  0.72461767292E+02  0.70000256626E+02 0.  0.
         12    1    1    2    0    0 -0.37635951748E+01  0.17521939947E+02 -0.54303557234E+01  0.18726232708E+02  0.00000000000E+00 0. -1.
         11    1    3    3    0    0 -0.10011142928E+02 -0.30139921127E+01  0.57731829584E+01  0.11943063799E+02  0.51100000000E-03 0. -1.
        -11    1    3    3    0    0  0.12095042178E+02 -0.36167191761E+02 -0.44988403726E+01  0.38400460546E+02  0.51100000000E-03 0.  1.
        -12    1    3    3    0    0  0.16796959240E+01  0.21659243927E+02  0.41560131376E+01  0.22118242947E+02  0.00000000000E+00 0.  1.
</event>
<event>
 7    1  0.1339094E-013  0.7246198E+02  0.7816164E-02  0.1226707E+00
        -11   -1    0    0    0    0  0.00000000000E+00  0.00000000000E+00  0.45593999997E+02  0.45594000000E+02  0.51100000000E-03 0.  1.
         11   -1    0    0    0    0 -0.00000000000E+00 -0.00000000000E+00 -0.45593999997E+02  0.45594000000E+02  0.51100000000E-03 0. -1.
    9900012    2    1    2    0    0 -0.16126876387E+02 -0.82898172884E+01  0.46761592884E+01  0.72461983916E+02  0.70000538817E+02 0.  0.
         12    1    1    2    0    0  0.16126876387E+02  0.82898172884E+01 -0.46761592884E+01  0.18726016084E+02  0.00000000000E+00 0. -1.
         11    1    3    3    0    0 -0.65923888052E+01 -0.47597581051E+01  0.30770711398E+02  0.31826900063E+02  0.51100000000E-03 0.  1.
        -11    1    3    3    0    0 -0.11699631895E+02 -0.41152179457E+01 -0.31999329017E+02  0.34318704274E+02  0.51100000000E-03 0. -1.
         12    1    3    3    0    0  0.21651443130E+01  0.58515876241E+00  0.59047769075E+01  0.63163795801E+01  0.00000000000E+00 0. -1.
</event>
<event>
 7    1  0.1339094E-013  0.7246159E+02  0.7816164E-02  0.1226708E+00
        -11   -1    0    0    0    0  0.00000000000E+00  0.00000000000E+00  0.45593999997E+02  0.45594000000E+02  0.51100000000E-03 0.  1.
         11   -1    0    0    0    0 -0.00000000000E+00 -0.00000000000E+00 -0.45593999997E+02  0.45594000000E+02  0.51100000000E-03 0. -1.
    9900012    2    1    2    0    0  0.64278728736E+01  0.13805249481E+02  0.10898440646E+02  0.72461588933E+02  0.70000024281E+02 0.  0.
         12    1    1    2    0    0 -0.64278728736E+01 -0.13805249481E+02 -0.10898440646E+02  0.18726411067E+02  0.00000000000E+00 0. -1.
         11    1    3    3    0    0  0.26443994021E+02  0.10252329192E+02 -0.18465457475E+02  0.33843288754E+02  0.51100000000E-03 0. -1.
        -11    1    3    3    0    0 -0.15086176768E+02 -0.43826945999E+01  0.19323549395E+02  0.24903821051E+02  0.51100000000E-03 0.  1.
         12    1    3    3    0    0 -0.49299443796E+01  0.79356148888E+01  0.10040348725E+02  0.13714479129E+02  0.00000000000E+00 0. -1.
</event>
<event>
 7    1  0.1339094E-013  0.7246157E+02  0.7816164E-02  0.1226708E+00
        -11   -1    0    0    0    0  0.00000000000E+00  0.00000000000E+00  0.45593999997E+02  0.45594000000E+02  0.51100000000E-03 0. -1.
         11   -1    0    0    0    0 -0.00000000000E+00 -0.00000000000E+00 -0.45593999997E+02  0.45594000000E+02  0.51100000000E-03 0.  1.
    9900012    2    1    2    0    0 -0.14020587390E+02  0.79991782842E+01 -0.94929191870E+01  0.72461568448E+02  0.69999997595E+02 0.  0.
         12    1    1    2    0    0  0.14020587390E+02 -0.79991782842E+01  0.94929191870E+01  0.18726431552E+02  0.00000000000E+00 0. -1.
         11    1    3    3    0    0 -0.65574349435E+01 -0.31443754096E+01  0.15200808257E+02  0.16850864123E+02  0.51100000000E-03 0. -1.
        -11    1    3    3    0    0 -0.21022271971E+02  0.13160284974E+02 -0.31672851102E+02  0.40228081195E+02  0.51100000000E-03 0.  1.
        -12    1    3    3    0    0  0.13559119525E+02 -0.20167312799E+01  0.69791236582E+01  0.15382623131E+02  0.00000000000E+00 0.  1.
</event>
<event>
 7    1  0.1339094E-013  0.7246141E+02  0.7816164E-02  0.1226708E+00
        -11   -1    0    0    0    0  0.00000000000E+00  0.00000000000E+00  0.45593999997E+02  0.45594000000E+02  0.51100000000E-03 0.  1.
         11   -1    0    0    0    0 -0.00000000000E+00 -0.00000000000E+00 -0.45593999997E+02  0.45594000000E+02  0.51100000000E-03 0. -1.
    9900012    2    1    2    0    0  0.76545755205E+01 -0.16453116604E+02  0.46246605312E+01  0.72461413087E+02  0.69999795208E+02 0.  0.
         12    1    1    2    0    0 -0.76545755205E+01  0.16453116604E+02 -0.46246605312E+01  0.18726586913E+02  0.00000000000E+00 0. -1.
         11    1    3    3    0    0 -0.24560408740E+02 -0.12102345908E+02  0.35506336155E+01  0.27609553660E+02  0.51100000000E-03 0. -1.
        -11    1    3    3    0    0  0.10248349892E+02  0.43108267494E+01  0.14043565312E+02  0.17911829324E+02  0.51100000000E-03 0.  1.
         12    1    3    3    0    0  0.21966634369E+02 -0.86615974454E+01 -0.12969538397E+02  0.26940030104E+02  0.00000000000E+00 0. -1.
</event>
<event>
 7    1  0.1339094E-013  0.7246161E+02  0.7816164E-02  0.1226708E+00
        -11   -1    0    0    0    0  0.00000000000E+00  0.00000000000E+00  0.45593999997E+02  0.45594000000E+02  0.51100000000E-03 0.  1.
         11   -1    0    0    0    0 -0.00000000000E+00 -0.00000000000E+00 -0.45593999997E+02  0.45594000000E+02  0.51100000000E-03 0. -1.
    9900012    2    1    2    0    0  0.15741254763E+02  0.78627871235E+01  0.64083559309E+01  0.72461613573E+02  0.70000056379E+02 0.  0.
         12    1    1    2    0    0 -0.15741254763E+02 -0.78627871235E+01 -0.64083559309E+01  0.18726386427E+02  0.00000000000E+00 0. -1.
         11    1    3    3    0    0 -0.18944194335E+02 -0.11311252052E+02  0.12073251896E+01  0.22097161727E+02  0.51100000000E-03 0. -1.
        -11    1    3    3    0    0  0.37962760587E+02  0.85320849542E+01  0.49795922139E+01  0.39227082532E+02  0.51100000000E-03 0.  1.
         12    1    3    3    0    0 -0.32773114887E+01  0.10641954221E+02  0.22143852739E+00  0.11137369315E+02  0.00000000000E+00 0. -1.
</event>
<event>
 7    1  0.1339094E-013  0.7246159E+02  0.7816164E-02  0.1226708E+00
        -11   -1    0    0    0    0  0.00000000000E+00  0.00000000000E+00  0.45593999997E+02  0.45594000000E+02  0.51100000000E-03 0.  1.
         11   -1    0    0    0    0 -0.00000000000E+00 -0.00000000000E+00 -0.45593999997E+02  0.45594000000E+02  0.51100000000E-03 0. -1.
    9900012    2    1    2    0    0 -0.10444850912E+02  0.56925969942E+00  0.15532529761E+02  0.72461589560E+02  0.70000025097E+02 0.  0.
         12    1    1    2    0    0  0.10444850912E+02 -0.56925969942E+00 -0.15532529761E+02  0.18726410440E+02  0.00000000000E+00 0. -1.
         11    1    3    3    0    0  0.88721076949E+01  0.18468901988E+01  0.97968944637E+00  0.91151023049E+01  0.51100000000E-03 0. -1.
        -11    1    3    3    0    0 -0.29919175900E+02  0.12482386793E+02  0.26825054434E+02  0.42077911215E+02  0.51100000000E-03 0.  1.
        -12    1    3    3    0    0  0.10602217293E+02 -0.13760017292E+02 -0.12272214119E+02  0.21268576040E+02  0.00000000000E+00 0.  1.
</event>
<event>
 7    1  0.1339094E-013  0.7246156E+02  0.7816164E-02  0.1226708E+00
        -11   -1    0    0    0    0  0.00000000000E+00  0.00000000000E+00  0.45593999997E+02  0.45594000000E+02  0.51100000000E-03 0.  1.
         11   -1    0    0    0    0 -0.00000000000E+00 -0.00000000000E+00 -0.45593999997E+02  0.45594000000E+02  0.51100000000E-03 0. -1.
    9900012    2    1    2    0    0  0.12200652920E+02 -0.27056251746E+01  0.13946435219E+02  0.72461564285E+02  0.69999992172E+02 0.  0.
         12    1    1    2    0    0 -0.12200652920E+02  0.27056251746E+01 -0.13946435219E+02  0.18726435715E+02  0.00000000000E+00 0. -1.
         11    1    3    3    0    0 -0.50516972450E+00 -0.13081736790E+02 -0.19338497255E+02  0.23353040707E+02  0.51100000000E-03 0. -1.
        -11    1    3    3    0    0  0.38103737949E+01  0.18032766817E+02  0.59617299831E+01  0.19371160321E+02  0.51100000000E-03 0.  1.
         12    1    3    3    0    0  0.88954488497E+01 -0.76566552015E+01  0.27323202491E+02  0.29737363257E+02  0.00000000000E+00 0. -1.
</event>
<event>
 7    1  0.1339094E-013  0.7246156E+02  0.7816164E-02  0.1226708E+00
        -11   -1    0    0    0    0  0.00000000000E+00  0.00000000000E+00  0.45593999997E+02  0.45594000000E+02  0.51100000000E-03 0.  1.
         11   -1    0    0    0    0 -0.00000000000E+00 -0.00000000000E+00 -0.45593999997E+02  0.45594000000E+02  0.51100000000E-03 0. -1.
    9900012    2    1    2    0    0 -0.14195510313E+02 -0.11627763502E+02 -0.37365973755E+01  0.72461559948E+02  0.69999986522E+02 0.  0.
         12    1    1    2    0    0  0.14195510313E+02  0.11627763502E+02  0.37365973755E+01  0.18726440052E+02  0.00000000000E+00 0. -1.
         11    1    3    3    0    0 -0.33054653843E+02 -0.29275424413E+02 -0.57601821524E+01  0.44529095139E+02  0.51100000000E-03 0. -1.
        -11    1    3    3    0    0  0.95918568564E+01  0.97505373033E+01 -0.41334847226E+01  0.14288540579E+02  0.51100000000E-03 0.  1.
         12    1    3    3    0    0  0.92672866739E+01  0.78971236076E+01  0.61570694995E+01  0.13643924230E+02  0.00000000000E+00 0. -1.
</event>
<event>
 7    1  0.1339094E-013  0.7246155E+02  0.7816164E-02  0.1226708E+00
        -11   -1    0    0    0    0  0.00000000000E+00  0.00000000000E+00  0.45593999997E+02  0.45594000000E+02  0.51100000000E-03 0.  1.
         11   -1    0    0    0    0 -0.00000000000E+00 -0.00000000000E+00 -0.45593999997E+02  0.45594000000E+02  0.51100000000E-03 0. -1.
    9900012    2    1    2    0    0  0.89839001319E+01  0.93613078341E+01 -0.13503160210E+02  0.72461551282E+02  0.69999975233E+02 0.  0.
         12    1    1    2    0    0 -0.89839001319E+01 -0.93613078341E+01  0.13503160210E+02  0.18726448718E+02  0.00000000000E+00 0. -1.
         11    1    3    3    0    0 -0.15477129011E+02  0.21125189797E+02 -0.47222578354E+01  0.26610428138E+02  0.51100000000E-03 0. -1.
        -11    1    3    3    0    0  0.28196439018E+02  0.41886807476E+01 -0.40097327725E+01  0.28786492959E+02  0.51100000000E-03 0.  1.
        -12    1    3    3    0    0 -0.37354098754E+01 -0.15952562710E+02 -0.47711696019E+01  0.17064630184E+02  0.00000000000E+00 0.  1.
</event>
<event>
 7    1  0.1339094E-013  0.7246121E+02  0.7816164E-02  0.1226709E+00
        -11   -1    0    0    0    0  0.00000000000E+00  0.00000000000E+00  0.45593999997E+02  0.45594000000E+02  0.51100000000E-03 0.  1.
         11   -1    0    0    0    0 -0.00000000000E+00 -0.00000000000E+00 -0.45593999997E+02  0.45594000000E+02  0.51100000000E-03 0. -1.
    9900012    2    1    2    0    0  0.15248686479E+02  0.94242802457E+01  0.54178594955E+01  0.72461209058E+02  0.69999529421E+02 0.  0.
         12    1    1    2    0    0 -0.15248686479E+02 -0.94242802457E+01 -0.54178594955E+01  0.18726790942E+02  0.00000000000E+00 0. -1.
         11    1    3    3    0    0 -0.11523492024E+02  0.26707195898E+02 -0.33005191489E+01  0.29273855367E+02  0.51100000000E-03 0. -1.
        -11    1    3    3    0    0  0.17058908786E+02 -0.86837533076E+01 -0.90610708280E+01  0.21178218652E+02  0.51100000000E-03 0.  1.
        -12    1    3    3    0    0  0.97132697164E+01 -0.85991623444E+01  0.17779449472E+02  0.22009135039E+02  0.00000000000E+00 0.  1.
</event>
<event>
 7    1  0.1339094E-013  0.7246158E+02  0.7816164E-02  0.1226708E+00
        -11   -1    0    0    0    0  0.00000000000E+00  0.00000000000E+00  0.45593999997E+02  0.45594000000E+02  0.51100000000E-03 0. -1.
         11   -1    0    0    0    0 -0.00000000000E+00 -0.00000000000E+00 -0.45593999997E+02  0.45594000000E+02  0.51100000000E-03 0.  1.
    9900012    2    1    2    0    0  0.22482441028E+01  0.15519819097E+02  0.10235200588E+02  0.72461582366E+02  0.70000015725E+02 0.  0.
         12    1    1    2    0    0 -0.22482441028E+01 -0.15519819097E+02 -0.10235200588E+02  0.18726417634E+02  0.00000000000E+00 0. -1.
         11    1    3    3    0    0 -0.24912365337E+02  0.18371600889E+02  0.14852197279E+02  0.34332629235E+02  0.51100000000E-03 0. -1.
        -11    1    3    3    0    0  0.25262990682E+02  0.76258508928E+01  0.32279373635E+00  0.26390841140E+02  0.51100000000E-03 0.  1.
        -12    1    3    3    0    0  0.18976187577E+01 -0.10477632685E+02 -0.49397904278E+01  0.11738111990E+02  0.00000000000E+00 0.  1.
</event>
<event>
 7    1  0.1339094E-013  0.7246153E+02  0.7816164E-02  0.1226708E+00
        -11   -1    0    0    0    0  0.00000000000E+00  0.00000000000E+00  0.45593999997E+02  0.45594000000E+02  0.51100000000E-03 0.  1.
         11   -1    0    0    0    0 -0.00000000000E+00 -0.00000000000E+00 -0.45593999997E+02  0.45594000000E+02  0.51100000000E-03 0. -1.
    9900012    2    1    2    0    0  0.14370388771E+02  0.11324542923E+02  0.39909007381E+01  0.72461531178E+02  0.69999949043E+02 0.  0.
         12    1    1    2    0    0 -0.14370388771E+02 -0.11324542923E+02 -0.39909007381E+01  0.18726468822E+02  0.00000000000E+00 0. -1.
         11    1    3    3    0    0 -0.51282203715E+01  0.36485873925E+00 -0.39219725784E+01  0.64663463598E+01  0.51100000000E-03 0. -1.
        -11    1    3    3    0    0  0.25653201350E+02  0.31715066621E+02  0.14618675450E+02  0.43331718896E+02  0.51100000000E-03 0.  1.
        -12    1    3    3    0    0 -0.61545922075E+01 -0.20755382437E+02 -0.67058021334E+01  0.22663465922E+02  0.00000000000E+00 0.  1.
</event>
<event>
 7    1  0.1339094E-013  0.7246154E+02  0.7816164E-02  0.1226708E+00
        -11   -1    0    0    0    0  0.00000000000E+00  0.00000000000E+00  0.45593999997E+02  0.45594000000E+02  0.51100000000E-03 0. -1.
         11   -1    0    0    0    0 -0.00000000000E+00 -0.00000000000E+00 -0.45593999997E+02  0.45594000000E+02  0.51100000000E-03 0.  1.
    9900012    2    1    2    0    0 -0.93747634122E+01 -0.14840524539E+01 -0.16142848755E+02  0.72461543671E+02  0.69999965318E+02 0.  0.
         12    1    1    2    0    0  0.93747634122E+01  0.14840524539E+01  0.16142848755E+02  0.18726456329E+02  0.00000000000E+00 0. -1.
         11    1    3    3    0    0 -0.18841231784E+02 -0.17581992254E+01  0.32954795730E+01  0.19207901122E+02  0.51100000000E-03 0. -1.
        -11    1    3    3    0    0  0.20186416202E+02  0.17525502354E+02 -0.19249459897E+02  0.32942014790E+02  0.51100000000E-03 0.  1.
         12    1    3    3    0    0 -0.10719947830E+02 -0.17251355583E+02 -0.18886843035E+00  0.20311627758E+02  0.00000000000E+00 0. -1.
</event>
<event>
 7    1  0.1339094E-013  0.7246156E+02  0.7816164E-02  0.1226708E+00
        -11   -1    0    0    0    0  0.00000000000E+00  0.00000000000E+00  0.45593999997E+02  0.45594000000E+02  0.51100000000E-03 0.  1.
         11   -1    0    0    0    0 -0.00000000000E+00 -0.00000000000E+00 -0.45593999997E+02  0.45594000000E+02  0.51100000000E-03 0. -1.
    9900012    2    1    2    0    0  0.16306592945E+02  0.78615745453E+01  0.47927426364E+01  0.72461555869E+02  0.69999981209E+02 0.  0.
         12    1    1    2    0    0 -0.16306592945E+02 -0.78615745453E+01 -0.47927426364E+01  0.18726444131E+02  0.00000000000E+00 0. -1.
         11    1    3    3    0    0  0.90977042848E-01 -0.12939158154E+02  0.85705984300E+01  0.15520478352E+02  0.51100000000E-03 0. -1.
        -11    1    3    3    0    0  0.10091661753E+02  0.34548894680E+02  0.91089200036E+01  0.37127350894E+02  0.51100000000E-03 0.  1.
        -12    1    3    3    0    0  0.61239541488E+01 -0.13748161981E+02 -0.12886775797E+02  0.19813726624E+02  0.00000000000E+00 0.  1.
</event>
<event>
 7    1  0.1339094E-013  0.7246154E+02  0.7816164E-02  0.1226708E+00
        -11   -1    0    0    0    0  0.00000000000E+00  0.00000000000E+00  0.45593999997E+02  0.45594000000E+02  0.51100000000E-03 0.  1.
         11   -1    0    0    0    0 -0.00000000000E+00 -0.00000000000E+00 -0.45593999997E+02  0.45594000000E+02  0.51100000000E-03 0. -1.
    9900012    2    1    2    0    0 -0.15094280167E+02 -0.11083033005E+02  0.96621445043E-01  0.72461541444E+02  0.69999962417E+02 0.  0.
         12    1    1    2    0    0  0.15094280167E+02  0.11083033005E+02 -0.96621445043E-01  0.18726458556E+02  0.00000000000E+00 0. -1.
         11    1    3    3    0    0 -0.18209403417E+02 -0.27381080665E+02 -0.12138824081E+02  0.35052203947E+02  0.51100000000E-03 0.  1.
        -11    1    3    3    0    0  0.36759026572E+01  0.17513712631E+02 -0.61897570682E+01  0.18935561341E+02  0.51100000000E-03 0. -1.
        -12    1    3    3    0    0 -0.56077940694E+00 -0.12156649711E+01  0.18425202594E+02  0.18473776157E+02  0.00000000000E+00 0.  1.
</event>
<event>
 7    1  0.1339094E-013  0.7246157E+02  0.7816164E-02  0.1226708E+00
        -11   -1    0    0    0    0  0.00000000000E+00  0.00000000000E+00  0.45593999997E+02  0.45594000000E+02  0.51100000000E-03 0. -1.
         11   -1    0    0    0    0 -0.00000000000E+00 -0.00000000000E+00 -0.45593999997E+02  0.45594000000E+02  0.51100000000E-03 0.  1.
    9900012    2    1    2    0    0  0.34363358081E+01  0.13574602515E+02 -0.12433866792E+02  0.72461567327E+02  0.69999996135E+02 0.  0.
         12    1    1    2    0    0 -0.34363358081E+01 -0.13574602515E+02  0.12433866792E+02  0.18726432673E+02  0.00000000000E+00 0. -1.
         11    1    3    3    0    0  0.62262018744E+00 -0.17784730578E+02  0.82354897153E+01  0.19608865055E+02  0.51100000000E-03 0. -1.
        -11    1    3    3    0    0  0.11042400072E+02  0.30464501467E+02 -0.20410298353E+01  0.32468234508E+02  0.51100000000E-03 0.  1.
        -12    1    3    3    0    0 -0.82286844517E+01  0.89483162578E+00 -0.18628326672E+02  0.20384467765E+02  0.00000000000E+00 0.  1.
</event>
<event>
 7    1  0.1339094E-013  0.7246160E+02  0.7816164E-02  0.1226708E+00
        -11   -1    0    0    0    0  0.00000000000E+00  0.00000000000E+00  0.45593999997E+02  0.45594000000E+02  0.51100000000E-03 0.  1.
         11   -1    0    0    0    0 -0.00000000000E+00 -0.00000000000E+00 -0.45593999997E+02  0.45594000000E+02  0.51100000000E-03 0. -1.
    9900012    2    1    2    0    0 -0.17961352533E+02  0.31656355747E+01  0.42481130365E+01  0.72461604251E+02  0.70000044234E+02 0.  0.
         12    1    1    2    0    0  0.17961352533E+02 -0.31656355747E+01 -0.42481130365E+01  0.18726395749E+02  0.00000000000E+00 0. -1.
         11    1    3    3    0    0  0.52125986339E+01 -0.27845210602E+02  0.23530409520E+00  0.28329883626E+02  0.51100000000E-03 0.  1.
        -11    1    3    3    0    0 -0.42622405347E+01  0.22592064654E+02 -0.27093301091E+00  0.22992204867E+02  0.51100000000E-03 0. -1.
        -12    1    3    3    0    0 -0.18911710632E+02  0.84187815224E+01  0.42837419523E+01  0.21139515757E+02  0.00000000000E+00 0.  1.
</event>
<event>
 7    1  0.1339094E-013  0.7246168E+02  0.7816164E-02  0.1226708E+00
        -11   -1    0    0    0    0  0.00000000000E+00  0.00000000000E+00  0.45593999997E+02  0.45594000000E+02  0.51100000000E-03 0.  1.
         11   -1    0    0    0    0 -0.00000000000E+00 -0.00000000000E+00 -0.45593999997E+02  0.45594000000E+02  0.51100000000E-03 0. -1.
    9900012    2    1    2    0    0  0.16810460570E+01 -0.10776822541E+02  0.15221998640E+02  0.72461679952E+02  0.70000142850E+02 0.  0.
         12    1    1    2    0    0 -0.16810460570E+01  0.10776822541E+02 -0.15221998640E+02  0.18726320048E+02  0.00000000000E+00 0. -1.
         11    1    3    3    0    0 -0.18242073048E+02 -0.56756590183E+01  0.24038931736E+02  0.30705969674E+02  0.51100000000E-03 0. -1.
        -11    1    3    3    0    0  0.14886118907E+02 -0.39959682430E+01  0.12486976693E+02  0.19836554275E+02  0.51100000000E-03 0.  1.
         12    1    3    3    0    0  0.50370001980E+01 -0.11051952795E+01 -0.21303909788E+02  0.21919156003E+02  0.00000000000E+00 0. -1.
</event>
<event>
 7    1  0.1339094E-013  0.7246162E+02  0.7816164E-02  0.1226708E+00
        -11   -1    0    0    0    0  0.00000000000E+00  0.00000000000E+00  0.45593999997E+02  0.45594000000E+02  0.51100000000E-03 0. -1.
         11   -1    0    0    0    0 -0.00000000000E+00 -0.00000000000E+00 -0.45593999997E+02  0.45594000000E+02  0.51100000000E-03 0.  1.
    9900012    2    1    2    0    0  0.12798859641E+02  0.12582387461E+02 -0.53432150160E+01  0.72461622105E+02  0.70000067493E+02 0.  0.
         12    1    1    2    0    0 -0.12798859641E+02 -0.12582387461E+02  0.53432150160E+01  0.18726377895E+02  0.00000000000E+00 0. -1.
         11    1    3    3    0    0 -0.17227402976E+02 -0.62112338964E+00  0.70826919498E+01  0.18636891723E+02  0.51100000000E-03 0. -1.
        -11    1    3    3    0    0  0.19800519684E+02 -0.47673821515E+01 -0.22900217167E+02  0.30646508103E+02  0.51100000000E-03 0.  1.
        -12    1    3    3    0    0  0.10225742934E+02  0.17970893002E+02  0.10474310201E+02  0.23178222280E+02  0.00000000000E+00 0.  1.
</event>
<event>
 7    1  0.1339094E-013  0.7246154E+02  0.7816164E-02  0.1226708E+00
        -11   -1    0    0    0    0  0.00000000000E+00  0.00000000000E+00  0.45593999997E+02  0.45594000000E+02  0.51100000000E-03 0. -1.
         11   -1    0    0    0    0 -0.00000000000E+00 -0.00000000000E+00 -0.45593999997E+02  0.45594000000E+02  0.51100000000E-03 0.  1.
    9900012    2    1    2    0    0 -0.95751555689E+00 -0.18051747239E+02 -0.48885407586E+01  0.72461541574E+02  0.69999962586E+02 0.  0.
         12    1    1    2    0    0  0.95751555689E+00  0.18051747239E+02  0.48885407586E+01  0.18726458426E+02  0.00000000000E+00 0. -1.
         11    1    3    3    0    0 -0.56443128431E+01  0.42560080775E+01 -0.43251762898E+00  0.70822979313E+01  0.51100000000E-03 0. -1.
        -11    1    3    3    0    0  0.31012591327E+02 -0.20710927131E+02  0.44156825497E+01  0.37552917011E+02  0.51100000000E-03 0.  1.
        -12    1    3    3    0    0 -0.26325794041E+02 -0.15968281862E+01 -0.88717056793E+01  0.27826326631E+02  0.00000000000E+00 0.  1.
</event>
<event>
 7    1  0.1339094E-013  0.7246194E+02  0.7816164E-02  0.1226707E+00
        -11   -1    0    0    0    0  0.00000000000E+00  0.00000000000E+00  0.45593999997E+02  0.45594000000E+02  0.51100000000E-03 0.  1.
         11   -1    0    0    0    0 -0.00000000000E+00 -0.00000000000E+00 -0.45593999997E+02  0.45594000000E+02  0.51100000000E-03 0. -1.
    9900012    2    1    2    0    0  0.64065992493E+01 -0.62414425125E+01  0.16451907675E+02  0.72461938355E+02  0.70000479466E+02 0.  0.
         12    1    1    2    0    0 -0.64065992493E+01  0.62414425125E+01 -0.16451907675E+02  0.18726061645E+02  0.00000000000E+00 0. -1.
         11    1    3    3    0    0  0.76496512127E+01  0.11156587812E+02 -0.20969975978E+02  0.24954488736E+02  0.51100000000E-03 0. -1.
        -11    1    3    3    0    0 -0.87657325306E+01 -0.11182471580E+02  0.75664602741E+01  0.16097734585E+02  0.51100000000E-03 0.  1.
         12    1    3    3    0    0  0.75226805672E+01 -0.62155587450E+01  0.29855423379E+02  0.31409715034E+02  0.00000000000E+00 0. -1.
</event>
<event>
 7    1  0.1339094E-013  0.7246157E+02  0.7816164E-02  0.1226708E+00
        -11   -1    0    0    0    0  0.00000000000E+00  0.00000000000E+00  0.45593999997E+02  0.45594000000E+02  0.51100000000E-03 0.  1.
         11   -1    0    0    0    0 -0.00000000000E+00 -0.00000000000E+00 -0.45593999997E+02  0.45594000000E+02  0.51100000000E-03 0. -1.
    9900012    2    1    2    0    0  0.75599129807E+01  0.88894799221E+01  0.14645957626E+02  0.72461569151E+02  0.69999998511E+02 0.  0.
         12    1    1    2    0    0 -0.75599129807E+01 -0.88894799221E+01 -0.14645957626E+02  0.18726430849E+02  0.00000000000E+00 0. -1.
         11    1    3    3    0    0 -0.92348128264E+01  0.32003711725E+02  0.18445233132E+01  0.33360479592E+02  0.51100000000E-03 0. -1.
        -11    1    3    3    0    0  0.11373237017E+02  0.15731786962E+01  0.21913131366E+01  0.11688766615E+02  0.51100000000E-03 0.  1.
         12    1    3    3    0    0  0.54214887900E+01 -0.24687410499E+02  0.10610121176E+02  0.27412322944E+02  0.00000000000E+00 0. -1.
</event>
<event>
 7    1  0.1339094E-013  0.7246154E+02  0.7816164E-02  0.1226708E+00
        -11   -1    0    0    0    0  0.00000000000E+00  0.00000000000E+00  0.45593999997E+02  0.45594000000E+02  0.51100000000E-03 0.  1.
         11   -1    0    0    0    0 -0.00000000000E+00 -0.00000000000E+00 -0.45593999997E+02  0.45594000000E+02  0.51100000000E-03 0. -1.
    9900012    2    1    2    0    0  0.34896398833E+01  0.52102119310E+01  0.17645296960E+02  0.72461537449E+02  0.69999957212E+02 0.  0.
         12    1    1    2    0    0 -0.34896398833E+01 -0.52102119310E+01 -0.17645296960E+02  0.18726462551E+02  0.00000000000E+00 0. -1.
         11    1    3    3    0    0 -0.13111905302E+02  0.30250409429E+02  0.14963264347E+02  0.36206471955E+02  0.51100000000E-03 0. -1.
        -11    1    3    3    0    0  0.32188334463E+01 -0.19171820601E+02  0.75469679511E+01  0.20853688389E+02  0.51100000000E-03 0.  1.
         12    1    3    3    0    0  0.13382711739E+02 -0.58683768962E+01 -0.48649353377E+01  0.15401377105E+02  0.00000000000E+00 0. -1.
</event>
<event>
 7    1  0.1339094E-013  0.7246158E+02  0.7816164E-02  0.1226708E+00
        -11   -1    0    0    0    0  0.00000000000E+00  0.00000000000E+00  0.45593999997E+02  0.45594000000E+02  0.51100000000E-03 0. -1.
         11   -1    0    0    0    0 -0.00000000000E+00 -0.00000000000E+00 -0.45593999997E+02  0.45594000000E+02  0.51100000000E-03 0.  1.
    9900012    2    1    2    0    0  0.15476507765E+01 -0.87906268291E+01 -0.16462337396E+02  0.72461577611E+02  0.70000009531E+02 0.  0.
         12    1    1    2    0    0 -0.15476507765E+01  0.87906268291E+01  0.16462337396E+02  0.18726422389E+02  0.00000000000E+00 0. -1.
         11    1    3    3    0    0 -0.16398622405E+02 -0.17813912127E+02 -0.17870193751E+02  0.30093090686E+02  0.51100000000E-03 0. -1.
        -11    1    3    3    0    0  0.66659252278E+01  0.22804735577E+02 -0.31976763240E+01  0.23973227943E+02  0.51100000000E-03 0.  1.
         12    1    3    3    0    0  0.11280347954E+02 -0.13781450278E+02  0.46055326797E+01  0.18395258982E+02  0.00000000000E+00 0. -1.
</event>
<event>
 7    1  0.1339094E-013  0.7246209E+02  0.7816164E-02  0.1226707E+00
        -11   -1    0    0    0    0  0.00000000000E+00  0.00000000000E+00  0.45593999997E+02  0.45594000000E+02  0.51100000000E-03 0. -1.
         11   -1    0    0    0    0 -0.00000000000E+00 -0.00000000000E+00 -0.45593999997E+02  0.45594000000E+02  0.51100000000E-03 0.  1.
    9900012    2    1    2    0    0  0.94726579243E+01  0.15924234931E+02 -0.27105527844E+01  0.72462092741E+02  0.70000680580E+02 0.  0.
         12    1    1    2    0    0 -0.94726579243E+01 -0.15924234931E+02  0.27105527844E+01  0.18725907259E+02  0.00000000000E+00 0. -1.
         11    1    3    3    0    0 -0.41402103253E+01  0.33254151738E+02  0.18721693318E+02  0.38385957723E+02  0.51100000000E-03 0. -1.
        -11    1    3    3    0    0  0.24309105871E+01 -0.59314558763E+01 -0.15956258709E+02  0.17195746199E+02  0.51100000000E-03 0.  1.
         12    1    3    3    0    0  0.11181957662E+02 -0.11398460931E+02 -0.54759873934E+01  0.16880388819E+02  0.00000000000E+00 0. -1.
</event>
<event>
 7    1  0.1339094E-013  0.7246154E+02  0.7816164E-02  0.1226708E+00
        -11   -1    0    0    0    0  0.00000000000E+00  0.00000000000E+00  0.45593999997E+02  0.45594000000E+02  0.51100000000E-03 0.  1.
         11   -1    0    0    0    0 -0.00000000000E+00 -0.00000000000E+00 -0.45593999997E+02  0.45594000000E+02  0.51100000000E-03 0. -1.
    9900012    2    1    2    0    0  0.13552028277E+02  0.14355162003E+01  0.12843754430E+02  0.72461542646E+02  0.69999963983E+02 0.  0.
         12    1    1    2    0    0 -0.13552028277E+02 -0.14355162003E+01 -0.12843754430E+02  0.18726457354E+02  0.00000000000E+00 0. -1.
         11    1    3    3    0    0  0.33437456806E+01 -0.29995369243E+02  0.74585050570E+01  0.31089099523E+02  0.51100000000E-03 0. -1.
        -11    1    3    3    0    0 -0.56767334580E+01  0.17777016534E+02 -0.28254075434E+01  0.18874070776E+02  0.51100000000E-03 0.  1.
         12    1    3    3    0    0  0.15885016054E+02  0.13653868910E+02  0.82106569163E+01  0.22498372346E+02  0.00000000000E+00 0. -1.
</event>
<event>
 7    1  0.1339094E-013  0.7246155E+02  0.7816164E-02  0.1226708E+00
        -11   -1    0    0    0    0  0.00000000000E+00  0.00000000000E+00  0.45593999997E+02  0.45594000000E+02  0.51100000000E-03 0. -1.
         11   -1    0    0    0    0 -0.00000000000E+00 -0.00000000000E+00 -0.45593999997E+02  0.45594000000E+02  0.51100000000E-03 0.  1.
    9900012    2    1    2    0    0 -0.71724017728E+01 -0.16874733804E+02  0.38052746664E+01  0.72461545359E+02  0.69999967517E+02 0.  0.
         12    1    1    2    0    0  0.71724017728E+01  0.16874733804E+02 -0.38052746664E+01  0.18726454641E+02  0.00000000000E+00 0. -1.
         11    1    3    3    0    0 -0.12353699477E+02 -0.37315105320E+01 -0.25972630922E+02  0.29001993361E+02  0.51100000000E-03 0.  1.
        -11    1    3    3    0    0  0.40157090434E+01 -0.15075994510E+02  0.34699231421E+02  0.38045343881E+02  0.51100000000E-03 0. -1.
         12    1    3    3    0    0  0.11655886603E+01  0.19327712377E+01 -0.49213258326E+01  0.54142081169E+01  0.00000000000E+00 0. -1.
</event>
<event>
 7    1  0.1339094E-013  0.7246154E+02  0.7816164E-02  0.1226708E+00
        -11   -1    0    0    0    0  0.00000000000E+00  0.00000000000E+00  0.45593999997E+02  0.45594000000E+02  0.51100000000E-03 0.  1.
         11   -1    0    0    0    0 -0.00000000000E+00 -0.00000000000E+00 -0.45593999997E+02  0.45594000000E+02  0.51100000000E-03 0. -1.
    9900012    2    1    2    0    0  0.91500147464E+01  0.77981405676E+01  0.14357809606E+02  0.72461535762E+02  0.69999955016E+02 0.  0.
         12    1    1    2    0    0 -0.91500147464E+01 -0.77981405676E+01 -0.14357809606E+02  0.18726464238E+02  0.00000000000E+00 0. -1.
         11    1    3    3    0    0  0.15332988816E+02 -0.17266042511E+02 -0.11547065341E+02  0.25817658458E+02  0.51100000000E-03 0. -1.
        -11    1    3    3    0    0 -0.22701272084E+01  0.14070550338E+02 -0.37821204022E+01  0.14745789208E+02  0.51100000000E-03 0.  1.
         12    1    3    3    0    0 -0.39128468607E+01  0.10993632740E+02  0.29686995349E+02  0.31898088097E+02  0.00000000000E+00 0. -1.
</event>
<event>
 7    1  0.1339094E-013  0.7246157E+02  0.7816164E-02  0.1226708E+00
        -11   -1    0    0    0    0  0.00000000000E+00  0.00000000000E+00  0.45593999997E+02  0.45594000000E+02  0.51100000000E-03 0. -1.
         11   -1    0    0    0    0 -0.00000000000E+00 -0.00000000000E+00 -0.45593999997E+02  0.45594000000E+02  0.51100000000E-03 0.  1.
    9900012    2    1    2    0    0  0.50674140434E+01 -0.37845368127E+01 -0.17626053803E+02  0.72461570105E+02  0.69999999753E+02 0.  0.
         12    1    1    2    0    0 -0.50674140434E+01  0.37845368127E+01  0.17626053803E+02  0.18726429895E+02  0.00000000000E+00 0. -1.
         11    1    3    3    0    0 -0.10203532072E+02 -0.21811882903E+01 -0.22397665842E+02  0.24708805809E+02  0.51100000000E-03 0.  1.
        -11    1    3    3    0    0 -0.54777012466E+01 -0.74774555342E+01  0.19532655112E+02  0.21620410916E+02  0.51100000000E-03 0. -1.
        -12    1    3    3    0    0  0.20748647362E+02  0.58741070118E+01 -0.14761043073E+02  0.26132353379E+02  0.00000000000E+00 0.  1.
</event>
<event>
 7    1  0.1339094E-013  0.7246158E+02  0.7816164E-02  0.1226708E+00
        -11   -1    0    0    0    0  0.00000000000E+00  0.00000000000E+00  0.45593999997E+02  0.45594000000E+02  0.51100000000E-03 0. -1.
         11   -1    0    0    0    0 -0.00000000000E+00 -0.00000000000E+00 -0.45593999997E+02  0.45594000000E+02  0.51100000000E-03 0.  1.
    9900012    2    1    2    0    0  0.60553190344E+00  0.10008719616E+02 -0.15815741792E+02  0.72461579476E+02  0.70000011960E+02 0.  0.
         12    1    1    2    0    0 -0.60553190344E+00 -0.10008719616E+02  0.15815741792E+02  0.18726420524E+02  0.00000000000E+00 0. -1.
         11    1    3    3    0    0 -0.17121826090E+02  0.66327494020E+01 -0.24416273481E+02  0.30550036076E+02  0.51100000000E-03 0.  1.
        -11    1    3    3    0    0  0.28687353783E+02  0.11622666780E+01  0.16761515273E+01  0.28759774253E+02  0.51100000000E-03 0. -1.
         12    1    3    3    0    0 -0.10959995789E+02  0.22137035357E+01  0.69243801622E+01  0.13151769146E+02  0.00000000000E+00 0. -1.
</event>
<event>
 7    1  0.1339094E-013  0.7246155E+02  0.7816164E-02  0.1226708E+00
        -11   -1    0    0    0    0  0.00000000000E+00  0.00000000000E+00  0.45593999997E+02  0.45594000000E+02  0.51100000000E-03 0.  1.
         11   -1    0    0    0    0 -0.00000000000E+00 -0.00000000000E+00 -0.45593999997E+02  0.45594000000E+02  0.51100000000E-03 0. -1.
    9900012    2    1    2    0    0  0.75305865870E+01  0.92907535984E+01  0.14410136119E+02  0.72461551866E+02  0.69999975993E+02 0.  0.
         12    1    1    2    0    0 -0.75305865870E+01 -0.92907535984E+01 -0.14410136119E+02  0.18726448134E+02  0.00000000000E+00 0. -1.
         11    1    3    3    0    0  0.65772244845E+01  0.27860676534E+02  0.14447646310E+02  0.32065739708E+02  0.51100000000E-03 0.  1.
        -11    1    3    3    0    0  0.16309892291E+02 -0.17592749743E+02  0.43803769555E+01  0.24386576894E+02  0.51100000000E-03 0. -1.
        -12    1    3    3    0    0 -0.15356530188E+02 -0.97717319264E+00 -0.44178871473E+01  0.16009235263E+02  0.00000000000E+00 0.  1.
</event>
<event>
 7    1  0.1339094E-013  0.7246157E+02  0.7816164E-02  0.1226708E+00
        -11   -1    0    0    0    0  0.00000000000E+00  0.00000000000E+00  0.45593999997E+02  0.45594000000E+02  0.51100000000E-03 0. -1.
         11   -1    0    0    0    0 -0.00000000000E+00 -0.00000000000E+00 -0.45593999997E+02  0.45594000000E+02  0.51100000000E-03 0.  1.
    9900012    2    1    2    0    0  0.13837354634E+02  0.52552440193E+01 -0.11471241560E+02  0.72461565318E+02  0.69999993517E+02 0.  0.
         12    1    1    2    0    0 -0.13837354634E+02 -0.52552440193E+01  0.11471241560E+02  0.18726434682E+02  0.00000000000E+00 0. -1.
         11    1    3    3    0    0 -0.68329951659E+01  0.17543231249E+02 -0.18493754406E+00  0.18827877941E+02  0.51100000000E-03 0.  1.
        -11    1    3    3    0    0  0.26555863794E+02 -0.13801473548E+02  0.99548333875E+01  0.31540343720E+02  0.51100000000E-03 0. -1.
        -12    1    3    3    0    0 -0.58855139934E+01  0.15134863187E+01 -0.21241137403E+02  0.22093343658E+02  0.00000000000E+00 0.  1.
</event>
<event>
 7    1  0.1339094E-013  0.7246106E+02  0.7816164E-02  0.1226709E+00
        -11   -1    0    0    0    0  0.00000000000E+00  0.00000000000E+00  0.45593999997E+02  0.45594000000E+02  0.51100000000E-03 0.  1.
         11   -1    0    0    0    0 -0.00000000000E+00 -0.00000000000E+00 -0.45593999997E+02  0.45594000000E+02  0.51100000000E-03 0. -1.
    9900012    2    1    2    0    0 -0.17745876660E+00 -0.18709491911E+02 -0.78854595399E+00  0.72461057273E+02  0.69999331692E+02 0.  0.
         12    1    1    2    0    0  0.17745876660E+00  0.18709491911E+02  0.78854595399E+00  0.18726942727E+02  0.00000000000E+00 0. -1.
         11    1    3    3    0    0  0.20483104294E+01 -0.11021412578E+01 -0.52066590260E+01  0.57025949743E+01  0.51100000000E-03 0. -1.
        -11    1    3    3    0    0  0.57564300850E+01  0.19152059924E+01  0.31699525157E+02  0.32274826054E+02  0.51100000000E-03 0.  1.
        -12    1    3    3    0    0 -0.79821992810E+01 -0.19522556645E+02 -0.27281412086E+02  0.34483636245E+02  0.00000000000E+00 0.  1.
</event>
<event>
 7    1  0.1339094E-013  0.7246152E+02  0.7816164E-02  0.1226708E+00
        -11   -1    0    0    0    0  0.00000000000E+00  0.00000000000E+00  0.45593999997E+02  0.45594000000E+02  0.51100000000E-03 0. -1.
         11   -1    0    0    0    0 -0.00000000000E+00 -0.00000000000E+00 -0.45593999997E+02  0.45594000000E+02  0.51100000000E-03 0.  1.
    9900012    2    1    2    0    0 -0.18269105797E+02 -0.41125784919E+01 -0.86921709091E-01  0.72461519181E+02  0.69999933416E+02 0.  0.
         12    1    1    2    0    0  0.18269105797E+02  0.41125784919E+01  0.86921709091E-01  0.18726480819E+02  0.00000000000E+00 0. -1.
         11    1    3    3    0    0 -0.34390496381E+02 -0.18822139077E+02 -0.33179467237E+01  0.39344477776E+02  0.51100000000E-03 0.  1.
        -11    1    3    3    0    0  0.17735787894E+02  0.18338167905E+02  0.81620295208E+01  0.26785542752E+02  0.51100000000E-03 0. -1.
        -12    1    3    3    0    0 -0.16143973099E+01 -0.36286073205E+01 -0.49310045061E+01  0.63314986536E+01  0.00000000000E+00 0.  1.
</event>
<event>
 7    1  0.1339094E-013  0.7246164E+02  0.7816164E-02  0.1226708E+00
        -11   -1    0    0    0    0  0.00000000000E+00  0.00000000000E+00  0.45593999997E+02  0.45594000000E+02  0.51100000000E-03 0. -1.
         11   -1    0    0    0    0 -0.00000000000E+00 -0.00000000000E+00 -0.45593999997E+02  0.45594000000E+02  0.51100000000E-03 0.  1.
    9900012    2    1    2    0    0  0.12221841712E+02  0.20180310413E+01 -0.14043880191E+02  0.72461643308E+02  0.70000095114E+02 0.  0.
         12    1    1    2    0    0 -0.12221841712E+02 -0.20180310413E+01  0.14043880191E+02  0.18726356692E+02  0.00000000000E+00 0. -1.
         11    1    3    3    0    0 -0.15485929618E+02 -0.16870914976E+02 -0.22481546320E+02  0.32091458575E+02  0.51100000000E-03 0. -1.
        -11    1    3    3    0    0  0.14638554837E+02 -0.15417135529E+01  0.63387852666E+01  0.16026364756E+02  0.51100000000E-03 0.  1.
         12    1    3    3    0    0  0.13069216494E+02  0.20430659570E+02  0.20988808622E+01  0.24343819978E+02  0.00000000000E+00 0. -1.
</event>
<event>
 7    1  0.1339094E-013  0.7246156E+02  0.7816164E-02  0.1226708E+00
        -11   -1    0    0    0    0  0.00000000000E+00  0.00000000000E+00  0.45593999997E+02  0.45594000000E+02  0.51100000000E-03 0. -1.
         11   -1    0    0    0    0 -0.00000000000E+00 -0.00000000000E+00 -0.45593999997E+02  0.45594000000E+02  0.51100000000E-03 0.  1.
    9900012    2    1    2    0    0  0.74190159345E+01  0.71699666142E+01 -0.15627839865E+02  0.72461558866E+02  0.69999985113E+02 0.  0.
         12    1    1    2    0    0 -0.74190159345E+01 -0.71699666142E+01  0.15627839865E+02  0.18726441134E+02  0.00000000000E+00 0. -1.
         11    1    3    3    0    0 -0.20324985196E+02 -0.57613456253E+01  0.31214769892E+01  0.21355133938E+02  0.51100000000E-03 0. -1.
        -11    1    3    3    0    0  0.30386830646E+02 -0.35963784424E+01 -0.98210767217E+01  0.32136380675E+02  0.51100000000E-03 0.  1.
        -12    1    3    3    0    0 -0.26428295157E+01  0.16527690682E+02 -0.89282401325E+01  0.18970044254E+02  0.00000000000E+00 0.  1.
</event>
<event>
 7    1  0.1339094E-013  0.7246158E+02  0.7816164E-02  0.1226708E+00
        -11   -1    0    0    0    0  0.00000000000E+00  0.00000000000E+00  0.45593999997E+02  0.45594000000E+02  0.51100000000E-03 0.  1.
         11   -1    0    0    0    0 -0.00000000000E+00 -0.00000000000E+00 -0.45593999997E+02  0.45594000000E+02  0.51100000000E-03 0. -1.
    9900012    2    1    2    0    0  0.14945558936E+02  0.10766786179E+02  0.33742442261E+01  0.72461576406E+02  0.70000007962E+02 0.  0.
         12    1    1    2    0    0 -0.14945558936E+02 -0.10766786179E+02 -0.33742442261E+01  0.18726423594E+02  0.00000000000E+00 0. -1.
         11    1    3    3    0    0  0.36228816418E+01 -0.13179653907E+02 -0.10139520503E+02  0.17018766841E+02  0.51100000000E-03 0. -1.
        -11    1    3    3    0    0 -0.87366253405E+01  0.17835839609E+01  0.22521537806E+02  0.24222499035E+02  0.51100000000E-03 0.  1.
        -12    1    3    3    0    0  0.20059302634E+02  0.22162856125E+02 -0.90077730772E+01  0.31220310530E+02  0.00000000000E+00 0.  1.
</event>
<event>
 7    1  0.1339094E-013  0.7246156E+02  0.7816164E-02  0.1226708E+00
        -11   -1    0    0    0    0  0.00000000000E+00  0.00000000000E+00  0.45593999997E+02  0.45594000000E+02  0.51100000000E-03 0.  1.
         11   -1    0    0    0    0 -0.00000000000E+00 -0.00000000000E+00 -0.45593999997E+02  0.45594000000E+02  0.51100000000E-03 0. -1.
    9900012    2    1    2    0    0  0.14876290886E+02 -0.10306237972E+02  0.48121541584E+01  0.72461564159E+02  0.69999992008E+02 0.  0.
         12    1    1    2    0    0 -0.14876290886E+02  0.10306237972E+02 -0.48121541584E+01  0.18726435841E+02  0.00000000000E+00 0. -1.
         11    1    3    3    0    0  0.21840448284E+02  0.44140319163E+01  0.16294178622E+01  0.22341527741E+02  0.51100000000E-03 0. -1.
        -11    1    3    3    0    0 -0.25498020755E+02 -0.71063372211E+01 -0.73665979944E+01  0.27475732154E+02  0.51100000000E-03 0.  1.
        -12    1    3    3    0    0  0.18533863357E+02 -0.76139326672E+01  0.10549334291E+02  0.22644304264E+02  0.00000000000E+00 0.  1.
</event>
<event>
 7    1  0.1339094E-013  0.7246157E+02  0.7816164E-02  0.1226708E+00
        -11   -1    0    0    0    0  0.00000000000E+00  0.00000000000E+00  0.45593999997E+02  0.45594000000E+02  0.51100000000E-03 0. -1.
         11   -1    0    0    0    0 -0.00000000000E+00 -0.00000000000E+00 -0.45593999997E+02  0.45594000000E+02  0.51100000000E-03 0.  1.
    9900012    2    1    2    0    0  0.20648318287E+00 -0.91341980224E+01 -0.16346349004E+02  0.72461565887E+02  0.69999994259E+02 0.  0.
         12    1    1    2    0    0 -0.20648318287E+00  0.91341980224E+01  0.16346349004E+02  0.18726434113E+02  0.00000000000E+00 0. -1.
         11    1    3    3    0    0  0.40771060695E+01 -0.18644740254E+02 -0.27118186884E+01  0.19277009465E+02  0.51100000000E-03 0. -1.
        -11    1    3    3    0    0  0.10990801020E+02  0.24384573356E+02 -0.17281833747E+02  0.31844417136E+02  0.51100000000E-03 0.  1.
        -12    1    3    3    0    0 -0.14861423906E+02 -0.14874031124E+02  0.36473034313E+01  0.21340139286E+02  0.00000000000E+00 0.  1.
</event>
<event>
 7    1  0.1339094E-013  0.7246156E+02  0.7816164E-02  0.1226708E+00
        -11   -1    0    0    0    0  0.00000000000E+00  0.00000000000E+00  0.45593999997E+02  0.45594000000E+02  0.51100000000E-03 0. -1.
         11   -1    0    0    0    0 -0.00000000000E+00 -0.00000000000E+00 -0.45593999997E+02  0.45594000000E+02  0.51100000000E-03 0.  1.
    9900012    2    1    2    0    0 -0.21543197337E+01 -0.14081805134E+02 -0.12154880264E+02  0.72461562977E+02  0.69999990468E+02 0.  0.
         12    1    1    2    0    0  0.21543197337E+01  0.14081805134E+02  0.12154880264E+02  0.18726437023E+02  0.00000000000E+00 0. -1.
         11    1    3    3    0    0  0.52792992972E+01 -0.43140478446E+01 -0.67176866624E+01  0.95712759980E+01  0.51100000000E-03 0. -1.
        -11    1    3    3    0    0  0.21846538566E+01  0.13170253599E+02  0.22077173665E+02  0.25799804062E+02  0.51100000000E-03 0.  1.
        -12    1    3    3    0    0 -0.96182728874E+01 -0.22938010889E+02 -0.27514367267E+02  0.37090482917E+02  0.00000000000E+00 0.  1.
</event>
<event>
 7    1  0.1339094E-013  0.7246162E+02  0.7816164E-02  0.1226708E+00
        -11   -1    0    0    0    0  0.00000000000E+00  0.00000000000E+00  0.45593999997E+02  0.45594000000E+02  0.51100000000E-03 0. -1.
         11   -1    0    0    0    0 -0.00000000000E+00 -0.00000000000E+00 -0.45593999997E+02  0.45594000000E+02  0.51100000000E-03 0.  1.
    9900012    2    1    2    0    0 -0.63203198736E+01  0.60535714699E+01 -0.16555520455E+02  0.72461616783E+02  0.70000060560E+02 0.  0.
         12    1    1    2    0    0  0.63203198736E+01 -0.60535714699E+01  0.16555520455E+02  0.18726383217E+02  0.00000000000E+00 0. -1.
         11    1    3    3    0    0  0.86693742136E+01  0.41455356487E+01  0.48671342895E+01  0.10771838818E+02  0.51100000000E-03 0. -1.
        -11    1    3    3    0    0 -0.20308459767E+02 -0.15892477049E+02 -0.31375850949E+02  0.40613401580E+02  0.51100000000E-03 0.  1.
        -12    1    3    3    0    0  0.53187656800E+01  0.17800512870E+02  0.99531962046E+01  0.21076376384E+02  0.00000000000E+00 0.  1.
</event>
<event>
 7    1  0.1339094E-013  0.7246148E+02  0.7816164E-02  0.1226708E+00
        -11   -1    0    0    0    0  0.00000000000E+00  0.00000000000E+00  0.45593999997E+02  0.45594000000E+02  0.51100000000E-03 0. -1.
         11   -1    0    0    0    0 -0.00000000000E+00 -0.00000000000E+00 -0.45593999997E+02  0.45594000000E+02  0.51100000000E-03 0.  1.
    9900012    2    1    2    0    0 -0.11697720718E+02  0.70384366971E+01 -0.12818203489E+02  0.72461478651E+02  0.69999880618E+02 0.  0.
         12    1    1    2    0    0  0.11697720718E+02 -0.70384366971E+01  0.12818203489E+02  0.18726521349E+02  0.00000000000E+00 0. -1.
         11    1    3    3    0    0  0.16246212404E+02  0.14877914601E+02  0.17289889482E+02  0.28004143245E+02  0.51100000000E-03 0. -1.
        -11    1    3    3    0    0 -0.77130554026E+01 -0.69093414246E+01 -0.33182491659E+01  0.10873867773E+02  0.51100000000E-03 0.  1.
         12    1    3    3    0    0 -0.20230877718E+02 -0.93013647929E+00 -0.26789843805E+02  0.33583467633E+02  0.00000000000E+00 0. -1.
</event>
<event>
 7    1  0.1339094E-013  0.7246156E+02  0.7816164E-02  0.1226708E+00
        -11   -1    0    0    0    0  0.00000000000E+00  0.00000000000E+00  0.45593999997E+02  0.45594000000E+02  0.51100000000E-03 0.  1.
         11   -1    0    0    0    0 -0.00000000000E+00 -0.00000000000E+00 -0.45593999997E+02  0.45594000000E+02  0.51100000000E-03 0. -1.
    9900012    2    1    2    0    0 -0.32552784709E+01  0.12900675228E+02  0.13177833682E+02  0.72461559873E+02  0.69999986425E+02 0.  0.
         12    1    1    2    0    0  0.32552784709E+01 -0.12900675228E+02 -0.13177833682E+02  0.18726440127E+02  0.00000000000E+00 0. -1.
         11    1    3    3    0    0 -0.99168948925E+01  0.25134609296E+02 -0.10635542749E+02  0.29038046742E+02  0.51100000000E-03 0. -1.
        -11    1    3    3    0    0  0.18741249905E+02 -0.63943072587E+01  0.51910329213E+01  0.20471161090E+02  0.51100000000E-03 0.  1.
         12    1    3    3    0    0 -0.12079633484E+02 -0.58396268100E+01  0.18622343510E+02  0.22952352041E+02  0.00000000000E+00 0. -1.
</event>
<event>
 7    1  0.1339094E-013  0.7246156E+02  0.7816164E-02  0.1226708E+00
        -11   -1    0    0    0    0  0.00000000000E+00  0.00000000000E+00  0.45593999997E+02  0.45594000000E+02  0.51100000000E-03 0. -1.
         11   -1    0    0    0    0 -0.00000000000E+00 -0.00000000000E+00 -0.45593999997E+02  0.45594000000E+02  0.51100000000E-03 0.  1.
    9900012    2    1    2    0    0 -0.62041085501E+01  0.17664166276E+02  0.40704329643E+00  0.72461563677E+02  0.69999991379E+02 0.  0.
         12    1    1    2    0    0  0.62041085501E+01 -0.17664166276E+02 -0.40704329643E+00  0.18726436323E+02  0.00000000000E+00 0. -1.
         11    1    3    3    0    0  0.99672850996E+01 -0.10471657699E+02 -0.15346360421E+02  0.21083480871E+02  0.51100000000E-03 0.  1.
        -11    1    3    3    0    0 -0.11351392952E+02  0.87496455309E-01  0.19609862242E+02  0.22658518817E+02  0.51100000000E-03 0. -1.
        -12    1    3    3    0    0 -0.48200006976E+01  0.28048327519E+02 -0.38564585244E+01  0.28719563989E+02  0.00000000000E+00 0.  1.
</event>
<event>
 7    1  0.1339094E-013  0.7246166E+02  0.7816164E-02  0.1226708E+00
        -11   -1    0    0    0    0  0.00000000000E+00  0.00000000000E+00  0.45593999997E+02  0.45594000000E+02  0.51100000000E-03 0.  1.
         11   -1    0    0    0    0 -0.00000000000E+00 -0.00000000000E+00 -0.45593999997E+02  0.45594000000E+02  0.51100000000E-03 0. -1.
    9900012    2    1    2    0    0  0.12292748970E+02 -0.25677502983E+01  0.13891398738E+02  0.72461655516E+02  0.70000111017E+02 0.  0.
         12    1    1    2    0    0 -0.12292748970E+02  0.25677502983E+01 -0.13891398738E+02  0.18726344484E+02  0.00000000000E+00 0. -1.
         11    1    3    3    0    0  0.11951758787E+02  0.14514479807E+02 -0.23295315410E+02  0.29936372233E+02  0.51100000000E-03 0. -1.
        -11    1    3    3    0    0 -0.11935352948E+01 -0.60763548207E+01  0.26113561453E+02  0.26837747790E+02  0.51100000000E-03 0.  1.
         12    1    3    3    0    0  0.15345254777E+01 -0.11005875285E+02  0.11073152695E+02  0.15687535493E+02  0.00000000000E+00 0. -1.
</event>
<event>
 7    1  0.1339094E-013  0.7246154E+02  0.7816164E-02  0.1226708E+00
        -11   -1    0    0    0    0  0.00000000000E+00  0.00000000000E+00  0.45593999997E+02  0.45594000000E+02  0.51100000000E-03 0.  1.
         11   -1    0    0    0    0 -0.00000000000E+00 -0.00000000000E+00 -0.45593999997E+02  0.45594000000E+02  0.51100000000E-03 0. -1.
    9900012    2    1    2    0    0 -0.10240295727E+01  0.86880600207E+01  0.16557458224E+02  0.72461536204E+02  0.69999955590E+02 0.  0.
         12    1    1    2    0    0  0.10240295727E+01 -0.86880600207E+01 -0.16557458224E+02  0.18726463796E+02  0.00000000000E+00 0. -1.
         11    1    3    3    0    0 -0.29300047906E+02  0.96913164124E-01  0.11393408923E+02  0.31437429390E+02  0.51100000000E-03 0. -1.
        -11    1    3    3    0    0  0.15150685560E+02  0.18744295556E+02  0.32626449636E+01  0.24321528349E+02  0.51100000000E-03 0.  1.
        -12    1    3    3    0    0  0.13125332774E+02 -0.10153148699E+02  0.19014043372E+01  0.16702578465E+02  0.00000000000E+00 0.  1.
</event>
<event>
 7    1  0.1339094E-013  0.7246153E+02  0.7816164E-02  0.1226708E+00
        -11   -1    0    0    0    0  0.00000000000E+00  0.00000000000E+00  0.45593999997E+02  0.45594000000E+02  0.51100000000E-03 0. -1.
         11   -1    0    0    0    0 -0.00000000000E+00 -0.00000000000E+00 -0.45593999997E+02  0.45594000000E+02  0.51100000000E-03 0.  1.
    9900012    2    1    2    0    0  0.85393992002E+01  0.13325982796E+01 -0.16612754989E+02  0.72461527156E+02  0.69999943804E+02 0.  0.
         12    1    1    2    0    0 -0.85393992002E+01 -0.13325982796E+01  0.16612754989E+02  0.18726472844E+02  0.00000000000E+00 0. -1.
         11    1    3    3    0    0  0.21784255370E+02 -0.22077294868E+02  0.21390739629E+01  0.31089168024E+02  0.51100000000E-03 0. -1.
        -11    1    3    3    0    0  0.75330802458E+00  0.15812576219E+02 -0.19871229201E+02  0.25406117174E+02  0.51100000000E-03 0.  1.
         12    1    3    3    0    0 -0.13998164195E+02  0.75973169287E+01  0.11194002496E+01  0.15966241958E+02  0.00000000000E+00 0. -1.
</event>
<event>
 7    1  0.1339094E-013  0.7246156E+02  0.7816164E-02  0.1226708E+00
        -11   -1    0    0    0    0  0.00000000000E+00  0.00000000000E+00  0.45593999997E+02  0.45594000000E+02  0.51100000000E-03 0.  1.
         11   -1    0    0    0    0 -0.00000000000E+00 -0.00000000000E+00 -0.45593999997E+02  0.45594000000E+02  0.51100000000E-03 0. -1.
    9900012    2    1    2    0    0  0.50711864847E+01  0.21916893893E+01  0.17892991381E+02  0.72461559460E+02  0.69999985887E+02 0.  0.
         12    1    1    2    0    0 -0.50711864847E+01 -0.21916893893E+01 -0.17892991381E+02  0.18726440540E+02  0.00000000000E+00 0. -1.
         11    1    3    3    0    0  0.24863453902E+01 -0.23781477363E+02 -0.11302967914E+02  0.26448018128E+02  0.51100000000E-03 0. -1.
        -11    1    3    3    0    0  0.13013065903E+02  0.10439124933E+02  0.16026922778E+02  0.23133902990E+02  0.51100000000E-03 0.  1.
        -12    1    3    3    0    0 -0.10428224809E+02  0.15534041819E+02  0.13169036517E+02  0.22879638343E+02  0.00000000000E+00 0.  1.
</event>
<event>
 7    1  0.1339094E-013  0.7246160E+02  0.7816164E-02  0.1226708E+00
        -11   -1    0    0    0    0  0.00000000000E+00  0.00000000000E+00  0.45593999997E+02  0.45594000000E+02  0.51100000000E-03 0.  1.
         11   -1    0    0    0    0 -0.00000000000E+00 -0.00000000000E+00 -0.45593999997E+02  0.45594000000E+02  0.51100000000E-03 0. -1.
    9900012    2    1    2    0    0  0.15936070132E+02  0.70346295732E+01  0.68726834031E+01  0.72461598273E+02  0.70000036448E+02 0.  0.
         12    1    1    2    0    0 -0.15936070132E+02 -0.70346295732E+01 -0.68726834031E+01  0.18726401727E+02  0.00000000000E+00 0. -1.
         11    1    3    3    0    0  0.43282496995E-02  0.12136620539E+02 -0.67835668133E+01  0.13903753300E+02  0.51100000000E-03 0. -1.
        -11    1    3    3    0    0  0.25907139800E+02  0.15487602550E+02  0.18180478513E+02  0.35235997567E+02  0.51100000000E-03 0.  1.
        -12    1    3    3    0    0 -0.99753979176E+01 -0.20589593516E+02 -0.45242282971E+01  0.23321847406E+02  0.00000000000E+00 0.  1.
</event>
<event>
 7    1  0.1339094E-013  0.7246162E+02  0.7816164E-02  0.1226708E+00
        -11   -1    0    0    0    0  0.00000000000E+00  0.00000000000E+00  0.45593999997E+02  0.45594000000E+02  0.51100000000E-03 0.  1.
         11   -1    0    0    0    0 -0.00000000000E+00 -0.00000000000E+00 -0.45593999997E+02  0.45594000000E+02  0.51100000000E-03 0. -1.
    9900012    2    1    2    0    0 -0.42343992018E+01 -0.15556447361E+02 -0.95259684783E+01  0.72461621104E+02  0.70000066190E+02 0.  0.
         12    1    1    2    0    0  0.42343992018E+01  0.15556447361E+02  0.95259684783E+01  0.18726378896E+02  0.00000000000E+00 0. -1.
         11    1    3    3    0    0 -0.25179610806E+02 -0.70150992791E+01 -0.19918040877E+02  0.32862634874E+02  0.51100000000E-03 0. -1.
        -11    1    3    3    0    0  0.85492519658E+01  0.75226168104E+01  0.14959423305E+02  0.18800633466E+02  0.51100000000E-03 0.  1.
         12    1    3    3    0    0  0.12395959638E+02 -0.16063964892E+02 -0.45673509062E+01  0.20798352764E+02  0.00000000000E+00 0. -1.
</event>
<event>
 7    1  0.1339094E-013  0.7246158E+02  0.7816164E-02  0.1226708E+00
        -11   -1    0    0    0    0  0.00000000000E+00  0.00000000000E+00  0.45593999997E+02  0.45594000000E+02  0.51100000000E-03 0.  1.
         11   -1    0    0    0    0 -0.00000000000E+00 -0.00000000000E+00 -0.45593999997E+02  0.45594000000E+02  0.51100000000E-03 0. -1.
    9900012    2    1    2    0    0  0.10069864499E+02 -0.23479883553E+01  0.15612926609E+02  0.72461582893E+02  0.70000016412E+02 0.  0.
         12    1    1    2    0    0 -0.10069864499E+02  0.23479883553E+01 -0.15612926609E+02  0.18726417107E+02  0.00000000000E+00 0. -1.
         11    1    3    3    0    0  0.23658169236E+02 -0.99506728872E+01 -0.65226520739E+01  0.26481500200E+02  0.51100000000E-03 0. -1.
        -11    1    3    3    0    0  0.33312059682E+01  0.14506103737E+02  0.23323495891E+02  0.27667841254E+02  0.51100000000E-03 0.  1.
        -12    1    3    3    0    0 -0.16919510705E+02 -0.69034192047E+01 -0.11879172074E+01  0.18312241439E+02  0.00000000000E+00 0.  1.
</event>
<event>
 7    1  0.1339094E-013  0.7246158E+02  0.7816164E-02  0.1226708E+00
        -11   -1    0    0    0    0  0.00000000000E+00  0.00000000000E+00  0.45593999997E+02  0.45594000000E+02  0.51100000000E-03 0. -1.
         11   -1    0    0    0    0 -0.00000000000E+00 -0.00000000000E+00 -0.45593999997E+02  0.45594000000E+02  0.51100000000E-03 0.  1.
    9900012    2    1    2    0    0 -0.63963436486E+01  0.58702668823E+01 -0.16592328935E+02  0.72461584838E+02  0.70000018946E+02 0.  0.
         12    1    1    2    0    0  0.63963436486E+01 -0.58702668823E+01  0.16592328935E+02  0.18726415162E+02  0.00000000000E+00 0. -1.
         11    1    3    3    0    0  0.10973263384E+02  0.12598087165E+01  0.16117086046E+02  0.19538681895E+02  0.51100000000E-03 0. -1.
        -11    1    3    3    0    0 -0.16627053426E+02  0.20061514336E+02 -0.18928619946E+02  0.32205836682E+02  0.51100000000E-03 0.  1.
         12    1    3    3    0    0 -0.74255360671E+00 -0.15451056171E+02 -0.13780795035E+02  0.20717066261E+02  0.00000000000E+00 0. -1.
</event>
<event>
 7    1  0.1339094E-013  0.7246157E+02  0.7816164E-02  0.1226708E+00
        -11   -1    0    0    0    0  0.00000000000E+00  0.00000000000E+00  0.45593999997E+02  0.45594000000E+02  0.51100000000E-03 0.  1.
         11   -1    0    0    0    0 -0.00000000000E+00 -0.00000000000E+00 -0.45593999997E+02  0.45594000000E+02  0.51100000000E-03 0. -1.
    9900012    2    1    2    0    0  0.30100364283E+01  0.10815287042E+02  0.14988277530E+02  0.72461569042E+02  0.69999998369E+02 0.  0.
         12    1    1    2    0    0 -0.30100364283E+01 -0.10815287042E+02 -0.14988277530E+02  0.18726430958E+02  0.00000000000E+00 0. -1.
         11    1    3    3    0    0 -0.18536139204E+02  0.17302283997E+02  0.12943373464E+02  0.28469078050E+02  0.51100000000E-03 0. -1.
        -11    1    3    3    0    0  0.24484729899E+02  0.67501730298E+01  0.11068260057E+02  0.27705111715E+02  0.51100000000E-03 0.  1.
         12    1    3    3    0    0 -0.29385542670E+01 -0.13237169985E+02 -0.90233559912E+01  0.16287379278E+02  0.00000000000E+00 0. -1.
</event>
<event>
 7    1  0.1339094E-013  0.7246204E+02  0.7816164E-02  0.1226707E+00
        -11   -1    0    0    0    0  0.00000000000E+00  0.00000000000E+00  0.45593999997E+02  0.45594000000E+02  0.51100000000E-03 0. -1.
         11   -1    0    0    0    0 -0.00000000000E+00 -0.00000000000E+00 -0.45593999997E+02  0.45594000000E+02  0.51100000000E-03 0.  1.
    9900012    2    1    2    0    0 -0.17117783372E+02  0.21514831195E+01 -0.72810964964E+01  0.72462035315E+02  0.70000605774E+02 0.  0.
         12    1    1    2    0    0  0.17117783372E+02 -0.21514831195E+01  0.72810964964E+01  0.18725964685E+02  0.00000000000E+00 0. -1.
         11    1    3    3    0    0  0.18641704095E+02 -0.71837833414E+01 -0.53837155464E+01  0.20690680704E+02  0.51100000000E-03 0.  1.
        -11    1    3    3    0    0 -0.31739534745E+02  0.20898527041E+02 -0.67607011633E+01  0.38598621462E+02  0.51100000000E-03 0. -1.
        -12    1    3    3    0    0 -0.40199527214E+01 -0.11563260580E+02  0.48633202133E+01  0.13172733149E+02  0.00000000000E+00 0.  1.
</event>
<event>
 7    1  0.1339094E-013  0.7246160E+02  0.7816164E-02  0.1226708E+00
        -11   -1    0    0    0    0  0.00000000000E+00  0.00000000000E+00  0.45593999997E+02  0.45594000000E+02  0.51100000000E-03 0.  1.
         11   -1    0    0    0    0 -0.00000000000E+00 -0.00000000000E+00 -0.45593999997E+02  0.45594000000E+02  0.51100000000E-03 0. -1.
    9900012    2    1    2    0    0 -0.52470127448E+00  0.45942001663E+01  0.18146515354E+02  0.72461601359E+02  0.70000040467E+02 0.  0.
         12    1    1    2    0    0  0.52470127448E+00 -0.45942001663E+01 -0.18146515354E+02  0.18726398641E+02  0.00000000000E+00 0. -1.
         11    1    3    3    0    0  0.24636200196E+02 -0.14603956114E+02  0.80405109553E+01  0.29746726054E+02  0.51100000000E-03 0. -1.
        -11    1    3    3    0    0 -0.21766419438E+02  0.71003929629E+01  0.16875388336E+02  0.28442421260E+02  0.51100000000E-03 0.  1.
         12    1    3    3    0    0 -0.33944820317E+01  0.12097763317E+02 -0.67693839374E+01  0.14272454044E+02  0.00000000000E+00 0. -1.
</event>
<event>
 7    1  0.1339094E-013  0.7246152E+02  0.7816164E-02  0.1226708E+00
        -11   -1    0    0    0    0  0.00000000000E+00  0.00000000000E+00  0.45593999997E+02  0.45594000000E+02  0.51100000000E-03 0.  1.
         11   -1    0    0    0    0 -0.00000000000E+00 -0.00000000000E+00 -0.45593999997E+02  0.45594000000E+02  0.51100000000E-03 0. -1.
    9900012    2    1    2    0    0  0.74581299176E+01 -0.13783653575E+02  0.10250279805E+02  0.72461520250E+02  0.69999934808E+02 0.  0.
         12    1    1    2    0    0 -0.74581299176E+01  0.13783653575E+02 -0.10250279805E+02  0.18726479750E+02  0.00000000000E+00 0. -1.
         11    1    3    3    0    0 -0.16429635547E+02 -0.20680042209E+02 -0.10366293576E+02  0.28373528380E+02  0.51100000000E-03 0. -1.
        -11    1    3    3    0    0 -0.12966740953E+01  0.69259775328E+00  0.17954352224E+02  0.18014433641E+02  0.51100000000E-03 0.  1.
         12    1    3    3    0    0  0.25184439560E+02  0.62037908808E+01  0.26622211568E+01  0.26073558229E+02  0.00000000000E+00 0. -1.
</event>
<event>
 7    1  0.1339094E-013  0.7246154E+02  0.7816164E-02  0.1226708E+00
        -11   -1    0    0    0    0  0.00000000000E+00  0.00000000000E+00  0.45593999997E+02  0.45594000000E+02  0.51100000000E-03 0.  1.
         11   -1    0    0    0    0 -0.00000000000E+00 -0.00000000000E+00 -0.45593999997E+02  0.45594000000E+02  0.51100000000E-03 0. -1.
    9900012    2    1    2    0    0  0.80982556973E+01  0.15238518691E+01  0.16815959181E+02  0.72461538694E+02  0.69999958835E+02 0.  0.
         12    1    1    2    0    0 -0.80982556973E+01 -0.15238518691E+01 -0.16815959181E+02  0.18726461306E+02  0.00000000000E+00 0. -1.
         11    1    3    3    0    0  0.16421294799E+02  0.19390144156E+02 -0.65195077790E+01  0.26232434031E+02  0.51100000000E-03 0.  1.
        -11    1    3    3    0    0 -0.17140876675E+02 -0.99893672043E+01  0.27309783265E+02  0.33755316212E+02  0.51100000000E-03 0. -1.
         12    1    3    3    0    0  0.88178375739E+01 -0.78769250827E+01 -0.39743163048E+01  0.12473788451E+02  0.00000000000E+00 0. -1.
</event>
<event>
 7    1  0.1339094E-013  0.7246159E+02  0.7816164E-02  0.1226708E+00
        -11   -1    0    0    0    0  0.00000000000E+00  0.00000000000E+00  0.45593999997E+02  0.45594000000E+02  0.51100000000E-03 0.  1.
         11   -1    0    0    0    0 -0.00000000000E+00 -0.00000000000E+00 -0.45593999997E+02  0.45594000000E+02  0.51100000000E-03 0. -1.
    9900012    2    1    2    0    0  0.16992155190E+02 -0.63374732934E+01  0.46670676711E+01  0.72461590136E+02  0.70000025848E+02 0.  0.
         12    1    1    2    0    0 -0.16992155190E+02  0.63374732934E+01 -0.46670676711E+01  0.18726409864E+02  0.00000000000E+00 0. -1.
         11    1    3    3    0    0 -0.39988116727E+01  0.26538007614E+02  0.10076119179E+02  0.28666784279E+02  0.51100000000E-03 0. -1.
        -11    1    3    3    0    0  0.10079892216E+02 -0.27522816161E+01 -0.53883004741E+01  0.11756405209E+02  0.51100000000E-03 0.  1.
         12    1    3    3    0    0  0.10911074646E+02 -0.30123199292E+02 -0.20751033590E-01  0.32038400648E+02  0.00000000000E+00 0. -1.
</event>
<event>
 7    1  0.1339094E-013  0.7246159E+02  0.7816164E-02  0.1226708E+00
        -11   -1    0    0    0    0  0.00000000000E+00  0.00000000000E+00  0.45593999997E+02  0.45594000000E+02  0.51100000000E-03 0. -1.
         11   -1    0    0    0    0 -0.00000000000E+00 -0.00000000000E+00 -0.45593999997E+02  0.45594000000E+02  0.51100000000E-03 0.  1.
    9900012    2    1    2    0    0 -0.14586406248E+02 -0.82399242612E+01 -0.83677187576E+01  0.72461593077E+02  0.70000029678E+02 0.  0.
         12    1    1    2    0    0  0.14586406248E+02  0.82399242612E+01  0.83677187576E+01  0.18726406923E+02  0.00000000000E+00 0. -1.
         11    1    3    3    0    0 -0.11624027092E+01  0.25836167515E+02 -0.19138436933E+02  0.32173568350E+02  0.51100000000E-03 0. -1.
        -11    1    3    3    0    0 -0.65786774118E+00 -0.15087731955E+02  0.84097228658E+01  0.17285713305E+02  0.51100000000E-03 0.  1.
         12    1    3    3    0    0 -0.12766135797E+02 -0.18988359821E+02  0.23609953093E+01  0.23002311421E+02  0.00000000000E+00 0. -1.
</event>
<event>
 7    1  0.1339094E-013  0.7246159E+02  0.7816164E-02  0.1226708E+00
        -11   -1    0    0    0    0  0.00000000000E+00  0.00000000000E+00  0.45593999997E+02  0.45594000000E+02  0.51100000000E-03 0.  1.
         11   -1    0    0    0    0 -0.00000000000E+00 -0.00000000000E+00 -0.45593999997E+02  0.45594000000E+02  0.51100000000E-03 0. -1.
    9900012    2    1    2    0    0  0.15720237449E+02 -0.10153849740E+02  0.67222432808E+00  0.72461590426E+02  0.70000026225E+02 0.  0.
         12    1    1    2    0    0 -0.15720237449E+02  0.10153849740E+02 -0.67222432808E+00  0.18726409574E+02  0.00000000000E+00 0. -1.
         11    1    3    3    0    0  0.28932337962E+02  0.17900783781E+01  0.17254077934E+02  0.33734074260E+02  0.51100000000E-03 0. -1.
        -11    1    3    3    0    0 -0.10700368562E+00 -0.17580655275E+02 -0.16999420422E+02  0.24455493956E+02  0.51100000000E-03 0.  1.
        -12    1    3    3    0    0 -0.13105096827E+02  0.56367271572E+01  0.41756681646E+00  0.14272022210E+02  0.00000000000E+00 0.  1.
</event>
<event>
 7    1  0.1339094E-013  0.7246160E+02  0.7816164E-02  0.1226708E+00
        -11   -1    0    0    0    0  0.00000000000E+00  0.00000000000E+00  0.45593999997E+02  0.45594000000E+02  0.51100000000E-03 0. -1.
         11   -1    0    0    0    0 -0.00000000000E+00 -0.00000000000E+00 -0.45593999997E+02  0.45594000000E+02  0.51100000000E-03 0.  1.
    9900012    2    1    2    0    0 -0.72460230452E+01  0.75821034297E+01 -0.15514021813E+02  0.72461601115E+02  0.70000040150E+02 0.  0.
         12    1    1    2    0    0  0.72460230452E+01 -0.75821034297E+01  0.15514021813E+02  0.18726398885E+02  0.00000000000E+00 0. -1.
         11    1    3    3    0    0  0.50495470413E+01 -0.84549189718E+01  0.40055800419E+01  0.10631474586E+02  0.51100000000E-03 0. -1.
        -11    1    3    3    0    0 -0.17982784658E+02  0.14603464862E+02 -0.36854221677E+02  0.43530166387E+02  0.51100000000E-03 0.  1.
        -12    1    3    3    0    0  0.56872145718E+01  0.14335575396E+01  0.17334619822E+02  0.18299960142E+02  0.00000000000E+00 0.  1.
</event>
<event>
 7    1  0.1339094E-013  0.7246158E+02  0.7816164E-02  0.1226708E+00
        -11   -1    0    0    0    0  0.00000000000E+00  0.00000000000E+00  0.45593999997E+02  0.45594000000E+02  0.51100000000E-03 0.  1.
         11   -1    0    0    0    0 -0.00000000000E+00 -0.00000000000E+00 -0.45593999997E+02  0.45594000000E+02  0.51100000000E-03 0. -1.
    9900012    2    1    2    0    0  0.13944707064E+02 -0.80564011626E+01 -0.95560567944E+01  0.72461583465E+02  0.70000017157E+02 0.  0.
         12    1    1    2    0    0 -0.13944707064E+02  0.80564011626E+01  0.95560567944E+01  0.18726416535E+02  0.00000000000E+00 0. -1.
         11    1    3    3    0    0  0.28437713698E+02  0.56771119625E+01 -0.15324579546E+02  0.32799022838E+02  0.51100000000E-03 0. -1.
        -11    1    3    3    0    0  0.30028211545E+01 -0.20083842575E+02  0.47836730482E+00  0.20312717765E+02  0.51100000000E-03 0.  1.
         12    1    3    3    0    0 -0.17495827788E+02  0.63503294501E+01  0.52901554472E+01  0.19349842862E+02  0.00000000000E+00 0. -1.
</event>
<event>
 7    1  0.1339094E-013  0.7246157E+02  0.7816164E-02  0.1226708E+00
        -11   -1    0    0    0    0  0.00000000000E+00  0.00000000000E+00  0.45593999997E+02  0.45594000000E+02  0.51100000000E-03 0.  1.
         11   -1    0    0    0    0 -0.00000000000E+00 -0.00000000000E+00 -0.45593999997E+02  0.45594000000E+02  0.51100000000E-03 0. -1.
    9900012    2    1    2    0    0  0.62961040386E+01  0.17624192336E+02 -0.65271824467E+00  0.72461571545E+02  0.70000001630E+02 0.  0.
         12    1    1    2    0    0 -0.62961040386E+01 -0.17624192336E+02  0.65271824467E+00  0.18726428455E+02  0.00000000000E+00 0. -1.
         11    1    3    3    0    0  0.14280112153E+02  0.15117303911E+02 -0.13158281443E+02  0.24608836857E+02  0.51100000000E-03 0. -1.
        -11    1    3    3    0    0  0.44276523573E+01  0.60825556452E+01  0.27239148496E+02  0.28259030408E+02  0.51100000000E-03 0.  1.
        -12    1    3    3    0    0 -0.12411660471E+02 -0.35756672204E+01 -0.14733585297E+02  0.19593704281E+02  0.00000000000E+00 0.  1.
</event>
<event>
 7    1  0.1339094E-013  0.7246153E+02  0.7816164E-02  0.1226708E+00
        -11   -1    0    0    0    0  0.00000000000E+00  0.00000000000E+00  0.45593999997E+02  0.45594000000E+02  0.51100000000E-03 0. -1.
         11   -1    0    0    0    0 -0.00000000000E+00 -0.00000000000E+00 -0.45593999997E+02  0.45594000000E+02  0.51100000000E-03 0.  1.
    9900012    2    1    2    0    0 -0.88608677841E+01  0.20274928434E+01 -0.16372385660E+02  0.72461528968E+02  0.69999946165E+02 0.  0.
         12    1    1    2    0    0  0.88608677841E+01 -0.20274928434E+01  0.16372385660E+02  0.18726471032E+02  0.00000000000E+00 0. -1.
         11    1    3    3    0    0 -0.32091595414E+02  0.14824949765E+02 -0.38053764145E+01  0.35554613226E+02  0.51100000000E-03 0. -1.
        -11    1    3    3    0    0  0.11672969666E+02 -0.12800672038E+02 -0.17239831331E+02  0.24440278436E+02  0.51100000000E-03 0.  1.
         12    1    3    3    0    0  0.11557757964E+02  0.32151164191E-02  0.46728220860E+01  0.12466637307E+02  0.00000000000E+00 0. -1.
</event>
<event>
 7    1  0.1339094E-013  0.7246159E+02  0.7816164E-02  0.1226708E+00
        -11   -1    0    0    0    0  0.00000000000E+00  0.00000000000E+00  0.45593999997E+02  0.45594000000E+02  0.51100000000E-03 0.  1.
         11   -1    0    0    0    0 -0.00000000000E+00 -0.00000000000E+00 -0.45593999997E+02  0.45594000000E+02  0.51100000000E-03 0. -1.
    9900012    2    1    2    0    0  0.69244405887E+01  0.38429499824E+01  0.16969455285E+02  0.72461586710E+02  0.70000021385E+02 0.  0.
         12    1    1    2    0    0 -0.69244405887E+01 -0.38429499824E+01 -0.16969455285E+02  0.18726413290E+02  0.00000000000E+00 0. -1.
         11    1    3    3    0    0 -0.17932827522E+02  0.38973271242E+01 -0.60204994574E+01  0.19313774246E+02  0.51100000000E-03 0. -1.
        -11    1    3    3    0    0  0.14851900078E+02 -0.13812443121E+02  0.28753008093E+02  0.35186616711E+02  0.51100000000E-03 0.  1.
         12    1    3    3    0    0  0.10005368033E+02  0.13758065979E+02 -0.57630533511E+01  0.17961195753E+02  0.00000000000E+00 0. -1.
</event>
<event>
 7    1  0.1339094E-013  0.7246156E+02  0.7816164E-02  0.1226708E+00
        -11   -1    0    0    0    0  0.00000000000E+00  0.00000000000E+00  0.45593999997E+02  0.45594000000E+02  0.51100000000E-03 0.  1.
         11   -1    0    0    0    0 -0.00000000000E+00 -0.00000000000E+00 -0.45593999997E+02  0.45594000000E+02  0.51100000000E-03 0. -1.
    9900012    2    1    2    0    0 -0.16740823283E+00  0.63761366001E+01  0.17606713769E+02  0.72461561118E+02  0.69999988046E+02 0.  0.
         12    1    1    2    0    0  0.16740823283E+00 -0.63761366001E+01 -0.17606713769E+02  0.18726438882E+02  0.00000000000E+00 0. -1.
         11    1    3    3    0    0  0.91232416153E+01  0.83516854632E+01  0.20609552420E+02  0.24036177709E+02  0.51100000000E-03 0.  1.
        -11    1    3    3    0    0 -0.15530530168E+02 -0.22084635276E+02  0.89107754945E+00  0.27013376354E+02  0.51100000000E-03 0. -1.
        -12    1    3    3    0    0  0.62398803201E+01  0.20109086413E+02 -0.38939161998E+01  0.21412007055E+02  0.00000000000E+00 0.  1.
</event>
<event>
 7    1  0.1339094E-013  0.7246159E+02  0.7816164E-02  0.1226708E+00
        -11   -1    0    0    0    0  0.00000000000E+00  0.00000000000E+00  0.45593999997E+02  0.45594000000E+02  0.51100000000E-03 0. -1.
         11   -1    0    0    0    0 -0.00000000000E+00 -0.00000000000E+00 -0.45593999997E+02  0.45594000000E+02  0.51100000000E-03 0.  1.
    9900012    2    1    2    0    0 -0.12880157722E+02  0.11687458451E+02  0.69414193126E+01  0.72461589504E+02  0.70000025024E+02 0.  0.
         12    1    1    2    0    0  0.12880157722E+02 -0.11687458451E+02 -0.69414193126E+01  0.18726410496E+02  0.00000000000E+00 0. -1.
         11    1    3    3    0    0  0.79091056717E+01  0.10148704152E+02  0.29392414621E+02  0.32085264313E+02  0.51100000000E-03 0. -1.
        -11    1    3    3    0    0 -0.23647303158E+02 -0.54805935783E+01 -0.11013653009E+02  0.26655813728E+02  0.51100000000E-03 0.  1.
        -12    1    3    3    0    0  0.28580397645E+01  0.70193478777E+01 -0.11437342300E+02  0.13720511463E+02  0.00000000000E+00 0.  1.
</event>
<event>
 7    1  0.1339094E-013  0.7246158E+02  0.7816164E-02  0.1226708E+00
        -11   -1    0    0    0    0  0.00000000000E+00  0.00000000000E+00  0.45593999997E+02  0.45594000000E+02  0.51100000000E-03 0.  1.
         11   -1    0    0    0    0 -0.00000000000E+00 -0.00000000000E+00 -0.45593999997E+02  0.45594000000E+02  0.51100000000E-03 0. -1.
    9900012    2    1    2    0    0  0.71158475642E+01 -0.16967579584E+02  0.34849309404E+01  0.72461580503E+02  0.70000013299E+02 0.  0.
         12    1    1    2    0    0 -0.71158475642E+01  0.16967579584E+02 -0.34849309404E+01  0.18726419497E+02  0.00000000000E+00 0. -1.
         11    1    3    3    0    0  0.14546899665E+02 -0.30189038004E+02 -0.23718751123E+02  0.41055687311E+02  0.51100000000E-03 0. -1.
        -11    1    3    3    0    0 -0.22630158677E+01  0.32415403827E+01  0.10977805487E+02  0.11667949196E+02  0.51100000000E-03 0.  1.
         12    1    3    3    0    0 -0.51680362335E+01  0.99799180376E+01  0.16225876576E+02  0.19737943997E+02  0.00000000000E+00 0. -1.
</event>
<event>
 7    1  0.1339094E-013  0.7246149E+02  0.7816164E-02  0.1226708E+00
        -11   -1    0    0    0    0  0.00000000000E+00  0.00000000000E+00  0.45593999997E+02  0.45594000000E+02  0.51100000000E-03 0.  1.
         11   -1    0    0    0    0 -0.00000000000E+00 -0.00000000000E+00 -0.45593999997E+02  0.45594000000E+02  0.51100000000E-03 0. -1.
    9900012    2    1    2    0    0  0.12421242309E+02 -0.82808768446E+01  0.11305846765E+02  0.72461485298E+02  0.69999889276E+02 0.  0.
         12    1    1    2    0    0 -0.12421242309E+02  0.82808768446E+01 -0.11305846765E+02  0.18726514702E+02  0.00000000000E+00 0. -1.
         11    1    3    3    0    0  0.11143954326E+02 -0.48540289166E+01 -0.25280877723E+02  0.28051240497E+02  0.51100000000E-03 0. -1.
        -11    1    3    3    0    0  0.69726808088E+01  0.77512195721E+01  0.25937407513E+02  0.27954405579E+02  0.51100000000E-03 0.  1.
         12    1    3    3    0    0 -0.56953928256E+01 -0.11178067500E+02  0.10649316975E+02  0.16455839222E+02  0.00000000000E+00 0. -1.
</event>
<event>
 7    1  0.1339094E-013  0.7246173E+02  0.7816164E-02  0.1226708E+00
        -11   -1    0    0    0    0  0.00000000000E+00  0.00000000000E+00  0.45593999997E+02  0.45594000000E+02  0.51100000000E-03 0. -1.
         11   -1    0    0    0    0 -0.00000000000E+00 -0.00000000000E+00 -0.45593999997E+02  0.45594000000E+02  0.51100000000E-03 0.  1.
    9900012    2    1    2    0    0 -0.39618254892E+01  0.17838696400E+02  0.40936807847E+01  0.72461725068E+02  0.70000201621E+02 0.  0.
         12    1    1    2    0    0  0.39618254892E+01 -0.17838696400E+02 -0.40936807847E+01  0.18726274932E+02  0.00000000000E+00 0. -1.
         11    1    3    3    0    0  0.24627811074E+02  0.19811859004E+02  0.10709723365E+02  0.33372698577E+02  0.51100000000E-03 0. -1.
        -11    1    3    3    0    0 -0.21643151685E+02  0.81735448506E+01  0.31993416871E+01  0.23355270022E+02  0.51100000000E-03 0.  1.
         12    1    3    3    0    0 -0.69464848775E+01 -0.10146707455E+02 -0.98153842674E+01  0.15733756469E+02  0.00000000000E+00 0. -1.
</event>
<event>
 7    1  0.1339094E-013  0.7246158E+02  0.7816164E-02  0.1226708E+00
        -11   -1    0    0    0    0  0.00000000000E+00  0.00000000000E+00  0.45593999997E+02  0.45594000000E+02  0.51100000000E-03 0. -1.
         11   -1    0    0    0    0 -0.00000000000E+00 -0.00000000000E+00 -0.45593999997E+02  0.45594000000E+02  0.51100000000E-03 0.  1.
    9900012    2    1    2    0    0  0.11374072841E+02  0.63143491766E+01 -0.13469897323E+02  0.72461583568E+02  0.70000017291E+02 0.  0.
         12    1    1    2    0    0 -0.11374072841E+02 -0.63143491766E+01  0.13469897323E+02  0.18726416432E+02  0.00000000000E+00 0. -1.
         11    1    3    3    0    0 -0.37178630894E+01  0.66620145455E+01  0.26658832818E+02  0.27729015692E+02  0.51100000000E-03 0. -1.
        -11    1    3    3    0    0  0.63078446147E+01  0.60065637112E+01 -0.21189002318E+02  0.22909420132E+02  0.51100000000E-03 0.  1.
         12    1    3    3    0    0  0.87840913158E+01 -0.63542290802E+01 -0.18939727823E+02  0.21823147744E+02  0.00000000000E+00 0. -1.
</event>
<event>
 7    1  0.1339094E-013  0.7246156E+02  0.7816164E-02  0.1226708E+00
        -11   -1    0    0    0    0  0.00000000000E+00  0.00000000000E+00  0.45593999997E+02  0.45594000000E+02  0.51100000000E-03 0.  1.
         11   -1    0    0    0    0 -0.00000000000E+00 -0.00000000000E+00 -0.45593999997E+02  0.45594000000E+02  0.51100000000E-03 0. -1.
    9900012    2    1    2    0    0  0.50005822604E+00  0.17770414886E+02  0.58857444289E+01  0.72461556372E+02  0.69999981864E+02 0.  0.
         12    1    1    2    0    0 -0.50005822604E+00 -0.17770414886E+02 -0.58857444289E+01  0.18726443628E+02  0.00000000000E+00 0. -1.
         11    1    3    3    0    0 -0.54723457090E+01  0.75101061006E+01 -0.17859076222E+02  0.20131936444E+02  0.51100000000E-03 0. -1.
        -11    1    3    3    0    0  0.24534964335E+02  0.38691355656E+01  0.53108962818E+01  0.25399612290E+02  0.51100000000E-03 0.  1.
        -12    1    3    3    0    0 -0.18562560400E+02  0.63911732202E+01  0.18433924369E+02  0.26930007638E+02  0.00000000000E+00 0.  1.
</event>
<event>
 7    1  0.1339094E-013  0.7246158E+02  0.7816164E-02  0.1226708E+00
        -11   -1    0    0    0    0  0.00000000000E+00  0.00000000000E+00  0.45593999997E+02  0.45594000000E+02  0.51100000000E-03 0. -1.
         11   -1    0    0    0    0 -0.00000000000E+00 -0.00000000000E+00 -0.45593999997E+02  0.45594000000E+02  0.51100000000E-03 0.  1.
    9900012    2    1    2    0    0 -0.17858942159E+02  0.56184345556E+01  0.41260412335E+00  0.72461578450E+02  0.70000010625E+02 0.  0.
         12    1    1    2    0    0  0.17858942159E+02 -0.56184345556E+01 -0.41260412335E+00  0.18726421550E+02  0.00000000000E+00 0. -1.
         11    1    3    3    0    0 -0.29063239052E+01 -0.58671600170E+01  0.36536142329E+01  0.74979452206E+01  0.51100000000E-03 0. -1.
        -11    1    3    3    0    0 -0.36212093017E+02  0.12142947080E+02  0.10537884562E+02  0.39620876515E+02  0.51100000000E-03 0.  1.
        -12    1    3    3    0    0  0.21259474764E+02 -0.65735250754E+00 -0.13778894672E+02  0.25342756715E+02  0.00000000000E+00 0.  1.
</event>
<event>
 7    1  0.1339094E-013  0.7246162E+02  0.7816164E-02  0.1226708E+00
        -11   -1    0    0    0    0  0.00000000000E+00  0.00000000000E+00  0.45593999997E+02  0.45594000000E+02  0.51100000000E-03 0. -1.
         11   -1    0    0    0    0 -0.00000000000E+00 -0.00000000000E+00 -0.45593999997E+02  0.45594000000E+02  0.51100000000E-03 0.  1.
    9900012    2    1    2    0    0  0.14173725859E+02 -0.12235789524E+02  0.26113790431E+00  0.72461621733E+02  0.70000067009E+02 0.  0.
         12    1    1    2    0    0 -0.14173725859E+02  0.12235789524E+02 -0.26113790431E+00  0.18726378267E+02  0.00000000000E+00 0. -1.
         11    1    3    3    0    0  0.22653471811E+02  0.16950562644E+02  0.65491084051E+00  0.28300711431E+02  0.51100000000E-03 0. -1.
        -11    1    3    3    0    0  0.12068021864E+02 -0.11796004057E+02 -0.29098048225E+01  0.17124538761E+02  0.51100000000E-03 0.  1.
         12    1    3    3    0    0 -0.20547767817E+02 -0.17390348111E+02  0.25160318862E+01  0.27036371541E+02  0.00000000000E+00 0. -1.
</event>
<event>
 7    1  0.1339094E-013  0.7246158E+02  0.7816164E-02  0.1226708E+00
        -11   -1    0    0    0    0  0.00000000000E+00  0.00000000000E+00  0.45593999997E+02  0.45594000000E+02  0.51100000000E-03 0.  1.
         11   -1    0    0    0    0 -0.00000000000E+00 -0.00000000000E+00 -0.45593999997E+02  0.45594000000E+02  0.51100000000E-03 0. -1.
    9900012    2    1    2    0    0 -0.21473356064E+01  0.18573974636E+02 -0.10369390139E+01  0.72461579453E+02  0.70000011931E+02 0.  0.
         12    1    1    2    0    0  0.21473356064E+01 -0.18573974636E+02  0.10369390139E+01  0.18726420547E+02  0.00000000000E+00 0. -1.
         11    1    3    3    0    0 -0.29365016860E+01 -0.17999922426E+02  0.14439494926E+02  0.23261970326E+02  0.51100000000E-03 0. -1.
        -11    1    3    3    0    0  0.10802984752E+02  0.20033914819E+02  0.23740480317E+01  0.22884456009E+02  0.51100000000E-03 0.  1.
         12    1    3    3    0    0 -0.10013818672E+02  0.16539982242E+02 -0.17850481972E+02  0.26315153117E+02  0.00000000000E+00 0. -1.
</event>
<event>
 7    1  0.1339094E-013  0.7246160E+02  0.7816164E-02  0.1226708E+00
        -11   -1    0    0    0    0  0.00000000000E+00  0.00000000000E+00  0.45593999997E+02  0.45594000000E+02  0.51100000000E-03 0. -1.
         11   -1    0    0    0    0 -0.00000000000E+00 -0.00000000000E+00 -0.45593999997E+02  0.45594000000E+02  0.51100000000E-03 0.  1.
    9900012    2    1    2    0    0 -0.23502484121E+01 -0.12773962121E+02 -0.13490008045E+02  0.72461599040E+02  0.70000037446E+02 0.  0.
         12    1    1    2    0    0  0.23502484121E+01  0.12773962121E+02  0.13490008045E+02  0.18726400960E+02  0.00000000000E+00 0. -1.
         11    1    3    3    0    0  0.94922290268E+01  0.14882691714E+00  0.23226020402E+02  0.25091285047E+02  0.51100000000E-03 0. -1.
        -11    1    3    3    0    0  0.35355750035E+01 -0.48544580366E+01 -0.26606633132E+02  0.27275978081E+02  0.51100000000E-03 0.  1.
         12    1    3    3    0    0 -0.15378052442E+02 -0.80683310018E+01 -0.10109395315E+02  0.20094335911E+02  0.00000000000E+00 0. -1.
</event>
<event>
 7    1  0.1339094E-013  0.7246160E+02  0.7816164E-02  0.1226708E+00
        -11   -1    0    0    0    0  0.00000000000E+00  0.00000000000E+00  0.45593999997E+02  0.45594000000E+02  0.51100000000E-03 0.  1.
         11   -1    0    0    0    0 -0.00000000000E+00 -0.00000000000E+00 -0.45593999997E+02  0.45594000000E+02  0.51100000000E-03 0. -1.
    9900012    2    1    2    0    0  0.96119082527E+00  0.10435860762E+02  0.15519246817E+02  0.72461598867E+02  0.70000037221E+02 0.  0.
         12    1    1    2    0    0 -0.96119082527E+00 -0.10435860762E+02 -0.15519246817E+02  0.18726401133E+02  0.00000000000E+00 0. -1.
         11    1    3    3    0    0 -0.48366176938E+01 -0.13795809536E+02 -0.12438441463E+02  0.19194584074E+02  0.51100000000E-03 0. -1.
        -11    1    3    3    0    0 -0.82322863258E+01  0.29123111622E+02  0.21157557064E+02  0.36926526913E+02  0.51100000000E-03 0.  1.
         12    1    3    3    0    0  0.14030094845E+02 -0.48914413240E+01  0.68001312168E+01  0.16340487880E+02  0.00000000000E+00 0. -1.
</event>
<event>
 7    1  0.1339094E-013  0.7246154E+02  0.7816164E-02  0.1226708E+00
        -11   -1    0    0    0    0  0.00000000000E+00  0.00000000000E+00  0.45593999997E+02  0.45594000000E+02  0.51100000000E-03 0.  1.
         11   -1    0    0    0    0 -0.00000000000E+00 -0.00000000000E+00 -0.45593999997E+02  0.45594000000E+02  0.51100000000E-03 0. -1.
    9900012    2    1    2    0    0  0.67960093468E+01 -0.16339119383E+02 -0.61259828238E+01  0.72461541957E+02  0.69999963086E+02 0.  0.
         12    1    1    2    0    0 -0.67960093468E+01  0.16339119383E+02  0.61259828238E+01  0.18726458043E+02  0.00000000000E+00 0. -1.
         11    1    3    3    0    0 -0.14520596680E+02 -0.24408023391E+02 -0.22200988745E+02  0.36048345806E+02  0.51100000000E-03 0. -1.
        -11    1    3    3    0    0  0.89942695379E+01  0.17407053479E+01  0.20014573311E+02  0.22011589781E+02  0.51100000000E-03 0.  1.
         12    1    3    3    0    0  0.12322336489E+02  0.63281986601E+01 -0.39395673898E+01  0.14401606370E+02  0.00000000000E+00 0. -1.
</event>
<event>
 7    1  0.1339094E-013  0.7246158E+02  0.7816164E-02  0.1226708E+00
        -11   -1    0    0    0    0  0.00000000000E+00  0.00000000000E+00  0.45593999997E+02  0.45594000000E+02  0.51100000000E-03 0. -1.
         11   -1    0    0    0    0 -0.00000000000E+00 -0.00000000000E+00 -0.45593999997E+02  0.45594000000E+02  0.51100000000E-03 0.  1.
    9900012    2    1    2    0    0 -0.24683427248E+01 -0.33111344175E+01 -0.18265337237E+02  0.72461578256E+02  0.70000010371E+02 0.  0.
         12    1    1    2    0    0  0.24683427248E+01  0.33111344175E+01  0.18265337237E+02  0.18726421744E+02  0.00000000000E+00 0. -1.
         11    1    3    3    0    0  0.25017099008E+02  0.11496299842E+02 -0.15644628360E+02  0.31666615695E+02  0.51100000000E-03 0. -1.
        -11    1    3    3    0    0 -0.30526110851E+02 -0.90479966902E+01 -0.74356603499E+01  0.32695546071E+02  0.51100000000E-03 0.  1.
        -12    1    3    3    0    0  0.30406691180E+01 -0.57594375691E+01  0.48149514721E+01  0.80994164898E+01  0.00000000000E+00 0.  1.
</event>
<event>
 7    1  0.1339094E-013  0.7246149E+02  0.7816164E-02  0.1226708E+00
        -11   -1    0    0    0    0  0.00000000000E+00  0.00000000000E+00  0.45593999997E+02  0.45594000000E+02  0.51100000000E-03 0. -1.
         11   -1    0    0    0    0 -0.00000000000E+00 -0.00000000000E+00 -0.45593999997E+02  0.45594000000E+02  0.51100000000E-03 0.  1.
    9900012    2    1    2    0    0  0.16954826688E+02 -0.40110254310E+01 -0.68649603694E+01  0.72461490611E+02  0.69999896198E+02 0.  0.
         12    1    1    2    0    0 -0.16954826688E+02  0.40110254310E+01  0.68649603694E+01  0.18726509389E+02  0.00000000000E+00 0. -1.
         11    1    3    3    0    0 -0.71043521821E+01 -0.17966403679E+02 -0.27384318937E+02  0.33513645057E+02  0.51100000000E-03 0.  1.
        -11    1    3    3    0    0  0.14115376823E+02  0.11248910176E+02  0.22086756885E+02  0.28523791350E+02  0.51100000000E-03 0. -1.
        -12    1    3    3    0    0  0.99438020464E+01  0.27064680718E+01 -0.15673983176E+01  0.10424054204E+02  0.00000000000E+00 0.  1.
</event>
<event>
 7    1  0.1339094E-013  0.7246156E+02  0.7816164E-02  0.1226708E+00
        -11   -1    0    0    0    0  0.00000000000E+00  0.00000000000E+00  0.45593999997E+02  0.45594000000E+02  0.51100000000E-03 0. -1.
         11   -1    0    0    0    0 -0.00000000000E+00 -0.00000000000E+00 -0.45593999997E+02  0.45594000000E+02  0.51100000000E-03 0.  1.
    9900012    2    1    2    0    0 -0.72588619563E+01  0.21807191563E+01 -0.17124045633E+02  0.72461560088E+02  0.69999986704E+02 0.  0.
         12    1    1    2    0    0  0.72588619563E+01 -0.21807191563E+01  0.17124045633E+02  0.18726439912E+02  0.00000000000E+00 0. -1.
         11    1    3    3    0    0 -0.33450579374E+01 -0.17403383694E+02  0.15433334566E+01  0.17789015010E+02  0.51100000000E-03 0. -1.
        -11    1    3    3    0    0 -0.32171187018E+01  0.34516348292E+02 -0.19364456314E+02  0.39707811835E+02  0.51100000000E-03 0.  1.
        -12    1    3    3    0    0 -0.69668531703E+00 -0.14932245442E+02  0.69707722452E+00  0.14964733242E+02  0.00000000000E+00 0.  1.
</event>
<event>
 7    1  0.1339094E-013  0.7246159E+02  0.7816164E-02  0.1226708E+00
        -11   -1    0    0    0    0  0.00000000000E+00  0.00000000000E+00  0.45593999997E+02  0.45594000000E+02  0.51100000000E-03 0.  1.
         11   -1    0    0    0    0 -0.00000000000E+00 -0.00000000000E+00 -0.45593999997E+02  0.45594000000E+02  0.51100000000E-03 0. -1.
    9900012    2    1    2    0    0  0.53231833045E+01 -0.42160730502E+00  0.17948936704E+02  0.72461591855E+02  0.70000028086E+02 0.  0.
         12    1    1    2    0    0 -0.53231833045E+01  0.42160730502E+00 -0.17948936704E+02  0.18726408145E+02  0.00000000000E+00 0. -1.
         11    1    3    3    0    0  0.11966164739E+01  0.14135318579E+02  0.32962094985E+02  0.35885078073E+02  0.51100000000E-03 0.  1.
        -11    1    3    3    0    0 -0.31303337996E+01 -0.20805927749E+02 -0.30620220478E+01  0.21261740250E+02  0.51100000000E-03 0. -1.
         12    1    3    3    0    0  0.72569006302E+01  0.62490018650E+01 -0.11951136233E+02  0.15314773531E+02  0.00000000000E+00 0. -1.
</event>
<event>
 7    1  0.1339094E-013  0.7246160E+02  0.7816164E-02  0.1226708E+00
        -11   -1    0    0    0    0  0.00000000000E+00  0.00000000000E+00  0.45593999997E+02  0.45594000000E+02  0.51100000000E-03 0.  1.
         11   -1    0    0    0    0 -0.00000000000E+00 -0.00000000000E+00 -0.45593999997E+02  0.45594000000E+02  0.51100000000E-03 0. -1.
    9900012    2    1    2    0    0  0.70098014264E+01 -0.13829751158E+02  0.10501363928E+02  0.72461602122E+02  0.70000041462E+02 0.  0.
         12    1    1    2    0    0 -0.70098014264E+01  0.13829751158E+02 -0.10501363928E+02  0.18726397878E+02  0.00000000000E+00 0. -1.
         11    1    3    3    0    0 -0.37263411884E+01  0.19510524302E+02  0.10913283795E+02  0.22663758308E+02  0.51100000000E-03 0. -1.
        -11    1    3    3    0    0  0.23558944181E+02 -0.23014074725E+02  0.26915533152E+01  0.33044151463E+02  0.51100000000E-03 0.  1.
         12    1    3    3    0    0 -0.12822801566E+02 -0.10326200734E+02 -0.31034731820E+01  0.16753692351E+02  0.00000000000E+00 0. -1.
</event>
<event>
 7    1  0.1802303E-013  0.7246156E+02  0.7816164E-02  0.1226708E+00
        -11   -1    0    0    0    0  0.00000000000E+00  0.00000000000E+00  0.45593999997E+02  0.45594000000E+02  0.51100000000E-03 0. -1.
         11   -1    0    0    0    0 -0.00000000000E+00 -0.00000000000E+00 -0.45593999997E+02  0.45594000000E+02  0.51100000000E-03 0.  1.
    9900012    2    1    2    0    0  0.74689743121E+01  0.23429884558E+00 -0.17170879157E+02  0.72461559755E+02  0.69999986270E+02 0.  0.
         12    1    1    2    0    0 -0.74689743121E+01 -0.23429884558E+00  0.17170879157E+02  0.18726440245E+02  0.00000000000E+00 0. -1.
         11    1    3    3    0    0 -0.21235983824E+02 -0.14088309394E+02 -0.57714707062E+01  0.26129625809E+02  0.51100000000E-03 0. -1.
        -11    1    3    3    0    0  0.21874039542E+02 -0.49811558291E+01 -0.12761908808E+02  0.25809917396E+02  0.51100000000E-03 0.  1.
         12    1    3    3    0    0  0.68309185943E+01  0.19303764068E+02  0.13625003569E+01  0.20522016550E+02  0.00000000000E+00 0. -1.
</event>
<event>
 7    1  0.1339094E-013  0.7246158E+02  0.7816164E-02  0.1226708E+00
        -11   -1    0    0    0    0  0.00000000000E+00  0.00000000000E+00  0.45593999997E+02  0.45594000000E+02  0.51100000000E-03 0. -1.
         11   -1    0    0    0    0 -0.00000000000E+00 -0.00000000000E+00 -0.45593999997E+02  0.45594000000E+02  0.51100000000E-03 0.  1.
    9900012    2    1    2    0    0 -0.12612306402E+02 -0.52400313993E+01 -0.12812131381E+02  0.72461577160E+02  0.70000008944E+02 0.  0.
         12    1    1    2    0    0  0.12612306402E+02  0.52400313993E+01  0.12812131381E+02  0.18726422840E+02  0.00000000000E+00 0. -1.
         11    1    3    3    0    0 -0.24404127070E+01 -0.72373498897E+01  0.18649584080E+02  0.20152960930E+02  0.51100000000E-03 0. -1.
        -11    1    3    3    0    0 -0.10697497845E+02  0.20545471929E+02 -0.18968267138E+02  0.29939072053E+02  0.51100000000E-03 0.  1.
        -12    1    3    3    0    0  0.52560415047E+00 -0.18548153438E+02 -0.12493448324E+02  0.22369544178E+02  0.00000000000E+00 0.  1.
</event>
<event>
 7    1  0.1339094E-013  0.7246152E+02  0.7816164E-02  0.1226708E+00
        -11   -1    0    0    0    0  0.00000000000E+00  0.00000000000E+00  0.45593999997E+02  0.45594000000E+02  0.51100000000E-03 0. -1.
         11   -1    0    0    0    0 -0.00000000000E+00 -0.00000000000E+00 -0.45593999997E+02  0.45594000000E+02  0.51100000000E-03 0.  1.
    9900012    2    1    2    0    0  0.16268404212E+02 -0.30719177787E+01  0.87511887734E+01  0.72461522504E+02  0.69999937744E+02 0.  0.
         12    1    1    2    0    0 -0.16268404212E+02  0.30719177787E+01 -0.87511887734E+01  0.18726477496E+02  0.00000000000E+00 0. -1.
         11    1    3    3    0    0  0.17400054112E+02 -0.26719210317E+02  0.34157314450E+01  0.32067823509E+02  0.51100000000E-03 0. -1.
        -11    1    3    3    0    0  0.10893294533E+02  0.22409467802E+02 -0.38484526225E+01  0.25212272821E+02  0.51100000000E-03 0.  1.
        -12    1    3    3    0    0 -0.12024944433E+02  0.12378247361E+01  0.91839099510E+01  0.15181426174E+02  0.00000000000E+00 0.  1.
</event>
<event>
 7    1  0.1339094E-013  0.7246194E+02  0.7816164E-02  0.1226707E+00
        -11   -1    0    0    0    0  0.00000000000E+00  0.00000000000E+00  0.45593999997E+02  0.45594000000E+02  0.51100000000E-03 0. -1.
         11   -1    0    0    0    0 -0.00000000000E+00 -0.00000000000E+00 -0.45593999997E+02  0.45594000000E+02  0.51100000000E-03 0.  1.
    9900012    2    1    2    0    0  0.10841532660E+01 -0.63697985497E+01 -0.17575992655E+02  0.72461942228E+02  0.70000484512E+02 0.  0.
         12    1    1    2    0    0 -0.10841532660E+01  0.63697985497E+01  0.17575992655E+02  0.18726057772E+02  0.00000000000E+00 0. -1.
         11    1    3    3    0    0 -0.65328900805E+01 -0.11482438098E+02  0.64783255005E+01  0.14713726211E+02  0.51100000000E-03 0. -1.
        -11    1    3    3    0    0  0.21798164834E+02 -0.96234077488E+01 -0.28160478010E+02  0.36888785408E+02  0.51100000000E-03 0.  1.
        -12    1    3    3    0    0 -0.14181121488E+02  0.14736047297E+02  0.41061598550E+01  0.20859430609E+02  0.00000000000E+00 0.  1.
</event>
<event>
 7    1  0.1339094E-013  0.7246161E+02  0.7816164E-02  0.1226708E+00
        -11   -1    0    0    0    0  0.00000000000E+00  0.00000000000E+00  0.45593999997E+02  0.45594000000E+02  0.51100000000E-03 0. -1.
         11   -1    0    0    0    0 -0.00000000000E+00 -0.00000000000E+00 -0.45593999997E+02  0.45594000000E+02  0.51100000000E-03 0.  1.
    9900012    2    1    2    0    0  0.18720410614E+02 -0.26311194792E+00 -0.39326458122E+00  0.72461610640E+02  0.70000052557E+02 0.  0.
         12    1    1    2    0    0 -0.18720410614E+02  0.26311194792E+00  0.39326458122E+00  0.18726389360E+02  0.00000000000E+00 0. -1.
         11    1    3    3    0    0 -0.19843215314E+02 -0.58648276684E+01  0.18426030730E+02  0.27706822379E+02  0.51100000000E-03 0. -1.
        -11    1    3    3    0    0  0.13218978939E+02  0.72294922526E+01 -0.52152099570E+01  0.15943819416E+02  0.51100000000E-03 0.  1.
         12    1    3    3    0    0  0.25344646990E+02 -0.16277765321E+01 -0.13604085354E+02  0.28810968845E+02  0.00000000000E+00 0. -1.
</event>
<event>
 7    1  0.1339094E-013  0.7246160E+02  0.7816164E-02  0.1226708E+00
        -11   -1    0    0    0    0  0.00000000000E+00  0.00000000000E+00  0.45593999997E+02  0.45594000000E+02  0.51100000000E-03 0.  1.
         11   -1    0    0    0    0 -0.00000000000E+00 -0.00000000000E+00 -0.45593999997E+02  0.45594000000E+02  0.51100000000E-03 0. -1.
    9900012    2    1    2    0    0 -0.91011425241E-01 -0.10295850036E+02  0.15641774155E+02  0.72461603930E+02  0.70000043817E+02 0.  0.
         12    1    1    2    0    0  0.91011425241E-01  0.10295850036E+02 -0.15641774155E+02  0.18726396070E+02  0.00000000000E+00 0. -1.
         11    1    3    3    0    0  0.18624603249E+02 -0.27356017614E+02  0.25488483449E+01  0.33192230628E+02  0.51100000000E-03 0. -1.
        -11    1    3    3    0    0 -0.98864985262E+01  0.73231339678E+01  0.20701864748E+02  0.24081909154E+02  0.51100000000E-03 0.  1.
         12    1    3    3    0    0 -0.88291161484E+01  0.97370336107E+01 -0.76089389377E+01  0.15187464148E+02  0.00000000000E+00 0. -1.
</event>
<event>
 7    1  0.1339094E-013  0.7246166E+02  0.7816164E-02  0.1226708E+00
        -11   -1    0    0    0    0  0.00000000000E+00  0.00000000000E+00  0.45593999997E+02  0.45594000000E+02  0.51100000000E-03 0. -1.
         11   -1    0    0    0    0 -0.00000000000E+00 -0.00000000000E+00 -0.45593999997E+02  0.45594000000E+02  0.51100000000E-03 0.  1.
    9900012    2    1    2    0    0  0.13064670853E+02  0.59087611691E+01 -0.12044781544E+02  0.72461659047E+02  0.70000115616E+02 0.  0.
         12    1    1    2    0    0 -0.13064670853E+02 -0.59087611691E+01  0.12044781544E+02  0.18726340953E+02  0.00000000000E+00 0. -1.
         11    1    3    3    0    0  0.93894541068E+01  0.31815645611E+02 -0.56488224973E+01  0.33649760028E+02  0.51100000000E-03 0. -1.
        -11    1    3    3    0    0 -0.97714131327E+01 -0.12467659893E+02 -0.10957550540E+02  0.19261125926E+02  0.51100000000E-03 0.  1.
        -12    1    3    3    0    0  0.13446629879E+02 -0.13439224549E+02  0.45615914932E+01  0.19550773093E+02  0.00000000000E+00 0.  1.
</event>
<event>
 7    1  0.1339094E-013  0.7246156E+02  0.7816164E-02  0.1226708E+00
        -11   -1    0    0    0    0  0.00000000000E+00  0.00000000000E+00  0.45593999997E+02  0.45594000000E+02  0.51100000000E-03 0.  1.
         11   -1    0    0    0    0 -0.00000000000E+00 -0.00000000000E+00 -0.45593999997E+02  0.45594000000E+02  0.51100000000E-03 0. -1.
    9900012    2    1    2    0    0  0.12058500443E+00  0.18608685117E+02  0.20932800751E+01  0.72461560830E+02  0.69999987671E+02 0.  0.
         12    1    1    2    0    0 -0.12058500443E+00 -0.18608685117E+02 -0.20932800751E+01  0.18726439170E+02  0.00000000000E+00 0. -1.
         11    1    3    3    0    0 -0.22770005700E+02 -0.84598091805E+01  0.68708410453E+01  0.25243810883E+02  0.51100000000E-03 0. -1.
        -11    1    3    3    0    0  0.85835037475E+01  0.99150350108E+01 -0.17223191352E+02  0.21647696793E+02  0.51100000000E-03 0.  1.
         12    1    3    3    0    0  0.14307086957E+02  0.17153459287E+02  0.12445630381E+02  0.25570053154E+02  0.00000000000E+00 0. -1.
</event>
<event>
 7    1  0.1339094E-013  0.7246161E+02  0.7816164E-02  0.1226708E+00
        -11   -1    0    0    0    0  0.00000000000E+00  0.00000000000E+00  0.45593999997E+02  0.45594000000E+02  0.51100000000E-03 0.  1.
         11   -1    0    0    0    0 -0.00000000000E+00 -0.00000000000E+00 -0.45593999997E+02  0.45594000000E+02  0.51100000000E-03 0. -1.
    9900012    2    1    2    0    0 -0.97098404294E+01 -0.15728508268E+02  0.30017555411E+01  0.72461614609E+02  0.70000057728E+02 0.  0.
         12    1    1    2    0    0  0.97098404294E+01  0.15728508268E+02 -0.30017555411E+01  0.18726385391E+02  0.00000000000E+00 0. -1.
         11    1    3    3    0    0 -0.16920737337E+02 -0.23099971727E+02  0.20506857943E+02  0.35220040726E+02  0.51100000000E-03 0. -1.
        -11    1    3    3    0    0  0.10553083946E+02  0.16321525089E+02 -0.27016004559E+01  0.19622905169E+02  0.51100000000E-03 0.  1.
         12    1    3    3    0    0 -0.33421870393E+01 -0.89500616293E+01 -0.14803501946E+02  0.17618668713E+02  0.00000000000E+00 0. -1.
</event>
<event>
 7    1  0.1339094E-013  0.7246155E+02  0.7816164E-02  0.1226708E+00
        -11   -1    0    0    0    0  0.00000000000E+00  0.00000000000E+00  0.45593999997E+02  0.45594000000E+02  0.51100000000E-03 0.  1.
         11   -1    0    0    0    0 -0.00000000000E+00 -0.00000000000E+00 -0.45593999997E+02  0.45594000000E+02  0.51100000000E-03 0. -1.
    9900012    2    1    2    0    0  0.68742446522E+01 -0.90546972300E+00  0.17395540746E+02  0.72461549380E+02  0.69999972755E+02 0.  0.
         12    1    1    2    0    0 -0.68742446522E+01  0.90546972300E+00 -0.17395540746E+02  0.18726450620E+02  0.00000000000E+00 0. -1.
         11    1    3    3    0    0  0.83977617518E+00  0.30442141465E-01  0.15060468093E+02  0.15083893735E+02  0.51100000000E-03 0.  1.
        -11    1    3    3    0    0 -0.10075557098E+02 -0.21220216480E+02 -0.13425274012E+02  0.27056467265E+02  0.51100000000E-03 0. -1.
        -12    1    3    3    0    0  0.16110025576E+02  0.20284304616E+02  0.15760346665E+02  0.30321188380E+02  0.00000000000E+00 0.  1.
</event>
<event>
 7    1  0.1339094E-013  0.7246153E+02  0.7816164E-02  0.1226708E+00
        -11   -1    0    0    0    0  0.00000000000E+00  0.00000000000E+00  0.45593999997E+02  0.45594000000E+02  0.51100000000E-03 0.  1.
         11   -1    0    0    0    0 -0.00000000000E+00 -0.00000000000E+00 -0.45593999997E+02  0.45594000000E+02  0.51100000000E-03 0. -1.
    9900012    2    1    2    0    0 -0.41057642985E+01  0.16657483355E+02  0.75067642938E+01  0.72461533105E+02  0.69999951554E+02 0.  0.
         12    1    1    2    0    0  0.41057642985E+01 -0.16657483355E+02 -0.75067642938E+01  0.18726466895E+02  0.00000000000E+00 0. -1.
         11    1    3    3    0    0  0.13587453081E+01  0.39145761052E+02  0.39340090425E+01  0.39366397150E+02  0.51100000000E-03 0. -1.
        -11    1    3    3    0    0 -0.13104396322E+02 -0.14085273614E+02 -0.37248088340E+01  0.19595773444E+02  0.51100000000E-03 0.  1.
        -12    1    3    3    0    0  0.76398867154E+01 -0.84030040832E+01  0.72975640853E+01  0.13499362512E+02  0.00000000000E+00 0.  1.
</event>
<event>
 8    1  0.1339094E-013  0.7246156E+02  0.7816164E-02  0.1226708E+00
        -11   -1    0    0    0    0  0.00000000000E+00  0.00000000000E+00  0.45593999997E+02  0.45594000000E+02  0.51100000000E-03 0.  1.
         11   -1    0    0    0    0 -0.00000000000E+00 -0.00000000000E+00 -0.45593999997E+02  0.45594000000E+02  0.51100000000E-03 0. -1.
    9900012    2    1    2    0    0 -0.37492212795E+01 -0.98638542910E+00  0.18320747374E+02  0.72461564120E+02  0.69999991957E+02 0.  0.
        -24    2    3    3    0    0 -0.51665231616E+01 -0.62866323344E+01  0.26138780370E+02  0.62910490773E+02  0.56641674608E+02 0.  0.
         12    1    1    2    0    0  0.37492212795E+01  0.98638542910E+00 -0.18320747374E+02  0.18726435880E+02  0.00000000000E+00 0. -1.
         11    1    4    4    0    0  0.98573835822E+01 -0.26596534207E+02  0.27746833476E+01  0.28499868611E+02  0.51100000000E-03 0. -1.
        -11    1    3    3    0    0  0.14173018821E+01  0.53002469053E+01 -0.78180329961E+01  0.95510733465E+01  0.51100000000E-03 0.  1.
        -12    1    4    4    0    0 -0.15023906744E+02  0.20309901872E+02  0.23364097023E+02  0.34410622162E+02  0.00000000000E+00 0.  1.
</event>
<event>
 7    1  0.1339094E-013  0.7246152E+02  0.7816164E-02  0.1226708E+00
        -11   -1    0    0    0    0  0.00000000000E+00  0.00000000000E+00  0.45593999997E+02  0.45594000000E+02  0.51100000000E-03 0.  1.
         11   -1    0    0    0    0 -0.00000000000E+00 -0.00000000000E+00 -0.45593999997E+02  0.45594000000E+02  0.51100000000E-03 0. -1.
    9900012    2    1    2    0    0 -0.13245854715E+02 -0.10897482219E+02  0.75148589199E+01  0.72461524346E+02  0.69999940143E+02 0.  0.
         12    1    1    2    0    0  0.13245854715E+02  0.10897482219E+02 -0.75148589199E+01  0.18726475654E+02  0.00000000000E+00 0. -1.
         11    1    3    3    0    0  0.21143986579E+02  0.37427021968E+01 -0.61928490907E+01  0.22347871673E+02  0.51100000000E-03 0. -1.
        -11    1    3    3    0    0 -0.13569878702E+02  0.57877302540E+01  0.14837977693E+02  0.20923790569E+02  0.51100000000E-03 0.  1.
         12    1    3    3    0    0 -0.20819962592E+02 -0.20427914670E+02 -0.11302696820E+01  0.29189862104E+02  0.00000000000E+00 0. -1.
</event>
<event>
 7    1  0.1339094E-013  0.7246165E+02  0.7816164E-02  0.1226708E+00
        -11   -1    0    0    0    0  0.00000000000E+00  0.00000000000E+00  0.45593999997E+02  0.45594000000E+02  0.51100000000E-03 0.  1.
         11   -1    0    0    0    0 -0.00000000000E+00 -0.00000000000E+00 -0.45593999997E+02  0.45594000000E+02  0.51100000000E-03 0. -1.
    9900012    2    1    2    0    0 -0.11440186304E+02 -0.11847727692E+02  0.89123363079E+01  0.72461648177E+02  0.70000101457E+02 0.  0.
         12    1    1    2    0    0  0.11440186304E+02  0.11847727692E+02 -0.89123363079E+01  0.18726351823E+02  0.00000000000E+00 0. -1.
         11    1    3    3    0    0  0.10747871647E+02  0.12533854357E+02 -0.11183346140E+02  0.19941952791E+02  0.51100000000E-03 0. -1.
        -11    1    3    3    0    0 -0.10818637489E+02 -0.32061882564E+02  0.93897105697E+01  0.35116575794E+02  0.51100000000E-03 0.  1.
         12    1    3    3    0    0 -0.11369420462E+02  0.76803005159E+01  0.10705971879E+02  0.17403119591E+02  0.00000000000E+00 0. -1.
</event>
<event>
 7    1  0.1339094E-013  0.7246155E+02  0.7816164E-02  0.1226708E+00
        -11   -1    0    0    0    0  0.00000000000E+00  0.00000000000E+00  0.45593999997E+02  0.45594000000E+02  0.51100000000E-03 0. -1.
         11   -1    0    0    0    0 -0.00000000000E+00 -0.00000000000E+00 -0.45593999997E+02  0.45594000000E+02  0.51100000000E-03 0.  1.
    9900012    2    1    2    0    0  0.45784174786E+01  0.17912326835E+02 -0.29776724496E+01  0.72461550991E+02  0.69999974854E+02 0.  0.
         12    1    1    2    0    0 -0.45784174786E+01 -0.17912326835E+02  0.29776724496E+01  0.18726449009E+02  0.00000000000E+00 0. -1.
         11    1    3    3    0    0 -0.11228538315E+02  0.20610755688E+02  0.97470241112E+01  0.25414322773E+02  0.51100000000E-03 0. -1.
        -11    1    3    3    0    0  0.29275505796E+02  0.50430672961E+01 -0.94228033063E+01  0.31165317097E+02  0.51100000000E-03 0.  1.
         12    1    3    3    0    0 -0.13468550003E+02 -0.77414961485E+01 -0.33018932545E+01  0.15881911121E+02  0.00000000000E+00 0. -1.
</event>
<event>
 7    1  0.1339094E-013  0.7246159E+02  0.7816164E-02  0.1226708E+00
        -11   -1    0    0    0    0  0.00000000000E+00  0.00000000000E+00  0.45593999997E+02  0.45594000000E+02  0.51100000000E-03 0. -1.
         11   -1    0    0    0    0 -0.00000000000E+00 -0.00000000000E+00 -0.45593999997E+02  0.45594000000E+02  0.51100000000E-03 0.  1.
    9900012    2    1    2    0    0 -0.15585578363E+02 -0.10312731769E+02  0.11898901425E+01  0.72461587423E+02  0.70000022314E+02 0.  0.
         12    1    1    2    0    0  0.15585578363E+02  0.10312731769E+02 -0.11898901425E+01  0.18726412577E+02  0.00000000000E+00 0. -1.
         11    1    3    3    0    0  0.14499424289E+02 -0.16025984981E+02  0.95224287276E+01  0.23616565128E+02  0.51100000000E-03 0. -1.
        -11    1    3    3    0    0 -0.35312449070E+02 -0.50653427620E+01 -0.91788807593E+01  0.36835833218E+02  0.51100000000E-03 0.  1.
        -12    1    3    3    0    0  0.52274464189E+01  0.10778595973E+02  0.84634217413E+00  0.12009189077E+02  0.00000000000E+00 0.  1.
</event>
<event>
 7    1  0.1339094E-013  0.7246153E+02  0.7816164E-02  0.1226708E+00
        -11   -1    0    0    0    0  0.00000000000E+00  0.00000000000E+00  0.45593999997E+02  0.45594000000E+02  0.51100000000E-03 0.  1.
         11   -1    0    0    0    0 -0.00000000000E+00 -0.00000000000E+00 -0.45593999997E+02  0.45594000000E+02  0.51100000000E-03 0. -1.
    9900012    2    1    2    0    0 -0.44620319201E+01 -0.28793315611E+01  0.17957737351E+02  0.72461531837E+02  0.69999949902E+02 0.  0.
         12    1    1    2    0    0  0.44620319201E+01  0.28793315611E+01 -0.17957737351E+02  0.18726468163E+02  0.00000000000E+00 0. -1.
         11    1    3    3    0    0  0.12993992500E+02  0.18912792470E+02 -0.38721533488E+01  0.23270821470E+02  0.51100000000E-03 0. -1.
        -11    1    3    3    0    0 -0.36378278549E+01 -0.23597723768E+02  0.70942463711E+00  0.23887018276E+02  0.51100000000E-03 0.  1.
         12    1    3    3    0    0 -0.13818196565E+02  0.18055997367E+01  0.21120466063E+02  0.25303692091E+02  0.00000000000E+00 0. -1.
</event>
<event>
 7    1  0.1339094E-013  0.7246163E+02  0.7816164E-02  0.1226708E+00
        -11   -1    0    0    0    0  0.00000000000E+00  0.00000000000E+00  0.45593999997E+02  0.45594000000E+02  0.51100000000E-03 0.  1.
         11   -1    0    0    0    0 -0.00000000000E+00 -0.00000000000E+00 -0.45593999997E+02  0.45594000000E+02  0.51100000000E-03 0. -1.
    9900012    2    1    2    0    0 -0.13506458053E+02  0.10936927438E+01  0.12925034966E+02  0.72461625502E+02  0.70000071918E+02 0.  0.
         12    1    1    2    0    0  0.13506458053E+02 -0.10936927438E+01 -0.12925034966E+02  0.18726374498E+02  0.00000000000E+00 0. -1.
         11    1    3    3    0    0  0.16136343174E+00 -0.58278781589E+01 -0.14331706206E+02  0.15472168724E+02  0.51100000000E-03 0. -1.
        -11    1    3    3    0    0 -0.71110149436E+01  0.98420650715E+01  0.40306632278E+02  0.42095811956E+02  0.51100000000E-03 0.  1.
        -12    1    3    3    0    0 -0.65568065412E+01 -0.29204941689E+01 -0.13049891106E+02  0.14893644822E+02  0.00000000000E+00 0.  1.
</event>
<event>
 7    1  0.1339094E-013  0.7246159E+02  0.7816164E-02  0.1226708E+00
        -11   -1    0    0    0    0  0.00000000000E+00  0.00000000000E+00  0.45593999997E+02  0.45594000000E+02  0.51100000000E-03 0.  1.
         11   -1    0    0    0    0 -0.00000000000E+00 -0.00000000000E+00 -0.45593999997E+02  0.45594000000E+02  0.51100000000E-03 0. -1.
    9900012    2    1    2    0    0 -0.15834930272E+01  0.16277601903E+02  0.91219952566E+01  0.72461586266E+02  0.70000020806E+02 0.  0.
         12    1    1    2    0    0  0.15834930272E+01 -0.16277601903E+02 -0.91219952566E+01  0.18726413734E+02  0.00000000000E+00 0. -1.
         11    1    3    3    0    0 -0.18370362542E+01 -0.15947197231E+02  0.11811897396E+02  0.19930095887E+02  0.51100000000E-03 0. -1.
        -11    1    3    3    0    0  0.17858866997E+02  0.25799761309E+02 -0.91887663217E+01  0.32695569131E+02  0.51100000000E-03 0.  1.
        -12    1    3    3    0    0 -0.17605323770E+02  0.64250378251E+01  0.64988641821E+01  0.19835921248E+02  0.00000000000E+00 0.  1.
</event>
<event>
 7    1  0.1339094E-013  0.7246151E+02  0.7816164E-02  0.1226708E+00
        -11   -1    0    0    0    0  0.00000000000E+00  0.00000000000E+00  0.45593999997E+02  0.45594000000E+02  0.51100000000E-03 0.  1.
         11   -1    0    0    0    0 -0.00000000000E+00 -0.00000000000E+00 -0.45593999997E+02  0.45594000000E+02  0.51100000000E-03 0. -1.
    9900012    2    1    2    0    0  0.10328504016E+01  0.16169667991E+02  0.93891625620E+01  0.72461512969E+02  0.69999925323E+02 0.  0.
         12    1    1    2    0    0 -0.10328504016E+01 -0.16169667991E+02 -0.93891625620E+01  0.18726487031E+02  0.00000000000E+00 0. -1.
         11    1    3    3    0    0  0.74421911034E+00 -0.11921580934E+02 -0.18215639130E+01  0.12082882496E+02  0.51100000000E-03 0. -1.
        -11    1    3    3    0    0  0.17297747810E+02  0.13868112227E+02 -0.14451436969E+02  0.26464705680E+02  0.51100000000E-03 0.  1.
        -12    1    3    3    0    0 -0.17009116518E+02  0.14223136698E+02  0.25662163444E+02  0.33913924793E+02  0.00000000000E+00 0.  1.
</event>
<event>
 7    1  0.1339094E-013  0.7246157E+02  0.7816164E-02  0.1226708E+00
        -11   -1    0    0    0    0  0.00000000000E+00  0.00000000000E+00  0.45593999997E+02  0.45594000000E+02  0.51100000000E-03 0. -1.
         11   -1    0    0    0    0 -0.00000000000E+00 -0.00000000000E+00 -0.45593999997E+02  0.45594000000E+02  0.51100000000E-03 0.  1.
    9900012    2    1    2    0    0 -0.46926227047E+00 -0.19348106371E+01 -0.18620300752E+02  0.72461566827E+02  0.69999995483E+02 0.  0.
         12    1    1    2    0    0  0.46926227047E+00  0.19348106371E+01  0.18620300752E+02  0.18726433173E+02  0.00000000000E+00 0. -1.
         11    1    3    3    0    0 -0.28837040317E+02 -0.73069703555E+01 -0.26020418466E+02  0.39522511148E+02  0.51100000000E-03 0. -1.
        -11    1    3    3    0    0  0.12606712349E+02  0.95108989427E+01  0.40458888114E+01  0.16302012498E+02  0.51100000000E-03 0.  1.
         12    1    3    3    0    0  0.15761065697E+02 -0.41387392243E+01  0.33542289028E+01  0.16637043181E+02  0.00000000000E+00 0. -1.
</event>
<event>
 7    1  0.1339094E-013  0.7246158E+02  0.7816164E-02  0.1226708E+00
        -11   -1    0    0    0    0  0.00000000000E+00  0.00000000000E+00  0.45593999997E+02  0.45594000000E+02  0.51100000000E-03 0.  1.
         11   -1    0    0    0    0 -0.00000000000E+00 -0.00000000000E+00 -0.45593999997E+02  0.45594000000E+02  0.51100000000E-03 0. -1.
    9900012    2    1    2    0    0  0.69367915040E+00  0.18628928310E+02  0.17778588426E+01  0.72461576348E+02  0.70000007885E+02 0.  0.
         12    1    1    2    0    0 -0.69367915040E+00 -0.18628928310E+02 -0.17778588426E+01  0.18726423652E+02  0.00000000000E+00 0. -1.
         11    1    3    3    0    0 -0.33215995079E+01 -0.10607863328E+02 -0.24474233177E+02  0.26880250697E+02  0.51100000000E-03 0. -1.
        -11    1    3    3    0    0  0.74634073230E+01  0.82650396912E+00  0.10515482161E+02  0.12921335961E+02  0.51100000000E-03 0.  1.
         12    1    3    3    0    0 -0.34481286647E+01  0.28410287669E+02  0.15736609858E+02  0.32659989690E+02  0.00000000000E+00 0. -1.
</event>
<event>
 7    1  0.1339094E-013  0.7246154E+02  0.7816164E-02  0.1226708E+00
        -11   -1    0    0    0    0  0.00000000000E+00  0.00000000000E+00  0.45593999997E+02  0.45594000000E+02  0.51100000000E-03 0. -1.
         11   -1    0    0    0    0 -0.00000000000E+00 -0.00000000000E+00 -0.45593999997E+02  0.45594000000E+02  0.51100000000E-03 0.  1.
    9900012    2    1    2    0    0 -0.40527061474E+01 -0.97541441230E+01 -0.15463264403E+02  0.72461540092E+02  0.69999960655E+02 0.  0.
         12    1    1    2    0    0  0.40527061474E+01  0.97541441230E+01  0.15463264403E+02  0.18726459908E+02  0.00000000000E+00 0. -1.
         11    1    3    3    0    0 -0.14601890181E+02 -0.13380836381E+02  0.87861167591E+00  0.19825083552E+02  0.51100000000E-03 0. -1.
        -11    1    3    3    0    0  0.29721325749E+01  0.61052535742E+01 -0.33253654141E+02  0.33939846895E+02  0.51100000000E-03 0.  1.
        -12    1    3    3    0    0  0.75770514584E+01 -0.24785613166E+01  0.16911778062E+02  0.18696609645E+02  0.00000000000E+00 0.  1.
</event>
<event>
 7    1  0.1339094E-013  0.7246158E+02  0.7816164E-02  0.1226708E+00
        -11   -1    0    0    0    0  0.00000000000E+00  0.00000000000E+00  0.45593999997E+02  0.45594000000E+02  0.51100000000E-03 0.  1.
         11   -1    0    0    0    0 -0.00000000000E+00 -0.00000000000E+00 -0.45593999997E+02  0.45594000000E+02  0.51100000000E-03 0. -1.
    9900012    2    1    2    0    0  0.10300269936E+02 -0.79108466330E+01  0.13490800750E+02  0.72461581226E+02  0.70000014241E+02 0.  0.
         12    1    1    2    0    0 -0.10300269936E+02  0.79108466330E+01 -0.13490800750E+02  0.18726418774E+02  0.00000000000E+00 0. -1.
         11    1    3    3    0    0  0.13324691520E+02  0.64241437428E+01 -0.12872892007E+02  0.19609395091E+02  0.51100000000E-03 0. -1.
        -11    1    3    3    0    0 -0.43686493016E-01 -0.27115064034E+02  0.28743831245E+02  0.39515015386E+02  0.51100000000E-03 0.  1.
        -12    1    3    3    0    0 -0.29807350917E+01  0.12780073658E+02 -0.23801384875E+01  0.13337170750E+02  0.00000000000E+00 0.  1.
</event>
<event>
 7    1  0.1339094E-013  0.7246185E+02  0.7816164E-02  0.1226707E+00
        -11   -1    0    0    0    0  0.00000000000E+00  0.00000000000E+00  0.45593999997E+02  0.45594000000E+02  0.51100000000E-03 0.  1.
         11   -1    0    0    0    0 -0.00000000000E+00 -0.00000000000E+00 -0.45593999997E+02  0.45594000000E+02  0.51100000000E-03 0. -1.
    9900012    2    1    2    0    0 -0.24019551466E+01 -0.10183783484E+02  0.15530287690E+02  0.72461850628E+02  0.70000365185E+02 0.  0.
         12    1    1    2    0    0  0.24019551466E+01  0.10183783484E+02 -0.15530287690E+02  0.18726149372E+02  0.00000000000E+00 0. -1.
         11    1    3    3    0    0 -0.19264792899E+02  0.10048716177E+02 -0.14487768385E+02  0.26115213484E+02  0.51100000000E-03 0. -1.
        -11    1    3    3    0    0  0.57565192581E+01 -0.74219358120E+01  0.27681614627E+02  0.29231736757E+02  0.51100000000E-03 0.  1.
        -12    1    3    3    0    0  0.11106318494E+02 -0.12810563849E+02  0.23364414477E+01  0.17114900387E+02  0.00000000000E+00 0.  1.
</event>
<event>
 7    1  0.1339094E-013  0.7246157E+02  0.7816164E-02  0.1226708E+00
        -11   -1    0    0    0    0  0.00000000000E+00  0.00000000000E+00  0.45593999997E+02  0.45594000000E+02  0.51100000000E-03 0. -1.
         11   -1    0    0    0    0 -0.00000000000E+00 -0.00000000000E+00 -0.45593999997E+02  0.45594000000E+02  0.51100000000E-03 0.  1.
    9900012    2    1    2    0    0  0.17985098951E+02 -0.40812892330E+01 -0.32493764623E+01  0.72461570723E+02  0.70000000558E+02 0.  0.
         12    1    1    2    0    0 -0.17985098951E+02  0.40812892330E+01  0.32493764623E+01  0.18726429277E+02  0.00000000000E+00 0. -1.
         11    1    3    3    0    0  0.70839802581E+01  0.15177881789E+02  0.15285776736E+02  0.22676107306E+02  0.51100000000E-03 0. -1.
        -11    1    3    3    0    0  0.23114115699E+02 -0.22933415399E+02 -0.87658689538E+01  0.33720088155E+02  0.51100000000E-03 0.  1.
         12    1    3    3    0    0 -0.12212997006E+02  0.36742443777E+01 -0.97692842447E+01  0.16065375261E+02  0.00000000000E+00 0. -1.
</event>
<event>
 7    1  0.1339094E-013  0.7246162E+02  0.7816164E-02  0.1226708E+00
        -11   -1    0    0    0    0  0.00000000000E+00  0.00000000000E+00  0.45593999997E+02  0.45594000000E+02  0.51100000000E-03 0.  1.
         11   -1    0    0    0    0 -0.00000000000E+00 -0.00000000000E+00 -0.45593999997E+02  0.45594000000E+02  0.51100000000E-03 0. -1.
    9900012    2    1    2    0    0 -0.90104913409E+01  0.63974214930E+00  0.16403633565E+02  0.72461617051E+02  0.70000060909E+02 0.  0.
         12    1    1    2    0    0  0.90104913409E+01 -0.63974214930E+00 -0.16403633565E+02  0.18726382949E+02  0.00000000000E+00 0. -1.
         11    1    3    3    0    0 -0.35197523948E+02  0.95215263629E+00  0.59114276101E+01  0.35703182818E+02  0.51100000000E-03 0. -1.
        -11    1    3    3    0    0  0.96333853684E+01 -0.12122707464E+00  0.16533622189E+02  0.19135764228E+02  0.51100000000E-03 0.  1.
         12    1    3    3    0    0  0.16553647238E+02 -0.19118341235E+00 -0.60414162339E+01  0.17622670005E+02  0.00000000000E+00 0. -1.
</event>
<event>
 7    1  0.1339094E-013  0.7246156E+02  0.7816164E-02  0.1226708E+00
        -11   -1    0    0    0    0  0.00000000000E+00  0.00000000000E+00  0.45593999997E+02  0.45594000000E+02  0.51100000000E-03 0. -1.
         11   -1    0    0    0    0 -0.00000000000E+00 -0.00000000000E+00 -0.45593999997E+02  0.45594000000E+02  0.51100000000E-03 0.  1.
    9900012    2    1    2    0    0  0.11118655536E+02  0.14224767560E+02  0.49710344831E+01  0.72461556214E+02  0.69999981657E+02 0.  0.
         12    1    1    2    0    0 -0.11118655536E+02 -0.14224767560E+02 -0.49710344831E+01  0.18726443786E+02  0.00000000000E+00 0. -1.
         11    1    3    3    0    0 -0.13119052261E+02  0.70828308537E+01  0.26019389387E+02  0.29988075121E+02  0.51100000000E-03 0. -1.
        -11    1    3    3    0    0  0.10941624425E+02 -0.59309469338E+00 -0.24384604642E+02  0.26733496782E+02  0.51100000000E-03 0.  1.
         12    1    3    3    0    0  0.13296083372E+02  0.77350313992E+01  0.33362497380E+01  0.15739984310E+02  0.00000000000E+00 0. -1.
</event>
<event>
 7    1  0.1339094E-013  0.7246158E+02  0.7816164E-02  0.1226708E+00
        -11   -1    0    0    0    0  0.00000000000E+00  0.00000000000E+00  0.45593999997E+02  0.45594000000E+02  0.51100000000E-03 0. -1.
         11   -1    0    0    0    0 -0.00000000000E+00 -0.00000000000E+00 -0.45593999997E+02  0.45594000000E+02  0.51100000000E-03 0.  1.
    9900012    2    1    2    0    0  0.85423017489E+01  0.48666516245E+01 -0.15938111704E+02  0.72461584916E+02  0.70000019047E+02 0.  0.
         12    1    1    2    0    0 -0.85423017489E+01 -0.48666516245E+01  0.15938111704E+02  0.18726415084E+02  0.00000000000E+00 0. -1.
         11    1    3    3    0    0 -0.14277773094E+02  0.20562445526E+02 -0.34294034560E+01  0.25267168003E+02  0.51100000000E-03 0. -1.
        -11    1    3    3    0    0  0.31874910526E+02 -0.72235313190E+01 -0.61426134743E+01  0.33255390936E+02  0.51100000000E-03 0.  1.
         12    1    3    3    0    0 -0.90548356826E+01 -0.84722625829E+01 -0.63660947740E+01  0.13939025977E+02  0.00000000000E+00 0. -1.
</event>
<event>
 8    1  0.1339094E-013  0.7246157E+02  0.7816164E-02  0.1226708E+00
        -11   -1    0    0    0    0  0.00000000000E+00  0.00000000000E+00  0.45593999997E+02  0.45594000000E+02  0.51100000000E-03 0.  1.
         11   -1    0    0    0    0 -0.00000000000E+00 -0.00000000000E+00 -0.45593999997E+02  0.45594000000E+02  0.51100000000E-03 0. -1.
    9900012    2    1    2    0    0 -0.39634044831E+01 -0.87345837801E+01  0.16083463873E+02  0.72461565768E+02  0.69999994103E+02 0.  0.
        -24    2    3    3    0    0 -0.79404987059E+01 -0.59007348119E+01 -0.22544783648E+01  0.53484524265E+02  0.52513250443E+02 0.  0.
         12    1    1    2    0    0  0.39634044831E+01  0.87345837801E+01 -0.16083463873E+02  0.18726434232E+02  0.00000000000E+00 0. -1.
         11    1    4    4    0    0 -0.18360373189E+02 -0.18489768556E+02 -0.17295221301E+02  0.31274582731E+02  0.51100000000E-03 0. -1.
        -11    1    3    3    0    0  0.39770942228E+01 -0.28338489682E+01  0.18337942238E+02  0.18977041503E+02  0.51100000000E-03 0.  1.
        -12    1    4    4    0    0  0.10419874483E+02  0.12589033744E+02  0.15040742936E+02  0.22209941533E+02  0.00000000000E+00 0.  1.
</event>
<event>
 7    1  0.1339094E-013  0.7246162E+02  0.7816164E-02  0.1226708E+00
        -11   -1    0    0    0    0  0.00000000000E+00  0.00000000000E+00  0.45593999997E+02  0.45594000000E+02  0.51100000000E-03 0.  1.
         11   -1    0    0    0    0 -0.00000000000E+00 -0.00000000000E+00 -0.45593999997E+02  0.45594000000E+02  0.51100000000E-03 0. -1.
    9900012    2    1    2    0    0 -0.10881165162E+02 -0.12293734550E+02  0.90078611172E+01  0.72461622177E+02  0.70000067586E+02 0.  0.
         12    1    1    2    0    0  0.10881165162E+02  0.12293734550E+02 -0.90078611172E+01  0.18726377823E+02  0.00000000000E+00 0. -1.
         11    1    3    3    0    0  0.16829122156E+02 -0.20862568898E+02 -0.26593037888E+01  0.26935813158E+02  0.51100000000E-03 0.  1.
        -11    1    3    3    0    0 -0.34784554756E+02  0.84940302342E+01  0.56730173544E+01  0.36253233309E+02  0.51100000000E-03 0. -1.
         12    1    3    3    0    0  0.70742674373E+01  0.74804113217E-01  0.59941475516E+01  0.92725757101E+01  0.00000000000E+00 0. -1.
</event>
<event>
 7    1  0.1339094E-013  0.7246147E+02  0.7816164E-02  0.1226708E+00
        -11   -1    0    0    0    0  0.00000000000E+00  0.00000000000E+00  0.45593999997E+02  0.45594000000E+02  0.51100000000E-03 0.  1.
         11   -1    0    0    0    0 -0.00000000000E+00 -0.00000000000E+00 -0.45593999997E+02  0.45594000000E+02  0.51100000000E-03 0. -1.
    9900012    2    1    2    0    0 -0.13696216336E+02  0.12670602565E+02 -0.15976230882E+01  0.72461470401E+02  0.69999869871E+02 0.  0.
         12    1    1    2    0    0  0.13696216336E+02 -0.12670602565E+02  0.15976230882E+01  0.18726529599E+02  0.00000000000E+00 0. -1.
         11    1    3    3    0    0  0.20927185032E+02 -0.71836872552E+01 -0.89918755381E+01  0.23883179476E+02  0.51100000000E-03 0. -1.
        -11    1    3    3    0    0 -0.15934232577E+02  0.55755021469E+01  0.16264328387E+02  0.23441722850E+02  0.51100000000E-03 0.  1.
         12    1    3    3    0    0 -0.18689168790E+02  0.14278787673E+02 -0.88700759372E+01  0.25136568076E+02  0.00000000000E+00 0. -1.
</event>
<event>
 7    1  0.1339094E-013  0.7246146E+02  0.7816164E-02  0.1226708E+00
        -11   -1    0    0    0    0  0.00000000000E+00  0.00000000000E+00  0.45593999997E+02  0.45594000000E+02  0.51100000000E-03 0.  1.
         11   -1    0    0    0    0 -0.00000000000E+00 -0.00000000000E+00 -0.45593999997E+02  0.45594000000E+02  0.51100000000E-03 0. -1.
    9900012    2    1    2    0    0  0.27685418137E+01  0.39257345572E+01  0.18099920412E+02  0.72461459089E+02  0.69999855134E+02 0.  0.
         12    1    1    2    0    0 -0.27685418137E+01 -0.39257345572E+01 -0.18099920412E+02  0.18726540911E+02  0.00000000000E+00 0. -1.
         11    1    3    3    0    0  0.44064259155E+01  0.56996978818E+01 -0.24165289455E+02  0.25216351044E+02  0.51100000000E-03 0. -1.
        -11    1    3    3    0    0 -0.55810530154E+01  0.71812381251E+01  0.99473372519E+01  0.13478421734E+02  0.51100000000E-03 0.  1.
         12    1    3    3    0    0  0.39431689137E+01 -0.89552014498E+01  0.32317872614E+02  0.33766686311E+02  0.00000000000E+00 0. -1.
</event>
<event>
 7    1  0.1339094E-013  0.7246157E+02  0.7816164E-02  0.1226708E+00
        -11   -1    0    0    0    0  0.00000000000E+00  0.00000000000E+00  0.45593999997E+02  0.45594000000E+02  0.51100000000E-03 0.  1.
         11   -1    0    0    0    0 -0.00000000000E+00 -0.00000000000E+00 -0.45593999997E+02  0.45594000000E+02  0.51100000000E-03 0. -1.
    9900012    2    1    2    0    0  0.15826268262E+02  0.99840774655E+01  0.72563373673E+00  0.72461571770E+02  0.70000001923E+02 0.  0.
         12    1    1    2    0    0 -0.15826268262E+02 -0.99840774655E+01 -0.72563373673E+00  0.18726428230E+02  0.00000000000E+00 0. -1.
         11    1    3    3    0    0  0.80506185820E+01  0.25782508395E+02 -0.18795727460E+02  0.32906375822E+02  0.51100000000E-03 0. -1.
        -11    1    3    3    0    0 -0.12568117614E+01 -0.11445018380E+02  0.25431278210E+02  0.27916266461E+02  0.51100000000E-03 0.  1.
         12    1    3    3    0    0  0.90324614411E+01 -0.43534125497E+01 -0.59099170126E+01  0.11638929487E+02  0.00000000000E+00 0. -1.
</event>
<event>
 7    1  0.1339094E-013  0.7246158E+02  0.7816164E-02  0.1226708E+00
        -11   -1    0    0    0    0  0.00000000000E+00  0.00000000000E+00  0.45593999997E+02  0.45594000000E+02  0.51100000000E-03 0.  1.
         11   -1    0    0    0    0 -0.00000000000E+00 -0.00000000000E+00 -0.45593999997E+02  0.45594000000E+02  0.51100000000E-03 0. -1.
    9900012    2    1    2    0    0 -0.16732722901E+02  0.82988542627E+01  0.13504267034E+01  0.72461584165E+02  0.70000018069E+02 0.  0.
         12    1    1    2    0    0  0.16732722901E+02 -0.82988542627E+01 -0.13504267034E+01  0.18726415835E+02  0.00000000000E+00 0. -1.
         11    1    3    3    0    0 -0.46059954496E+01 -0.20725250380E+01 -0.26128893577E+02  0.26612584127E+02  0.51100000000E-03 0. -1.
        -11    1    3    3    0    0 -0.94365834956E+01 -0.11026888597E+02  0.15266716846E+02  0.21064520496E+02  0.51100000000E-03 0.  1.
        -12    1    3    3    0    0 -0.26901439556E+01  0.21398267898E+02  0.12212603434E+02  0.24784479542E+02  0.00000000000E+00 0.  1.
</event>
<event>
 7    1  0.1339094E-013  0.7246158E+02  0.7816164E-02  0.1226708E+00
        -11   -1    0    0    0    0  0.00000000000E+00  0.00000000000E+00  0.45593999997E+02  0.45594000000E+02  0.51100000000E-03 0. -1.
         11   -1    0    0    0    0 -0.00000000000E+00 -0.00000000000E+00 -0.45593999997E+02  0.45594000000E+02  0.51100000000E-03 0.  1.
    9900012    2    1    2    0    0 -0.59528955965E+00  0.87059060079E+01 -0.16568993616E+02  0.72461582336E+02  0.70000015686E+02 0.  0.
         12    1    1    2    0    0  0.59528955965E+00 -0.87059060079E+01  0.16568993616E+02  0.18726417664E+02  0.00000000000E+00 0. -1.
         11    1    3    3    0    0 -0.19616794363E+01  0.92929396362E+01  0.12311765808E+02  0.15549485229E+02  0.51100000000E-03 0. -1.
        -11    1    3    3    0    0 -0.40112227401E+01 -0.73582222616E+01 -0.41098417640E+02  0.41944168552E+02  0.51100000000E-03 0.  1.
        -12    1    3    3    0    0  0.53776126168E+01  0.67711886333E+01  0.12217658216E+02  0.14967928555E+02  0.00000000000E+00 0.  1.
</event>
<event>
 7    1  0.1339094E-013  0.7246155E+02  0.7816164E-02  0.1226708E+00
        -11   -1    0    0    0    0  0.00000000000E+00  0.00000000000E+00  0.45593999997E+02  0.45594000000E+02  0.51100000000E-03 0.  1.
         11   -1    0    0    0    0 -0.00000000000E+00 -0.00000000000E+00 -0.45593999997E+02  0.45594000000E+02  0.51100000000E-03 0. -1.
    9900012    2    1    2    0    0 -0.75244255332E+00  0.77827206880E+01  0.17015958480E+02  0.72461554686E+02  0.69999979667E+02 0.  0.
         12    1    1    2    0    0  0.75244255332E+00 -0.77827206880E+01 -0.17015958480E+02  0.18726445314E+02  0.00000000000E+00 0. -1.
         11    1    3    3    0    0 -0.52083008640E+01  0.32007801646E+01 -0.13801035169E+02  0.15094368604E+02  0.51100000000E-03 0. -1.
        -11    1    3    3    0    0 -0.60632234334E+01  0.72909889793E+01  0.41238083029E+02  0.42314308346E+02  0.51100000000E-03 0.  1.
        -12    1    3    3    0    0  0.10519081744E+02 -0.27090484560E+01 -0.10421089380E+02  0.15052877736E+02  0.00000000000E+00 0.  1.
</event>
<event>
 7    1  0.1339094E-013  0.7246153E+02  0.7816164E-02  0.1226708E+00
        -11   -1    0    0    0    0  0.00000000000E+00  0.00000000000E+00  0.45593999997E+02  0.45594000000E+02  0.51100000000E-03 0. -1.
         11   -1    0    0    0    0 -0.00000000000E+00 -0.00000000000E+00 -0.45593999997E+02  0.45594000000E+02  0.51100000000E-03 0.  1.
    9900012    2    1    2    0    0  0.72796032606E+00  0.16425616597E+02 -0.89637998968E+01  0.72461534359E+02  0.69999953187E+02 0.  0.
         12    1    1    2    0    0 -0.72796032606E+00 -0.16425616597E+02  0.89637998968E+01  0.18726465641E+02  0.00000000000E+00 0. -1.
         11    1    3    3    0    0 -0.20178656871E+01  0.18213982233E+02  0.18162586625E+02  0.25801172142E+02  0.51100000000E-03 0. -1.
        -11    1    3    3    0    0  0.65155649323E+01  0.11729133038E+02 -0.29518357165E+02  0.32424659724E+02  0.51100000000E-03 0.  1.
        -12    1    3    3    0    0 -0.37697389191E+01 -0.13517498674E+02  0.23919706428E+01  0.14235702493E+02  0.00000000000E+00 0.  1.
</event>
<event>
 7    1  0.1339094E-013  0.7246169E+02  0.7816164E-02  0.1226708E+00
        -11   -1    0    0    0    0  0.00000000000E+00  0.00000000000E+00  0.45593999997E+02  0.45594000000E+02  0.51100000000E-03 0.  1.
         11   -1    0    0    0    0 -0.00000000000E+00 -0.00000000000E+00 -0.45593999997E+02  0.45594000000E+02  0.51100000000E-03 0. -1.
    9900012    2    1    2    0    0  0.14696824943E+02 -0.62993601464E+01  0.97465920107E+01  0.72461690767E+02  0.70000156938E+02 0.  0.
         12    1    1    2    0    0 -0.14696824943E+02  0.62993601464E+01 -0.97465920107E+01  0.18726309233E+02  0.00000000000E+00 0. -1.
         11    1    3    3    0    0  0.67401088942E+01 -0.88717679093E+01 -0.25401409127E+02  0.27737500242E+02  0.51100000000E-03 0. -1.
        -11    1    3    3    0    0  0.64251972967E+01  0.14372759251E+02  0.20705757939E+02  0.26011301023E+02  0.51100000000E-03 0.  1.
        -12    1    3    3    0    0  0.15315187519E+01 -0.11800351488E+02  0.14442243199E+02  0.18712889503E+02  0.00000000000E+00 0.  1.
</event>
<event>
 7    1  0.1339094E-013  0.7246159E+02  0.7816164E-02  0.1226708E+00
        -11   -1    0    0    0    0  0.00000000000E+00  0.00000000000E+00  0.45593999997E+02  0.45594000000E+02  0.51100000000E-03 0. -1.
         11   -1    0    0    0    0 -0.00000000000E+00 -0.00000000000E+00 -0.45593999997E+02  0.45594000000E+02  0.51100000000E-03 0.  1.
    9900012    2    1    2    0    0  0.59489493411E+01 -0.13191443752E+02 -0.11885883581E+02  0.72461590439E+02  0.70000026242E+02 0.  0.
         12    1    1    2    0    0 -0.59489493411E+01  0.13191443752E+02  0.11885883581E+02  0.18726409561E+02  0.00000000000E+00 0. -1.
         11    1    3    3    0    0  0.21837080552E+02  0.12165126056E+02  0.17223349200E+02  0.30356088960E+02  0.51100000000E-03 0. -1.
        -11    1    3    3    0    0 -0.93606750638E+01 -0.10051287054E+02 -0.14348510121E+02  0.19862788123E+02  0.51100000000E-03 0.  1.
         12    1    3    3    0    0 -0.65274561473E+01 -0.15305282754E+02 -0.14760722661E+02  0.22242713356E+02  0.00000000000E+00 0. -1.
</event>
<event>
 7    1  0.1339094E-013  0.7246159E+02  0.7816164E-02  0.1226708E+00
        -11   -1    0    0    0    0  0.00000000000E+00  0.00000000000E+00  0.45593999997E+02  0.45594000000E+02  0.51100000000E-03 0.  1.
         11   -1    0    0    0    0 -0.00000000000E+00 -0.00000000000E+00 -0.45593999997E+02  0.45594000000E+02  0.51100000000E-03 0. -1.
    9900012    2    1    2    0    0 -0.10955785703E+01 -0.17829246066E+02 -0.56210399978E+01  0.72461590885E+02  0.70000026823E+02 0.  0.
         12    1    1    2    0    0  0.10955785703E+01  0.17829246066E+02  0.56210399978E+01  0.18726409115E+02  0.00000000000E+00 0. -1.
         11    1    3    3    0    0  0.18460060995E+02 -0.67818106256E+01 -0.95103018546E+01  0.21845197388E+02  0.51100000000E-03 0. -1.
        -11    1    3    3    0    0 -0.10458572664E+02  0.14140027047E+02  0.13492293917E+02  0.22166734141E+02  0.51100000000E-03 0.  1.
        -12    1    3    3    0    0 -0.90970669010E+01 -0.25187462487E+02 -0.96030320601E+01  0.28449659356E+02  0.00000000000E+00 0.  1.
</event>
<event>
 7    1  0.1339094E-013  0.7246160E+02  0.7816164E-02  0.1226708E+00
        -11   -1    0    0    0    0  0.00000000000E+00  0.00000000000E+00  0.45593999997E+02  0.45594000000E+02  0.51100000000E-03 0. -1.
         11   -1    0    0    0    0 -0.00000000000E+00 -0.00000000000E+00 -0.45593999997E+02  0.45594000000E+02  0.51100000000E-03 0.  1.
    9900012    2    1    2    0    0  0.48788710826E+00 -0.18016725315E+02 -0.50830720093E+01  0.72461600294E+02  0.70000039080E+02 0.  0.
         12    1    1    2    0    0 -0.48788710826E+00  0.18016725315E+02  0.50830720093E+01  0.18726399706E+02  0.00000000000E+00 0. -1.
         11    1    3    3    0    0 -0.66836270468E+01  0.11291197245E+02 -0.92024765848E+01  0.16026465027E+02  0.51100000000E-03 0. -1.
        -11    1    3    3    0    0  0.25468144370E+02 -0.16090762486E+02  0.12142415112E+02  0.32480413483E+02  0.51100000000E-03 0.  1.
        -12    1    3    3    0    0 -0.18296630215E+02 -0.13217160074E+02 -0.80230105361E+01  0.23954721783E+02  0.00000000000E+00 0.  1.
</event>
<event>
 7    1  0.1339094E-013  0.7246158E+02  0.7816164E-02  0.1226708E+00
        -11   -1    0    0    0    0  0.00000000000E+00  0.00000000000E+00  0.45593999997E+02  0.45594000000E+02  0.51100000000E-03 0. -1.
         11   -1    0    0    0    0 -0.00000000000E+00 -0.00000000000E+00 -0.45593999997E+02  0.45594000000E+02  0.51100000000E-03 0.  1.
    9900012    2    1    2    0    0  0.15628762927E+02  0.10314847036E+02 -0.15641398051E+00  0.72461581086E+02  0.70000014058E+02 0.  0.
         12    1    1    2    0    0 -0.15628762927E+02 -0.10314847036E+02  0.15641398051E+00  0.18726418914E+02  0.00000000000E+00 0. -1.
         11    1    3    3    0    0  0.40842717398E+02  0.43191162876E+01  0.52415438941E+01  0.41403576085E+02  0.51100000000E-03 0. -1.
        -11    1    3    3    0    0 -0.21727849905E+02 -0.19253071625E+01 -0.50864052831E+01  0.22398164839E+02  0.51100000000E-03 0.  1.
         12    1    3    3    0    0 -0.34861045653E+01  0.79210379109E+01 -0.31155259155E+00  0.86598401627E+01  0.00000000000E+00 0. -1.
</event>
<event>
 7    1  0.1339094E-013  0.7246156E+02  0.7816164E-02  0.1226708E+00
        -11   -1    0    0    0    0  0.00000000000E+00  0.00000000000E+00  0.45593999997E+02  0.45594000000E+02  0.51100000000E-03 0.  1.
         11   -1    0    0    0    0 -0.00000000000E+00 -0.00000000000E+00 -0.45593999997E+02  0.45594000000E+02  0.51100000000E-03 0. -1.
    9900012    2    1    2    0    0  0.85872755428E+01 -0.11728043929E+02  0.11806401427E+02  0.72461563331E+02  0.69999990929E+02 0.  0.
         12    1    1    2    0    0 -0.85872755428E+01  0.11728043929E+02 -0.11806401427E+02  0.18726436669E+02  0.00000000000E+00 0. -1.
         11    1    3    3    0    0  0.21092911519E+01  0.22158406773E+02  0.50284118715E+00  0.22264252725E+02  0.51100000000E-03 0. -1.
        -11    1    3    3    0    0  0.16246966746E+02 -0.25146929931E+02  0.18550086207E+02  0.35219848267E+02  0.51100000000E-03 0.  1.
        -12    1    3    3    0    0 -0.97689823549E+01 -0.87395207701E+01 -0.72465259669E+01  0.14977462339E+02  0.00000000000E+00 0.  1.
</event>
<event>
 7    1  0.1339094E-013  0.7246156E+02  0.7816164E-02  0.1226708E+00
        -11   -1    0    0    0    0  0.00000000000E+00  0.00000000000E+00  0.45593999997E+02  0.45594000000E+02  0.51100000000E-03 0.  1.
         11   -1    0    0    0    0 -0.00000000000E+00 -0.00000000000E+00 -0.45593999997E+02  0.45594000000E+02  0.51100000000E-03 0. -1.
    9900012    2    1    2    0    0 -0.14040410607E+02 -0.10879728096E+01  0.12343524448E+02  0.72461563856E+02  0.69999991613E+02 0.  0.
         12    1    1    2    0    0  0.14040410607E+02  0.10879728096E+01 -0.12343524448E+02  0.18726436144E+02  0.00000000000E+00 0. -1.
         11    1    3    3    0    0  0.12573745411E+02 -0.14543767894E+01 -0.17515274665E+02  0.21610162710E+02  0.51100000000E-03 0. -1.
        -11    1    3    3    0    0 -0.27737265550E+02  0.96708450871E+01  0.14258725169E+02  0.32652601559E+02  0.51100000000E-03 0.  1.
         12    1    3    3    0    0  0.11231095317E+01 -0.93044411072E+01  0.15600073944E+02  0.18198799587E+02  0.00000000000E+00 0. -1.
</event>
<event>
 7    1  0.1339094E-013  0.7246156E+02  0.7816164E-02  0.1226708E+00
        -11   -1    0    0    0    0  0.00000000000E+00  0.00000000000E+00  0.45593999997E+02  0.45594000000E+02  0.51100000000E-03 0. -1.
         11   -1    0    0    0    0 -0.00000000000E+00 -0.00000000000E+00 -0.45593999997E+02  0.45594000000E+02  0.51100000000E-03 0.  1.
    9900012    2    1    2    0    0 -0.82335529789E+01 -0.15426126295E+02 -0.67024401938E+01  0.72461562226E+02  0.69999989490E+02 0.  0.
         12    1    1    2    0    0  0.82335529789E+01  0.15426126295E+02  0.67024401938E+01  0.18726437774E+02  0.00000000000E+00 0. -1.
         11    1    3    3    0    0 -0.18206318290E+02 -0.18943329804E+02  0.11221020600E+02  0.28569758019E+02  0.51100000000E-03 0. -1.
        -11    1    3    3    0    0  0.90761294890E+01 -0.57784526810E+01 -0.28094127629E+02  0.30083993242E+02  0.51100000000E-03 0.  1.
         12    1    3    3    0    0  0.89663582175E+00  0.92956561893E+01  0.10170666835E+02  0.13807810965E+02  0.00000000000E+00 0. -1.
</event>
<event>
 7    1  0.1339094E-013  0.7246155E+02  0.7816164E-02  0.1226708E+00
        -11   -1    0    0    0    0  0.00000000000E+00  0.00000000000E+00  0.45593999997E+02  0.45594000000E+02  0.51100000000E-03 0.  1.
         11   -1    0    0    0    0 -0.00000000000E+00 -0.00000000000E+00 -0.45593999997E+02  0.45594000000E+02  0.51100000000E-03 0. -1.
    9900012    2    1    2    0    0 -0.11577407168E+02 -0.75474665025E+01  0.12636435406E+02  0.72461545261E+02  0.69999967389E+02 0.  0.
         12    1    1    2    0    0  0.11577407168E+02  0.75474665025E+01 -0.12636435406E+02  0.18726454739E+02  0.00000000000E+00 0. -1.
         11    1    3    3    0    0 -0.23197848742E+01  0.76567668407E+01 -0.17127650138E+02  0.18904070456E+02  0.51100000000E-03 0. -1.
        -11    1    3    3    0    0 -0.18836179756E+02 -0.18338325747E+02  0.33697401844E+02  0.42738866975E+02  0.51100000000E-03 0.  1.
        -12    1    3    3    0    0  0.95785574624E+01  0.31340924042E+01 -0.39333162997E+01  0.10818607830E+02  0.00000000000E+00 0.  1.
</event>
<event>
 7    1  0.1339094E-013  0.7246156E+02  0.7816164E-02  0.1226708E+00
        -11   -1    0    0    0    0  0.00000000000E+00  0.00000000000E+00  0.45593999997E+02  0.45594000000E+02  0.51100000000E-03 0. -1.
         11   -1    0    0    0    0 -0.00000000000E+00 -0.00000000000E+00 -0.45593999997E+02  0.45594000000E+02  0.51100000000E-03 0.  1.
    9900012    2    1    2    0    0  0.14786771809E+02  0.76396300652E+00 -0.11465046123E+02  0.72461560333E+02  0.69999987023E+02 0.  0.
         12    1    1    2    0    0 -0.14786771809E+02 -0.76396300652E+00  0.11465046123E+02  0.18726439667E+02  0.00000000000E+00 0. -1.
         11    1    3    3    0    0 -0.12513285550E+02 -0.15899946677E+02  0.70702085911E+01  0.21433116184E+02  0.51100000000E-03 0. -1.
        -11    1    3    3    0    0  0.25407081921E+02  0.85437476052E+01 -0.27763200385E+02  0.38591588860E+02  0.51100000000E-03 0.  1.
        -12    1    3    3    0    0  0.18929754381E+01  0.81201620780E+01  0.92279456708E+01  0.12436855289E+02  0.00000000000E+00 0.  1.
</event>
<event>
 7    1  0.1339094E-013  0.7246157E+02  0.7816164E-02  0.1226708E+00
        -11   -1    0    0    0    0  0.00000000000E+00  0.00000000000E+00  0.45593999997E+02  0.45594000000E+02  0.51100000000E-03 0.  1.
         11   -1    0    0    0    0 -0.00000000000E+00 -0.00000000000E+00 -0.45593999997E+02  0.45594000000E+02  0.51100000000E-03 0. -1.
    9900012    2    1    2    0    0  0.56077926873E-01  0.12386379577E+02  0.14044701406E+02  0.72461569979E+02  0.69999999589E+02 0.  0.
         12    1    1    2    0    0 -0.56077926873E-01 -0.12386379577E+02 -0.14044701406E+02  0.18726430021E+02  0.00000000000E+00 0. -1.
         11    1    3    3    0    0  0.81197280705E+01 -0.14374414899E+02 -0.19866546268E+01  0.16628306724E+02  0.51100000000E-03 0. -1.
        -11    1    3    3    0    0  0.76673675660E+00  0.33543371155E+02  0.24748614244E+02  0.41692200002E+02  0.51100000000E-03 0.  1.
        -12    1    3    3    0    0 -0.88303869002E+01 -0.67825766792E+01 -0.87172582116E+01  0.14141063254E+02  0.00000000000E+00 0.  1.
</event>
<event>
 7    1  0.1339094E-013  0.7246157E+02  0.7816164E-02  0.1226708E+00
        -11   -1    0    0    0    0  0.00000000000E+00  0.00000000000E+00  0.45593999997E+02  0.45594000000E+02  0.51100000000E-03 0.  1.
         11   -1    0    0    0    0 -0.00000000000E+00 -0.00000000000E+00 -0.45593999997E+02  0.45594000000E+02  0.51100000000E-03 0. -1.
    9900012    2    1    2    0    0 -0.16435804049E+02  0.27871139859E+01  0.85308660354E+01  0.72461565892E+02  0.69999994265E+02 0.  0.
         12    1    1    2    0    0  0.16435804049E+02 -0.27871139859E+01 -0.85308660354E+01  0.18726434108E+02  0.00000000000E+00 0. -1.
         11    1    3    3    0    0 -0.27836412145E+02  0.15806012751E+02  0.28032393864E+02  0.42550099721E+02  0.51100000000E-03 0. -1.
        -11    1    3    3    0    0  0.10862946518E+02 -0.23460389047E+01 -0.58016609473E+01  0.12536617391E+02  0.51100000000E-03 0.  1.
         12    1    3    3    0    0  0.53766157875E+00 -0.10672859861E+02 -0.13699866882E+02  0.17374848781E+02  0.00000000000E+00 0. -1.
</event>
<event>
 7    1  0.1339094E-013  0.7246160E+02  0.7816164E-02  0.1226708E+00
        -11   -1    0    0    0    0  0.00000000000E+00  0.00000000000E+00  0.45593999997E+02  0.45594000000E+02  0.51100000000E-03 0. -1.
         11   -1    0    0    0    0 -0.00000000000E+00 -0.00000000000E+00 -0.45593999997E+02  0.45594000000E+02  0.51100000000E-03 0.  1.
    9900012    2    1    2    0    0 -0.11011306968E+02  0.10655298571E+02 -0.10765404346E+02  0.72461596194E+02  0.70000033739E+02 0.  0.
         12    1    1    2    0    0  0.11011306968E+02 -0.10655298571E+02  0.10765404346E+02  0.18726403806E+02  0.00000000000E+00 0. -1.
         11    1    3    3    0    0  0.14857000640E+02  0.21038695959E+02  0.69262658961E+01  0.26670777176E+02  0.51100000000E-03 0. -1.
        -11    1    3    3    0    0 -0.20976693157E+02  0.27170151312E+01 -0.22615376149E+02  0.30965449547E+02  0.51100000000E-03 0.  1.
         12    1    3    3    0    0 -0.48916144500E+01 -0.13100412519E+02  0.49237059074E+01  0.14825369471E+02  0.00000000000E+00 0. -1.
</event>
<event>
 7    1  0.1339094E-013  0.7246158E+02  0.7816164E-02  0.1226708E+00
        -11   -1    0    0    0    0  0.00000000000E+00  0.00000000000E+00  0.45593999997E+02  0.45594000000E+02  0.51100000000E-03 0.  1.
         11   -1    0    0    0    0 -0.00000000000E+00 -0.00000000000E+00 -0.45593999997E+02  0.45594000000E+02  0.51100000000E-03 0. -1.
    9900012    2    1    2    0    0  0.64780859799E+01  0.47988270053E+01  0.16902205916E+02  0.72461577399E+02  0.70000009256E+02 0.  0.
         12    1    1    2    0    0 -0.64780859799E+01 -0.47988270053E+01 -0.16902205916E+02  0.18726422601E+02  0.00000000000E+00 0. -1.
         11    1    3    3    0    0 -0.88938679685E+01 -0.15045295517E+02 -0.13166960922E+02  0.21882199726E+02  0.51100000000E-03 0. -1.
        -11    1    3    3    0    0  0.15657942888E+02  0.58442454472E+00  0.26796742432E+02  0.31041554935E+02  0.51100000000E-03 0.  1.
         12    1    3    3    0    0 -0.28598893977E+00  0.19259697978E+02  0.32724244057E+01  0.19537822739E+02  0.00000000000E+00 0. -1.
</event>
<event>
 7    1  0.1339094E-013  0.7246158E+02  0.7816164E-02  0.1226708E+00
        -11   -1    0    0    0    0  0.00000000000E+00  0.00000000000E+00  0.45593999997E+02  0.45594000000E+02  0.51100000000E-03 0. -1.
         11   -1    0    0    0    0 -0.00000000000E+00 -0.00000000000E+00 -0.45593999997E+02  0.45594000000E+02  0.51100000000E-03 0.  1.
    9900012    2    1    2    0    0  0.17923620743E+02 -0.80914912325E+00 -0.53635711072E+01  0.72461580218E+02  0.70000012928E+02 0.  0.
         12    1    1    2    0    0 -0.17923620743E+02  0.80914912325E+00  0.53635711072E+01  0.18726419782E+02  0.00000000000E+00 0. -1.
         11    1    3    3    0    0  0.65282251449E+01 -0.31801821207E+02 -0.10570202070E+02  0.34142389016E+02  0.51100000000E-03 0. -1.
        -11    1    3    3    0    0  0.38629330895E+01  0.13340479560E+02 -0.70215197156E+01  0.15562531488E+02  0.51100000000E-03 0.  1.
         12    1    3    3    0    0  0.75324625081E+01  0.17652192524E+02  0.12228150678E+02  0.22756659714E+02  0.00000000000E+00 0. -1.
</event>
<event>
 7    1  0.1339094E-013  0.7246156E+02  0.7816164E-02  0.1226708E+00
        -11   -1    0    0    0    0  0.00000000000E+00  0.00000000000E+00  0.45593999997E+02  0.45594000000E+02  0.51100000000E-03 0. -1.
         11   -1    0    0    0    0 -0.00000000000E+00 -0.00000000000E+00 -0.45593999997E+02  0.45594000000E+02  0.51100000000E-03 0.  1.
    9900012    2    1    2    0    0 -0.12403746228E+02  0.13441633661E+02 -0.40186081879E+01  0.72461557526E+02  0.69999983367E+02 0.  0.
         12    1    1    2    0    0  0.12403746228E+02 -0.13441633661E+02  0.40186081879E+01  0.18726442474E+02  0.00000000000E+00 0. -1.
         11    1    3    3    0    0  0.85681421470E+01 -0.73332741966E+01  0.22595863540E+01  0.11501986830E+02  0.51100000000E-03 0. -1.
        -11    1    3    3    0    0 -0.33587155360E+02  0.15822375390E+02 -0.19576375391E+02  0.41972360451E+02  0.51100000000E-03 0.  1.
        -12    1    3    3    0    0  0.12615266985E+02  0.49525324682E+01  0.13298180849E+02  0.18987210244E+02  0.00000000000E+00 0.  1.
</event>
<event>
 7    1  0.1339094E-013  0.7246153E+02  0.7816164E-02  0.1226708E+00
        -11   -1    0    0    0    0  0.00000000000E+00  0.00000000000E+00  0.45593999997E+02  0.45594000000E+02  0.51100000000E-03 0.  1.
         11   -1    0    0    0    0 -0.00000000000E+00 -0.00000000000E+00 -0.45593999997E+02  0.45594000000E+02  0.51100000000E-03 0. -1.
    9900012    2    1    2    0    0  0.12972447828E+02 -0.60548690943E+01  0.12072073242E+02  0.72461526900E+02  0.69999943471E+02 0.  0.
         12    1    1    2    0    0 -0.12972447828E+02  0.60548690943E+01 -0.12072073242E+02  0.18726473100E+02  0.00000000000E+00 0. -1.
         11    1    3    3    0    0  0.20456466419E+02 -0.16456294195E+02  0.34837822334E+02  0.43622820888E+02  0.51100000000E-03 0.  1.
        -11    1    3    3    0    0 -0.10860349165E+02  0.72940339263E+01 -0.16076477115E+02  0.20726872210E+02  0.51100000000E-03 0. -1.
        -12    1    3    3    0    0  0.33763305747E+01  0.31073911746E+01 -0.66892719768E+01  0.81118338026E+01  0.00000000000E+00 0.  1.
</event>
<event>
 7    1  0.1339094E-013  0.7246157E+02  0.7816164E-02  0.1226708E+00
        -11   -1    0    0    0    0  0.00000000000E+00  0.00000000000E+00  0.45593999997E+02  0.45594000000E+02  0.51100000000E-03 0. -1.
         11   -1    0    0    0    0 -0.00000000000E+00 -0.00000000000E+00 -0.45593999997E+02  0.45594000000E+02  0.51100000000E-03 0.  1.
    9900012    2    1    2    0    0 -0.18277915440E+02  0.86209998557E+00 -0.39817023283E+01  0.72461565138E+02  0.69999993283E+02 0.  0.
         12    1    1    2    0    0  0.18277915440E+02 -0.86209998557E+00  0.39817023283E+01  0.18726434862E+02  0.00000000000E+00 0. -1.
         11    1    3    3    0    0  0.91770157485E+00  0.16267123685E+02 -0.82849410757E+01  0.18278450100E+02  0.51100000000E-03 0. -1.
        -11    1    3    3    0    0 -0.10268453612E+02 -0.25501910375E+02 -0.14474582173E+02  0.31069311252E+02  0.51100000000E-03 0.  1.
        -12    1    3    3    0    0 -0.89271634024E+01  0.10096886675E+02  0.18777820920E+02  0.23113803786E+02  0.00000000000E+00 0.  1.
</event>
<event>
 7    1  0.1339094E-013  0.7246155E+02  0.7816164E-02  0.1226708E+00
        -11   -1    0    0    0    0  0.00000000000E+00  0.00000000000E+00  0.45593999997E+02  0.45594000000E+02  0.51100000000E-03 0.  1.
         11   -1    0    0    0    0 -0.00000000000E+00 -0.00000000000E+00 -0.45593999997E+02  0.45594000000E+02  0.51100000000E-03 0. -1.
    9900012    2    1    2    0    0 -0.42788820666E+01  0.17524493365E+02 -0.50262533812E+01  0.72461550190E+02  0.69999973810E+02 0.  0.
         12    1    1    2    0    0  0.42788820666E+01 -0.17524493365E+02  0.50262533812E+01  0.18726449810E+02  0.00000000000E+00 0. -1.
         11    1    3    3    0    0  0.83177069268E+01  0.12291242877E+02  0.25606890378E+02  0.29596819678E+02  0.51100000000E-03 0. -1.
        -11    1    3    3    0    0  0.80692795648E+01  0.45910608008E+01 -0.10286387819E+02  0.13856438453E+02  0.51100000000E-03 0.  1.
         12    1    3    3    0    0 -0.20665868558E+02  0.64218968789E+00 -0.20346755940E+02  0.29008292058E+02  0.00000000000E+00 0. -1.
</event>
<event>
 7    1  0.1339094E-013  0.7246159E+02  0.7816164E-02  0.1226708E+00
        -11   -1    0    0    0    0  0.00000000000E+00  0.00000000000E+00  0.45593999997E+02  0.45594000000E+02  0.51100000000E-03 0.  1.
         11   -1    0    0    0    0 -0.00000000000E+00 -0.00000000000E+00 -0.45593999997E+02  0.45594000000E+02  0.51100000000E-03 0. -1.
    9900012    2    1    2    0    0 -0.80766250865E+01 -0.99436276607E+01  0.13659099687E+02  0.72461585284E+02  0.70000019527E+02 0.  0.
         12    1    1    2    0    0  0.80766250865E+01  0.99436276607E+01 -0.13659099687E+02  0.18726414716E+02  0.00000000000E+00 0. -1.
         11    1    3    3    0    0 -0.27130940579E+02  0.10418412451E+02 -0.10098934114E+02  0.30767185851E+02  0.51100000000E-03 0. -1.
        -11    1    3    3    0    0  0.11785663840E+02 -0.18048073642E+02  0.60115898936E+01  0.22377981313E+02  0.51100000000E-03 0.  1.
         12    1    3    3    0    0  0.72686516521E+01 -0.23139664701E+01  0.17746443907E+02  0.19316418121E+02  0.00000000000E+00 0. -1.
</event>
<event>
 7    1  0.1339094E-013  0.7246157E+02  0.7816164E-02  0.1226708E+00
        -11   -1    0    0    0    0  0.00000000000E+00  0.00000000000E+00  0.45593999997E+02  0.45594000000E+02  0.51100000000E-03 0. -1.
         11   -1    0    0    0    0 -0.00000000000E+00 -0.00000000000E+00 -0.45593999997E+02  0.45594000000E+02  0.51100000000E-03 0.  1.
    9900012    2    1    2    0    0 -0.14254302907E+02 -0.26212865273E+01 -0.11858452894E+02  0.72461569495E+02  0.69999998958E+02 0.  0.
         12    1    1    2    0    0  0.14254302907E+02  0.26212865273E+01  0.11858452894E+02  0.18726430505E+02  0.00000000000E+00 0. -1.
         11    1    3    3    0    0 -0.18052794604E+02  0.17179849578E+02 -0.12953604444E+02  0.28086411179E+02  0.51100000000E-03 0. -1.
        -11    1    3    3    0    0  0.18997364751E+02 -0.14932880515E+02  0.99402033675E+01  0.26128498449E+02  0.51100000000E-03 0.  1.
         12    1    3    3    0    0 -0.15198873055E+02 -0.48682555905E+01 -0.88450518176E+01  0.18246659867E+02  0.00000000000E+00 0. -1.
</event>
<event>
 7    1  0.1339094E-013  0.7246154E+02  0.7816164E-02  0.1226708E+00
        -11   -1    0    0    0    0  0.00000000000E+00  0.00000000000E+00  0.45593999997E+02  0.45594000000E+02  0.51100000000E-03 0. -1.
         11   -1    0    0    0    0 -0.00000000000E+00 -0.00000000000E+00 -0.45593999997E+02  0.45594000000E+02  0.51100000000E-03 0.  1.
    9900012    2    1    2    0    0  0.18686209099E+02 -0.53503686198E+00 -0.11044456572E+01  0.72461535434E+02  0.69999954588E+02 0.  0.
         12    1    1    2    0    0 -0.18686209099E+02  0.53503686198E+00  0.11044456572E+01  0.18726464566E+02  0.00000000000E+00 0. -1.
         11    1    3    3    0    0  0.11143313232E+02 -0.61259250734E+01 -0.33791736062E+02  0.36105149413E+02  0.51100000000E-03 0.  1.
        -11    1    3    3    0    0  0.91941521304E+01  0.85253757554E+01  0.25213308083E+02  0.28158930553E+02  0.51100000000E-03 0. -1.
        -12    1    3    3    0    0 -0.16512562628E+01 -0.29344875439E+01  0.74739823220E+01  0.81974554674E+01  0.00000000000E+00 0.  1.
</event>
<event>
 7    1  0.1339094E-013  0.7246154E+02  0.7816164E-02  0.1226708E+00
        -11   -1    0    0    0    0  0.00000000000E+00  0.00000000000E+00  0.45593999997E+02  0.45594000000E+02  0.51100000000E-03 0.  1.
         11   -1    0    0    0    0 -0.00000000000E+00 -0.00000000000E+00 -0.45593999997E+02  0.45594000000E+02  0.51100000000E-03 0. -1.
    9900012    2    1    2    0    0 -0.64579042950E+01 -0.15559700724E+02 -0.81774994447E+01  0.72461539798E+02  0.69999960273E+02 0.  0.
         12    1    1    2    0    0  0.64579042950E+01  0.15559700724E+02  0.81774994447E+01  0.18726460202E+02  0.00000000000E+00 0. -1.
         11    1    3    3    0    0 -0.12733524302E+02  0.19899166568E+02 -0.85809210341E+01  0.25134670821E+02  0.51100000000E-03 0. -1.
        -11    1    3    3    0    0  0.11692394441E+02 -0.24619883143E+02  0.12695033561E+02  0.30066835735E+02  0.51100000000E-03 0.  1.
         12    1    3    3    0    0 -0.54167744344E+01 -0.10838984149E+02 -0.12291611971E+02  0.17260033242E+02  0.00000000000E+00 0. -1.
</event>
<event>
 7    1  0.1339094E-013  0.7246154E+02  0.7816164E-02  0.1226708E+00
        -11   -1    0    0    0    0  0.00000000000E+00  0.00000000000E+00  0.45593999997E+02  0.45594000000E+02  0.51100000000E-03 0. -1.
         11   -1    0    0    0    0 -0.00000000000E+00 -0.00000000000E+00 -0.45593999997E+02  0.45594000000E+02  0.51100000000E-03 0.  1.
    9900012    2    1    2    0    0  0.83719084029E+01 -0.16747583274E+02  0.33151553744E+00  0.72461540154E+02  0.69999960737E+02 0.  0.
         12    1    1    2    0    0 -0.83719084029E+01  0.16747583274E+02 -0.33151553744E+00  0.18726459846E+02  0.00000000000E+00 0. -1.
         11    1    3    3    0    0  0.16458912685E+02 -0.23604311122E+02  0.10336753844E+02  0.30576261881E+02  0.51100000000E-03 0. -1.
        -11    1    3    3    0    0 -0.19118034297E+01  0.19306950137E+02 -0.17471853971E+02  0.26108983078E+02  0.51100000000E-03 0.  1.
         12    1    3    3    0    0 -0.61752008521E+01 -0.12450222288E+02  0.74666156644E+01  0.15776295195E+02  0.00000000000E+00 0. -1.
</event>
<event>
 7    1  0.1339094E-013  0.7246158E+02  0.7816164E-02  0.1226708E+00
        -11   -1    0    0    0    0  0.00000000000E+00  0.00000000000E+00  0.45593999997E+02  0.45594000000E+02  0.51100000000E-03 0.  1.
         11   -1    0    0    0    0 -0.00000000000E+00 -0.00000000000E+00 -0.45593999997E+02  0.45594000000E+02  0.51100000000E-03 0. -1.
    9900012    2    1    2    0    0 -0.13898382935E+02  0.12507988597E+02 -0.10314792723E+01  0.72461580789E+02  0.70000013672E+02 0.  0.
         12    1    1    2    0    0  0.13898382935E+02 -0.12507988597E+02  0.10314792723E+01  0.18726419211E+02  0.00000000000E+00 0. -1.
         11    1    3    3    0    0  0.16780090873E+02 -0.77747680004E+01  0.21109725210E+02  0.28064906304E+02  0.51100000000E-03 0. -1.
        -11    1    3    3    0    0 -0.97433120870E+01  0.73680218302E+01 -0.13783242362E+02  0.18417319196E+02  0.51100000000E-03 0.  1.
         12    1    3    3    0    0 -0.20935161721E+02  0.12914734767E+02 -0.83579621207E+01  0.25979355289E+02  0.00000000000E+00 0. -1.
</event>
<event>
 7    1  0.1339094E-013  0.7246157E+02  0.7816164E-02  0.1226708E+00
        -11   -1    0    0    0    0  0.00000000000E+00  0.00000000000E+00  0.45593999997E+02  0.45594000000E+02  0.51100000000E-03 0.  1.
         11   -1    0    0    0    0 -0.00000000000E+00 -0.00000000000E+00 -0.45593999997E+02  0.45594000000E+02  0.51100000000E-03 0. -1.
    9900012    2    1    2    0    0  0.18497204948E+02 -0.17991168169E+01 -0.23012819240E+01  0.72461566525E+02  0.69999995090E+02 0.  0.
         12    1    1    2    0    0 -0.18497204948E+02  0.17991168169E+01  0.23012819240E+01  0.18726433475E+02  0.00000000000E+00 0. -1.
         11    1    3    3    0    0  0.14220675466E+02 -0.15838390518E+02  0.17374903205E+02  0.27476708074E+02  0.51100000000E-03 0. -1.
        -11    1    3    3    0    0 -0.15987060961E+02  0.55095341632E+01 -0.25179161256E+01  0.17096227266E+02  0.51100000000E-03 0.  1.
         12    1    3    3    0    0  0.20263590442E+02  0.85297395380E+01 -0.17158269003E+02  0.27888631185E+02  0.00000000000E+00 0. -1.
</event>
<event>
 7    1  0.1339094E-013  0.7246152E+02  0.7816164E-02  0.1226708E+00
        -11   -1    0    0    0    0  0.00000000000E+00  0.00000000000E+00  0.45593999997E+02  0.45594000000E+02  0.51100000000E-03 0.  1.
         11   -1    0    0    0    0 -0.00000000000E+00 -0.00000000000E+00 -0.45593999997E+02  0.45594000000E+02  0.51100000000E-03 0. -1.
    9900012    2    1    2    0    0 -0.48232854724E+01 -0.29920901900E+01  0.17845568618E+02  0.72461521267E+02  0.69999936132E+02 0.  0.
         12    1    1    2    0    0  0.48232854724E+01  0.29920901900E+01 -0.17845568618E+02  0.18726478733E+02  0.00000000000E+00 0. -1.
         11    1    3    3    0    0 -0.75735497716E+01  0.70121459804E+00 -0.11764850433E+02  0.14009356303E+02  0.51100000000E-03 0. -1.
        -11    1    3    3    0    0  0.26364435806E+02 -0.17936557273E+00  0.13225227522E+02  0.29496140267E+02  0.51100000000E-03 0.  1.
        -12    1    3    3    0    0 -0.23614171507E+02 -0.35139392153E+01  0.16385191529E+02  0.28956024696E+02  0.00000000000E+00 0.  1.
</event>
<event>
 7    1  0.1339094E-013  0.7246159E+02  0.7816164E-02  0.1226708E+00
        -11   -1    0    0    0    0  0.00000000000E+00  0.00000000000E+00  0.45593999997E+02  0.45594000000E+02  0.51100000000E-03 0.  1.
         11   -1    0    0    0    0 -0.00000000000E+00 -0.00000000000E+00 -0.45593999997E+02  0.45594000000E+02  0.51100000000E-03 0. -1.
    9900012    2    1    2    0    0 -0.12571862749E+02  0.10633230599E+02 -0.89197007020E+01  0.72461591199E+02  0.70000027233E+02 0.  0.
         12    1    1    2    0    0  0.12571862749E+02 -0.10633230599E+02  0.89197007020E+01  0.18726408801E+02  0.00000000000E+00 0. -1.
         11    1    3    3    0    0  0.39633380377E+01 -0.20834675326E+01 -0.15559774958E+02  0.16191216210E+02  0.51100000000E-03 0. -1.
        -11    1    3    3    0    0 -0.19439292695E+02  0.28307470846E+02 -0.73561453220E+01  0.35118540409E+02  0.51100000000E-03 0.  1.
        -12    1    3    3    0    0  0.29040919079E+01 -0.15590772714E+02  0.13996219578E+02  0.21151834580E+02  0.00000000000E+00 0.  1.
</event>
<event>
 7    1  0.1339094E-013  0.7246160E+02  0.7816164E-02  0.1226708E+00
        -11   -1    0    0    0    0  0.00000000000E+00  0.00000000000E+00  0.45593999997E+02  0.45594000000E+02  0.51100000000E-03 0. -1.
         11   -1    0    0    0    0 -0.00000000000E+00 -0.00000000000E+00 -0.45593999997E+02  0.45594000000E+02  0.51100000000E-03 0.  1.
    9900012    2    1    2    0    0  0.85012024081E+01  0.15177291727E+02 -0.69323569522E+01  0.72461596195E+02  0.70000033741E+02 0.  0.
         12    1    1    2    0    0 -0.85012024081E+01 -0.15177291727E+02  0.69323569522E+01  0.18726403805E+02  0.00000000000E+00 0. -1.
         11    1    3    3    0    0 -0.49652000649E+00  0.24207846554E+02  0.18684832847E+02  0.30584135523E+02  0.51100000000E-03 0. -1.
        -11    1    3    3    0    0  0.17657524053E+02  0.30249602082E+01 -0.10875308037E+02  0.20957358257E+02  0.51100000000E-03 0.  1.
         12    1    3    3    0    0 -0.86598016382E+01 -0.12055515035E+02 -0.14741881763E+02  0.20920102416E+02  0.00000000000E+00 0. -1.
</event>
<event>
 7    1  0.1339094E-013  0.7246170E+02  0.7816164E-02  0.1226708E+00
        -11   -1    0    0    0    0  0.00000000000E+00  0.00000000000E+00  0.45593999997E+02  0.45594000000E+02  0.51100000000E-03 0. -1.
         11   -1    0    0    0    0 -0.00000000000E+00 -0.00000000000E+00 -0.45593999997E+02  0.45594000000E+02  0.51100000000E-03 0.  1.
    9900012    2    1    2    0    0  0.18196924967E+01 -0.94035720491E+01 -0.16091480012E+02  0.72461703595E+02  0.70000173649E+02 0.  0.
         12    1    1    2    0    0 -0.18196924967E+01  0.94035720491E+01  0.16091480012E+02  0.18726296405E+02  0.00000000000E+00 0. -1.
         11    1    3    3    0    0 -0.70569389976E+01 -0.11781871515E+02  0.19107503750E+02  0.23531034491E+02  0.51100000000E-03 0. -1.
        -11    1    3    3    0    0 -0.25733376461E+00  0.61764967171E+01 -0.38118596850E+02  0.38616612468E+02  0.51100000000E-03 0.  1.
        -12    1    3    3    0    0  0.91339652589E+01 -0.37981972515E+01  0.29196130883E+01  0.10314056636E+02  0.00000000000E+00 0.  1.
</event>
<event>
 7    1  0.1339094E-013  0.7246152E+02  0.7816164E-02  0.1226708E+00
        -11   -1    0    0    0    0  0.00000000000E+00  0.00000000000E+00  0.45593999997E+02  0.45594000000E+02  0.51100000000E-03 0.  1.
         11   -1    0    0    0    0 -0.00000000000E+00 -0.00000000000E+00 -0.45593999997E+02  0.45594000000E+02  0.51100000000E-03 0. -1.
    9900012    2    1    2    0    0  0.12530738075E+02  0.10321093232E+02  0.93347065368E+01  0.72461518528E+02  0.69999932564E+02 0.  0.
         12    1    1    2    0    0 -0.12530738075E+02 -0.10321093232E+02 -0.93347065368E+01  0.18726481472E+02  0.00000000000E+00 0. -1.
         11    1    3    3    0    0  0.32170210766E+02  0.14371489098E+02  0.22144786093E+02  0.41615546506E+02  0.51100000000E-03 0. -1.
        -11    1    3    3    0    0 -0.59202423372E+01 -0.10142349432E+02 -0.10760584784E+01  0.11792981957E+02  0.51100000000E-03 0.  1.
         12    1    3    3    0    0 -0.13719230354E+02  0.60919535661E+01 -0.11734021078E+02  0.19052990065E+02  0.00000000000E+00 0. -1.
</event>
<event>
 7    1  0.1339094E-013  0.7246157E+02  0.7816164E-02  0.1226708E+00
        -11   -1    0    0    0    0  0.00000000000E+00  0.00000000000E+00  0.45593999997E+02  0.45594000000E+02  0.51100000000E-03 0. -1.
         11   -1    0    0    0    0 -0.00000000000E+00 -0.00000000000E+00 -0.45593999997E+02  0.45594000000E+02  0.51100000000E-03 0.  1.
    9900012    2    1    2    0    0 -0.67346445256E+01 -0.16475641671E+01 -0.17395671409E+02  0.72461567122E+02  0.69999995867E+02 0.  0.
         12    1    1    2    0    0  0.67346445256E+01  0.16475641671E+01  0.17395671409E+02  0.18726432878E+02  0.00000000000E+00 0. -1.
         11    1    3    3    0    0 -0.23522983710E+01 -0.24586401707E+02  0.16010865749E+02  0.29434202534E+02  0.51100000000E-03 0. -1.
        -11    1    3    3    0    0 -0.71637855545E+01  0.85304575196E+01 -0.21164433840E+02  0.23916977004E+02  0.51100000000E-03 0.  1.
         12    1    3    3    0    0  0.27814393998E+01  0.14408380020E+02 -0.12242103319E+02  0.19110387584E+02  0.00000000000E+00 0. -1.
</event>
<event>
 7    1  0.1339094E-013  0.7246158E+02  0.7816164E-02  0.1226708E+00
        -11   -1    0    0    0    0  0.00000000000E+00  0.00000000000E+00  0.45593999997E+02  0.45594000000E+02  0.51100000000E-03 0. -1.
         11   -1    0    0    0    0 -0.00000000000E+00 -0.00000000000E+00 -0.45593999997E+02  0.45594000000E+02  0.51100000000E-03 0.  1.
    9900012    2    1    2    0    0 -0.32083587773E+01  0.18196789779E+02  0.30433958289E+01  0.72461575288E+02  0.70000006506E+02 0.  0.
         12    1    1    2    0    0  0.32083587773E+01 -0.18196789779E+02 -0.30433958289E+01  0.18726424712E+02  0.00000000000E+00 0. -1.
         11    1    3    3    0    0 -0.78118570084E+01 -0.17432482021E+02  0.15763004504E+02  0.24766688325E+02  0.51100000000E-03 0. -1.
        -11    1    3    3    0    0 -0.68456924088E+01  0.30115941572E+02 -0.17938974479E+01  0.30936249120E+02  0.51100000000E-03 0.  1.
         12    1    3    3    0    0  0.11449190640E+02  0.55133302283E+01 -0.10925711227E+02  0.16758637843E+02  0.00000000000E+00 0. -1.
</event>
<event>
 7    1  0.1339094E-013  0.7246155E+02  0.7816164E-02  0.1226708E+00
        -11   -1    0    0    0    0  0.00000000000E+00  0.00000000000E+00  0.45593999997E+02  0.45594000000E+02  0.51100000000E-03 0.  1.
         11   -1    0    0    0    0 -0.00000000000E+00 -0.00000000000E+00 -0.45593999997E+02  0.45594000000E+02  0.51100000000E-03 0. -1.
    9900012    2    1    2    0    0  0.31150370506E+01 -0.17676601485E+02  0.53398615431E+01  0.72461553002E+02  0.69999977473E+02 0.  0.
         12    1    1    2    0    0 -0.31150370506E+01  0.17676601485E+02 -0.53398615431E+01  0.18726446998E+02  0.00000000000E+00 0. -1.
         11    1    3    3    0    0 -0.16566166706E+02 -0.12139537722E+02 -0.10988589329E+02  0.23292817587E+02  0.51100000000E-03 0. -1.
        -11    1    3    3    0    0  0.57636238266E+01 -0.21195383403E+02  0.17649743168E+02  0.28177598751E+02  0.51100000000E-03 0.  1.
         12    1    3    3    0    0  0.13917579930E+02  0.15658319641E+02 -0.13212922960E+01  0.20991136663E+02  0.00000000000E+00 0. -1.
</event>
<event>
 8    1  0.1339094E-013  0.7246153E+02  0.7816164E-02  0.1226708E+00
        -11   -1    0    0    0    0  0.00000000000E+00  0.00000000000E+00  0.45593999997E+02  0.45594000000E+02  0.51100000000E-03 0. -1.
         11   -1    0    0    0    0 -0.00000000000E+00 -0.00000000000E+00 -0.45593999997E+02  0.45594000000E+02  0.51100000000E-03 0.  1.
    9900012    2    1    2    0    0 -0.10813263204E+02  0.30542276660E+01 -0.14980845600E+02  0.72461529360E+02  0.69999946675E+02 0.  0.
        -24    2    3    3    0    0 -0.15090217189E+02 -0.17948975316E+01  0.43346905240E+01  0.52092526277E+02  0.49637742092E+02 0.  0.
         12    1    1    2    0    0  0.10813263204E+02 -0.30542276660E+01  0.14980845600E+02  0.18726470640E+02  0.00000000000E+00 0. -1.
         11    1    4    4    0    0 -0.30583313894E+02  0.73330477401E+01  0.10384162240E+02  0.33120137433E+02  0.51100000000E-03 0. -1.
        -11    1    3    3    0    0  0.42769539847E+01  0.48491251976E+01 -0.19315536124E+02  0.20369003083E+02  0.51100000000E-03 0.  1.
        -12    1    4    4    0    0  0.15493096705E+02 -0.91279452717E+01 -0.60494717158E+01  0.18972388844E+02  0.00000000000E+00 0.  1.
</event>
<event>
 7    1  0.1339094E-013  0.7246164E+02  0.7816164E-02  0.1226708E+00
        -11   -1    0    0    0    0  0.00000000000E+00  0.00000000000E+00  0.45593999997E+02  0.45594000000E+02  0.51100000000E-03 0.  1.
         11   -1    0    0    0    0 -0.00000000000E+00 -0.00000000000E+00 -0.45593999997E+02  0.45594000000E+02  0.51100000000E-03 0. -1.
    9900012    2    1    2    0    0 -0.22793076794E+01 -0.17007332482E+02  0.74987991977E+01  0.72461639140E+02  0.70000089684E+02 0.  0.
         12    1    1    2    0    0  0.22793076794E+01  0.17007332482E+02 -0.74987991977E+01  0.18726360860E+02  0.00000000000E+00 0. -1.
         11    1    3    3    0    0 -0.21420019268E+01  0.81354913639E+01 -0.24049772116E+01  0.87497604331E+01  0.51100000000E-03 0. -1.
        -11    1    3    3    0    0  0.58119573645E+01 -0.43272559824E+02  0.91888732967E+01  0.44617582576E+02  0.51100000000E-03 0.  1.
        -12    1    3    3    0    0 -0.59492631172E+01  0.18129735978E+02  0.71490311254E+00  0.19094296131E+02  0.00000000000E+00 0.  1.
</event>
<event>
 8    1  0.1339094E-013  0.7246108E+02  0.7816164E-02  0.1226709E+00
        -11   -1    0    0    0    0  0.00000000000E+00  0.00000000000E+00  0.45593999997E+02  0.45594000000E+02  0.51100000000E-03 0.  1.
         11   -1    0    0    0    0 -0.00000000000E+00 -0.00000000000E+00 -0.45593999997E+02  0.45594000000E+02  0.51100000000E-03 0. -1.
    9900012    2    1    2    0    0  0.28575395500E+01 -0.98345921200E+01  0.15678423986E+02  0.72461075182E+02  0.69999355021E+02 0.  0.
         24    2    3    3    0    0 -0.86499700433E+01 -0.11651588718E+02  0.20189934273E+02  0.59967957917E+02  0.54570514285E+02 0.  0.
         12    1    1    2    0    0 -0.28575395500E+01  0.98345921200E+01 -0.15678423986E+02  0.18726924818E+02  0.00000000000E+00 0. -1.
         11    1    3    3    0    0  0.11507509593E+02  0.18169965984E+01 -0.45115102867E+01  0.12493117265E+02  0.51100000000E-03 0. -1.
        -11    1    4    4    0    0 -0.15326402332E+02 -0.15365515042E+01  0.36517868762E+02  0.39633500200E+02  0.51100000000E-03 0.  1.
         12    1    4    4    0    0  0.66764322889E+01 -0.10115037214E+02 -0.16327934489E+02  0.20334457716E+02  0.00000000000E+00 0. -1.
</event>
<event>
 7    1  0.1339094E-013  0.7246159E+02  0.7816164E-02  0.1226708E+00
        -11   -1    0    0    0    0  0.00000000000E+00  0.00000000000E+00  0.45593999997E+02  0.45594000000E+02  0.51100000000E-03 0. -1.
         11   -1    0    0    0    0 -0.00000000000E+00 -0.00000000000E+00 -0.45593999997E+02  0.45594000000E+02  0.51100000000E-03 0.  1.
    9900012    2    1    2    0    0  0.69330129636E+00 -0.14759375978E+02 -0.11504719255E+02  0.72461590545E+02  0.70000026380E+02 0.  0.
         12    1    1    2    0    0 -0.69330129636E+00  0.14759375978E+02  0.11504719255E+02  0.18726409455E+02  0.00000000000E+00 0. -1.
         11    1    3    3    0    0 -0.12740672605E+02  0.12975555531E+01 -0.12221868883E+02  0.17702611901E+02  0.51100000000E-03 0. -1.
        -11    1    3    3    0    0  0.30914806186E+02 -0.54491632093E+01 -0.82105451867E+01  0.32447367747E+02  0.51100000000E-03 0.  1.
        -12    1    3    3    0    0 -0.17480832284E+02 -0.10607768322E+02  0.89276948150E+01  0.22311610897E+02  0.00000000000E+00 0.  1.
</event>
<event>
 7    1  0.1339094E-013  0.7246125E+02  0.7816164E-02  0.1226709E+00
        -11   -1    0    0    0    0  0.00000000000E+00  0.00000000000E+00  0.45593999997E+02  0.45594000000E+02  0.51100000000E-03 0.  1.
         11   -1    0    0    0    0 -0.00000000000E+00 -0.00000000000E+00 -0.45593999997E+02  0.45594000000E+02  0.51100000000E-03 0. -1.
    9900012    2    1    2    0    0 -0.91246191922E+01 -0.25933945745E+01  0.16146416798E+02  0.72461250516E+02  0.69999583428E+02 0.  0.
         12    1    1    2    0    0  0.91246191922E+01  0.25933945745E+01 -0.16146416798E+02  0.18726749484E+02  0.00000000000E+00 0. -1.
         11    1    3    3    0    0  0.54236404710E+01 -0.71135210656E+01  0.30674670643E+02  0.31952362624E+02  0.51100000000E-03 0. -1.
        -11    1    3    3    0    0  0.75461505648E+01  0.12176733268E+02 -0.69943309649E+01  0.15941702774E+02  0.51100000000E-03 0.  1.
         12    1    3    3    0    0 -0.22094410228E+02 -0.76566067773E+01 -0.75339228803E+01  0.24567185118E+02  0.00000000000E+00 0. -1.
</event>
<event>
 7    1  0.1339094E-013  0.7246160E+02  0.7816164E-02  0.1226708E+00
        -11   -1    0    0    0    0  0.00000000000E+00  0.00000000000E+00  0.45593999997E+02  0.45594000000E+02  0.51100000000E-03 0. -1.
         11   -1    0    0    0    0 -0.00000000000E+00 -0.00000000000E+00 -0.45593999997E+02  0.45594000000E+02  0.51100000000E-03 0.  1.
    9900012    2    1    2    0    0 -0.10306791481E+02  0.12950723251E+02 -0.87593814297E+01  0.72461602953E+02  0.70000042544E+02 0.  0.
         12    1    1    2    0    0  0.10306791481E+02 -0.12950723251E+02  0.87593814297E+01  0.18726397047E+02  0.00000000000E+00 0. -1.
         11    1    3    3    0    0  0.15255887682E+02  0.91307784518E+01 -0.26523617073E+02  0.31931418493E+02  0.51100000000E-03 0. -1.
        -11    1    3    3    0    0 -0.28708481708E+02  0.29989925438E+01  0.75854165140E+01  0.29844755356E+02  0.51100000000E-03 0.  1.
         12    1    3    3    0    0  0.31458025461E+01  0.82095225520E+00  0.10178819129E+02  0.10685429104E+02  0.00000000000E+00 0. -1.
</event>
<event>
 7    1  0.1339094E-013  0.7246163E+02  0.7816164E-02  0.1226708E+00
        -11   -1    0    0    0    0  0.00000000000E+00  0.00000000000E+00  0.45593999997E+02  0.45594000000E+02  0.51100000000E-03 0.  1.
         11   -1    0    0    0    0 -0.00000000000E+00 -0.00000000000E+00 -0.45593999997E+02  0.45594000000E+02  0.51100000000E-03 0. -1.
    9900012    2    1    2    0    0  0.27664285635E+01  0.45192263987E+00  0.18515390075E+02  0.72461627402E+02  0.70000074393E+02 0.  0.
         12    1    1    2    0    0 -0.27664285635E+01 -0.45192263987E+00 -0.18515390075E+02  0.18726372598E+02  0.00000000000E+00 0. -1.
         11    1    3    3    0    0 -0.12349013506E+02  0.18167989792E+02  0.74922915595E+01  0.23210093079E+02  0.51100000000E-03 0. -1.
        -11    1    3    3    0    0  0.23336998015E+02  0.77090149469E+00 -0.44630945342E+01  0.23772441577E+02  0.51100000000E-03 0.  1.
        -12    1    3    3    0    0 -0.82215559456E+01 -0.18486968647E+02  0.15486193050E+02  0.25479092745E+02  0.00000000000E+00 0.  1.
</event>
<event>
 7    1  0.1339094E-013  0.7246151E+02  0.7816164E-02  0.1226708E+00
        -11   -1    0    0    0    0  0.00000000000E+00  0.00000000000E+00  0.45593999997E+02  0.45594000000E+02  0.51100000000E-03 0. -1.
         11   -1    0    0    0    0 -0.00000000000E+00 -0.00000000000E+00 -0.45593999997E+02  0.45594000000E+02  0.51100000000E-03 0.  1.
    9900012    2    1    2    0    0 -0.90452674095E+01 -0.13296897479E+02 -0.95946354322E+01  0.72461511430E+02  0.69999923318E+02 0.  0.
         12    1    1    2    0    0  0.90452674095E+01  0.13296897479E+02  0.95946354322E+01  0.18726488570E+02  0.00000000000E+00 0. -1.
         11    1    3    3    0    0  0.22123581490E+02  0.15384773817E+01 -0.11532353385E+02  0.24996298635E+02  0.51100000000E-03 0. -1.
        -11    1    3    3    0    0 -0.22839403498E+02 -0.22124309468E+02  0.10483452608E+02  0.33481729352E+02  0.51100000000E-03 0.  1.
        -12    1    3    3    0    0 -0.83294454019E+01  0.72889346072E+01 -0.85457346547E+01  0.13983483443E+02  0.00000000000E+00 0.  1.
</event>
<event>
 7    1  0.1339094E-013  0.7246152E+02  0.7816164E-02  0.1226708E+00
        -11   -1    0    0    0    0  0.00000000000E+00  0.00000000000E+00  0.45593999997E+02  0.45594000000E+02  0.51100000000E-03 0. -1.
         11   -1    0    0    0    0 -0.00000000000E+00 -0.00000000000E+00 -0.45593999997E+02  0.45594000000E+02  0.51100000000E-03 0.  1.
    9900012    2    1    2    0    0 -0.14782544725E+02 -0.46635767375E+01 -0.10507535960E+02  0.72461524398E+02  0.69999940211E+02 0.  0.
         12    1    1    2    0    0  0.14782544725E+02  0.46635767375E+01  0.10507535960E+02  0.18726475602E+02  0.00000000000E+00 0. -1.
         11    1    3    3    0    0 -0.94785011792E+01 -0.79125535475E+01  0.25534991554E+02  0.28363467387E+02  0.51100000000E-03 0. -1.
        -11    1    3    3    0    0  0.90889981348E+01 -0.19049972953E+01 -0.84610044660E+01  0.12562941480E+02  0.51100000000E-03 0.  1.
         12    1    3    3    0    0 -0.14393041681E+02  0.51539741053E+01 -0.27581523048E+02  0.31535115531E+02  0.00000000000E+00 0. -1.
</event>
<event>
 8    1  0.1339094E-013  0.7246167E+02  0.7816164E-02  0.1226708E+00
        -11   -1    0    0    0    0  0.00000000000E+00  0.00000000000E+00  0.45593999997E+02  0.45594000000E+02  0.51100000000E-03 0.  1.
         11   -1    0    0    0    0 -0.00000000000E+00 -0.00000000000E+00 -0.45593999997E+02  0.45594000000E+02  0.51100000000E-03 0. -1.
    9900012    2    1    2    0    0  0.15282313809E+02  0.10746780828E+02 -0.12778993258E+01  0.72461669868E+02  0.70000129713E+02 0.  0.
         24    2    3    3    0    0 -0.36356175270E+00  0.32899515511E+01 -0.13092952105E+02  0.51485655056E+02  0.49682907759E+02 0.  0.
         12    1    1    2    0    0 -0.15282313809E+02 -0.10746780828E+02  0.12778993258E+01  0.18726330132E+02  0.00000000000E+00 0. -1.
         11    1    3    3    0    0  0.15645875562E+02  0.74568292768E+01  0.11815052779E+02  0.20976014812E+02  0.51100000000E-03 0.  1.
        -11    1    4    4    0    0 -0.24060329894E+02  0.74857069541E+01 -0.10438002807E+02  0.27274295336E+02  0.51100000000E-03 0. -1.
         12    1    4    4    0    0  0.23696768141E+02 -0.41957554030E+01 -0.26549492977E+01  0.24211359721E+02  0.00000000000E+00 0. -1.
</event>
<event>
 7    1  0.1339094E-013  0.7246158E+02  0.7816164E-02  0.1226708E+00
        -11   -1    0    0    0    0  0.00000000000E+00  0.00000000000E+00  0.45593999997E+02  0.45594000000E+02  0.51100000000E-03 0.  1.
         11   -1    0    0    0    0 -0.00000000000E+00 -0.00000000000E+00 -0.45593999997E+02  0.45594000000E+02  0.51100000000E-03 0. -1.
    9900012    2    1    2    0    0  0.56529472931E+01  0.36987304420E+01  0.17465465786E+02  0.72461577087E+02  0.70000008849E+02 0.  0.
         12    1    1    2    0    0 -0.56529472931E+01 -0.36987304420E+01 -0.17465465786E+02  0.18726422913E+02  0.00000000000E+00 0. -1.
         11    1    3    3    0    0 -0.93589915664E+01 -0.12659422182E+02 -0.20572461969E+02  0.25905171006E+02  0.51100000000E-03 0. -1.
        -11    1    3    3    0    0  0.11980212094E+02  0.18586446083E+02  0.27027623850E+02  0.34920966640E+02  0.51100000000E-03 0.  1.
         12    1    3    3    0    0  0.30317267657E+01 -0.22282934589E+01  0.11010303905E+02  0.11635439442E+02  0.00000000000E+00 0. -1.
</event>
<event>
 7    1  0.1339094E-013  0.7246151E+02  0.7816164E-02  0.1226708E+00
        -11   -1    0    0    0    0  0.00000000000E+00  0.00000000000E+00  0.45593999997E+02  0.45594000000E+02  0.51100000000E-03 0.  1.
         11   -1    0    0    0    0 -0.00000000000E+00 -0.00000000000E+00 -0.45593999997E+02  0.45594000000E+02  0.51100000000E-03 0. -1.
    9900012    2    1    2    0    0 -0.13587656906E+02 -0.12622537225E+02 -0.25939474024E+01  0.72461509957E+02  0.69999921399E+02 0.  0.
         12    1    1    2    0    0  0.13587656906E+02  0.12622537225E+02  0.25939474024E+01  0.18726490043E+02  0.00000000000E+00 0. -1.
         11    1    3    3    0    0 -0.75188483721E+01  0.37902555810E+01 -0.15810513893E+02  0.17912885531E+02  0.51100000000E-03 0. -1.
        -11    1    3    3    0    0 -0.24913356817E+02 -0.76200705730E+00  0.16414644464E+02  0.29844539799E+02  0.51100000000E-03 0.  1.
        -12    1    3    3    0    0  0.18844548283E+02 -0.15650785749E+02 -0.31980779732E+01  0.24704084628E+02  0.00000000000E+00 0.  1.
</event>
<event>
 7    1  0.1339094E-013  0.7246151E+02  0.7816164E-02  0.1226708E+00
        -11   -1    0    0    0    0  0.00000000000E+00  0.00000000000E+00  0.45593999997E+02  0.45594000000E+02  0.51100000000E-03 0.  1.
         11   -1    0    0    0    0 -0.00000000000E+00 -0.00000000000E+00 -0.45593999997E+02  0.45594000000E+02  0.51100000000E-03 0. -1.
    9900012    2    1    2    0    0  0.58623702903E+00 -0.59830263091E+01  0.17735308090E+02  0.72461509920E+02  0.69999921351E+02 0.  0.
         12    1    1    2    0    0 -0.58623702903E+00  0.59830263091E+01 -0.17735308090E+02  0.18726490080E+02  0.00000000000E+00 0. -1.
         11    1    3    3    0    0  0.13742970135E+02 -0.12324939490E+02  0.54681146156E+01  0.19252886518E+02  0.51100000000E-03 0. -1.
        -11    1    3    3    0    0 -0.16773637101E+02  0.20849514079E+01 -0.16668296135E+02  0.23738871503E+02  0.51100000000E-03 0.  1.
        -12    1    3    3    0    0  0.36169039952E+01  0.42569617727E+01  0.28935489609E+02  0.29469751899E+02  0.00000000000E+00 0.  1.
</event>
<event>
 7    1  0.1339094E-013  0.7246155E+02  0.7816164E-02  0.1226708E+00
        -11   -1    0    0    0    0  0.00000000000E+00  0.00000000000E+00  0.45593999997E+02  0.45594000000E+02  0.51100000000E-03 0.  1.
         11   -1    0    0    0    0 -0.00000000000E+00 -0.00000000000E+00 -0.45593999997E+02  0.45594000000E+02  0.51100000000E-03 0. -1.
    9900012    2    1    2    0    0  0.15743301819E+02  0.31596896632E+01  0.96356050943E+01  0.72461546079E+02  0.69999968455E+02 0.  0.
         12    1    1    2    0    0 -0.15743301819E+02 -0.31596896632E+01 -0.96356050943E+01  0.18726453921E+02  0.00000000000E+00 0. -1.
         11    1    3    3    0    0  0.33220229541E+02  0.15788103558E+02 -0.80416148546E+01  0.37649906168E+02  0.51100000000E-03 0. -1.
        -11    1    3    3    0    0 -0.13186822266E+02  0.23171008871E+01  0.12781109523E+02  0.18509943244E+02  0.51100000000E-03 0.  1.
        -12    1    3    3    0    0 -0.42901054565E+01 -0.14945514782E+02  0.48961104261E+01  0.16301696667E+02  0.00000000000E+00 0.  1.
</event>
<event>
 7    1  0.1339094E-013  0.7246159E+02  0.7816164E-02  0.1226708E+00
        -11   -1    0    0    0    0  0.00000000000E+00  0.00000000000E+00  0.45593999997E+02  0.45594000000E+02  0.51100000000E-03 0.  1.
         11   -1    0    0    0    0 -0.00000000000E+00 -0.00000000000E+00 -0.45593999997E+02  0.45594000000E+02  0.51100000000E-03 0. -1.
    9900012    2    1    2    0    0 -0.13024986998E+01 -0.54517888556E+01  0.17867851094E+02  0.72461585306E+02  0.70000019555E+02 0.  0.
         12    1    1    2    0    0  0.13024986998E+01  0.54517888556E+01 -0.17867851094E+02  0.18726414694E+02  0.00000000000E+00 0. -1.
         11    1    3    3    0    0 -0.32525882058E+02  0.53265078425E+01  0.61008144958E+01  0.33519018888E+02  0.51100000000E-03 0. -1.
        -11    1    3    3    0    0  0.23430565493E+02 -0.15020717750E+02  0.11358409486E+02  0.30060386348E+02  0.51100000000E-03 0.  1.
        -12    1    3    3    0    0  0.77928178654E+01  0.42424210523E+01  0.40862711214E+00  0.88821800694E+01  0.00000000000E+00 0.  1.
</event>
<event>
 7    1  0.1339094E-013  0.7246182E+02  0.7816164E-02  0.1226707E+00
        -11   -1    0    0    0    0  0.00000000000E+00  0.00000000000E+00  0.45593999997E+02  0.45594000000E+02  0.51100000000E-03 0. -1.
         11   -1    0    0    0    0 -0.00000000000E+00 -0.00000000000E+00 -0.45593999997E+02  0.45594000000E+02  0.51100000000E-03 0.  1.
    9900012    2    1    2    0    0 -0.14486833888E+01  0.18641571683E+02 -0.10310213177E+01  0.72461818239E+02  0.70000322994E+02 0.  0.
         12    1    1    2    0    0  0.14486833888E+01 -0.18641571683E+02  0.10310213177E+01  0.18726181761E+02  0.00000000000E+00 0. -1.
         11    1    3    3    0    0  0.50593585337E+01  0.18687627073E+02 -0.63685391112E+01  0.20380942202E+02  0.51100000000E-03 0. -1.
        -11    1    3    3    0    0  0.10331290269E+02 -0.35786559006E+01  0.24196688083E+02  0.26552251338E+02  0.51100000000E-03 0.  1.
        -12    1    3    3    0    0 -0.16839332191E+02  0.35326005109E+01 -0.18859170289E+02  0.25528624699E+02  0.00000000000E+00 0.  1.
</event>
<event>
 7    1  0.1339094E-013  0.7246159E+02  0.7816164E-02  0.1226708E+00
        -11   -1    0    0    0    0  0.00000000000E+00  0.00000000000E+00  0.45593999997E+02  0.45594000000E+02  0.51100000000E-03 0.  1.
         11   -1    0    0    0    0 -0.00000000000E+00 -0.00000000000E+00 -0.45593999997E+02  0.45594000000E+02  0.51100000000E-03 0. -1.
    9900012    2    1    2    0    0  0.22136840028E+01 -0.34300351445E+01  0.18276020692E+02  0.72461588964E+02  0.70000024320E+02 0.  0.
         12    1    1    2    0    0 -0.22136840028E+01  0.34300351445E+01 -0.18276020692E+02  0.18726411036E+02  0.00000000000E+00 0. -1.
         11    1    3    3    0    0  0.16668274872E+02  0.13996444438E+02 -0.16131079698E+01  0.21825076442E+02  0.51100000000E-03 0. -1.
        -11    1    3    3    0    0 -0.16154299730E+02 -0.21965599946E+02 -0.28238781236E+01  0.27412100771E+02  0.51100000000E-03 0.  1.
        -12    1    3    3    0    0  0.16997088603E+01  0.45391203643E+01  0.22713006786E+02  0.23224411750E+02  0.00000000000E+00 0.  1.
</event>
<event>
 7    1  0.1339094E-013  0.7246154E+02  0.7816164E-02  0.1226708E+00
        -11   -1    0    0    0    0  0.00000000000E+00  0.00000000000E+00  0.45593999997E+02  0.45594000000E+02  0.51100000000E-03 0.  1.
         11   -1    0    0    0    0 -0.00000000000E+00 -0.00000000000E+00 -0.45593999997E+02  0.45594000000E+02  0.51100000000E-03 0. -1.
    9900012    2    1    2    0    0 -0.22808845814E+01  0.70592978897E+01  0.17194306504E+02  0.72461540182E+02  0.69999960773E+02 0.  0.
         12    1    1    2    0    0  0.22808845814E+01 -0.70592978897E+01 -0.17194306504E+02  0.18726459818E+02  0.00000000000E+00 0. -1.
         11    1    3    3    0    0  0.18367712987E+02  0.16623542860E+02  0.18100399424E+02  0.30681256773E+02  0.51100000000E-03 0.  1.
        -11    1    3    3    0    0 -0.14612142987E+02 -0.17745088773E+02 -0.12657341373E+02  0.26241402194E+02  0.51100000000E-03 0. -1.
         12    1    3    3    0    0 -0.60364545815E+01  0.81808438024E+01  0.11751248452E+02  0.15538881215E+02  0.00000000000E+00 0. -1.
</event>
<event>
 7    1  0.1339094E-013  0.7246121E+02  0.7816164E-02  0.1226709E+00
        -11   -1    0    0    0    0  0.00000000000E+00  0.00000000000E+00  0.45593999997E+02  0.45594000000E+02  0.51100000000E-03 0.  1.
         11   -1    0    0    0    0 -0.00000000000E+00 -0.00000000000E+00 -0.45593999997E+02  0.45594000000E+02  0.51100000000E-03 0. -1.
    9900012    2    1    2    0    0 -0.17619673584E+02  0.42676669629E+01  0.46932891033E+01  0.72461205263E+02  0.69999524478E+02 0.  0.
         12    1    1    2    0    0  0.17619673584E+02 -0.42676669629E+01 -0.46932891033E+01  0.18726794737E+02  0.00000000000E+00 0. -1.
         11    1    3    3    0    0 -0.10983605622E+01  0.15242043054E+02 -0.79780078421E+01  0.17238761028E+02  0.51100000000E-03 0. -1.
        -11    1    3    3    0    0 -0.34272263415E+02 -0.87165246811E+01  0.48520609845E+01  0.35694654195E+02  0.51100000000E-03 0.  1.
        -12    1    3    3    0    0  0.17750950393E+02 -0.22578514098E+01  0.78192359609E+01  0.19527790040E+02  0.00000000000E+00 0.  1.
</event>
<event>
 7    1  0.1339094E-013  0.7246155E+02  0.7816164E-02  0.1226708E+00
        -11   -1    0    0    0    0  0.00000000000E+00  0.00000000000E+00  0.45593999997E+02  0.45594000000E+02  0.51100000000E-03 0.  1.
         11   -1    0    0    0    0 -0.00000000000E+00 -0.00000000000E+00 -0.45593999997E+02  0.45594000000E+02  0.51100000000E-03 0. -1.
    9900012    2    1    2    0    0  0.14905178190E+02  0.54209532241E+01  0.99563562924E+01  0.72461545414E+02  0.69999967589E+02 0.  0.
         12    1    1    2    0    0 -0.14905178190E+02 -0.54209532241E+01 -0.99563562924E+01  0.18726454586E+02  0.00000000000E+00 0. -1.
         11    1    3    3    0    0  0.42579158973E+01 -0.66314847742E+01 -0.66613433720E+01  0.10318911468E+02  0.51100000000E-03 0. -1.
        -11    1    3    3    0    0  0.28350530900E+02  0.24795885385E+02  0.13961902731E+02  0.40168685097E+02  0.51100000000E-03 0.  1.
        -12    1    3    3    0    0 -0.17703268607E+02 -0.12743447386E+02  0.26557969335E+01  0.21973948849E+02  0.00000000000E+00 0.  1.
</event>
<event>
 7    1  0.1339094E-013  0.7246152E+02  0.7816164E-02  0.1226708E+00
        -11   -1    0    0    0    0  0.00000000000E+00  0.00000000000E+00  0.45593999997E+02  0.45594000000E+02  0.51100000000E-03 0.  1.
         11   -1    0    0    0    0 -0.00000000000E+00 -0.00000000000E+00 -0.45593999997E+02  0.45594000000E+02  0.51100000000E-03 0. -1.
    9900012    2    1    2    0    0  0.12582310093E+02 -0.13561275986E+02  0.29083285545E+01  0.72461518520E+02  0.69999932554E+02 0.  0.
         12    1    1    2    0    0 -0.12582310093E+02  0.13561275986E+02 -0.29083285545E+01  0.18726481480E+02  0.00000000000E+00 0. -1.
         11    1    3    3    0    0  0.19327022384E+02 -0.15744558206E+02  0.41934602503E+01  0.25278647442E+02  0.51100000000E-03 0.  1.
        -11    1    3    3    0    0 -0.16061595568E+02  0.71296052344E+01 -0.19427945458E+02  0.26196396469E+02  0.51100000000E-03 0. -1.
         12    1    3    3    0    0  0.93168832763E+01 -0.49463230144E+01  0.18142813762E+02  0.20986474610E+02  0.00000000000E+00 0. -1.
</event>
<event>
 7    1  0.1339094E-013  0.7246144E+02  0.7816164E-02  0.1226708E+00
        -11   -1    0    0    0    0  0.00000000000E+00  0.00000000000E+00  0.45593999997E+02  0.45594000000E+02  0.51100000000E-03 0.  1.
         11   -1    0    0    0    0 -0.00000000000E+00 -0.00000000000E+00 -0.45593999997E+02  0.45594000000E+02  0.51100000000E-03 0. -1.
    9900012    2    1    2    0    0 -0.19377776058E+01  0.17375709204E+02  0.67092183761E+01  0.72461444961E+02  0.69999836730E+02 0.  0.
         12    1    1    2    0    0  0.19377776058E+01 -0.17375709204E+02 -0.67092183761E+01  0.18726555039E+02  0.00000000000E+00 0. -1.
         11    1    3    3    0    0 -0.14810892562E+02  0.23280161696E+01 -0.96969075891E+01  0.17855313350E+02  0.51100000000E-03 0. -1.
        -11    1    3    3    0    0  0.74164570733E+01  0.30938209633E+02  0.19789805646E+02  0.37467493358E+02  0.51100000000E-03 0.  1.
        -12    1    3    3    0    0  0.54566578825E+01 -0.15890516598E+02 -0.33836796811E+01  0.17138638253E+02  0.00000000000E+00 0.  1.
</event>
<event>
 7    1  0.1339094E-013  0.7246151E+02  0.7816164E-02  0.1226708E+00
        -11   -1    0    0    0    0  0.00000000000E+00  0.00000000000E+00  0.45593999997E+02  0.45594000000E+02  0.51100000000E-03 0.  1.
         11   -1    0    0    0    0 -0.00000000000E+00 -0.00000000000E+00 -0.45593999997E+02  0.45594000000E+02  0.51100000000E-03 0. -1.
    9900012    2    1    2    0    0  0.72063379385E+01  0.11068566389E+02  0.13275429582E+02  0.72461508097E+02  0.69999918977E+02 0.  0.
         12    1    1    2    0    0 -0.72063379385E+01 -0.11068566389E+02 -0.13275429582E+02  0.18726491903E+02  0.00000000000E+00 0. -1.
         11    1    3    3    0    0  0.73339627614E+00  0.87895152004E+01  0.15161923901E+02  0.17540734996E+02  0.51100000000E-03 0. -1.
        -11    1    3    3    0    0  0.11125400535E+02  0.19489771715E+02 -0.19594816536E+02  0.29792324077E+02  0.51100000000E-03 0.  1.
        -12    1    3    3    0    0 -0.46524588731E+01 -0.17210720526E+02  0.17708322217E+02  0.25128449024E+02  0.00000000000E+00 0.  1.
</event>
<event>
 7    1  0.1339094E-013  0.7246189E+02  0.7816164E-02  0.1226707E+00
        -11   -1    0    0    0    0  0.00000000000E+00  0.00000000000E+00  0.45593999997E+02  0.45594000000E+02  0.51100000000E-03 0.  1.
         11   -1    0    0    0    0 -0.00000000000E+00 -0.00000000000E+00 -0.45593999997E+02  0.45594000000E+02  0.51100000000E-03 0. -1.
    9900012    2    1    2    0    0  0.73981616801E+01  0.15187430220E+02  0.80793777895E+01  0.72461890463E+02  0.70000417078E+02 0.  0.
         12    1    1    2    0    0 -0.73981616801E+01 -0.15187430220E+02 -0.80793777895E+01  0.18726109537E+02  0.00000000000E+00 0. -1.
         11    1    3    3    0    0  0.17517050757E+01  0.66013933070E+01  0.24306076792E+01  0.72494633054E+01  0.51100000000E-03 0.  1.
        -11    1    3    3    0    0 -0.61057357329E+01 -0.14562081122E+02 -0.22133491656E+02  0.27188704797E+02  0.51100000000E-03 0. -1.
        -12    1    3    3    0    0  0.11752192337E+02  0.23148118035E+02  0.27782261766E+02  0.38023722360E+02  0.00000000000E+00 0.  1.
</event>
<event>
 7    1  0.1339094E-013  0.7246158E+02  0.7816164E-02  0.1226708E+00
        -11   -1    0    0    0    0  0.00000000000E+00  0.00000000000E+00  0.45593999997E+02  0.45594000000E+02  0.51100000000E-03 0. -1.
         11   -1    0    0    0    0 -0.00000000000E+00 -0.00000000000E+00 -0.45593999997E+02  0.45594000000E+02  0.51100000000E-03 0.  1.
    9900012    2    1    2    0    0 -0.34004594321E+01 -0.39052483738E+01 -0.17996242672E+02  0.72461579106E+02  0.70000011479E+02 0.  0.
         12    1    1    2    0    0  0.34004594321E+01  0.39052483738E+01  0.17996242672E+02  0.18726420894E+02  0.00000000000E+00 0. -1.
         11    1    3    3    0    0 -0.25408466251E+02 -0.22729759714E+00 -0.25897505454E+02  0.36281160544E+02  0.51100000000E-03 0.  1.
        -11    1    3    3    0    0  0.92877921565E+01 -0.10193529784E+02  0.14869888031E+02  0.20280155397E+02  0.51100000000E-03 0. -1.
        -12    1    3    3    0    0  0.12720214662E+02  0.65155790075E+01 -0.69686252488E+01  0.15900263165E+02  0.00000000000E+00 0.  1.
</event>
<event>
 7    1  0.1339094E-013  0.7246154E+02  0.7816164E-02  0.1226708E+00
        -11   -1    0    0    0    0  0.00000000000E+00  0.00000000000E+00  0.45593999997E+02  0.45594000000E+02  0.51100000000E-03 0. -1.
         11   -1    0    0    0    0 -0.00000000000E+00 -0.00000000000E+00 -0.45593999997E+02  0.45594000000E+02  0.51100000000E-03 0.  1.
    9900012    2    1    2    0    0 -0.21101795566E+01 -0.18520945331E+02 -0.17893694975E+01  0.72461544999E+02  0.69999967048E+02 0.  0.
         12    1    1    2    0    0  0.21101795566E+01  0.18520945331E+02  0.17893694975E+01  0.18726455001E+02  0.00000000000E+00 0. -1.
         11    1    3    3    0    0  0.75904877939E+01 -0.20045249741E+02  0.10039676260E+02  0.23669022831E+02  0.51100000000E-03 0. -1.
        -11    1    3    3    0    0  0.14015441337E+02  0.10147389510E+02 -0.15575445326E+02  0.23280820585E+02  0.51100000000E-03 0.  1.
        -12    1    3    3    0    0 -0.23716108688E+02 -0.86230851001E+01  0.37463995682E+01  0.25511701583E+02  0.00000000000E+00 0.  1.
</event>
<event>
 7    1  0.1339094E-013  0.7246157E+02  0.7816164E-02  0.1226708E+00
        -11   -1    0    0    0    0  0.00000000000E+00  0.00000000000E+00  0.45593999997E+02  0.45594000000E+02  0.51100000000E-03 0. -1.
         11   -1    0    0    0    0 -0.00000000000E+00 -0.00000000000E+00 -0.45593999997E+02  0.45594000000E+02  0.51100000000E-03 0.  1.
    9900012    2    1    2    0    0 -0.18349902506E+01 -0.17849966397E+02  0.53563860031E+01  0.72461565192E+02  0.69999993354E+02 0.  0.
         12    1    1    2    0    0  0.18349902506E+01  0.17849966397E+02 -0.53563860031E+01  0.18726434808E+02  0.00000000000E+00 0. -1.
         11    1    3    3    0    0  0.23846254542E+02 -0.40327648131E+01 -0.15503307324E+02  0.28727331689E+02  0.51100000000E-03 0. -1.
        -11    1    3    3    0    0 -0.98242883703E+01  0.18045197542E+00 -0.44189271928E+01  0.10773862942E+02  0.51100000000E-03 0.  1.
         12    1    3    3    0    0 -0.15856956422E+02 -0.13997653559E+02  0.25278620520E+02  0.32960370561E+02  0.00000000000E+00 0. -1.
</event>
<event>
 7    1  0.1339094E-013  0.7246151E+02  0.7816164E-02  0.1226708E+00
        -11   -1    0    0    0    0  0.00000000000E+00  0.00000000000E+00  0.45593999997E+02  0.45594000000E+02  0.51100000000E-03 0. -1.
         11   -1    0    0    0    0 -0.00000000000E+00 -0.00000000000E+00 -0.45593999997E+02  0.45594000000E+02  0.51100000000E-03 0.  1.
    9900012    2    1    2    0    0  0.73767776900E+01 -0.16574798004E+02  0.46411839526E+01  0.72461511636E+02  0.69999923586E+02 0.  0.
         12    1    1    2    0    0 -0.73767776900E+01  0.16574798004E+02 -0.46411839526E+01  0.18726488364E+02  0.00000000000E+00 0. -1.
         11    1    3    3    0    0  0.11133970499E+02 -0.90271629747E+01  0.32191033827E+01  0.14690731680E+02  0.51100000000E-03 0. -1.
        -11    1    3    3    0    0 -0.27334931254E+02  0.83868095187E+01 -0.37817800832E+01  0.28841617525E+02  0.51100000000E-03 0.  1.
        -12    1    3    3    0    0  0.23577738445E+02 -0.15934444548E+02  0.52038606531E+01  0.28929162431E+02  0.00000000000E+00 0.  1.
</event>
<event>
 7    1  0.1339094E-013  0.7246155E+02  0.7816164E-02  0.1226708E+00
        -11   -1    0    0    0    0  0.00000000000E+00  0.00000000000E+00  0.45593999997E+02  0.45594000000E+02  0.51100000000E-03 0.  1.
         11   -1    0    0    0    0 -0.00000000000E+00 -0.00000000000E+00 -0.45593999997E+02  0.45594000000E+02  0.51100000000E-03 0. -1.
    9900012    2    1    2    0    0 -0.18346442625E+02 -0.11620336480E+01 -0.35690064646E+01  0.72461545815E+02  0.69999968112E+02 0.  0.
         12    1    1    2    0    0  0.18346442625E+02  0.11620336480E+01  0.35690064646E+01  0.18726454185E+02  0.00000000000E+00 0. -1.
         11    1    3    3    0    0 -0.76334538844E+01  0.18041349075E+01 -0.23085260728E+01  0.81764181559E+01  0.51100000000E-03 0. -1.
        -11    1    3    3    0    0  0.19959457358E+02 -0.17551149923E+02  0.10157907659E+02  0.28453574291E+02  0.51100000000E-03 0.  1.
        -12    1    3    3    0    0 -0.30672446098E+02  0.14584981368E+02 -0.11418388051E+02  0.35831553369E+02  0.00000000000E+00 0.  1.
</event>
<event>
 7    1  0.1339094E-013  0.7246157E+02  0.7816164E-02  0.1226708E+00
        -11   -1    0    0    0    0  0.00000000000E+00  0.00000000000E+00  0.45593999997E+02  0.45594000000E+02  0.51100000000E-03 0.  1.
         11   -1    0    0    0    0 -0.00000000000E+00 -0.00000000000E+00 -0.45593999997E+02  0.45594000000E+02  0.51100000000E-03 0. -1.
    9900012    2    1    2    0    0 -0.27029028985E+00 -0.65479442209E+01  0.17542248706E+02  0.72461571616E+02  0.70000001722E+02 0.  0.
         12    1    1    2    0    0  0.27029028985E+00  0.65479442209E+01 -0.17542248706E+02  0.18726428384E+02  0.00000000000E+00 0. -1.
         11    1    3    3    0    0 -0.24495429277E+01 -0.96009577393E+01 -0.16275097968E+02  0.19054066868E+02  0.51100000000E-03 0. -1.
        -11    1    3    3    0    0  0.20216046333E+02  0.19765599381E+01  0.27662261435E+02  0.34319033006E+02  0.51100000000E-03 0.  1.
        -12    1    3    3    0    0 -0.18036793696E+02  0.10764535804E+01  0.61550852393E+01  0.19088471742E+02  0.00000000000E+00 0.  1.
</event>
<event>
 7    1  0.1339094E-013  0.7246155E+02  0.7816164E-02  0.1226708E+00
        -11   -1    0    0    0    0  0.00000000000E+00  0.00000000000E+00  0.45593999997E+02  0.45594000000E+02  0.51100000000E-03 0. -1.
         11   -1    0    0    0    0 -0.00000000000E+00 -0.00000000000E+00 -0.45593999997E+02  0.45594000000E+02  0.51100000000E-03 0.  1.
    9900012    2    1    2    0    0 -0.49820462810E+01 -0.14319734345E+02 -0.10991105581E+02  0.72461548688E+02  0.69999971854E+02 0.  0.
         12    1    1    2    0    0  0.49820462810E+01  0.14319734345E+02  0.10991105581E+02  0.18726451312E+02  0.00000000000E+00 0. -1.
         11    1    3    3    0    0  0.12264555461E+01 -0.10649362210E+01 -0.23498242932E+02  0.23554313905E+02  0.51100000000E-03 0. -1.
        -11    1    3    3    0    0  0.18507084401E+02 -0.11983204612E+02  0.24129319105E+01  0.22179531250E+02  0.51100000000E-03 0.  1.
         12    1    3    3    0    0 -0.24715586229E+02 -0.12715935122E+01  0.10094205441E+02  0.26727703533E+02  0.00000000000E+00 0. -1.
</event>
<event>
 7    1  0.1339094E-013  0.7246154E+02  0.7816164E-02  0.1226708E+00
        -11   -1    0    0    0    0  0.00000000000E+00  0.00000000000E+00  0.45593999997E+02  0.45594000000E+02  0.51100000000E-03 0.  1.
         11   -1    0    0    0    0 -0.00000000000E+00 -0.00000000000E+00 -0.45593999997E+02  0.45594000000E+02  0.51100000000E-03 0. -1.
    9900012    2    1    2    0    0 -0.82177697710E+01 -0.16355274658E+02 -0.39564615947E+01  0.72461539109E+02  0.69999959376E+02 0.  0.
         12    1    1    2    0    0  0.82177697710E+01  0.16355274658E+02  0.39564615947E+01  0.18726460891E+02  0.00000000000E+00 0. -1.
         11    1    3    3    0    0  0.89125896642E+01  0.14939280138E+01 -0.14674069310E+02  0.17233525054E+02  0.51100000000E-03 0. -1.
        -11    1    3    3    0    0 -0.32660276305E+02 -0.20283796255E+02  0.81360411193E+01  0.39297852412E+02  0.51100000000E-03 0.  1.
        -12    1    3    3    0    0  0.15529916870E+02  0.24345935836E+01  0.25815665958E+01  0.15930161643E+02  0.00000000000E+00 0.  1.
</event>
<event>
 7    1  0.1339094E-013  0.7246127E+02  0.7816164E-02  0.1226709E+00
        -11   -1    0    0    0    0  0.00000000000E+00  0.00000000000E+00  0.45593999997E+02  0.45594000000E+02  0.51100000000E-03 0.  1.
         11   -1    0    0    0    0 -0.00000000000E+00 -0.00000000000E+00 -0.45593999997E+02  0.45594000000E+02  0.51100000000E-03 0. -1.
    9900012    2    1    2    0    0 -0.27509386787E+01  0.15179643648E+02  0.10616075930E+02  0.72461272762E+02  0.69999612407E+02 0.  0.
         12    1    1    2    0    0  0.27509386787E+01 -0.15179643648E+02 -0.10616075930E+02  0.18726727238E+02  0.00000000000E+00 0. -1.
         11    1    3    3    0    0 -0.12158868764E+02 -0.44931705140E+01  0.25286412501E+02  0.28415300954E+02  0.51100000000E-03 0.  1.
        -11    1    3    3    0    0 -0.23321403453E+01  0.27003113381E+02 -0.61486907707E+01  0.27792326447E+02  0.51100000000E-03 0. -1.
         12    1    3    3    0    0  0.11740070431E+02 -0.73302992187E+01 -0.85216458002E+01  0.16253645361E+02  0.00000000000E+00 0. -1.
</event>
<event>
 7    1  0.1339094E-013  0.7246152E+02  0.7816164E-02  0.1226708E+00
        -11   -1    0    0    0    0  0.00000000000E+00  0.00000000000E+00  0.45593999997E+02  0.45594000000E+02  0.51100000000E-03 0.  1.
         11   -1    0    0    0    0 -0.00000000000E+00 -0.00000000000E+00 -0.45593999997E+02  0.45594000000E+02  0.51100000000E-03 0. -1.
    9900012    2    1    2    0    0 -0.12855488908E+02  0.11763213688E+02  0.68588746855E+01  0.72461522668E+02  0.69999937958E+02 0.  0.
         12    1    1    2    0    0  0.12855488908E+02 -0.11763213688E+02 -0.68588746855E+01  0.18726477332E+02  0.00000000000E+00 0. -1.
         11    1    3    3    0    0 -0.70768414556E+01  0.15966223625E+02 -0.51851245905E+01  0.18217779753E+02  0.51100000000E-03 0. -1.
        -11    1    3    3    0    0  0.18130907364E+02 -0.55081323460E+01 -0.10235451176E+02  0.21536800710E+02  0.51100000000E-03 0.  1.
        -12    1    3    3    0    0 -0.23909554816E+02  0.13051224084E+01  0.22279450452E+02  0.32706942205E+02  0.00000000000E+00 0.  1.
</event>
<event>
 7    1  0.1339094E-013  0.7246156E+02  0.7816164E-02  0.1226708E+00
        -11   -1    0    0    0    0  0.00000000000E+00  0.00000000000E+00  0.45593999997E+02  0.45594000000E+02  0.51100000000E-03 0.  1.
         11   -1    0    0    0    0 -0.00000000000E+00 -0.00000000000E+00 -0.45593999997E+02  0.45594000000E+02  0.51100000000E-03 0. -1.
    9900012    2    1    2    0    0 -0.16007702923E+02  0.34860574737E+01  0.90708500628E+01  0.72461562259E+02  0.69999989533E+02 0.  0.
         12    1    1    2    0    0  0.16007702923E+02 -0.34860574737E+01 -0.90708500628E+01  0.18726437741E+02  0.00000000000E+00 0. -1.
         11    1    3    3    0    0  0.68633574585E+01 -0.21043841855E+02 -0.13681887058E+02  0.26021971281E+02  0.51100000000E-03 0. -1.
        -11    1    3    3    0    0 -0.25691189285E+02  0.13390775723E+02  0.16973577140E+02  0.33577558019E+02  0.51100000000E-03 0.  1.
        -12    1    3    3    0    0  0.28201289032E+01  0.11139123606E+02  0.57791599813E+01  0.12862032959E+02  0.00000000000E+00 0.  1.
</event>
<event>
 7    1  0.1339094E-013  0.7246149E+02  0.7816164E-02  0.1226708E+00
        -11   -1    0    0    0    0  0.00000000000E+00  0.00000000000E+00  0.45593999997E+02  0.45594000000E+02  0.51100000000E-03 0.  1.
         11   -1    0    0    0    0 -0.00000000000E+00 -0.00000000000E+00 -0.45593999997E+02  0.45594000000E+02  0.51100000000E-03 0. -1.
    9900012    2    1    2    0    0  0.61595171522E+01  0.12107197695E+02  0.12890238459E+02  0.72461491113E+02  0.69999896852E+02 0.  0.
         12    1    1    2    0    0 -0.61595171522E+01 -0.12107197695E+02 -0.12890238459E+02  0.18726508887E+02  0.00000000000E+00 0. -1.
         11    1    3    3    0    0  0.14229367068E+02 -0.93114903586E+01 -0.27411346289E+01  0.17224765867E+02  0.51100000000E-03 0. -1.
        -11    1    3    3    0    0 -0.10742160602E+02  0.31364775708E+02 -0.36737819519E+01  0.33356256441E+02  0.51100000000E-03 0.  1.
         12    1    3    3    0    0  0.26723106859E+01 -0.99460876554E+01  0.19305155039E+02  0.21880468805E+02  0.00000000000E+00 0. -1.
</event>
<event>
 7    1  0.1339094E-013  0.7246156E+02  0.7816164E-02  0.1226708E+00
        -11   -1    0    0    0    0  0.00000000000E+00  0.00000000000E+00  0.45593999997E+02  0.45594000000E+02  0.51100000000E-03 0.  1.
         11   -1    0    0    0    0 -0.00000000000E+00 -0.00000000000E+00 -0.45593999997E+02  0.45594000000E+02  0.51100000000E-03 0. -1.
    9900012    2    1    2    0    0  0.13338525879E+02  0.11051249434E+02  0.71157016337E+01  0.72461558897E+02  0.69999985152E+02 0.  0.
         12    1    1    2    0    0 -0.13338525879E+02 -0.11051249434E+02 -0.71157016337E+01  0.18726441103E+02  0.00000000000E+00 0. -1.
         11    1    3    3    0    0  0.29104580451E+02 -0.18633097797E+02  0.23666966430E+01  0.34639142455E+02  0.51100000000E-03 0. -1.
        -11    1    3    3    0    0 -0.15107148199E+02  0.23291922999E+02  0.10015746554E+02  0.29513637237E+02  0.51100000000E-03 0.  1.
         12    1    3    3    0    0 -0.65890637406E+00  0.63924242319E+01 -0.52667415636E+01  0.83087792044E+01  0.00000000000E+00 0. -1.
</event>
<event>
 7    1  0.1339094E-013  0.7246156E+02  0.7816164E-02  0.1226708E+00
        -11   -1    0    0    0    0  0.00000000000E+00  0.00000000000E+00  0.45593999997E+02  0.45594000000E+02  0.51100000000E-03 0.  1.
         11   -1    0    0    0    0 -0.00000000000E+00 -0.00000000000E+00 -0.45593999997E+02  0.45594000000E+02  0.51100000000E-03 0. -1.
    9900012    2    1    2    0    0 -0.63622458035E+01  0.40315461843E+01  0.17144909204E+02  0.72461562861E+02  0.69999990317E+02 0.  0.
         12    1    1    2    0    0  0.63622458035E+01 -0.40315461843E+01 -0.17144909204E+02  0.18726437139E+02  0.00000000000E+00 0. -1.
         11    1    3    3    0    0 -0.73300752778E+01  0.96733524228E-02  0.62286267667E+01  0.96190378319E+01  0.51100000000E-03 0.  1.
        -11    1    3    3    0    0  0.20657193495E+02  0.23554760496E+02  0.15126584058E+02  0.34790227516E+02  0.51100000000E-03 0. -1.
        -12    1    3    3    0    0 -0.19689364021E+02 -0.19532887664E+02 -0.42103016200E+01  0.28052297513E+02  0.00000000000E+00 0.  1.
</event>
<event>
 7    1  0.1339094E-013  0.7246157E+02  0.7816164E-02  0.1226708E+00
        -11   -1    0    0    0    0  0.00000000000E+00  0.00000000000E+00  0.45593999997E+02  0.45594000000E+02  0.51100000000E-03 0.  1.
         11   -1    0    0    0    0 -0.00000000000E+00 -0.00000000000E+00 -0.45593999997E+02  0.45594000000E+02  0.51100000000E-03 0. -1.
    9900012    2    1    2    0    0  0.18281139087E+01 -0.18607453911E+02  0.10486730477E+01  0.72461573307E+02  0.70000003925E+02 0.  0.
         12    1    1    2    0    0 -0.18281139087E+01  0.18607453911E+02 -0.10486730477E+01  0.18726426693E+02  0.00000000000E+00 0. -1.
         11    1    3    3    0    0  0.13279048028E+02 -0.73868644241E+00 -0.23822360186E+02  0.27283394570E+02  0.51100000000E-03 0. -1.
        -11    1    3    3    0    0  0.92194453868E+00 -0.81370297643E+01  0.27961650025E+02  0.29136147781E+02  0.51100000000E-03 0.  1.
        -12    1    3    3    0    0 -0.12372878658E+02 -0.97317377045E+01 -0.30906167922E+01  0.16042030956E+02  0.00000000000E+00 0.  1.
</event>
<event>
 7    1  0.1339094E-013  0.7246180E+02  0.7816164E-02  0.1226707E+00
        -11   -1    0    0    0    0  0.00000000000E+00  0.00000000000E+00  0.45593999997E+02  0.45594000000E+02  0.51100000000E-03 0. -1.
         11   -1    0    0    0    0 -0.00000000000E+00 -0.00000000000E+00 -0.45593999997E+02  0.45594000000E+02  0.51100000000E-03 0.  1.
    9900012    2    1    2    0    0 -0.93773213715E+01  0.94325556209E+01 -0.13181933480E+02  0.72461798252E+02  0.70000296956E+02 0.  0.
         12    1    1    2    0    0  0.93773213715E+01 -0.94325556209E+01  0.13181933480E+02  0.18726201748E+02  0.00000000000E+00 0. -1.
         11    1    3    3    0    0 -0.86275662820E+01  0.18280858504E+02  0.20151809910E+02  0.28543302726E+02  0.51100000000E-03 0. -1.
        -11    1    3    3    0    0 -0.87800891347E+01 -0.14520413309E+01 -0.31643331505E+02  0.32870941852E+02  0.51100000000E-03 0.  1.
        -12    1    3    3    0    0  0.80303340453E+01 -0.73962615524E+01 -0.16904118844E+01  0.11047553673E+02  0.00000000000E+00 0.  1.
</event>
<event>
 7    1  0.1339094E-013  0.7246166E+02  0.7816164E-02  0.1226708E+00
        -11   -1    0    0    0    0  0.00000000000E+00  0.00000000000E+00  0.45593999997E+02  0.45594000000E+02  0.51100000000E-03 0.  1.
         11   -1    0    0    0    0 -0.00000000000E+00 -0.00000000000E+00 -0.45593999997E+02  0.45594000000E+02  0.51100000000E-03 0. -1.
    9900012    2    1    2    0    0 -0.79194137361E+01  0.90864976529E+01  0.14331576503E+02  0.72461664571E+02  0.70000122813E+02 0.  0.
         12    1    1    2    0    0  0.79194137361E+01 -0.90864976529E+01 -0.14331576503E+02  0.18726335429E+02  0.00000000000E+00 0. -1.
         11    1    3    3    0    0 -0.68404540414E+01  0.13199631570E+02  0.34035943200E+02  0.37141183542E+02  0.51100000000E-03 0.  1.
        -11    1    3    3    0    0  0.23645492541E+01  0.88843857248E+01 -0.19847888666E+02  0.21873776255E+02  0.51100000000E-03 0. -1.
        -12    1    3    3    0    0 -0.34435089487E+01 -0.12997519642E+02  0.14352196935E+00  0.13446704774E+02  0.00000000000E+00 0.  1.
</event>
<event>
 7    1  0.1339094E-013  0.7246150E+02  0.7816164E-02  0.1226708E+00
        -11   -1    0    0    0    0  0.00000000000E+00  0.00000000000E+00  0.45593999997E+02  0.45594000000E+02  0.51100000000E-03 0.  1.
         11   -1    0    0    0    0 -0.00000000000E+00 -0.00000000000E+00 -0.45593999997E+02  0.45594000000E+02  0.51100000000E-03 0. -1.
    9900012    2    1    2    0    0 -0.15429445236E+02 -0.96079126317E+01  0.45057741519E+01  0.72461500964E+02  0.69999909685E+02 0.  0.
         12    1    1    2    0    0  0.15429445236E+02  0.96079126317E+01 -0.45057741519E+01  0.18726499036E+02  0.00000000000E+00 0. -1.
         11    1    3    3    0    0  0.16396633703E+01 -0.23413710801E+02 -0.10943887903E+02  0.25897085398E+02  0.51100000000E-03 0. -1.
        -11    1    3    3    0    0 -0.26692172651E+02  0.56267980281E+01  0.19236870494E+02  0.33379486568E+02  0.51100000000E-03 0.  1.
         12    1    3    3    0    0  0.96230640452E+01  0.81790001409E+01 -0.37872084395E+01  0.13184928998E+02  0.00000000000E+00 0. -1.
</event>
<event>
 7    1  0.1339094E-013  0.7246155E+02  0.7816164E-02  0.1226708E+00
        -11   -1    0    0    0    0  0.00000000000E+00  0.00000000000E+00  0.45593999997E+02  0.45594000000E+02  0.51100000000E-03 0.  1.
         11   -1    0    0    0    0 -0.00000000000E+00 -0.00000000000E+00 -0.45593999997E+02  0.45594000000E+02  0.51100000000E-03 0. -1.
    9900012    2    1    2    0    0 -0.11856527225E+02  0.13495553437E+02 -0.52889290866E+01  0.72461548887E+02  0.69999972114E+02 0.  0.
         12    1    1    2    0    0  0.11856527225E+02 -0.13495553437E+02  0.52889290866E+01  0.18726451113E+02  0.00000000000E+00 0. -1.
         11    1    3    3    0    0 -0.30843940840E+02 -0.11939393469E+02  0.54894737021E+00  0.33078681147E+02  0.51100000000E-03 0.  1.
        -11    1    3    3    0    0  0.19107881024E+02  0.29315191436E+02 -0.59707976834E+01  0.35498478720E+02  0.51100000000E-03 0. -1.
         12    1    3    3    0    0 -0.12046740879E+00 -0.38802445303E+01  0.13292122662E+00  0.38843890207E+01  0.00000000000E+00 0. -1.
</event>
<event>
 7    1  0.1339094E-013  0.7246152E+02  0.7816164E-02  0.1226708E+00
        -11   -1    0    0    0    0  0.00000000000E+00  0.00000000000E+00  0.45593999997E+02  0.45594000000E+02  0.51100000000E-03 0.  1.
         11   -1    0    0    0    0 -0.00000000000E+00 -0.00000000000E+00 -0.45593999997E+02  0.45594000000E+02  0.51100000000E-03 0. -1.
    9900012    2    1    2    0    0  0.14071421620E+02 -0.49973537712E+01  0.11300553395E+02  0.72461522538E+02  0.69999937788E+02 0.  0.
         12    1    1    2    0    0 -0.14071421620E+02  0.49973537712E+01 -0.11300553395E+02  0.18726477462E+02  0.00000000000E+00 0. -1.
         11    1    3    3    0    0 -0.19695550786E+02 -0.46964771480E+01 -0.12980883483E+02  0.24051506286E+02  0.51100000000E-03 0. -1.
        -11    1    3    3    0    0  0.83170066345E+01  0.11160779003E+02  0.69817304941E+01  0.15571774088E+02  0.51100000000E-03 0.  1.
         12    1    3    3    0    0  0.25449965771E+02 -0.11461655626E+02  0.17299706383E+02  0.32838242164E+02  0.00000000000E+00 0. -1.
</event>
<event>
 7    1  0.1339094E-013  0.7246154E+02  0.7816164E-02  0.1226708E+00
        -11   -1    0    0    0    0  0.00000000000E+00  0.00000000000E+00  0.45593999997E+02  0.45594000000E+02  0.51100000000E-03 0. -1.
         11   -1    0    0    0    0 -0.00000000000E+00 -0.00000000000E+00 -0.45593999997E+02  0.45594000000E+02  0.51100000000E-03 0.  1.
    9900012    2    1    2    0    0 -0.13402620043E+02  0.13069336026E+02 -0.49263192081E+00  0.72461535988E+02  0.69999955310E+02 0.  0.
         12    1    1    2    0    0  0.13402620043E+02 -0.13069336026E+02  0.49263192081E+00  0.18726464012E+02  0.00000000000E+00 0. -1.
         11    1    3    3    0    0 -0.18807459066E+02  0.21369293169E+02 -0.13610886692E+02  0.31553501293E+02  0.51100000000E-03 0.  1.
        -11    1    3    3    0    0  0.36582654624E+01 -0.21809561628E+02  0.15598523507E+02  0.27062036517E+02  0.51100000000E-03 0. -1.
         12    1    3    3    0    0  0.17465735603E+01  0.13509604485E+02 -0.24802687358E+01  0.13845998178E+02  0.00000000000E+00 0. -1.
</event>
<event>
 7    1  0.1339094E-013  0.7246161E+02  0.7816164E-02  0.1226708E+00
        -11   -1    0    0    0    0  0.00000000000E+00  0.00000000000E+00  0.45593999997E+02  0.45594000000E+02  0.51100000000E-03 0.  1.
         11   -1    0    0    0    0 -0.00000000000E+00 -0.00000000000E+00 -0.45593999997E+02  0.45594000000E+02  0.51100000000E-03 0. -1.
    9900012    2    1    2    0    0  0.47503818646E+01  0.11313362945E+02  0.14146350591E+02  0.72461613695E+02  0.70000056538E+02 0.  0.
         12    1    1    2    0    0 -0.47503818646E+01 -0.11313362945E+02 -0.14146350591E+02  0.18726386305E+02  0.00000000000E+00 0. -1.
         11    1    3    3    0    0  0.97485400831E+01 -0.12646827875E+02 -0.20455954653E+02  0.25950382850E+02  0.51100000000E-03 0. -1.
        -11    1    3    3    0    0  0.12601463886E+01  0.14443675805E+02  0.31546171717E+02  0.34718420038E+02  0.51100000000E-03 0.  1.
         12    1    3    3    0    0 -0.62583046072E+01  0.95165150157E+01  0.30561335275E+01  0.11792810807E+02  0.00000000000E+00 0. -1.
</event>
<event>
 8    1  0.1339094E-013  0.7246155E+02  0.7816164E-02  0.1226708E+00
        -11   -1    0    0    0    0  0.00000000000E+00  0.00000000000E+00  0.45593999997E+02  0.45594000000E+02  0.51100000000E-03 0.  1.
         11   -1    0    0    0    0 -0.00000000000E+00 -0.00000000000E+00 -0.45593999997E+02  0.45594000000E+02  0.51100000000E-03 0. -1.
    9900012    2    1    2    0    0  0.84924638424E+01  0.86410089990E+01  0.14279041904E+02  0.72461547684E+02  0.69999970546E+02 0.  0.
        -24    2    3    3    0    0  0.50227679169E+01  0.24261488616E+02  0.82176785996E+01  0.55350782107E+02  0.48809126307E+02 0.  0.
         12    1    1    2    0    0 -0.84924638424E+01 -0.86410089990E+01 -0.14279041904E+02  0.18726452316E+02  0.00000000000E+00 0. -1.
         11    1    4    4    0    0  0.65963000135E+01  0.31642117847E+02 -0.11445671436E+02  0.34289038928E+02  0.51100000000E-03 0. -1.
        -11    1    3    3    0    0  0.34696959255E+01 -0.15620479617E+02  0.60613633042E+01  0.17110765577E+02  0.51100000000E-03 0.  1.
        -12    1    4    4    0    0 -0.15735320966E+01 -0.73806292314E+01  0.19663350036E+02  0.21061743179E+02  0.00000000000E+00 0.  1.
</event>
<event>
 7    1  0.1339094E-013  0.7246160E+02  0.7816164E-02  0.1226708E+00
        -11   -1    0    0    0    0  0.00000000000E+00  0.00000000000E+00  0.45593999997E+02  0.45594000000E+02  0.51100000000E-03 0.  1.
         11   -1    0    0    0    0 -0.00000000000E+00 -0.00000000000E+00 -0.45593999997E+02  0.45594000000E+02  0.51100000000E-03 0. -1.
    9900012    2    1    2    0    0 -0.12399556615E+02 -0.11019806267E+02 -0.86886587555E+01  0.72461603513E+02  0.70000043274E+02 0.  0.
         12    1    1    2    0    0  0.12399556615E+02  0.11019806267E+02  0.86886587555E+01  0.18726396487E+02  0.00000000000E+00 0. -1.
         11    1    3    3    0    0 -0.12873147556E+02  0.14955725492E+01  0.28214310808E+02  0.31048381599E+02  0.51100000000E-03 0.  1.
        -11    1    3    3    0    0 -0.82659724826E+00  0.16136290832E+01 -0.16280444632E+02  0.16381084809E+02  0.51100000000E-03 0. -1.
         12    1    3    3    0    0  0.13001881885E+01 -0.14129007899E+02 -0.20622524932E+02  0.25032137106E+02  0.00000000000E+00 0. -1.
</event>
<event>
 7    1  0.1441861E-013  0.7246158E+02  0.7816164E-02  0.1226708E+00
        -11   -1    0    0    0    0  0.00000000000E+00  0.00000000000E+00  0.45593999997E+02  0.45594000000E+02  0.51100000000E-03 0. -1.
         11   -1    0    0    0    0 -0.00000000000E+00 -0.00000000000E+00 -0.45593999997E+02  0.45594000000E+02  0.51100000000E-03 0.  1.
    9900012    2    1    2    0    0  0.47575761276E+01 -0.94660233404E+01 -0.15441460231E+02  0.72461579558E+02  0.70000012068E+02 0.  0.
         12    1    1    2    0    0 -0.47575761276E+01  0.94660233404E+01  0.15441460231E+02  0.18726420442E+02  0.00000000000E+00 0. -1.
         11    1    3    3    0    0  0.20216088863E+02 -0.73106688617E+01  0.84458699721E+00  0.21513936311E+02  0.51100000000E-03 0. -1.
        -11    1    3    3    0    0 -0.87336066049E+01 -0.72800417765E+00 -0.32327905750E+02  0.33494766231E+02  0.51100000000E-03 0.  1.
        -12    1    3    3    0    0 -0.67249061303E+01 -0.14273503010E+01  0.16041858521E+02  0.17452877017E+02  0.00000000000E+00 0.  1.
</event>
<event>
 7    1  0.1339094E-013  0.7246151E+02  0.7816164E-02  0.1226708E+00
        -11   -1    0    0    0    0  0.00000000000E+00  0.00000000000E+00  0.45593999997E+02  0.45594000000E+02  0.51100000000E-03 0. -1.
         11   -1    0    0    0    0 -0.00000000000E+00 -0.00000000000E+00 -0.45593999997E+02  0.45594000000E+02  0.51100000000E-03 0.  1.
    9900012    2    1    2    0    0 -0.36921361302E+01 -0.27521985036E+00 -0.18356850384E+02  0.72461506169E+02  0.69999916465E+02 0.  0.
         12    1    1    2    0    0  0.36921361302E+01  0.27521985036E+00  0.18356850384E+02  0.18726493831E+02  0.00000000000E+00 0. -1.
         11    1    3    3    0    0 -0.24831845867E+02  0.12389959458E+02  0.87691476226E+01  0.29103773205E+02  0.51100000000E-03 0. -1.
        -11    1    3    3    0    0 -0.11741872147E+01 -0.99064191105E+01 -0.14413298505E+02  0.17528805700E+02  0.51100000000E-03 0.  1.
         12    1    3    3    0    0  0.22313896951E+02 -0.27587601976E+01 -0.12712699502E+02  0.25828927264E+02  0.00000000000E+00 0. -1.
</event>
<event>
 7    1  0.1339094E-013  0.7246160E+02  0.7816164E-02  0.1226708E+00
        -11   -1    0    0    0    0  0.00000000000E+00  0.00000000000E+00  0.45593999997E+02  0.45594000000E+02  0.51100000000E-03 0.  1.
         11   -1    0    0    0    0 -0.00000000000E+00 -0.00000000000E+00 -0.45593999997E+02  0.45594000000E+02  0.51100000000E-03 0. -1.
    9900012    2    1    2    0    0  0.75271327780E+01 -0.16761823031E+02 -0.36140750524E+01  0.72461602117E+02  0.70000041455E+02 0.  0.
         12    1    1    2    0    0 -0.75271327780E+01  0.16761823031E+02  0.36140750524E+01  0.18726397883E+02  0.00000000000E+00 0. -1.
         11    1    3    3    0    0  0.13545275621E+02 -0.27380789806E+02 -0.13614972943E+02  0.33444725004E+02  0.51100000000E-03 0. -1.
        -11    1    3    3    0    0 -0.42576144036E+01  0.47669121271E+01  0.23417489334E+02  0.24274050725E+02  0.51100000000E-03 0.  1.
        -12    1    3    3    0    0 -0.17605284390E+01  0.58520546483E+01 -0.13416591443E+02  0.14742826389E+02  0.00000000000E+00 0.  1.
</event>
<event>
 7    1  0.1339094E-013  0.7246160E+02  0.7816164E-02  0.1226708E+00
        -11   -1    0    0    0    0  0.00000000000E+00  0.00000000000E+00  0.45593999997E+02  0.45594000000E+02  0.51100000000E-03 0. -1.
         11   -1    0    0    0    0 -0.00000000000E+00 -0.00000000000E+00 -0.45593999997E+02  0.45594000000E+02  0.51100000000E-03 0.  1.
    9900012    2    1    2    0    0  0.11707283360E+02  0.49198016610E+01 -0.13762741585E+02  0.72461601842E+02  0.70000041096E+02 0.  0.
         12    1    1    2    0    0 -0.11707283360E+02 -0.49198016610E+01  0.13762741585E+02  0.18726398158E+02  0.00000000000E+00 0. -1.
         11    1    3    3    0    0  0.80127344753E-01  0.10033609702E+02  0.25481654788E+02  0.27386027003E+02  0.51100000000E-03 0. -1.
        -11    1    3    3    0    0 -0.24177450020E+01 -0.26431366981E+01 -0.23745824786E+02  0.24014492656E+02  0.51100000000E-03 0.  1.
        -12    1    3    3    0    0  0.14044901017E+02 -0.24706713429E+01 -0.15498571586E+02  0.21061082182E+02  0.00000000000E+00 0.  1.
</event>
<event>
 7    1  0.1339094E-013  0.7246155E+02  0.7816164E-02  0.1226708E+00
        -11   -1    0    0    0    0  0.00000000000E+00  0.00000000000E+00  0.45593999997E+02  0.45594000000E+02  0.51100000000E-03 0.  1.
         11   -1    0    0    0    0 -0.00000000000E+00 -0.00000000000E+00 -0.45593999997E+02  0.45594000000E+02  0.51100000000E-03 0. -1.
    9900012    2    1    2    0    0  0.35471747578E+01  0.15301491359E+02  0.10196177065E+02  0.72461545095E+02  0.69999967173E+02 0.  0.
         12    1    1    2    0    0 -0.35471747578E+01 -0.15301491359E+02 -0.10196177065E+02  0.18726454905E+02  0.00000000000E+00 0. -1.
         11    1    3    3    0    0 -0.18738995594E+02  0.14012750820E+02 -0.11571734686E+02  0.26103872995E+02  0.51100000000E-03 0. -1.
        -11    1    3    3    0    0  0.25727225218E+02  0.12835322134E+02  0.16993018475E+02  0.33397579086E+02  0.51100000000E-03 0.  1.
        -12    1    3    3    0    0 -0.34410548657E+01 -0.11546581595E+02  0.47748932762E+01  0.12960093014E+02  0.00000000000E+00 0.  1.
</event>
<event>
 7    1  0.1339094E-013  0.7246157E+02  0.7816164E-02  0.1226708E+00
        -11   -1    0    0    0    0  0.00000000000E+00  0.00000000000E+00  0.45593999997E+02  0.45594000000E+02  0.51100000000E-03 0.  1.
         11   -1    0    0    0    0 -0.00000000000E+00 -0.00000000000E+00 -0.45593999997E+02  0.45594000000E+02  0.51100000000E-03 0. -1.
    9900012    2    1    2    0    0 -0.94321937464E+01 -0.54948856180E+01  0.15215754038E+02  0.72461569006E+02  0.69999998322E+02 0.  0.
         12    1    1    2    0    0  0.94321937464E+01  0.54948856180E+01 -0.15215754038E+02  0.18726430994E+02  0.00000000000E+00 0. -1.
         11    1    3    3    0    0  0.13968231054E+02 -0.31144099744E+01 -0.17197029120E+02  0.22372948824E+02  0.51100000000E-03 0. -1.
        -11    1    3    3    0    0 -0.85792821901E+01  0.13765252512E+02  0.15066378586E+02  0.22137796267E+02  0.51100000000E-03 0.  1.
         12    1    3    3    0    0 -0.14821142610E+02 -0.16145728155E+02  0.17346404572E+02  0.27950823915E+02  0.00000000000E+00 0. -1.
</event>
<event>
 7    1  0.1339094E-013  0.7246110E+02  0.7816164E-02  0.1226709E+00
        -11   -1    0    0    0    0  0.00000000000E+00  0.00000000000E+00  0.45593999997E+02  0.45594000000E+02  0.51100000000E-03 0.  1.
         11   -1    0    0    0    0 -0.00000000000E+00 -0.00000000000E+00 -0.45593999997E+02  0.45594000000E+02  0.51100000000E-03 0. -1.
    9900012    2    1    2    0    0 -0.17210277156E+02  0.18525118340E+01  0.71464310286E+01  0.72461096457E+02  0.69999382736E+02 0.  0.
         12    1    1    2    0    0  0.17210277156E+02 -0.18525118340E+01 -0.71464310286E+01  0.18726903543E+02  0.00000000000E+00 0. -1.
         11    1    3    3    0    0 -0.23078972497E+02  0.21849404347E+02 -0.93422300429E+00  0.31794782823E+02  0.51100000000E-03 0. -1.
        -11    1    3    3    0    0  0.14018661904E+02 -0.25508219053E+02  0.21666154372E+01  0.29187092071E+02  0.51100000000E-03 0.  1.
        -12    1    3    3    0    0 -0.81499665620E+01  0.55113265401E+01  0.59140385956E+01  0.11479221564E+02  0.00000000000E+00 0.  1.
</event>
<event>
 7    1  0.1339094E-013  0.7246151E+02  0.7816164E-02  0.1226708E+00
        -11   -1    0    0    0    0  0.00000000000E+00  0.00000000000E+00  0.45593999997E+02  0.45594000000E+02  0.51100000000E-03 0. -1.
         11   -1    0    0    0    0 -0.00000000000E+00 -0.00000000000E+00 -0.45593999997E+02  0.45594000000E+02  0.51100000000E-03 0.  1.
    9900012    2    1    2    0    0  0.54009294909E+01 -0.15406596960E+02 -0.91732233767E+01  0.72461513507E+02  0.69999926024E+02 0.  0.
         12    1    1    2    0    0 -0.54009294909E+01  0.15406596960E+02  0.91732233767E+01  0.18726486493E+02  0.00000000000E+00 0. -1.
         11    1    3    3    0    0  0.22196572280E+02 -0.20280620097E+02  0.14824933751E+02  0.33522679390E+02  0.51100000000E-03 0. -1.
        -11    1    3    3    0    0 -0.54528727702E+01 -0.22375323101E+01 -0.24835079411E+02  0.25524920017E+02  0.51100000000E-03 0.  1.
        -12    1    3    3    0    0 -0.11342770019E+02  0.71115554470E+01  0.83692228367E+00  0.13413914100E+02  0.00000000000E+00 0.  1.
</event>
<event>
 7    1  0.1339094E-013  0.7246158E+02  0.7816164E-02  0.1226708E+00
        -11   -1    0    0    0    0  0.00000000000E+00  0.00000000000E+00  0.45593999997E+02  0.45594000000E+02  0.51100000000E-03 0.  1.
         11   -1    0    0    0    0 -0.00000000000E+00 -0.00000000000E+00 -0.45593999997E+02  0.45594000000E+02  0.51100000000E-03 0. -1.
    9900012    2    1    2    0    0 -0.15591323954E+02  0.96212321864E+01  0.38757167295E+01  0.72461583589E+02  0.70000017319E+02 0.  0.
         12    1    1    2    0    0  0.15591323954E+02 -0.96212321864E+01 -0.38757167295E+01  0.18726416411E+02  0.00000000000E+00 0. -1.
         11    1    3    3    0    0 -0.19765625173E+02 -0.58338748584E+01 -0.80892384451E+01  0.22139327298E+02  0.51100000000E-03 0. -1.
        -11    1    3    3    0    0  0.28982026363E+01 -0.32957370992E+01  0.26313438166E+02  0.26676928045E+02  0.51100000000E-03 0.  1.
         12    1    3    3    0    0  0.12760985825E+01  0.18750844144E+02 -0.14348482992E+02  0.23645328246E+02  0.00000000000E+00 0. -1.
</event>
<event>
 8    1  0.1339094E-013  0.7246158E+02  0.7816164E-02  0.1226708E+00
        -11   -1    0    0    0    0  0.00000000000E+00  0.00000000000E+00  0.45593999997E+02  0.45594000000E+02  0.51100000000E-03 0. -1.
         11   -1    0    0    0    0 -0.00000000000E+00 -0.00000000000E+00 -0.45593999997E+02  0.45594000000E+02  0.51100000000E-03 0.  1.
    9900012    2    1    2    0    0 -0.10461549136E+02  0.91077666286E+01  0.12581077933E+02  0.72461576283E+02  0.70000007802E+02 0.  0.
         24    2    3    3    0    0 -0.90138849369E+01  0.20827467166E+02  0.22617115057E+01  0.56779215618E+02  0.51997408369E+02 0.  0.
         12    1    1    2    0    0  0.10461549136E+02 -0.91077666286E+01 -0.12581077933E+02  0.18726423717E+02  0.00000000000E+00 0. -1.
         11    1    3    3    0    0 -0.14476641987E+01 -0.11719700537E+02  0.10319366427E+02  0.15682360665E+02  0.51100000000E-03 0. -1.
        -11    1    4    4    0    0 -0.50290599839E+01  0.38393114644E+02  0.13790006780E+01  0.38745636394E+02  0.51100000000E-03 0.  1.
         12    1    4    4    0    0 -0.39848249529E+01 -0.17565647478E+02  0.88271082769E+00  0.18033579224E+02  0.00000000000E+00 0. -1.
</event>
<event>
 7    1  0.1339094E-013  0.7246168E+02  0.7816164E-02  0.1226708E+00
        -11   -1    0    0    0    0  0.00000000000E+00  0.00000000000E+00  0.45593999997E+02  0.45594000000E+02  0.51100000000E-03 0. -1.
         11   -1    0    0    0    0 -0.00000000000E+00 -0.00000000000E+00 -0.45593999997E+02  0.45594000000E+02  0.51100000000E-03 0.  1.
    9900012    2    1    2    0    0 -0.70366095337E+00  0.11346561274E+02 -0.14880703005E+02  0.72461683934E+02  0.70000148037E+02 0.  0.
         12    1    1    2    0    0  0.70366095337E+00 -0.11346561274E+02  0.14880703005E+02  0.18726316066E+02  0.00000000000E+00 0. -1.
         11    1    3    3    0    0  0.26291479356E+02  0.40142541047E+01  0.82845687568E+01  0.27856600699E+02  0.51100000000E-03 0. -1.
        -11    1    3    3    0    0 -0.57044187189E+01  0.14549039901E+02 -0.89964126199E+01  0.18031927108E+02  0.51100000000E-03 0.  1.
         12    1    3    3    0    0 -0.21290721591E+02 -0.72167327316E+01 -0.14168859142E+02  0.26573156127E+02  0.00000000000E+00 0. -1.
</event>
<event>
 7    1  0.1339094E-013  0.7246158E+02  0.7816164E-02  0.1226708E+00
        -11   -1    0    0    0    0  0.00000000000E+00  0.00000000000E+00  0.45593999997E+02  0.45594000000E+02  0.51100000000E-03 0. -1.
         11   -1    0    0    0    0 -0.00000000000E+00 -0.00000000000E+00 -0.45593999997E+02  0.45594000000E+02  0.51100000000E-03 0.  1.
    9900012    2    1    2    0    0  0.21336807804E+01  0.17973936541E+02  0.48024815676E+01  0.72461579689E+02  0.70000012238E+02 0.  0.
         12    1    1    2    0    0 -0.21336807804E+01 -0.17973936541E+02 -0.48024815676E+01  0.18726420311E+02  0.00000000000E+00 0. -1.
         11    1    3    3    0    0 -0.10768513370E+02  0.41745962925E+01  0.77896909088E+01  0.13930808272E+02  0.51100000000E-03 0. -1.
        -11    1    3    3    0    0  0.20497818225E+02  0.32222520033E+02 -0.49396355533E+01  0.38507808934E+02  0.51100000000E-03 0.  1.
        -12    1    3    3    0    0 -0.75956240750E+01 -0.18423179784E+02  0.19524262121E+01  0.20022962482E+02  0.00000000000E+00 0.  1.
</event>
<event>
 8    1  0.1339094E-013  0.7246163E+02  0.7816164E-02  0.1226708E+00
        -11   -1    0    0    0    0  0.00000000000E+00  0.00000000000E+00  0.45593999997E+02  0.45594000000E+02  0.51100000000E-03 0.  1.
         11   -1    0    0    0    0 -0.00000000000E+00 -0.00000000000E+00 -0.45593999997E+02  0.45594000000E+02  0.51100000000E-03 0. -1.
    9900012    2    1    2    0    0  0.15393088693E+02  0.78129036883E+01  0.72586818374E+01  0.72461625402E+02  0.70000071788E+02 0.  0.
        -24    2    3    3    0    0  0.10439010810E+02 -0.64623739943E+01  0.27037687118E+01  0.56679557273E+02  0.55267772011E+02 0.  0.
         12    1    1    2    0    0 -0.15393088693E+02 -0.78129036883E+01 -0.72586818374E+01  0.18726374598E+02  0.00000000000E+00 0. -1.
         11    1    4    4    0    0  0.23365566663E+02 -0.10982213443E+02 -0.18271973928E+02  0.31629475953E+02  0.51100000000E-03 0. -1.
        -11    1    3    3    0    0  0.49540778832E+01  0.14275277683E+02  0.45549131256E+01  0.15782068129E+02  0.51100000000E-03 0.  1.
        -12    1    4    4    0    0 -0.12926555853E+02  0.45198394486E+01  0.20975742640E+02  0.25050081320E+02  0.00000000000E+00 0.  1.
</event>
<event>
 7    1  0.1339094E-013  0.7246156E+02  0.7816164E-02  0.1226708E+00
        -11   -1    0    0    0    0  0.00000000000E+00  0.00000000000E+00  0.45593999997E+02  0.45594000000E+02  0.51100000000E-03 0.  1.
         11   -1    0    0    0    0 -0.00000000000E+00 -0.00000000000E+00 -0.45593999997E+02  0.45594000000E+02  0.51100000000E-03 0. -1.
    9900012    2    1    2    0    0 -0.29222475932E+01  0.14930734851E+02  0.10918482825E+02  0.72461557695E+02  0.69999983588E+02 0.  0.
         12    1    1    2    0    0  0.29222475932E+01 -0.14930734851E+02 -0.10918482825E+02  0.18726442305E+02  0.00000000000E+00 0. -1.
         11    1    3    3    0    0  0.10712847335E+02 -0.56156792118E+01 -0.20142448986E+02  0.23495088901E+02  0.51100000000E-03 0. -1.
        -11    1    3    3    0    0  0.88873454150E+01  0.66662472726E+01  0.12040173097E+02  0.16382598380E+02  0.51100000000E-03 0.  1.
         12    1    3    3    0    0 -0.22522440343E+02  0.13880166790E+02  0.19020758714E+02  0.32583870414E+02  0.00000000000E+00 0. -1.
</event>
<event>
 7    1  0.1339094E-013  0.7246158E+02  0.7816164E-02  0.1226708E+00
        -11   -1    0    0    0    0  0.00000000000E+00  0.00000000000E+00  0.45593999997E+02  0.45594000000E+02  0.51100000000E-03 0.  1.
         11   -1    0    0    0    0 -0.00000000000E+00 -0.00000000000E+00 -0.45593999997E+02  0.45594000000E+02  0.51100000000E-03 0. -1.
    9900012    2    1    2    0    0 -0.72235587541E+01 -0.15243804397E+02  0.81317497534E+01  0.72461582093E+02  0.70000015370E+02 0.  0.
         12    1    1    2    0    0  0.72235587541E+01  0.15243804397E+02 -0.81317497534E+01  0.18726417907E+02  0.00000000000E+00 0. -1.
         11    1    3    3    0    0  0.37863335892E+01  0.13142220385E+02  0.24971251637E+01  0.13902874273E+02  0.51100000000E-03 0. -1.
        -11    1    3    3    0    0  0.60613244675E+01 -0.35611011435E+02  0.13307363929E+02  0.38496359889E+02  0.51100000000E-03 0.  1.
        -12    1    3    3    0    0 -0.17071216811E+02  0.72249866523E+01 -0.76727393397E+01  0.20062347931E+02  0.00000000000E+00 0.  1.
</event>
<event>
 7    1  0.1339094E-013  0.7246153E+02  0.7816164E-02  0.1226708E+00
        -11   -1    0    0    0    0  0.00000000000E+00  0.00000000000E+00  0.45593999997E+02  0.45594000000E+02  0.51100000000E-03 0. -1.
         11   -1    0    0    0    0 -0.00000000000E+00 -0.00000000000E+00 -0.45593999997E+02  0.45594000000E+02  0.51100000000E-03 0.  1.
    9900012    2    1    2    0    0 -0.14335935296E+02  0.11840481212E+02 -0.22281112815E+01  0.72461534342E+02  0.69999953165E+02 0.  0.
         12    1    1    2    0    0  0.14335935296E+02 -0.11840481212E+02  0.22281112815E+01  0.18726465658E+02  0.00000000000E+00 0. -1.
         11    1    3    3    0    0 -0.17665052663E+02 -0.17305507405E+02 -0.51846996645E+01  0.25266891043E+02  0.51100000000E-03 0. -1.
        -11    1    3    3    0    0  0.63566484370E+01  0.11921452686E+02 -0.16307060662E+02  0.21176596544E+02  0.51100000000E-03 0.  1.
         12    1    3    3    0    0 -0.30275310706E+01  0.17224535931E+02  0.19263649045E+02  0.26018046755E+02  0.00000000000E+00 0. -1.
</event>
<event>
 7    1  0.1339094E-013  0.7246166E+02  0.7816164E-02  0.1226708E+00
        -11   -1    0    0    0    0  0.00000000000E+00  0.00000000000E+00  0.45593999997E+02  0.45594000000E+02  0.51100000000E-03 0.  1.
         11   -1    0    0    0    0 -0.00000000000E+00 -0.00000000000E+00 -0.45593999997E+02  0.45594000000E+02  0.51100000000E-03 0. -1.
    9900012    2    1    2    0    0 -0.98673257335E+01  0.80797639950E+01 -0.13712373217E+02  0.72461658056E+02  0.70000114326E+02 0.  0.
         12    1    1    2    0    0  0.98673257335E+01 -0.80797639950E+01  0.13712373217E+02  0.18726341944E+02  0.00000000000E+00 0. -1.
         11    1    3    3    0    0  0.13530959130E+02 -0.10194858015E+02 -0.24228108205E+02  0.29563883581E+02  0.51100000000E-03 0. -1.
        -11    1    3    3    0    0 -0.10949231317E+02  0.24780112014E+02  0.98811871587E+01  0.28837085113E+02  0.51100000000E-03 0.  1.
         12    1    3    3    0    0 -0.12449053546E+02 -0.65054900046E+01  0.63454782975E+00  0.14060689362E+02  0.00000000000E+00 0. -1.
</event>
<event>
 8    1  0.1339094E-013  0.7246152E+02  0.7816164E-02  0.1226708E+00
        -11   -1    0    0    0    0  0.00000000000E+00  0.00000000000E+00  0.45593999997E+02  0.45594000000E+02  0.51100000000E-03 0. -1.
         11   -1    0    0    0    0 -0.00000000000E+00 -0.00000000000E+00 -0.45593999997E+02  0.45594000000E+02  0.51100000000E-03 0.  1.
    9900012    2    1    2    0    0  0.13413494603E+02  0.72020948138E+01 -0.10903623539E+02  0.72461521061E+02  0.69999935864E+02 0.  0.
         24    2    3    3    0    0  0.13841823778E+02  0.12813425885E+02  0.47011855078E+01  0.55872953675E+02  0.52382304634E+02 0.  0.
         12    1    1    2    0    0 -0.13413494603E+02 -0.72020948138E+01  0.10903623539E+02  0.18726478939E+02  0.00000000000E+00 0. -1.
         11    1    3    3    0    0 -0.42832917469E+00 -0.56113310711E+01 -0.15604809046E+02  0.16588567386E+02  0.51100000000E-03 0. -1.
        -11    1    4    4    0    0 -0.97366240572E+01  0.26267150202E+02 -0.14015507497E+01  0.28048696450E+02  0.51100000000E-03 0.  1.
         12    1    4    4    0    0  0.23578447835E+02 -0.13453724317E+02  0.61027362575E+01  0.27824257225E+02  0.00000000000E+00 0. -1.
</event>
<event>
 7    1  0.1339094E-013  0.7246158E+02  0.7816164E-02  0.1226708E+00
        -11   -1    0    0    0    0  0.00000000000E+00  0.00000000000E+00  0.45593999997E+02  0.45594000000E+02  0.51100000000E-03 0.  1.
         11   -1    0    0    0    0 -0.00000000000E+00 -0.00000000000E+00 -0.45593999997E+02  0.45594000000E+02  0.51100000000E-03 0. -1.
    9900012    2    1    2    0    0 -0.61860308927E+01 -0.32217430088E+01  0.17379075627E+02  0.72461578135E+02  0.70000010214E+02 0.  0.
         12    1    1    2    0    0  0.61860308927E+01  0.32217430088E+01 -0.17379075627E+02  0.18726421865E+02  0.00000000000E+00 0. -1.
         11    1    3    3    0    0  0.11622565287E+02 -0.17946027044E+02  0.45441210006E+01  0.21858475392E+02  0.51100000000E-03 0. -1.
        -11    1    3    3    0    0 -0.34775970245E+01  0.17444249971E+02  0.25631448188E+02  0.31198824891E+02  0.51100000000E-03 0.  1.
        -12    1    3    3    0    0 -0.14330999155E+02 -0.27199659360E+01 -0.12796493562E+02  0.19404277852E+02  0.00000000000E+00 0.  1.
</event>
<event>
 7    1  0.1339094E-013  0.7246159E+02  0.7816164E-02  0.1226708E+00
        -11   -1    0    0    0    0  0.00000000000E+00  0.00000000000E+00  0.45593999997E+02  0.45594000000E+02  0.51100000000E-03 0. -1.
         11   -1    0    0    0    0 -0.00000000000E+00 -0.00000000000E+00 -0.45593999997E+02  0.45594000000E+02  0.51100000000E-03 0.  1.
    9900012    2    1    2    0    0 -0.52529630755E+01  0.16333980945E+02 -0.75023821305E+01  0.72461593719E+02  0.70000030514E+02 0.  0.
         12    1    1    2    0    0  0.52529630755E+01 -0.16333980945E+02  0.75023821305E+01  0.18726406281E+02  0.00000000000E+00 0. -1.
         11    1    3    3    0    0 -0.90822448941E+01  0.10880371880E+02  0.29900990333E+02  0.33089860800E+02  0.51100000000E-03 0. -1.
        -11    1    3    3    0    0 -0.26144717774E+01  0.51948223435E+01 -0.19079456896E+02  0.19946110337E+02  0.51100000000E-03 0.  1.
         12    1    3    3    0    0  0.64437535960E+01  0.25878672117E+00 -0.18323915568E+02  0.19425622582E+02  0.00000000000E+00 0. -1.
</event>
<event>
 7    1  0.1339094E-013  0.7246155E+02  0.7816164E-02  0.1226708E+00
        -11   -1    0    0    0    0  0.00000000000E+00  0.00000000000E+00  0.45593999997E+02  0.45594000000E+02  0.51100000000E-03 0.  1.
         11   -1    0    0    0    0 -0.00000000000E+00 -0.00000000000E+00 -0.45593999997E+02  0.45594000000E+02  0.51100000000E-03 0. -1.
    9900012    2    1    2    0    0 -0.14490241284E+02  0.72635380744E+01  0.93783697532E+01  0.72461550869E+02  0.69999974695E+02 0.  0.
         12    1    1    2    0    0  0.14490241284E+02 -0.72635380744E+01 -0.93783697532E+01  0.18726449131E+02  0.00000000000E+00 0. -1.
         11    1    3    3    0    0  0.15095460708E+02  0.43366214290E+01 -0.17680890962E+02  0.23649378953E+02  0.51100000000E-03 0. -1.
        -11    1    3    3    0    0 -0.17790315934E+02 -0.60957041967E+01  0.28224794597E+02  0.33915954668E+02  0.51100000000E-03 0.  1.
        -12    1    3    3    0    0 -0.11795386057E+02  0.90226208421E+01 -0.11655338820E+01  0.14896217249E+02  0.00000000000E+00 0.  1.
</event>
<event>
 7    1  0.1339094E-013  0.7246168E+02  0.7816164E-02  0.1226708E+00
        -11   -1    0    0    0    0  0.00000000000E+00  0.00000000000E+00  0.45593999997E+02  0.45594000000E+02  0.51100000000E-03 0.  1.
         11   -1    0    0    0    0 -0.00000000000E+00 -0.00000000000E+00 -0.45593999997E+02  0.45594000000E+02  0.51100000000E-03 0. -1.
    9900012    2    1    2    0    0  0.14245329788E+02  0.11946038943E+02 -0.22444613124E+01  0.72461684992E+02  0.70000149415E+02 0.  0.
         12    1    1    2    0    0 -0.14245329788E+02 -0.11946038943E+02  0.22444613124E+01  0.18726315008E+02  0.00000000000E+00 0. -1.
         11    1    3    3    0    0  0.30762080926E+01 -0.17635923537E+02 -0.16008950293E+01  0.17973639598E+02  0.51100000000E-03 0. -1.
        -11    1    3    3    0    0 -0.13455596691E+02  0.12752677119E+02  0.12009731570E+02  0.22088854851E+02  0.51100000000E-03 0.  1.
        -12    1    3    3    0    0  0.24624718386E+02  0.16829285361E+02 -0.12653297853E+02  0.32399190544E+02  0.00000000000E+00 0.  1.
</event>
<event>
 7    1  0.1339094E-013  0.7246162E+02  0.7816164E-02  0.1226708E+00
        -11   -1    0    0    0    0  0.00000000000E+00  0.00000000000E+00  0.45593999997E+02  0.45594000000E+02  0.51100000000E-03 0.  1.
         11   -1    0    0    0    0 -0.00000000000E+00 -0.00000000000E+00 -0.45593999997E+02  0.45594000000E+02  0.51100000000E-03 0. -1.
    9900012    2    1    2    0    0 -0.18115561593E+02  0.29505711428E+01 -0.37145400379E+01  0.72461621557E+02  0.70000066779E+02 0.  0.
         12    1    1    2    0    0  0.18115561593E+02 -0.29505711428E+01  0.37145400379E+01  0.18726378443E+02  0.00000000000E+00 0. -1.
         11    1    3    3    0    0 -0.31377230261E+02  0.24139990454E+01  0.89758180701E+01  0.32724964180E+02  0.51100000000E-03 0. -1.
        -11    1    3    3    0    0  0.17142110802E+02  0.13384911274E+02 -0.73278391101E+00  0.21761084190E+02  0.51100000000E-03 0.  1.
         12    1    3    3    0    0 -0.38804421338E+01 -0.12848339177E+02 -0.11957574197E+02  0.17975573188E+02  0.00000000000E+00 0. -1.
</event>
<event>
 7    1  0.1339094E-013  0.7246157E+02  0.7816164E-02  0.1226708E+00
        -11   -1    0    0    0    0  0.00000000000E+00  0.00000000000E+00  0.45593999997E+02  0.45594000000E+02  0.51100000000E-03 0.  1.
         11   -1    0    0    0    0 -0.00000000000E+00 -0.00000000000E+00 -0.45593999997E+02  0.45594000000E+02  0.51100000000E-03 0. -1.
    9900012    2    1    2    0    0 -0.13084471617E+02  0.13395864866E+02  0.16324396300E+00  0.72461568370E+02  0.69999997493E+02 0.  0.
         12    1    1    2    0    0  0.13084471617E+02 -0.13395864866E+02 -0.16324396300E+00  0.18726431630E+02  0.00000000000E+00 0. -1.
         11    1    3    3    0    0  0.39938475502E+01 -0.66435803249E+01 -0.21160682879E+02  0.22535804355E+02  0.51100000000E-03 0. -1.
        -11    1    3    3    0    0 -0.24024057777E+02  0.25440293583E+02  0.21603868686E+02  0.41122877236E+02  0.51100000000E-03 0.  1.
        -12    1    3    3    0    0  0.69457386103E+01 -0.54008483923E+01 -0.27994184472E+00  0.88028867785E+01  0.00000000000E+00 0.  1.
</event>
<event>
 7    1  0.1339094E-013  0.7246181E+02  0.7816164E-02  0.1226707E+00
        -11   -1    0    0    0    0  0.00000000000E+00  0.00000000000E+00  0.45593999997E+02  0.45594000000E+02  0.51100000000E-03 0.  1.
         11   -1    0    0    0    0 -0.00000000000E+00 -0.00000000000E+00 -0.45593999997E+02  0.45594000000E+02  0.51100000000E-03 0. -1.
    9900012    2    1    2    0    0  0.69119738207E+01 -0.10318446248E+02  0.14015149947E+02  0.72461811303E+02  0.70000313958E+02 0.  0.
         12    1    1    2    0    0 -0.69119738207E+01  0.10318446248E+02 -0.14015149947E+02  0.18726188697E+02  0.00000000000E+00 0. -1.
         11    1    3    3    0    0  0.79733217692E+01  0.14671777894E+02  0.12367277925E+02  0.20779424683E+02  0.51100000000E-03 0. -1.
        -11    1    3    3    0    0 -0.19231447676E+02 -0.22926082528E+02 -0.80432169995E+01  0.30986241782E+02  0.51100000000E-03 0.  1.
        -12    1    3    3    0    0  0.18170099728E+02 -0.20641416144E+01  0.96910890215E+01  0.20696144838E+02  0.00000000000E+00 0.  1.
</event>
<event>
 7    1  0.1339094E-013  0.7246101E+02  0.7816164E-02  0.1226710E+00
        -11   -1    0    0    0    0  0.00000000000E+00  0.00000000000E+00  0.45593999997E+02  0.45594000000E+02  0.51100000000E-03 0. -1.
         11   -1    0    0    0    0 -0.00000000000E+00 -0.00000000000E+00 -0.45593999997E+02  0.45594000000E+02  0.51100000000E-03 0.  1.
    9900012    2    1    2    0    0 -0.10311447050E+02 -0.24789718226E+01 -0.15434671904E+02  0.72461005090E+02  0.69999263713E+02 0.  0.
         12    1    1    2    0    0  0.10311447050E+02  0.24789718226E+01  0.15434671904E+02  0.18726994910E+02  0.00000000000E+00 0. -1.
         11    1    3    3    0    0 -0.12400553420E+02 -0.77575806560E+00  0.23638508309E+02  0.26704954616E+02  0.51100000000E-03 0. -1.
        -11    1    3    3    0    0 -0.38810381499E+01  0.93541001503E+01 -0.24516044849E+02  0.26525423692E+02  0.51100000000E-03 0.  1.
         12    1    3    3    0    0  0.59701445190E+01 -0.11057313907E+02 -0.14557135365E+02  0.19230626782E+02  0.00000000000E+00 0. -1.
</event>
<event>
 7    1  0.1339094E-013  0.7246155E+02  0.7816164E-02  0.1226708E+00
        -11   -1    0    0    0    0  0.00000000000E+00  0.00000000000E+00  0.45593999997E+02  0.45594000000E+02  0.51100000000E-03 0.  1.
         11   -1    0    0    0    0 -0.00000000000E+00 -0.00000000000E+00 -0.45593999997E+02  0.45594000000E+02  0.51100000000E-03 0. -1.
    9900012    2    1    2    0    0 -0.13371804917E+02  0.11163163025E+02  0.68744754221E+01  0.72461553786E+02  0.69999978495E+02 0.  0.
         12    1    1    2    0    0  0.13371804917E+02 -0.11163163025E+02 -0.68744754221E+01  0.18726446214E+02  0.00000000000E+00 0. -1.
         11    1    3    3    0    0  0.72788020640E+01 -0.94542946375E+01 -0.23595350275E+02  0.26440597600E+02  0.51100000000E-03 0. -1.
        -11    1    3    3    0    0 -0.11005570975E+02  0.22133729586E+02  0.22257134806E+02  0.33262661167E+02  0.51100000000E-03 0.  1.
         12    1    3    3    0    0 -0.96450360064E+01 -0.15162719235E+01  0.82126908912E+01  0.12758295019E+02  0.00000000000E+00 0. -1.
</event>
<event>
 7    1  0.1339094E-013  0.7246125E+02  0.7816164E-02  0.1226709E+00
        -11   -1    0    0    0    0  0.00000000000E+00  0.00000000000E+00  0.45593999997E+02  0.45594000000E+02  0.51100000000E-03 0.  1.
         11   -1    0    0    0    0 -0.00000000000E+00 -0.00000000000E+00 -0.45593999997E+02  0.45594000000E+02  0.51100000000E-03 0. -1.
    9900012    2    1    2    0    0 -0.18136456664E+02  0.27938018097E+01  0.37356203969E+01  0.72461247782E+02  0.69999579867E+02 0.  0.
         12    1    1    2    0    0  0.18136456664E+02 -0.27938018097E+01 -0.37356203969E+01  0.18726752218E+02  0.00000000000E+00 0. -1.
         11    1    3    3    0    0  0.17591501036E+02  0.17160202751E+02  0.13946140612E+02  0.28256473690E+02  0.51100000000E-03 0. -1.
        -11    1    3    3    0    0 -0.61629096281E+01  0.57215356542E+00  0.48049666564E+01  0.78355931247E+01  0.51100000000E-03 0.  1.
         12    1    3    3    0    0 -0.29565048072E+02 -0.14938554507E+02 -0.15015486871E+02  0.36369180967E+02  0.00000000000E+00 0. -1.
</event>
<event>
 7    1  0.1339094E-013  0.7246163E+02  0.7816164E-02  0.1226708E+00
        -11   -1    0    0    0    0  0.00000000000E+00  0.00000000000E+00  0.45593999997E+02  0.45594000000E+02  0.51100000000E-03 0.  1.
         11   -1    0    0    0    0 -0.00000000000E+00 -0.00000000000E+00 -0.45593999997E+02  0.45594000000E+02  0.51100000000E-03 0. -1.
    9900012    2    1    2    0    0 -0.57829343335E+01 -0.83706902231E+01  0.15721520034E+02  0.72461628849E+02  0.70000076278E+02 0.  0.
         12    1    1    2    0    0  0.57829343335E+01  0.83706902231E+01 -0.15721520034E+02  0.18726371151E+02  0.00000000000E+00 0. -1.
         11    1    3    3    0    0  0.14497639703E+02 -0.23949742585E+02 -0.98480123647E+01  0.29677518000E+02  0.51100000000E-03 0. -1.
        -11    1    3    3    0    0 -0.12750781664E+02  0.19070939263E+02  0.97650341177E+01  0.24932690368E+02  0.51100000000E-03 0.  1.
        -12    1    3    3    0    0 -0.75297923727E+01 -0.34918869011E+01  0.15804498281E+02  0.17851420482E+02  0.00000000000E+00 0.  1.
</event>
<event>
 7    1  0.1339094E-013  0.7246161E+02  0.7816164E-02  0.1226708E+00
        -11   -1    0    0    0    0  0.00000000000E+00  0.00000000000E+00  0.45593999997E+02  0.45594000000E+02  0.51100000000E-03 0.  1.
         11   -1    0    0    0    0 -0.00000000000E+00 -0.00000000000E+00 -0.45593999997E+02  0.45594000000E+02  0.51100000000E-03 0. -1.
    9900012    2    1    2    0    0 -0.74740476718E+01  0.40788762036E+00  0.17165369519E+02  0.72461610289E+02  0.70000052100E+02 0.  0.
         12    1    1    2    0    0  0.74740476718E+01 -0.40788762036E+00 -0.17165369519E+02  0.18726389711E+02  0.00000000000E+00 0. -1.
         11    1    3    3    0    0  0.30398222942E+01  0.11200704628E+02 -0.15463627979E+02  0.19334427694E+02  0.51100000000E-03 0. -1.
        -11    1    3    3    0    0 -0.23487647484E+01 -0.24249036932E+02  0.11938736522E+02  0.27130534790E+02  0.51100000000E-03 0.  1.
        -12    1    3    3    0    0 -0.81651052177E+01  0.13456219924E+02  0.20690260975E+02  0.25996647805E+02  0.00000000000E+00 0.  1.
</event>
<event>
 7    1  0.1339094E-013  0.7246160E+02  0.7816164E-02  0.1226708E+00
        -11   -1    0    0    0    0  0.00000000000E+00  0.00000000000E+00  0.45593999997E+02  0.45594000000E+02  0.51100000000E-03 0.  1.
         11   -1    0    0    0    0 -0.00000000000E+00 -0.00000000000E+00 -0.45593999997E+02  0.45594000000E+02  0.51100000000E-03 0. -1.
    9900012    2    1    2    0    0 -0.32773375180E+01 -0.13797428737E+01  0.18385686581E+02  0.72461598780E+02  0.70000037107E+02 0.  0.
         12    1    1    2    0    0  0.32773375180E+01  0.13797428737E+01 -0.18385686581E+02  0.18726401220E+02  0.00000000000E+00 0. -1.
         11    1    3    3    0    0 -0.22996681746E+02 -0.17546331878E+02  0.10703246760E+01  0.28945927673E+02  0.51100000000E-03 0. -1.
        -11    1    3    3    0    0  0.12933016672E+02 -0.55236764105E+01  0.15172672568E+02  0.20687772100E+02  0.51100000000E-03 0.  1.
         12    1    3    3    0    0  0.67863275553E+01  0.21690265415E+02  0.21426893371E+01  0.22827899007E+02  0.00000000000E+00 0. -1.
</event>
<event>
 7    1  0.1339094E-013  0.7246150E+02  0.7816164E-02  0.1226708E+00
        -11   -1    0    0    0    0  0.00000000000E+00  0.00000000000E+00  0.45593999997E+02  0.45594000000E+02  0.51100000000E-03 0. -1.
         11   -1    0    0    0    0 -0.00000000000E+00 -0.00000000000E+00 -0.45593999997E+02  0.45594000000E+02  0.51100000000E-03 0.  1.
    9900012    2    1    2    0    0  0.30304482843E+01 -0.83184197552E+01 -0.16501583504E+02  0.72461495197E+02  0.69999902171E+02 0.  0.
         12    1    1    2    0    0 -0.30304482843E+01  0.83184197552E+01  0.16501583504E+02  0.18726504803E+02  0.00000000000E+00 0. -1.
         11    1    3    3    0    0  0.35943176703E+01  0.15959376147E+02  0.10525068620E+02  0.19452451677E+02  0.51100000000E-03 0. -1.
        -11    1    3    3    0    0 -0.32612851057E+01 -0.29866008893E+02 -0.54193727471E+01  0.30528414124E+02  0.51100000000E-03 0.  1.
         12    1    3    3    0    0  0.26974157198E+01  0.55882129901E+01 -0.21607279376E+02  0.22480629396E+02  0.00000000000E+00 0. -1.
</event>
<event>
 7    1  0.1339094E-013  0.7246157E+02  0.7816164E-02  0.1226708E+00
        -11   -1    0    0    0    0  0.00000000000E+00  0.00000000000E+00  0.45593999997E+02  0.45594000000E+02  0.51100000000E-03 0. -1.
         11   -1    0    0    0    0 -0.00000000000E+00 -0.00000000000E+00 -0.45593999997E+02  0.45594000000E+02  0.51100000000E-03 0.  1.
    9900012    2    1    2    0    0 -0.15573614712E+02  0.65327777061E+01  0.80910047265E+01  0.72461574361E+02  0.70000005297E+02 0.  0.
         12    1    1    2    0    0  0.15573614712E+02 -0.65327777061E+01 -0.80910047265E+01  0.18726425639E+02  0.00000000000E+00 0. -1.
         11    1    3    3    0    0 -0.27658628289E+01 -0.11052353103E+02  0.12721690436E+02  0.17077643693E+02  0.51100000000E-03 0. -1.
        -11    1    3    3    0    0  0.15590112465E+02  0.52457429469E+01 -0.15467878419E+02  0.22579297792E+02  0.51100000000E-03 0.  1.
        -12    1    3    3    0    0 -0.28397864347E+02  0.12339387862E+02  0.10837192710E+02  0.32804632876E+02  0.00000000000E+00 0.  1.
</event>
<event>
 7    1  0.1339094E-013  0.7246158E+02  0.7816164E-02  0.1226708E+00
        -11   -1    0    0    0    0  0.00000000000E+00  0.00000000000E+00  0.45593999997E+02  0.45594000000E+02  0.51100000000E-03 0. -1.
         11   -1    0    0    0    0 -0.00000000000E+00 -0.00000000000E+00 -0.45593999997E+02  0.45594000000E+02  0.51100000000E-03 0.  1.
    9900012    2    1    2    0    0 -0.15090409071E+02 -0.10516387134E+02  0.35162682957E+01  0.72461575168E+02  0.70000006349E+02 0.  0.
         12    1    1    2    0    0  0.15090409071E+02  0.10516387134E+02 -0.35162682957E+01  0.18726424832E+02  0.00000000000E+00 0. -1.
         11    1    3    3    0    0 -0.46559765416E+00  0.79341408326E+01  0.27430005899E+02  0.28558231665E+02  0.51100000000E-03 0. -1.
        -11    1    3    3    0    0 -0.19962685283E+02 -0.96319832130E+01 -0.55579273235E+01  0.22851136968E+02  0.51100000000E-03 0.  1.
         12    1    3    3    0    0  0.53378738666E+01 -0.88185447535E+01 -0.18355810280E+02  0.21052206535E+02  0.00000000000E+00 0. -1.
</event>
<event>
 7    1  0.1339094E-013  0.7246157E+02  0.7816164E-02  0.1226708E+00
        -11   -1    0    0    0    0  0.00000000000E+00  0.00000000000E+00  0.45593999997E+02  0.45594000000E+02  0.51100000000E-03 0.  1.
         11   -1    0    0    0    0 -0.00000000000E+00 -0.00000000000E+00 -0.45593999997E+02  0.45594000000E+02  0.51100000000E-03 0. -1.
    9900012    2    1    2    0    0 -0.34712784873E+01  0.14775793672E+02  0.10968379449E+02  0.72461569462E+02  0.69999998916E+02 0.  0.
         12    1    1    2    0    0  0.34712784873E+01 -0.14775793672E+02 -0.10968379449E+02  0.18726430538E+02  0.00000000000E+00 0. -1.
         11    1    3    3    0    0  0.27357474549E+02  0.64150292579E+00  0.12984820980E+01  0.27395784269E+02  0.51100000000E-03 0. -1.
        -11    1    3    3    0    0 -0.25327773255E+02 -0.58492770513E+00  0.13757960063E+02  0.28829146776E+02  0.51100000000E-03 0.  1.
         12    1    3    3    0    0 -0.55009797816E+01  0.14719218451E+02 -0.40880627124E+01  0.16236638418E+02  0.00000000000E+00 0. -1.
</event>
<event>
 7    1  0.1339094E-013  0.7246151E+02  0.7816164E-02  0.1226708E+00
        -11   -1    0    0    0    0  0.00000000000E+00  0.00000000000E+00  0.45593999997E+02  0.45594000000E+02  0.51100000000E-03 0.  1.
         11   -1    0    0    0    0 -0.00000000000E+00 -0.00000000000E+00 -0.45593999997E+02  0.45594000000E+02  0.51100000000E-03 0. -1.
    9900012    2    1    2    0    0 -0.16329368270E+02  0.84594242074E+01  0.35314509093E+01  0.72461514170E+02  0.69999926888E+02 0.  0.
         12    1    1    2    0    0  0.16329368270E+02 -0.84594242074E+01 -0.35314509093E+01  0.18726485830E+02  0.00000000000E+00 0. -1.
         11    1    3    3    0    0  0.45364025857E+01  0.15703845696E+00 -0.77299815077E+01  0.89641633111E+01  0.51100000000E-03 0. -1.
        -11    1    3    3    0    0 -0.33774201193E+02 -0.73631998358E+01  0.21555495091E+02  0.40737608508E+02  0.51100000000E-03 0.  1.
        -12    1    3    3    0    0  0.12908430338E+02  0.15665585586E+02 -0.10294062674E+02  0.22759742351E+02  0.00000000000E+00 0.  1.
</event>
<event>
 7    1  0.1339094E-013  0.7246157E+02  0.7816164E-02  0.1226708E+00
        -11   -1    0    0    0    0  0.00000000000E+00  0.00000000000E+00  0.45593999997E+02  0.45594000000E+02  0.51100000000E-03 0. -1.
         11   -1    0    0    0    0 -0.00000000000E+00 -0.00000000000E+00 -0.45593999997E+02  0.45594000000E+02  0.51100000000E-03 0.  1.
    9900012    2    1    2    0    0  0.12846748915E+02  0.23274893966E+01 -0.13424716022E+02  0.72461570419E+02  0.70000000163E+02 0.  0.
         12    1    1    2    0    0 -0.12846748915E+02 -0.23274893966E+01  0.13424716022E+02  0.18726429581E+02  0.00000000000E+00 0. -1.
         11    1    3    3    0    0  0.15531098025E+01 -0.30943130634E+02  0.19402683032E+01  0.31042778949E+02  0.51100000000E-03 0. -1.
        -11    1    3    3    0    0  0.13732296016E+02  0.32127987993E+02 -0.11650856881E+02  0.36831047130E+02  0.51100000000E-03 0.  1.
         12    1    3    3    0    0 -0.24386569036E+01  0.11426320384E+01 -0.37141274438E+01  0.45877443409E+01  0.00000000000E+00 0. -1.
</event>
<event>
 7    1  0.1339094E-013  0.7246161E+02  0.7816164E-02  0.1226708E+00
        -11   -1    0    0    0    0  0.00000000000E+00  0.00000000000E+00  0.45593999997E+02  0.45594000000E+02  0.51100000000E-03 0. -1.
         11   -1    0    0    0    0 -0.00000000000E+00 -0.00000000000E+00 -0.45593999997E+02  0.45594000000E+02  0.51100000000E-03 0.  1.
    9900012    2    1    2    0    0 -0.97435092323E+00  0.17297253911E+01 -0.18620861054E+02  0.72461607501E+02  0.70000048468E+02 0.  0.
         12    1    1    2    0    0  0.97435092323E+00 -0.17297253911E+01  0.18620861054E+02  0.18726392499E+02  0.00000000000E+00 0. -1.
         11    1    3    3    0    0  0.61126828827E+01  0.27001349911E+02 -0.87262981751E+01  0.29027333139E+02  0.51100000000E-03 0. -1.
        -11    1    3    3    0    0 -0.20221955041E+02 -0.17916332562E+02 -0.42124452316E+01  0.27343502578E+02  0.51100000000E-03 0.  1.
        -12    1    3    3    0    0  0.13134921235E+02 -0.73552919581E+01 -0.56821176473E+01  0.16090771784E+02  0.00000000000E+00 0.  1.
</event>
<event>
 7    1  0.1339094E-013  0.7246152E+02  0.7816164E-02  0.1226708E+00
        -11   -1    0    0    0    0  0.00000000000E+00  0.00000000000E+00  0.45593999997E+02  0.45594000000E+02  0.51100000000E-03 0.  1.
         11   -1    0    0    0    0 -0.00000000000E+00 -0.00000000000E+00 -0.45593999997E+02  0.45594000000E+02  0.51100000000E-03 0. -1.
    9900012    2    1    2    0    0 -0.13409067630E+02  0.86863150420E+01  0.97686114830E+01  0.72461523182E+02  0.69999938627E+02 0.  0.
         12    1    1    2    0    0  0.13409067630E+02 -0.86863150420E+01 -0.97686114830E+01  0.18726476818E+02  0.00000000000E+00 0. -1.
         11    1    3    3    0    0  0.16834496690E+02  0.64732204735E+01 -0.82429491790E+01  0.19830508655E+02  0.51100000000E-03 0. -1.
        -11    1    3    3    0    0 -0.19773675390E+02 -0.11050687181E+02  0.25534506074E+02  0.34133955620E+02  0.51100000000E-03 0.  1.
        -12    1    3    3    0    0 -0.10469888930E+02  0.13263781750E+02 -0.75229454119E+01  0.18497058906E+02  0.00000000000E+00 0.  1.
</event>
<event>
 7    1  0.1339094E-013  0.7246160E+02  0.7816164E-02  0.1226708E+00
        -11   -1    0    0    0    0  0.00000000000E+00  0.00000000000E+00  0.45593999997E+02  0.45594000000E+02  0.51100000000E-03 0. -1.
         11   -1    0    0    0    0 -0.00000000000E+00 -0.00000000000E+00 -0.45593999997E+02  0.45594000000E+02  0.51100000000E-03 0.  1.
    9900012    2    1    2    0    0 -0.17759704987E+02  0.38688246095E+01 -0.45059131606E+01  0.72461596755E+02  0.70000034470E+02 0.  0.
         12    1    1    2    0    0  0.17759704987E+02 -0.38688246095E+01  0.45059131606E+01  0.18726403245E+02  0.00000000000E+00 0. -1.
         11    1    3    3    0    0 -0.21412780199E+02  0.32056209285E+01  0.67438630990E+01  0.22677364290E+02  0.51100000000E-03 0. -1.
        -11    1    3    3    0    0 -0.24217998405E+01 -0.10769882999E+02 -0.27133164755E+02  0.29292731592E+02  0.51100000000E-03 0.  1.
        -12    1    3    3    0    0  0.60748750524E+01  0.11433086680E+02  0.15883388495E+02  0.20491500873E+02  0.00000000000E+00 0.  1.
</event>
<event>
 7    1  0.1339094E-013  0.7246148E+02  0.7816164E-02  0.1226708E+00
        -11   -1    0    0    0    0  0.00000000000E+00  0.00000000000E+00  0.45593999997E+02  0.45594000000E+02  0.51100000000E-03 0.  1.
         11   -1    0    0    0    0 -0.00000000000E+00 -0.00000000000E+00 -0.45593999997E+02  0.45594000000E+02  0.51100000000E-03 0. -1.
    9900012    2    1    2    0    0 -0.10700307543E+02  0.27682185364E+01  0.15116970625E+02  0.72461483606E+02  0.69999887072E+02 0.  0.
         12    1    1    2    0    0  0.10700307543E+02 -0.27682185364E+01 -0.15116970625E+02  0.18726516394E+02  0.00000000000E+00 0. -1.
         11    1    3    3    0    0  0.14327875059E+02 -0.76569138229E+01  0.33703379091E+01  0.16591428838E+02  0.51100000000E-03 0.  1.
        -11    1    3    3    0    0 -0.29994043222E+01  0.26309336725E+02  0.11077555880E+02  0.28703481840E+02  0.51100000000E-03 0. -1.
        -12    1    3    3    0    0 -0.22028778280E+02 -0.15884204366E+02  0.66907683642E+00  0.27166572928E+02  0.00000000000E+00 0.  1.
</event>
<event>
 7    1  0.1339094E-013  0.7246168E+02  0.7816164E-02  0.1226708E+00
        -11   -1    0    0    0    0  0.00000000000E+00  0.00000000000E+00  0.45593999997E+02  0.45594000000E+02  0.51100000000E-03 0.  1.
         11   -1    0    0    0    0 -0.00000000000E+00 -0.00000000000E+00 -0.45593999997E+02  0.45594000000E+02  0.51100000000E-03 0. -1.
    9900012    2    1    2    0    0 -0.10163427608E+02  0.12897922643E+02  0.90012969029E+01  0.72461681216E+02  0.70000144497E+02 0.  0.
         12    1    1    2    0    0  0.10163427608E+02 -0.12897922643E+02 -0.90012969029E+01  0.18726318784E+02  0.00000000000E+00 0. -1.
         11    1    3    3    0    0 -0.11745714987E+02 -0.14698866572E+02 -0.16118477061E+02  0.24775467748E+02  0.51100000000E-03 0. -1.
        -11    1    3    3    0    0 -0.11984735933E+02  0.19584752867E+02  0.77465895049E+01  0.24232335617E+02  0.51100000000E-03 0.  1.
         12    1    3    3    0    0  0.13567023313E+02  0.80120363485E+01  0.17373184459E+02  0.23453877852E+02  0.00000000000E+00 0. -1.
</event>
<event>
 7    1  0.1339094E-013  0.7246156E+02  0.7816164E-02  0.1226708E+00
        -11   -1    0    0    0    0  0.00000000000E+00  0.00000000000E+00  0.45593999997E+02  0.45594000000E+02  0.51100000000E-03 0. -1.
         11   -1    0    0    0    0 -0.00000000000E+00 -0.00000000000E+00 -0.45593999997E+02  0.45594000000E+02  0.51100000000E-03 0.  1.
    9900012    2    1    2    0    0  0.26962133644E+00  0.97977454563E+01 -0.15956541541E+02  0.72461555339E+02  0.69999980518E+02 0.  0.
         12    1    1    2    0    0 -0.26962133644E+00 -0.97977454563E+01  0.15956541541E+02  0.18726444661E+02  0.00000000000E+00 0. -1.
         11    1    3    3    0    0  0.70156891695E+01 -0.23999420537E+02  0.81723853810E+01  0.26305512041E+02  0.51100000000E-03 0. -1.
        -11    1    3    3    0    0  0.32615667375E+00  0.91801249548E+01 -0.17397136180E+02  0.19673368290E+02  0.51100000000E-03 0.  1.
         12    1    3    3    0    0 -0.70722245068E+01  0.24617041039E+02 -0.67317907420E+01  0.26482675008E+02  0.00000000000E+00 0. -1.
</event>
<event>
 7    1  0.1339094E-013  0.7246078E+02  0.7816164E-02  0.1226710E+00
        -11   -1    0    0    0    0  0.00000000000E+00  0.00000000000E+00  0.45593999997E+02  0.45594000000E+02  0.51100000000E-03 0. -1.
         11   -1    0    0    0    0 -0.00000000000E+00 -0.00000000000E+00 -0.45593999997E+02  0.45594000000E+02  0.51100000000E-03 0.  1.
    9900012    2    1    2    0    0 -0.18422315177E+02  0.91159949855E+00  0.32397700891E+01  0.72460778627E+02  0.69998968698E+02 0.  0.
         12    1    1    2    0    0  0.18422315177E+02 -0.91159949855E+00 -0.32397700891E+01  0.18727221373E+02  0.00000000000E+00 0. -1.
         11    1    3    3    0    0  0.37161375474E+01  0.11127914127E+02  0.15230692805E+02  0.19225351874E+02  0.51100000000E-03 0. -1.
        -11    1    3    3    0    0 -0.24675857946E+02  0.95036868431E+01 -0.18548222045E+02  0.32299451548E+02  0.51100000000E-03 0.  1.
         12    1    3    3    0    0  0.25374052217E+01 -0.19720001471E+02  0.65572993290E+01  0.20935975205E+02  0.00000000000E+00 0. -1.
</event>
<event>
 7    1  0.1339094E-013  0.7246147E+02  0.7816164E-02  0.1226708E+00
        -11   -1    0    0    0    0  0.00000000000E+00  0.00000000000E+00  0.45593999997E+02  0.45594000000E+02  0.51100000000E-03 0. -1.
         11   -1    0    0    0    0 -0.00000000000E+00 -0.00000000000E+00 -0.45593999997E+02  0.45594000000E+02  0.51100000000E-03 0.  1.
    9900012    2    1    2    0    0 -0.12894703555E+02  0.58974252374E+01 -0.12232323974E+02  0.72461474588E+02  0.69999875325E+02 0.  0.
         12    1    1    2    0    0  0.12894703555E+02 -0.58974252374E+01  0.12232323974E+02  0.18726525412E+02  0.00000000000E+00 0. -1.
         11    1    3    3    0    0  0.53783604504E+01  0.20481176597E+02  0.16431410457E+02  0.26802921591E+02  0.51100000000E-03 0. -1.
        -11    1    3    3    0    0  0.17745195245E+01 -0.15359124377E+02 -0.11794539541E+02  0.19446408008E+02  0.51100000000E-03 0.  1.
        -12    1    3    3    0    0 -0.20047583530E+02  0.77537301736E+00 -0.16869194890E+02  0.26212144989E+02  0.00000000000E+00 0.  1.
</event>
<event>
 7    1  0.1339094E-013  0.7246158E+02  0.7816164E-02  0.1226708E+00
        -11   -1    0    0    0    0  0.00000000000E+00  0.00000000000E+00  0.45593999997E+02  0.45594000000E+02  0.51100000000E-03 0.  1.
         11   -1    0    0    0    0 -0.00000000000E+00 -0.00000000000E+00 -0.45593999997E+02  0.45594000000E+02  0.51100000000E-03 0. -1.
    9900012    2    1    2    0    0  0.31615978447E+01  0.13612353591E+02  0.12465432043E+02  0.72461578366E+02  0.70000010515E+02 0.  0.
         12    1    1    2    0    0 -0.31615978447E+01 -0.13612353591E+02 -0.12465432043E+02  0.18726421634E+02  0.00000000000E+00 0. -1.
         11    1    3    3    0    0  0.19213389240E+02  0.82609570955E+00 -0.25132628970E+01  0.19394670682E+02  0.51100000000E-03 0. -1.
        -11    1    3    3    0    0 -0.17311572789E+02 -0.49236707775E+01  0.26403274973E+02  0.31954123614E+02  0.51100000000E-03 0.  1.
        -12    1    3    3    0    0  0.12597813932E+01  0.17709928659E+02 -0.11424580034E+02  0.21112784070E+02  0.00000000000E+00 0.  1.
</event>
<event>
 7    1  0.1339094E-013  0.7246154E+02  0.7816164E-02  0.1226708E+00
        -11   -1    0    0    0    0  0.00000000000E+00  0.00000000000E+00  0.45593999997E+02  0.45594000000E+02  0.51100000000E-03 0.  1.
         11   -1    0    0    0    0 -0.00000000000E+00 -0.00000000000E+00 -0.45593999997E+02  0.45594000000E+02  0.51100000000E-03 0. -1.
    9900012    2    1    2    0    0 -0.66661601692E+01 -0.16201684198E+02  0.66142322050E+01  0.72461539312E+02  0.69999959640E+02 0.  0.
         12    1    1    2    0    0  0.66661601692E+01  0.16201684198E+02 -0.66142322050E+01  0.18726460688E+02  0.00000000000E+00 0. -1.
         11    1    3    3    0    0 -0.13163111265E+02 -0.19986262553E+01 -0.82107067768E+01  0.15642177314E+02  0.51100000000E-03 0. -1.
        -11    1    3    3    0    0 -0.53614964596E+00 -0.26894364438E+02  0.26825829136E+02  0.37989727612E+02  0.51100000000E-03 0.  1.
        -12    1    3    3    0    0  0.70331007415E+01  0.12691306495E+02 -0.12000890154E+02  0.18829634386E+02  0.00000000000E+00 0.  1.
</event>
<event>
 7    1  0.1339094E-013  0.7246157E+02  0.7816164E-02  0.1226708E+00
        -11   -1    0    0    0    0  0.00000000000E+00  0.00000000000E+00  0.45593999997E+02  0.45594000000E+02  0.51100000000E-03 0. -1.
         11   -1    0    0    0    0 -0.00000000000E+00 -0.00000000000E+00 -0.45593999997E+02  0.45594000000E+02  0.51100000000E-03 0.  1.
    9900012    2    1    2    0    0  0.49910846171E+01  0.14792697695E+02 -0.10341382729E+02  0.72461574086E+02  0.70000004939E+02 0.  0.
         12    1    1    2    0    0 -0.49910846171E+01 -0.14792697695E+02  0.10341382729E+02  0.18726425914E+02  0.00000000000E+00 0. -1.
         11    1    3    3    0    0  0.43163676041E+01  0.40934556556E+01  0.22276846002E+02  0.23057434301E+02  0.51100000000E-03 0. -1.
        -11    1    3    3    0    0  0.98943503177E+01  0.20249511389E+02 -0.13977731623E+02  0.26520140673E+02  0.51100000000E-03 0.  1.
         12    1    3    3    0    0 -0.92196333047E+01 -0.95502693492E+01 -0.18640497108E+02  0.22883999112E+02  0.00000000000E+00 0. -1.
</event>
<event>
 7    1  0.1339094E-013  0.7246156E+02  0.7816164E-02  0.1226708E+00
        -11   -1    0    0    0    0  0.00000000000E+00  0.00000000000E+00  0.45593999997E+02  0.45594000000E+02  0.51100000000E-03 0. -1.
         11   -1    0    0    0    0 -0.00000000000E+00 -0.00000000000E+00 -0.45593999997E+02  0.45594000000E+02  0.51100000000E-03 0.  1.
    9900012    2    1    2    0    0 -0.17731793120E+02 -0.60198062184E+01  0.15824864037E+00  0.72461558886E+02  0.69999985139E+02 0.  0.
         12    1    1    2    0    0  0.17731793120E+02  0.60198062184E+01 -0.15824864037E+00  0.18726441114E+02  0.00000000000E+00 0. -1.
         11    1    3    3    0    0 -0.22449529154E+02  0.65878273553E+01  0.10737073253E+02  0.25742291483E+02  0.51100000000E-03 0. -1.
        -11    1    3    3    0    0 -0.81120799007E-01 -0.27438990328E+02  0.74953435900E+00  0.27449345580E+02  0.51100000000E-03 0.  1.
        -12    1    3    3    0    0  0.47988568331E+01  0.14831356754E+02 -0.11328358972E+02  0.19269921823E+02  0.00000000000E+00 0.  1.
</event>
<event>
 7    1  0.1339094E-013  0.7246157E+02  0.7816164E-02  0.1226708E+00
        -11   -1    0    0    0    0  0.00000000000E+00  0.00000000000E+00  0.45593999997E+02  0.45594000000E+02  0.51100000000E-03 0. -1.
         11   -1    0    0    0    0 -0.00000000000E+00 -0.00000000000E+00 -0.45593999997E+02  0.45594000000E+02  0.51100000000E-03 0.  1.
    9900012    2    1    2    0    0 -0.43667809272E+01 -0.18206137271E+02  0.38337810413E+00  0.72461569780E+02  0.69999999331E+02 0.  0.
         12    1    1    2    0    0  0.43667809272E+01  0.18206137271E+02 -0.38337810413E+00  0.18726430220E+02  0.00000000000E+00 0. -1.
         11    1    3    3    0    0  0.21263440304E+02  0.17875573118E+02  0.18196080421E+01  0.27838480230E+02  0.51100000000E-03 0. -1.
        -11    1    3    3    0    0 -0.10182101719E+02 -0.18801321758E+02  0.25201945438E+00  0.21382899928E+02  0.51100000000E-03 0.  1.
         12    1    3    3    0    0 -0.15448119512E+02 -0.17280388631E+02 -0.16882493924E+01  0.23240189623E+02  0.00000000000E+00 0. -1.
</event>
<event>
 7    1  0.1339094E-013  0.7246162E+02  0.7816164E-02  0.1226708E+00
        -11   -1    0    0    0    0  0.00000000000E+00  0.00000000000E+00  0.45593999997E+02  0.45594000000E+02  0.51100000000E-03 0. -1.
         11   -1    0    0    0    0 -0.00000000000E+00 -0.00000000000E+00 -0.45593999997E+02  0.45594000000E+02  0.51100000000E-03 0.  1.
    9900012    2    1    2    0    0  0.22359397757E+01 -0.11662133110E+02  0.14480077929E+02  0.72461616682E+02  0.70000060429E+02 0.  0.
         12    1    1    2    0    0 -0.22359397757E+01  0.11662133110E+02 -0.14480077929E+02  0.18726383318E+02  0.00000000000E+00 0. -1.
         11    1    3    3    0    0 -0.35316680817E+01 -0.18726713830E+02 -0.95963545287E+01  0.21336647132E+02  0.51100000000E-03 0.  1.
        -11    1    3    3    0    0 -0.98230935215E+01  0.12623966326E+02  0.29625025453E+02  0.33667489147E+02  0.51100000000E-03 0. -1.
         12    1    3    3    0    0  0.15590701379E+02 -0.55593856058E+01 -0.55485929951E+01  0.17457480403E+02  0.00000000000E+00 0. -1.
</event>
<event>
 7    1  0.1339094E-013  0.7246158E+02  0.7816164E-02  0.1226708E+00
        -11   -1    0    0    0    0  0.00000000000E+00  0.00000000000E+00  0.45593999997E+02  0.45594000000E+02  0.51100000000E-03 0.  1.
         11   -1    0    0    0    0 -0.00000000000E+00 -0.00000000000E+00 -0.45593999997E+02  0.45594000000E+02  0.51100000000E-03 0. -1.
    9900012    2    1    2    0    0  0.81741020529E+01 -0.87182419717E+01  0.14417187660E+02  0.72461575155E+02  0.70000006332E+02 0.  0.
         12    1    1    2    0    0 -0.81741020529E+01  0.87182419717E+01 -0.14417187660E+02  0.18726424845E+02  0.00000000000E+00 0. -1.
         11    1    3    3    0    0 -0.10036891501E+02  0.22854936711E+02 -0.72411122238E+01  0.25990787398E+02  0.51100000000E-03 0. -1.
        -11    1    3    3    0    0 -0.81071574083E-01 -0.16720818067E+02  0.44789393917E+01  0.17310494729E+02  0.51100000000E-03 0.  1.
         12    1    3    3    0    0  0.18292065128E+02 -0.14852360616E+02  0.17179360492E+02  0.29160293028E+02  0.00000000000E+00 0. -1.
</event>
<event>
 7    1  0.1339094E-013  0.7246157E+02  0.7816164E-02  0.1226708E+00
        -11   -1    0    0    0    0  0.00000000000E+00  0.00000000000E+00  0.45593999997E+02  0.45594000000E+02  0.51100000000E-03 0.  1.
         11   -1    0    0    0    0 -0.00000000000E+00 -0.00000000000E+00 -0.45593999997E+02  0.45594000000E+02  0.51100000000E-03 0. -1.
    9900012    2    1    2    0    0  0.26033494172E-01 -0.52574691085E+01  0.17973240689E+02  0.72461573752E+02  0.70000004504E+02 0.  0.
         12    1    1    2    0    0 -0.26033494172E-01  0.52574691085E+01 -0.17973240689E+02  0.18726426248E+02  0.00000000000E+00 0. -1.
         11    1    3    3    0    0 -0.10465683239E+02 -0.55775716189E+01 -0.19236392581E+02  0.22598199720E+02  0.51100000000E-03 0.  1.
        -11    1    3    3    0    0  0.10031176108E+02  0.65727749478E+00  0.42941843644E+02  0.44102816731E+02  0.51100000000E-03 0. -1.
         12    1    3    3    0    0  0.46054062475E+00 -0.33717498444E+00 -0.57322103744E+01  0.57605573006E+01  0.00000000000E+00 0. -1.
</event>
<event>
 7    1  0.1339094E-013  0.7246171E+02  0.7816164E-02  0.1226708E+00
        -11   -1    0    0    0    0  0.00000000000E+00  0.00000000000E+00  0.45593999997E+02  0.45594000000E+02  0.51100000000E-03 0.  1.
         11   -1    0    0    0    0 -0.00000000000E+00 -0.00000000000E+00 -0.45593999997E+02  0.45594000000E+02  0.51100000000E-03 0. -1.
    9900012    2    1    2    0    0 -0.77531917530E+01  0.12060294275E+01  0.17003159285E+02  0.72461710592E+02  0.70000182763E+02 0.  0.
         12    1    1    2    0    0  0.77531917530E+01 -0.12060294275E+01 -0.17003159285E+02  0.18726289408E+02  0.00000000000E+00 0. -1.
         11    1    3    3    0    0  0.25442591928E+02  0.85229749452E+01 -0.66053873842E+00  0.26840322234E+02  0.51100000000E-03 0. -1.
        -11    1    3    3    0    0 -0.24996772060E+02  0.47136315527E+01  0.41813220406E+01  0.25778680922E+02  0.51100000000E-03 0.  1.
         12    1    3    3    0    0 -0.81990116219E+01 -0.12030577070E+02  0.13482375983E+02  0.19842707435E+02  0.00000000000E+00 0. -1.
</event>
<event>
 7    1  0.1339094E-013  0.7246162E+02  0.7816164E-02  0.1226708E+00
        -11   -1    0    0    0    0  0.00000000000E+00  0.00000000000E+00  0.45593999997E+02  0.45594000000E+02  0.51100000000E-03 0. -1.
         11   -1    0    0    0    0 -0.00000000000E+00 -0.00000000000E+00 -0.45593999997E+02  0.45594000000E+02  0.51100000000E-03 0.  1.
    9900012    2    1    2    0    0  0.17463187073E+02  0.37350627986E+01 -0.56359324616E+01  0.72461619369E+02  0.70000063928E+02 0.  0.
         12    1    1    2    0    0 -0.17463187073E+02 -0.37350627986E+01  0.56359324616E+01  0.18726380631E+02  0.00000000000E+00 0. -1.
         11    1    3    3    0    0 -0.13994061421E+01 -0.17917359113E+02 -0.12728943501E+02  0.22023081030E+02  0.51100000000E-03 0. -1.
        -11    1    3    3    0    0  0.20170674479E+02  0.28145624501E+02 -0.65790450462E+01  0.35246505096E+02  0.51100000000E-03 0.  1.
         12    1    3    3    0    0 -0.13080812641E+01 -0.64932025896E+01  0.13672056085E+02  0.15192033243E+02  0.00000000000E+00 0. -1.
</event>
<event>
 7    1  0.1339094E-013  0.7246161E+02  0.7816164E-02  0.1226708E+00
        -11   -1    0    0    0    0  0.00000000000E+00  0.00000000000E+00  0.45593999997E+02  0.45594000000E+02  0.51100000000E-03 0. -1.
         11   -1    0    0    0    0 -0.00000000000E+00 -0.00000000000E+00 -0.45593999997E+02  0.45594000000E+02  0.51100000000E-03 0.  1.
    9900012    2    1    2    0    0 -0.87628001755E+01 -0.16214013862E+02 -0.33161163457E+01  0.72461613802E+02  0.70000056677E+02 0.  0.
         12    1    1    2    0    0  0.87628001755E+01  0.16214013862E+02  0.33161163457E+01  0.18726386198E+02  0.00000000000E+00 0. -1.
         11    1    3    3    0    0  0.18384464962E+02  0.57327842374E+01  0.20887376382E+02  0.28410136561E+02  0.51100000000E-03 0. -1.
        -11    1    3    3    0    0 -0.53429901554E+01 -0.57625492900E+00 -0.75703568636E+01  0.92838524787E+01  0.51100000000E-03 0.  1.
         12    1    3    3    0    0 -0.21804274982E+02 -0.21370543170E+02 -0.16633135864E+02  0.34767624762E+02  0.00000000000E+00 0. -1.
</event>
<event>
 7    1  0.1339094E-013  0.7246163E+02  0.7816164E-02  0.1226708E+00
        -11   -1    0    0    0    0  0.00000000000E+00  0.00000000000E+00  0.45593999997E+02  0.45594000000E+02  0.51100000000E-03 0.  1.
         11   -1    0    0    0    0 -0.00000000000E+00 -0.00000000000E+00 -0.45593999997E+02  0.45594000000E+02  0.51100000000E-03 0. -1.
    9900012    2    1    2    0    0  0.10443965057E+02 -0.15502329248E+02  0.11306433651E+01  0.72461628952E+02  0.70000076412E+02 0.  0.
         12    1    1    2    0    0 -0.10443965057E+02  0.15502329248E+02 -0.11306433651E+01  0.18726371048E+02  0.00000000000E+00 0. -1.
         11    1    3    3    0    0  0.59377076678E+01  0.12823379964E+02 -0.14934162116E+02  0.20560268588E+02  0.51100000000E-03 0. -1.
        -11    1    3    3    0    0 -0.13790684577E+02 -0.24076539594E+02  0.90165233806E+00  0.27761046758E+02  0.51100000000E-03 0.  1.
         12    1    3    3    0    0  0.18296941966E+02 -0.42491696176E+01  0.15163153143E+02  0.24140313606E+02  0.00000000000E+00 0. -1.
</event>
<event>
 7    1  0.1339094E-013  0.7246158E+02  0.7816164E-02  0.1226708E+00
        -11   -1    0    0    0    0  0.00000000000E+00  0.00000000000E+00  0.45593999997E+02  0.45594000000E+02  0.51100000000E-03 0. -1.
         11   -1    0    0    0    0 -0.00000000000E+00 -0.00000000000E+00 -0.45593999997E+02  0.45594000000E+02  0.51100000000E-03 0.  1.
    9900012    2    1    2    0    0 -0.92436697069E+01  0.15669105269E+02 -0.44398966952E+01  0.72461575561E+02  0.70000006861E+02 0.  0.
         12    1    1    2    0    0  0.92436697069E+01 -0.15669105269E+02  0.44398966952E+01  0.18726424439E+02  0.00000000000E+00 0. -1.
         11    1    3    3    0    0 -0.13441575469E+02  0.91999658974E+01  0.21543820827E+02  0.27008360551E+02  0.51100000000E-03 0. -1.
        -11    1    3    3    0    0 -0.11516822408E+02  0.66245109835E+01 -0.26591573950E+02  0.29725967596E+02  0.51100000000E-03 0.  1.
         12    1    3    3    0    0  0.15714728170E+02 -0.15537161147E+00  0.60785642803E+00  0.15727247414E+02  0.00000000000E+00 0. -1.
</event>
<event>
 7    1  0.1339094E-013  0.7246165E+02  0.7816164E-02  0.1226708E+00
        -11   -1    0    0    0    0  0.00000000000E+00  0.00000000000E+00  0.45593999997E+02  0.45594000000E+02  0.51100000000E-03 0.  1.
         11   -1    0    0    0    0 -0.00000000000E+00 -0.00000000000E+00 -0.45593999997E+02  0.45594000000E+02  0.51100000000E-03 0. -1.
    9900012    2    1    2    0    0 -0.10093655883E+02  0.40508421043E+01  0.15244180098E+02  0.72461648575E+02  0.70000101975E+02 0.  0.
         12    1    1    2    0    0  0.10093655883E+02 -0.40508421043E+01 -0.15244180098E+02  0.18726351425E+02  0.00000000000E+00 0. -1.
         11    1    3    3    0    0  0.15219691809E+02 -0.66428549364E+01  0.13675941596E+02  0.21512738535E+02  0.51100000000E-03 0. -1.
        -11    1    3    3    0    0 -0.29797895960E+02 -0.22662945988E+01  0.13480457082E+02  0.32783737100E+02  0.51100000000E-03 0.  1.
        -12    1    3    3    0    0  0.44845482674E+01  0.12959991639E+02 -0.11912218580E+02  0.18165172940E+02  0.00000000000E+00 0.  1.
</event>
<event>
 7    1  0.1339094E-013  0.7246148E+02  0.7816164E-02  0.1226708E+00
        -11   -1    0    0    0    0  0.00000000000E+00  0.00000000000E+00  0.45593999997E+02  0.45594000000E+02  0.51100000000E-03 0.  1.
         11   -1    0    0    0    0 -0.00000000000E+00 -0.00000000000E+00 -0.45593999997E+02  0.45594000000E+02  0.51100000000E-03 0. -1.
    9900012    2    1    2    0    0 -0.14745711564E+02  0.10761856922E+02  0.41747843955E+01  0.72461484075E+02  0.69999887684E+02 0.  0.
         12    1    1    2    0    0  0.14745711564E+02 -0.10761856922E+02 -0.41747843955E+01  0.18726515925E+02  0.00000000000E+00 0. -1.
         11    1    3    3    0    0 -0.91676481944E+01 -0.35919020698E+01  0.15430717705E+01  0.99663736959E+01  0.51100000000E-03 0. -1.
        -11    1    3    3    0    0  0.19136450186E+02  0.23991396376E+02  0.13880160314E+02  0.33681592545E+02  0.51100000000E-03 0.  1.
        -12    1    3    3    0    0 -0.24714513555E+02 -0.96376373841E+01 -0.11248447689E+02  0.28813517834E+02  0.00000000000E+00 0.  1.
</event>
<event>
 7    1  0.1339094E-013  0.7246161E+02  0.7816164E-02  0.1226708E+00
        -11   -1    0    0    0    0  0.00000000000E+00  0.00000000000E+00  0.45593999997E+02  0.45594000000E+02  0.51100000000E-03 0. -1.
         11   -1    0    0    0    0 -0.00000000000E+00 -0.00000000000E+00 -0.45593999997E+02  0.45594000000E+02  0.51100000000E-03 0.  1.
    9900012    2    1    2    0    0 -0.84286398001E+01  0.40423289968E+01 -0.16226382048E+02  0.72461605073E+02  0.70000045305E+02 0.  0.
         12    1    1    2    0    0  0.84286398001E+01 -0.40423289968E+01  0.16226382048E+02  0.18726394927E+02  0.00000000000E+00 0. -1.
         11    1    3    3    0    0  0.12717655123E+02  0.22687157193E+02 -0.14783303839E+02  0.29916415661E+02  0.51100000000E-03 0. -1.
        -11    1    3    3    0    0 -0.15547470198E+02 -0.59834487510E+01 -0.15543720070E+02  0.22784484247E+02  0.51100000000E-03 0.  1.
         12    1    3    3    0    0 -0.55988247246E+01 -0.12661379445E+02  0.14100641861E+02  0.19760705165E+02  0.00000000000E+00 0. -1.
</event>
<event>
 7    1  0.1339094E-013  0.7246149E+02  0.7816164E-02  0.1226708E+00
        -11   -1    0    0    0    0  0.00000000000E+00  0.00000000000E+00  0.45593999997E+02  0.45594000000E+02  0.51100000000E-03 0.  1.
         11   -1    0    0    0    0 -0.00000000000E+00 -0.00000000000E+00 -0.45593999997E+02  0.45594000000E+02  0.51100000000E-03 0. -1.
    9900012    2    1    2    0    0  0.18319496069E+02 -0.68181353347E+00 -0.38227318878E+01  0.72461492451E+02  0.69999898594E+02 0.  0.
         12    1    1    2    0    0 -0.18319496069E+02  0.68181353347E+00  0.38227318878E+01  0.18726507549E+02  0.00000000000E+00 0. -1.
         11    1    3    3    0    0 -0.21442291514E+02  0.49571260121E+01  0.24523890419E+01  0.22144055093E+02  0.51100000000E-03 0.  1.
        -11    1    3    3    0    0  0.42847446960E+02  0.51538939997E-01 -0.27236496972E+01  0.42933956668E+02  0.51100000000E-03 0. -1.
         12    1    3    3    0    0 -0.30856593764E+01 -0.56904784856E+01 -0.35514712324E+01  0.73834806898E+01  0.00000000000E+00 0. -1.
</event>
<event>
 7    1  0.1339094E-013  0.7246158E+02  0.7816164E-02  0.1226708E+00
        -11   -1    0    0    0    0  0.00000000000E+00  0.00000000000E+00  0.45593999997E+02  0.45594000000E+02  0.51100000000E-03 0.  1.
         11   -1    0    0    0    0 -0.00000000000E+00 -0.00000000000E+00 -0.45593999997E+02  0.45594000000E+02  0.51100000000E-03 0. -1.
    9900012    2    1    2    0    0 -0.12169459437E+02  0.14220793462E+02  0.59345388223E+00  0.72461577566E+02  0.70000009472E+02 0.  0.
         12    1    1    2    0    0  0.12169459437E+02 -0.14220793462E+02 -0.59345388223E+00  0.18726422434E+02  0.00000000000E+00 0. -1.
         11    1    3    3    0    0 -0.84216936537E+01  0.87647863833E+01 -0.17281122995E+02  0.21127792516E+02  0.51100000000E-03 0. -1.
        -11    1    3    3    0    0 -0.28184397906E+01  0.19240162167E+02  0.28081404963E+02  0.34156884343E+02  0.51100000000E-03 0.  1.
         12    1    3    3    0    0 -0.92932599310E+00 -0.13784155089E+02 -0.10206828086E+02  0.17176900707E+02  0.00000000000E+00 0. -1.
</event>
<event>
 7    1  0.1339094E-013  0.7246157E+02  0.7816164E-02  0.1226708E+00
        -11   -1    0    0    0    0  0.00000000000E+00  0.00000000000E+00  0.45593999997E+02  0.45594000000E+02  0.51100000000E-03 0.  1.
         11   -1    0    0    0    0 -0.00000000000E+00 -0.00000000000E+00 -0.45593999997E+02  0.45594000000E+02  0.51100000000E-03 0. -1.
    9900012    2    1    2    0    0  0.16912915930E+02 -0.75234145393E+01  0.28338442021E+01  0.72461570427E+02  0.70000000173E+02 0.  0.
         12    1    1    2    0    0 -0.16912915930E+02  0.75234145393E+01 -0.28338442021E+01  0.18726429573E+02  0.00000000000E+00 0. -1.
         11    1    3    3    0    0  0.18471250911E+02 -0.16339880152E+02  0.32331068291E+01  0.24872309375E+02  0.51100000000E-03 0. -1.
        -11    1    3    3    0    0 -0.18757203340E+02  0.19214795429E+02 -0.40699209153E+01  0.27158889835E+02  0.51100000000E-03 0.  1.
        -12    1    3    3    0    0  0.17198868359E+02 -0.10398329817E+02  0.36706582884E+01  0.20430371217E+02  0.00000000000E+00 0.  1.
</event>
<event>
 7    1  0.1339094E-013  0.7246157E+02  0.7816164E-02  0.1226708E+00
        -11   -1    0    0    0    0  0.00000000000E+00  0.00000000000E+00  0.45593999997E+02  0.45594000000E+02  0.51100000000E-03 0. -1.
         11   -1    0    0    0    0 -0.00000000000E+00 -0.00000000000E+00 -0.45593999997E+02  0.45594000000E+02  0.51100000000E-03 0.  1.
    9900012    2    1    2    0    0  0.45737856402E+01 -0.98500038737E+01 -0.15255718520E+02  0.72461573780E+02  0.70000004541E+02 0.  0.
         12    1    1    2    0    0 -0.45737856402E+01  0.98500038737E+01  0.15255718520E+02  0.18726426220E+02  0.00000000000E+00 0. -1.
         11    1    3    3    0    0 -0.25161931862E+02 -0.20189030685E+02 -0.22005504072E+02  0.39050761641E+02  0.51100000000E-03 0.  1.
        -11    1    3    3    0    0  0.24980066191E+02  0.11399207449E+02  0.38123650692E+01  0.27721467585E+02  0.51100000000E-03 0. -1.
        -12    1    3    3    0    0  0.47556513110E+01 -0.10601806380E+01  0.29374204822E+01  0.56893445550E+01  0.00000000000E+00 0.  1.
</event>
<event>
 7    1  0.1339094E-013  0.7246157E+02  0.7816164E-02  0.1226708E+00
        -11   -1    0    0    0    0  0.00000000000E+00  0.00000000000E+00  0.45593999997E+02  0.45594000000E+02  0.51100000000E-03 0. -1.
         11   -1    0    0    0    0 -0.00000000000E+00 -0.00000000000E+00 -0.45593999997E+02  0.45594000000E+02  0.51100000000E-03 0.  1.
    9900012    2    1    2    0    0  0.63585098341E+01  0.44418952715E+01 -0.17044587703E+02  0.72461573462E+02  0.70000004126E+02 0.  0.
         12    1    1    2    0    0 -0.63585098341E+01 -0.44418952715E+01  0.17044587703E+02  0.18726426538E+02  0.00000000000E+00 0. -1.
         11    1    3    3    0    0 -0.50800144935E+01  0.84644519703E+01  0.10584665606E+01  0.99284362380E+01  0.51100000000E-03 0. -1.
        -11    1    3    3    0    0 -0.14151982313E+02 -0.11667100625E+02 -0.28484341169E+02  0.33878570402E+02  0.51100000000E-03 0.  1.
        -12    1    3    3    0    0  0.25590506641E+02  0.76445439263E+01  0.10381286905E+02  0.28654566822E+02  0.00000000000E+00 0.  1.
</event>
<event>
 7    1  0.1339094E-013  0.7246160E+02  0.7816164E-02  0.1226708E+00
        -11   -1    0    0    0    0  0.00000000000E+00  0.00000000000E+00  0.45593999997E+02  0.45594000000E+02  0.51100000000E-03 0.  1.
         11   -1    0    0    0    0 -0.00000000000E+00 -0.00000000000E+00 -0.45593999997E+02  0.45594000000E+02  0.51100000000E-03 0. -1.
    9900012    2    1    2    0    0 -0.10882731137E+02  0.14261512560E+02 -0.53715598798E+01  0.72461595299E+02  0.70000032573E+02 0.  0.
         12    1    1    2    0    0  0.10882731137E+02 -0.14261512560E+02  0.53715598798E+01  0.18726404701E+02  0.00000000000E+00 0. -1.
         11    1    3    3    0    0  0.65816771759E+01 -0.17512685935E+02 -0.88562908192E+01  0.20698949984E+02  0.51100000000E-03 0. -1.
        -11    1    3    3    0    0 -0.28588241217E+02  0.20832002569E+02  0.62352923810E+01  0.35918501336E+02  0.51100000000E-03 0.  1.
         12    1    3    3    0    0  0.11123832905E+02  0.10942195926E+02 -0.27505614416E+01  0.15844143979E+02  0.00000000000E+00 0. -1.
</event>
<event>
 7    1  0.1339094E-013  0.7246155E+02  0.7816164E-02  0.1226708E+00
        -11   -1    0    0    0    0  0.00000000000E+00  0.00000000000E+00  0.45593999997E+02  0.45594000000E+02  0.51100000000E-03 0. -1.
         11   -1    0    0    0    0 -0.00000000000E+00 -0.00000000000E+00 -0.45593999997E+02  0.45594000000E+02  0.51100000000E-03 0.  1.
    9900012    2    1    2    0    0  0.13363504005E+01 -0.12516005004E+02 -0.13865202410E+02  0.72461546745E+02  0.69999969322E+02 0.  0.
         12    1    1    2    0    0 -0.13363504005E+01  0.12516005004E+02  0.13865202410E+02  0.18726453255E+02  0.00000000000E+00 0. -1.
         11    1    3    3    0    0  0.16964110511E+02 -0.61844442665E+01  0.51214360980E+01  0.18768524297E+02  0.51100000000E-03 0. -1.
        -11    1    3    3    0    0 -0.29834734218E+01 -0.20993252132E+02 -0.25593226850E+02  0.33235989674E+02  0.51100000000E-03 0.  1.
         12    1    3    3    0    0 -0.12644286689E+02  0.14661691394E+02  0.66065883421E+01  0.20457032774E+02  0.00000000000E+00 0. -1.
</event>
<event>
 7    1  0.1339094E-013  0.7246149E+02  0.7816164E-02  0.1226708E+00
        -11   -1    0    0    0    0  0.00000000000E+00  0.00000000000E+00  0.45593999997E+02  0.45594000000E+02  0.51100000000E-03 0.  1.
         11   -1    0    0    0    0 -0.00000000000E+00 -0.00000000000E+00 -0.45593999997E+02  0.45594000000E+02  0.51100000000E-03 0. -1.
    9900012    2    1    2    0    0 -0.74586972400E+01 -0.16766624476E+02  0.37323482786E+01  0.72461487124E+02  0.69999891655E+02 0.  0.
         12    1    1    2    0    0  0.74586972400E+01  0.16766624476E+02 -0.37323482786E+01  0.18726512876E+02  0.00000000000E+00 0. -1.
         11    1    3    3    0    0 -0.84982360885E+01  0.12684993282E+02 -0.19122490440E+02  0.24470363954E+02  0.51100000000E-03 0. -1.
        -11    1    3    3    0    0 -0.11762275360E+02 -0.13233705382E+02  0.73246814131E+00  0.17720569676E+02  0.51100000000E-03 0.  1.
         12    1    3    3    0    0  0.12801814209E+02 -0.16217912375E+02  0.22122370577E+02  0.30270553493E+02  0.00000000000E+00 0. -1.
</event>
<event>
 7    1  0.1339094E-013  0.7246156E+02  0.7816164E-02  0.1226708E+00
        -11   -1    0    0    0    0  0.00000000000E+00  0.00000000000E+00  0.45593999997E+02  0.45594000000E+02  0.51100000000E-03 0.  1.
         11   -1    0    0    0    0 -0.00000000000E+00 -0.00000000000E+00 -0.45593999997E+02  0.45594000000E+02  0.51100000000E-03 0. -1.
    9900012    2    1    2    0    0  0.12261690177E+02  0.12941158280E+02  0.57320882871E+01  0.72461562545E+02  0.69999989905E+02 0.  0.
         12    1    1    2    0    0 -0.12261690177E+02 -0.12941158280E+02 -0.57320882871E+01  0.18726437455E+02  0.00000000000E+00 0. -1.
         11    1    3    3    0    0 -0.20811009368E+02 -0.49359636143E+01 -0.16033487216E+02  0.26730779268E+02  0.51100000000E-03 0. -1.
        -11    1    3    3    0    0  0.12506591293E+02  0.11733805456E+02  0.16121207528E+02  0.23536999568E+02  0.51100000000E-03 0.  1.
         12    1    3    3    0    0  0.20566108251E+02  0.61433164387E+01  0.56443679746E+01  0.22193783709E+02  0.00000000000E+00 0. -1.
</event>
<event>
 7    1  0.1339094E-013  0.7246159E+02  0.7816164E-02  0.1226708E+00
        -11   -1    0    0    0    0  0.00000000000E+00  0.00000000000E+00  0.45593999997E+02  0.45594000000E+02  0.51100000000E-03 0. -1.
         11   -1    0    0    0    0 -0.00000000000E+00 -0.00000000000E+00 -0.45593999997E+02  0.45594000000E+02  0.51100000000E-03 0.  1.
    9900012    2    1    2    0    0  0.14862959680E+02  0.48448082676E+01 -0.10310131797E+02  0.72461586695E+02  0.70000021365E+02 0.  0.
         12    1    1    2    0    0 -0.14862959680E+02 -0.48448082676E+01  0.10310131797E+02  0.18726413305E+02  0.00000000000E+00 0. -1.
         11    1    3    3    0    0  0.22667871082E+02 -0.10711046878E+02 -0.16311921475E+02  0.29910494598E+02  0.51100000000E-03 0. -1.
        -11    1    3    3    0    0  0.13706907033E+01  0.12070075504E+02  0.21214748851E+02  0.24446494324E+02  0.51100000000E-03 0.  1.
        -12    1    3    3    0    0 -0.91756021059E+01  0.34857796422E+01 -0.15212959173E+02  0.18104597773E+02  0.00000000000E+00 0.  1.
</event>
<event>
 7    1  0.1339094E-013  0.7246160E+02  0.7816164E-02  0.1226708E+00
        -11   -1    0    0    0    0  0.00000000000E+00  0.00000000000E+00  0.45593999997E+02  0.45594000000E+02  0.51100000000E-03 0.  1.
         11   -1    0    0    0    0 -0.00000000000E+00 -0.00000000000E+00 -0.45593999997E+02  0.45594000000E+02  0.51100000000E-03 0. -1.
    9900012    2    1    2    0    0  0.15617351107E+02  0.60096792028E+01  0.84059607473E+01  0.72461599497E+02  0.70000038041E+02 0.  0.
         12    1    1    2    0    0 -0.15617351107E+02 -0.60096792028E+01 -0.84059607473E+01  0.18726400503E+02  0.00000000000E+00 0. -1.
         11    1    3    3    0    0  0.32386394415E+02  0.18806226717E+02 -0.69633382877E+00  0.37457143345E+02  0.51100000000E-03 0.  1.
        -11    1    3    3    0    0 -0.12909770672E+02 -0.69531511655E+01 -0.78718246838E+01  0.16642539291E+02  0.51100000000E-03 0. -1.
         12    1    3    3    0    0 -0.38592726359E+01 -0.58433963486E+01  0.16974119260E+02  0.18361916861E+02  0.00000000000E+00 0. -1.
</event>
<event>
 7    1  0.1339094E-013  0.7246155E+02  0.7816164E-02  0.1226708E+00
        -11   -1    0    0    0    0  0.00000000000E+00  0.00000000000E+00  0.45593999997E+02  0.45594000000E+02  0.51100000000E-03 0.  1.
         11   -1    0    0    0    0 -0.00000000000E+00 -0.00000000000E+00 -0.45593999997E+02  0.45594000000E+02  0.51100000000E-03 0. -1.
    9900012    2    1    2    0    0 -0.48057016916E+01  0.15252816129E+01  0.18034933389E+02  0.72461546116E+02  0.69999968503E+02 0.  0.
         12    1    1    2    0    0  0.48057016916E+01 -0.15252816129E+01 -0.18034933389E+02  0.18726453884E+02  0.00000000000E+00 0. -1.
         11    1    3    3    0    0 -0.88902210723E+01 -0.26855771894E+02 -0.72719320410E+01  0.29208723193E+02  0.51100000000E-03 0. -1.
        -11    1    3    3    0    0  0.79918002720E+00  0.84838539653E+01  0.20955881140E+02  0.22622188697E+02  0.51100000000E-03 0.  1.
         12    1    3    3    0    0  0.32853393535E+01  0.19897199541E+02  0.43509842898E+01  0.20630634225E+02  0.00000000000E+00 0. -1.
</event>
<event>
 7    1  0.1339094E-013  0.7246158E+02  0.7816164E-02  0.1226708E+00
        -11   -1    0    0    0    0  0.00000000000E+00  0.00000000000E+00  0.45593999997E+02  0.45594000000E+02  0.51100000000E-03 0. -1.
         11   -1    0    0    0    0 -0.00000000000E+00 -0.00000000000E+00 -0.45593999997E+02  0.45594000000E+02  0.51100000000E-03 0.  1.
    9900012    2    1    2    0    0  0.13816510751E+02 -0.95452019548E+01  0.82868485098E+01  0.72461582619E+02  0.70000016056E+02 0.  0.
         12    1    1    2    0    0 -0.13816510751E+02  0.95452019548E+01 -0.82868485098E+01  0.18726417381E+02  0.00000000000E+00 0. -1.
         11    1    3    3    0    0  0.21317262087E+02 -0.43542688934E+01 -0.73890457085E+01  0.22977887571E+02  0.51100000000E-03 0.  1.
        -11    1    3    3    0    0 -0.23970696246E+02  0.78698323277E+01  0.43343877066E+01  0.25599129994E+02  0.51100000000E-03 0. -1.
        -12    1    3    3    0    0  0.16469944910E+02 -0.13060765389E+02  0.11341506512E+02  0.23884565054E+02  0.00000000000E+00 0.  1.
</event>
<event>
 7    1  0.1339094E-013  0.7246162E+02  0.7816164E-02  0.1226708E+00
        -11   -1    0    0    0    0  0.00000000000E+00  0.00000000000E+00  0.45593999997E+02  0.45594000000E+02  0.51100000000E-03 0. -1.
         11   -1    0    0    0    0 -0.00000000000E+00 -0.00000000000E+00 -0.45593999997E+02  0.45594000000E+02  0.51100000000E-03 0.  1.
    9900012    2    1    2    0    0  0.10102625331E+01  0.97572866066E+01 -0.15951549831E+02  0.72461622499E+02  0.70000068006E+02 0.  0.
         12    1    1    2    0    0 -0.10102625331E+01 -0.97572866066E+01  0.15951549831E+02  0.18726377501E+02  0.00000000000E+00 0. -1.
         11    1    3    3    0    0  0.17125785174E+02  0.97373638064E+01 -0.81719753696E+01  0.21328149320E+02  0.51100000000E-03 0. -1.
        -11    1    3    3    0    0 -0.20512959563E+02 -0.15174890585E+02 -0.18937693362E+02  0.31775698960E+02  0.51100000000E-03 0.  1.
        -12    1    3    3    0    0  0.43974369222E+01  0.15194813385E+02  0.11158118900E+02  0.19357774218E+02  0.00000000000E+00 0.  1.
</event>
<event>
 7    1  0.1339094E-013  0.7246161E+02  0.7816164E-02  0.1226708E+00
        -11   -1    0    0    0    0  0.00000000000E+00  0.00000000000E+00  0.45593999997E+02  0.45594000000E+02  0.51100000000E-03 0. -1.
         11   -1    0    0    0    0 -0.00000000000E+00 -0.00000000000E+00 -0.45593999997E+02  0.45594000000E+02  0.51100000000E-03 0.  1.
    9900012    2    1    2    0    0  0.17349281447E+02 -0.58261997783E+01  0.39668059902E+01  0.72461608987E+02  0.70000050405E+02 0.  0.
         12    1    1    2    0    0 -0.17349281447E+02  0.58261997783E+01 -0.39668059902E+01  0.18726391013E+02  0.00000000000E+00 0. -1.
         11    1    3    3    0    0  0.16772987665E+02  0.76792599100E+01  0.16359981952E+02  0.24656706141E+02  0.51100000000E-03 0. -1.
        -11    1    3    3    0    0 -0.13241567634E+02 -0.14502115917E+02 -0.23083002013E+02  0.30306360086E+02  0.51100000000E-03 0.  1.
        -12    1    3    3    0    0  0.13817861416E+02  0.99665622877E+00  0.10689826051E+02  0.17498542761E+02  0.00000000000E+00 0.  1.
</event>
<event>
 7    1  0.1339094E-013  0.7246151E+02  0.7816164E-02  0.1226708E+00
        -11   -1    0    0    0    0  0.00000000000E+00  0.00000000000E+00  0.45593999997E+02  0.45594000000E+02  0.51100000000E-03 0.  1.
         11   -1    0    0    0    0 -0.00000000000E+00 -0.00000000000E+00 -0.45593999997E+02  0.45594000000E+02  0.51100000000E-03 0. -1.
    9900012    2    1    2    0    0  0.17227366636E+02  0.39972785074E+01  0.61580025643E+01  0.72461510947E+02  0.69999922689E+02 0.  0.
         12    1    1    2    0    0 -0.17227366636E+02 -0.39972785074E+01 -0.61580025643E+01  0.18726489053E+02  0.00000000000E+00 0. -1.
         11    1    3    3    0    0  0.39054388783E+01 -0.71337861492E+01 -0.25756100318E+02  0.27009629052E+02  0.51100000000E-03 0. -1.
        -11    1    3    3    0    0  0.18486182406E+02  0.54592999652E+01  0.89716322962E+01  0.21261069643E+02  0.51100000000E-03 0.  1.
         12    1    3    3    0    0 -0.51642546486E+01  0.56717646915E+01  0.22942470586E+02  0.24190812252E+02  0.00000000000E+00 0. -1.
</event>
<event>
 7    1  0.1339094E-013  0.7246165E+02  0.7816164E-02  0.1226708E+00
        -11   -1    0    0    0    0  0.00000000000E+00  0.00000000000E+00  0.45593999997E+02  0.45594000000E+02  0.51100000000E-03 0.  1.
         11   -1    0    0    0    0 -0.00000000000E+00 -0.00000000000E+00 -0.45593999997E+02  0.45594000000E+02  0.51100000000E-03 0. -1.
    9900012    2    1    2    0    0  0.16462322976E+01  0.16934191260E+02  0.78229979530E+01  0.72461649278E+02  0.70000102891E+02 0.  0.
         12    1    1    2    0    0 -0.16462322976E+01 -0.16934191260E+02 -0.78229979530E+01  0.18726350722E+02  0.00000000000E+00 0. -1.
         11    1    3    3    0    0 -0.14496770446E+02  0.12262390023E+02 -0.18415194424E+02  0.26450745705E+02  0.51100000000E-03 0. -1.
        -11    1    3    3    0    0 -0.50952551694E+01 -0.10340647313E+02  0.10616062618E+02  0.15671355968E+02  0.51100000000E-03 0.  1.
         12    1    3    3    0    0  0.21238257913E+02  0.15012448550E+02  0.15622129759E+02  0.30339547605E+02  0.00000000000E+00 0. -1.
</event>
<event>
 7    1  0.1339094E-013  0.7246154E+02  0.7816164E-02  0.1226708E+00
        -11   -1    0    0    0    0  0.00000000000E+00  0.00000000000E+00  0.45593999997E+02  0.45594000000E+02  0.51100000000E-03 0.  1.
         11   -1    0    0    0    0 -0.00000000000E+00 -0.00000000000E+00 -0.45593999997E+02  0.45594000000E+02  0.51100000000E-03 0. -1.
    9900012    2    1    2    0    0  0.10997202575E+02 -0.84825888186E+01  0.12561348891E+02  0.72461541085E+02  0.69999961950E+02 0.  0.
         12    1    1    2    0    0 -0.10997202575E+02  0.84825888186E+01 -0.12561348891E+02  0.18726458915E+02  0.00000000000E+00 0. -1.
         11    1    3    3    0    0 -0.31347262940E+01  0.22483448950E+02  0.61426597234E+00  0.22709233993E+02  0.51100000000E-03 0. -1.
        -11    1    3    3    0    0  0.14291123126E+01 -0.16097445774E+02  0.22366296555E+02  0.27593864251E+02  0.51100000000E-03 0.  1.
        -12    1    3    3    0    0  0.12702816556E+02 -0.14868591994E+02 -0.10419213636E+02  0.22158442841E+02  0.00000000000E+00 0.  1.
</event>
<event>
 7    1  0.1339094E-013  0.7246156E+02  0.7816164E-02  0.1226708E+00
        -11   -1    0    0    0    0  0.00000000000E+00  0.00000000000E+00  0.45593999997E+02  0.45594000000E+02  0.51100000000E-03 0. -1.
         11   -1    0    0    0    0 -0.00000000000E+00 -0.00000000000E+00 -0.45593999997E+02  0.45594000000E+02  0.51100000000E-03 0.  1.
    9900012    2    1    2    0    0  0.13088365477E+02 -0.50334860077E+01 -0.12411209873E+02  0.72461563533E+02  0.69999991193E+02 0.  0.
         12    1    1    2    0    0 -0.13088365477E+02  0.50334860077E+01  0.12411209873E+02  0.18726436467E+02  0.00000000000E+00 0. -1.
         11    1    3    3    0    0  0.26549146144E+02 -0.18284295020E+02 -0.11875693230E+02  0.34354107401E+02  0.51100000000E-03 0. -1.
        -11    1    3    3    0    0  0.32558882269E+01  0.13680958841E+02 -0.11453143806E+02  0.18136811910E+02  0.51100000000E-03 0.  1.
         12    1    3    3    0    0 -0.16716668894E+02 -0.43014982824E+00  0.10917627163E+02  0.19970644223E+02  0.00000000000E+00 0. -1.
</event>
<event>
 7    1  0.1339094E-013  0.7246153E+02  0.7816164E-02  0.1226708E+00
        -11   -1    0    0    0    0  0.00000000000E+00  0.00000000000E+00  0.45593999997E+02  0.45594000000E+02  0.51100000000E-03 0.  1.
         11   -1    0    0    0    0 -0.00000000000E+00 -0.00000000000E+00 -0.45593999997E+02  0.45594000000E+02  0.51100000000E-03 0. -1.
    9900012    2    1    2    0    0  0.17062244927E+02 -0.49773293733E+01 -0.58980320313E+01  0.72461526988E+02  0.69999943585E+02 0.  0.
         12    1    1    2    0    0 -0.17062244927E+02  0.49773293733E+01  0.58980320313E+01  0.18726473012E+02  0.00000000000E+00 0. -1.
         11    1    3    3    0    0 -0.11618667075E+02  0.16675127680E+02  0.10747713277E+02  0.22990577389E+02  0.51100000000E-03 0. -1.
        -11    1    3    3    0    0  0.20207693290E+02 -0.77589329223E+01  0.51693048004E+01  0.22254743777E+02  0.51100000000E-03 0.  1.
         12    1    3    3    0    0  0.84732187116E+01 -0.13893524131E+02 -0.21815050108E+02  0.27216205822E+02  0.00000000000E+00 0. -1.
</event>
<event>
 7    1  0.1339094E-013  0.7246170E+02  0.7816164E-02  0.1226708E+00
        -11   -1    0    0    0    0  0.00000000000E+00  0.00000000000E+00  0.45593999997E+02  0.45594000000E+02  0.51100000000E-03 0. -1.
         11   -1    0    0    0    0 -0.00000000000E+00 -0.00000000000E+00 -0.45593999997E+02  0.45594000000E+02  0.51100000000E-03 0.  1.
    9900012    2    1    2    0    0  0.10336095505E+02 -0.18629598884E+01 -0.15503829802E+02  0.72461702225E+02  0.70000171864E+02 0.  0.
         12    1    1    2    0    0 -0.10336095505E+02  0.18629598884E+01  0.15503829802E+02  0.18726297775E+02  0.00000000000E+00 0. -1.
         11    1    3    3    0    0 -0.11096045257E+01 -0.34680432650E+02 -0.57789363519E+01  0.35176124525E+02  0.51100000000E-03 0.  1.
        -11    1    3    3    0    0  0.90751006963E+01  0.27614190891E+02 -0.11558396105E+02  0.31280944871E+02  0.51100000000E-03 0. -1.
         12    1    3    3    0    0  0.23705993340E+01  0.52032818706E+01  0.18335026553E+01  0.60046328293E+01  0.00000000000E+00 0. -1.
</event>
<event>
 7    1  0.1339094E-013  0.7246155E+02  0.7816164E-02  0.1226708E+00
        -11   -1    0    0    0    0  0.00000000000E+00  0.00000000000E+00  0.45593999997E+02  0.45594000000E+02  0.51100000000E-03 0.  1.
         11   -1    0    0    0    0 -0.00000000000E+00 -0.00000000000E+00 -0.45593999997E+02  0.45594000000E+02  0.51100000000E-03 0. -1.
    9900012    2    1    2    0    0 -0.11184418028E+01  0.74168787126E+00  0.18678295903E+02  0.72461554774E+02  0.69999979782E+02 0.  0.
         12    1    1    2    0    0  0.11184418028E+01 -0.74168787126E+00 -0.18678295903E+02  0.18726445226E+02  0.00000000000E+00 0. -1.
         11    1    3    3    0    0  0.14046123705E+02  0.89779000007E+01 -0.17604061108E+02  0.24244571502E+02  0.51100000000E-03 0. -1.
        -11    1    3    3    0    0 -0.18272908327E+02 -0.33499687788E+01  0.95958907127E+01  0.20909389957E+02  0.51100000000E-03 0.  1.
         12    1    3    3    0    0  0.31083428197E+01 -0.48862433506E+01  0.26686466298E+02  0.27307593315E+02  0.00000000000E+00 0. -1.
</event>
<event>
 8    1  0.1339094E-013  0.7246150E+02  0.7816164E-02  0.1226708E+00
        -11   -1    0    0    0    0  0.00000000000E+00  0.00000000000E+00  0.45593999997E+02  0.45594000000E+02  0.51100000000E-03 0.  1.
         11   -1    0    0    0    0 -0.00000000000E+00 -0.00000000000E+00 -0.45593999997E+02  0.45594000000E+02  0.51100000000E-03 0. -1.
    9900012    2    1    2    0    0 -0.12614497882E+02 -0.10695810652E+02  0.87838452692E+01  0.72461498457E+02  0.69999906419E+02 0.  0.
        -24    2    3    3    0    0 -0.26014694812E+00 -0.22862402978E+02  0.24574689048E+01  0.54004006917E+02  0.48863447108E+02 0.  0.
         12    1    1    2    0    0  0.12614497882E+02  0.10695810652E+02 -0.87838452692E+01  0.18726501543E+02  0.00000000000E+00 0. -1.
         11    1    4    4    0    0  0.15961353194E+02 -0.28239183017E+01 -0.15624590391E+02  0.22513709945E+02  0.51100000000E-03 0.  1.
        -11    1    3    3    0    0 -0.12354350933E+02  0.12166592326E+02  0.63263763644E+01  0.18457491541E+02  0.51100000000E-03 0. -1.
        -12    1    4    4    0    0 -0.16221500142E+02 -0.20038484676E+02  0.18082059295E+02  0.31490296971E+02  0.00000000000E+00 0.  1.
</event>
<event>
 7    1  0.1339094E-013  0.7246159E+02  0.7816164E-02  0.1226708E+00
        -11   -1    0    0    0    0  0.00000000000E+00  0.00000000000E+00  0.45593999997E+02  0.45594000000E+02  0.51100000000E-03 0.  1.
         11   -1    0    0    0    0 -0.00000000000E+00 -0.00000000000E+00 -0.45593999997E+02  0.45594000000E+02  0.51100000000E-03 0. -1.
    9900012    2    1    2    0    0 -0.15227024988E+00  0.16570465192E+02 -0.87220879846E+01  0.72461592931E+02  0.70000029489E+02 0.  0.
         12    1    1    2    0    0  0.15227024988E+00 -0.16570465192E+02  0.87220879846E+01  0.18726407069E+02  0.00000000000E+00 0. -1.
         11    1    3    3    0    0  0.67804672395E+01 -0.21529322659E+02 -0.81123837331E+01  0.23985354703E+02  0.51100000000E-03 0. -1.
        -11    1    3    3    0    0 -0.17874928271E+02  0.19749364958E+02 -0.36843733052E+01  0.26890985178E+02  0.51100000000E-03 0.  1.
        -12    1    3    3    0    0  0.10942190782E+02  0.18350422893E+02  0.30746690537E+01  0.21585253050E+02  0.00000000000E+00 0.  1.
</event>
<event>
 7    1  0.1339094E-013  0.7246157E+02  0.7816164E-02  0.1226708E+00
        -11   -1    0    0    0    0  0.00000000000E+00  0.00000000000E+00  0.45593999997E+02  0.45594000000E+02  0.51100000000E-03 0.  1.
         11   -1    0    0    0    0 -0.00000000000E+00 -0.00000000000E+00 -0.45593999997E+02  0.45594000000E+02  0.51100000000E-03 0. -1.
    9900012    2    1    2    0    0 -0.14380370539E+02 -0.76643993712E+01  0.92272022221E+01  0.72461565865E+02  0.69999994230E+02 0.  0.
         12    1    1    2    0    0  0.14380370539E+02  0.76643993712E+01 -0.92272022221E+01  0.18726434135E+02  0.00000000000E+00 0. -1.
         11    1    3    3    0    0 -0.19611241487E+02 -0.95509487996E+01 -0.25857661271E+02  0.33829573783E+02  0.51100000000E-03 0. -1.
        -11    1    3    3    0    0  0.75553613682E+01  0.67837616457E+01  0.17521323654E+02  0.20250918259E+02  0.51100000000E-03 0.  1.
         12    1    3    3    0    0 -0.23244904198E+01 -0.48972122173E+01  0.17563539839E+02  0.18381073823E+02  0.00000000000E+00 0. -1.
</event>
<event>
 7    1  0.1339094E-013  0.7246156E+02  0.7816164E-02  0.1226708E+00
        -11   -1    0    0    0    0  0.00000000000E+00  0.00000000000E+00  0.45593999997E+02  0.45594000000E+02  0.51100000000E-03 0.  1.
         11   -1    0    0    0    0 -0.00000000000E+00 -0.00000000000E+00 -0.45593999997E+02  0.45594000000E+02  0.51100000000E-03 0. -1.
    9900012    2    1    2    0    0  0.92016311810E+00  0.44142126850E+01  0.18175467270E+02  0.72461559220E+02  0.69999985574E+02 0.  0.
         12    1    1    2    0    0 -0.92016311810E+00 -0.44142126850E+01 -0.18175467270E+02  0.18726440780E+02  0.00000000000E+00 0. -1.
         11    1    3    3    0    0  0.17096344425E+02 -0.25228470730E+02  0.24214368539E+01  0.30571622214E+02  0.51100000000E-03 0.  1.
        -11    1    3    3    0    0 -0.16036916407E+02  0.18856017313E+02  0.18327294908E+02  0.30799704798E+02  0.51100000000E-03 0. -1.
        -12    1    3    3    0    0 -0.13926490054E+00  0.10786666102E+02 -0.25732644916E+01  0.11090232209E+02  0.00000000000E+00 0.  1.
</event>
<event>
 7    1  0.1339094E-013  0.7246152E+02  0.7816164E-02  0.1226708E+00
        -11   -1    0    0    0    0  0.00000000000E+00  0.00000000000E+00  0.45593999997E+02  0.45594000000E+02  0.51100000000E-03 0.  1.
         11   -1    0    0    0    0 -0.00000000000E+00 -0.00000000000E+00 -0.45593999997E+02  0.45594000000E+02  0.51100000000E-03 0. -1.
    9900012    2    1    2    0    0  0.52727520465E+01 -0.60844662045E+01  0.16907342974E+02  0.72461524368E+02  0.69999940173E+02 0.  0.
         12    1    1    2    0    0 -0.52727520465E+01  0.60844662045E+01 -0.16907342974E+02  0.18726475632E+02  0.00000000000E+00 0. -1.
         11    1    3    3    0    0 -0.28590114998E+01 -0.28224434990E+01 -0.15401414904E+02  0.15916774654E+02  0.51100000000E-03 0. -1.
        -11    1    3    3    0    0 -0.10548647509E+02  0.14371887830E+02  0.23265830405E+02  0.29310816924E+02  0.51100000000E-03 0.  1.
         12    1    3    3    0    0  0.18680411055E+02 -0.17633910535E+02  0.90429274738E+01  0.27233932791E+02  0.00000000000E+00 0. -1.
</event>
<event>
 7    1  0.1339094E-013  0.7246157E+02  0.7816164E-02  0.1226708E+00
        -11   -1    0    0    0    0  0.00000000000E+00  0.00000000000E+00  0.45593999997E+02  0.45594000000E+02  0.51100000000E-03 0. -1.
         11   -1    0    0    0    0 -0.00000000000E+00 -0.00000000000E+00 -0.45593999997E+02  0.45594000000E+02  0.51100000000E-03 0.  1.
    9900012    2    1    2    0    0 -0.62582363784E+01  0.15185708705E+02 -0.89948888869E+01  0.72461566877E+02  0.69999995548E+02 0.  0.
         12    1    1    2    0    0  0.62582363784E+01 -0.15185708705E+02  0.89948888869E+01  0.18726433123E+02  0.00000000000E+00 0. -1.
         11    1    3    3    0    0 -0.12952342568E+02  0.10574763233E+02  0.21262514486E+02  0.27049645431E+02  0.51100000000E-03 0. -1.
        -11    1    3    3    0    0  0.15113055560E+02 -0.90915272036E+01 -0.13728229861E+02  0.22350047218E+02  0.51100000000E-03 0.  1.
        -12    1    3    3    0    0 -0.84189493706E+01  0.13702472675E+02 -0.16529173511E+02  0.23061874228E+02  0.00000000000E+00 0.  1.
</event>
<event>
 7    1  0.1339094E-013  0.7246154E+02  0.7816164E-02  0.1226708E+00
        -11   -1    0    0    0    0  0.00000000000E+00  0.00000000000E+00  0.45593999997E+02  0.45594000000E+02  0.51100000000E-03 0. -1.
         11   -1    0    0    0    0 -0.00000000000E+00 -0.00000000000E+00 -0.45593999997E+02  0.45594000000E+02  0.51100000000E-03 0.  1.
    9900012    2    1    2    0    0 -0.45599525922E+01 -0.92708062565E+01 -0.15618561048E+02  0.72461535692E+02  0.69999954923E+02 0.  0.
         12    1    1    2    0    0  0.45599525922E+01  0.92708062565E+01  0.15618561048E+02  0.18726464308E+02  0.00000000000E+00 0. -1.
         11    1    3    3    0    0 -0.87123790561E+01 -0.12302772497E+02 -0.33924976131E+02  0.37123682006E+02  0.51100000000E-03 0. -1.
        -11    1    3    3    0    0 -0.11094902395E+02  0.85453098004E+01  0.89070224644E+01  0.16596813796E+02  0.51100000000E-03 0.  1.
         12    1    3    3    0    0  0.15247328859E+02 -0.55133435594E+01  0.93993926191E+01  0.18741039889E+02  0.00000000000E+00 0. -1.
</event>
<event>
 8    1  0.1339094E-013  0.7246156E+02  0.7816164E-02  0.1226708E+00
        -11   -1    0    0    0    0  0.00000000000E+00  0.00000000000E+00  0.45593999997E+02  0.45594000000E+02  0.51100000000E-03 0.  1.
         11   -1    0    0    0    0 -0.00000000000E+00 -0.00000000000E+00 -0.45593999997E+02  0.45594000000E+02  0.51100000000E-03 0. -1.
    9900012    2    1    2    0    0  0.62704752699E+01  0.46412823642E+01  0.17024072111E+02  0.72461564318E+02  0.69999992215E+02 0.  0.
         24    2    3    3    0    0 -0.22114467421E+00  0.99406350545E+01 -0.29329796647E+01  0.50816514439E+02  0.49747870706E+02 0.  0.
         12    1    1    2    0    0 -0.62704752699E+01 -0.46412823642E+01 -0.17024072111E+02  0.18726435682E+02  0.00000000000E+00 0. -1.
         11    1    3    3    0    0  0.64916199441E+01 -0.52993526903E+01  0.19957051776E+02  0.21645049879E+02  0.51100000000E-03 0. -1.
        -11    1    4    4    0    0 -0.83032645843E+01 -0.79196994048E-01 -0.24406262294E+02  0.25780149619E+02  0.51100000000E-03 0.  1.
         12    1    4    4    0    0  0.80821199101E+01  0.10019832049E+02  0.21473282629E+02  0.25036364820E+02  0.00000000000E+00 0. -1.
</event>
<event>
 7    1  0.1339094E-013  0.7246155E+02  0.7816164E-02  0.1226708E+00
        -11   -1    0    0    0    0  0.00000000000E+00  0.00000000000E+00  0.45593999997E+02  0.45594000000E+02  0.51100000000E-03 0.  1.
         11   -1    0    0    0    0 -0.00000000000E+00 -0.00000000000E+00 -0.45593999997E+02  0.45594000000E+02  0.51100000000E-03 0. -1.
    9900012    2    1    2    0    0  0.64873463722E+01  0.86864950354E+01  0.15268892322E+02  0.72461549944E+02  0.69999973490E+02 0.  0.
         12    1    1    2    0    0 -0.64873463722E+01 -0.86864950354E+01 -0.15268892322E+02  0.18726450056E+02  0.00000000000E+00 0. -1.
         11    1    3    3    0    0  0.10579727424E+02  0.11298478161E+01 -0.15472958635E+02  0.18778169177E+02  0.51100000000E-03 0. -1.
        -11    1    3    3    0    0  0.73809684365E+01  0.20177854072E+02  0.29617118543E+02  0.36589591430E+02  0.51100000000E-03 0.  1.
         12    1    3    3    0    0 -0.11473349488E+02 -0.12621206853E+02  0.11247324146E+01  0.17093789337E+02  0.00000000000E+00 0. -1.
</event>
<event>
 8    1  0.1339094E-013  0.7246150E+02  0.7816164E-02  0.1226708E+00
        -11   -1    0    0    0    0  0.00000000000E+00  0.00000000000E+00  0.45593999997E+02  0.45594000000E+02  0.51100000000E-03 0.  1.
         11   -1    0    0    0    0 -0.00000000000E+00 -0.00000000000E+00 -0.45593999997E+02  0.45594000000E+02  0.51100000000E-03 0. -1.
    9900012    2    1    2    0    0 -0.33647452270E+01 -0.23217224084E+01  0.18274848123E+02  0.72461495273E+02  0.69999902270E+02 0.  0.
         24    2    3    3    0    0  0.33362482827E+01  0.97942754850E+01  0.25267091759E+02  0.56950460804E+02  0.49978702213E+02 0.  0.
         12    1    1    2    0    0  0.33647452270E+01  0.23217224084E+01 -0.18274848123E+02  0.18726504727E+02  0.00000000000E+00 0. -1.
         11    1    3    3    0    0 -0.67009935097E+01 -0.12115997893E+02 -0.69922436358E+01  0.15511034469E+02  0.51100000000E-03 0. -1.
        -11    1    4    4    0    0  0.13576369886E+02 -0.74924512980E+01  0.32164645190E+02  0.35707408842E+02  0.51100000000E-03 0.  1.
         12    1    4    4    0    0 -0.10240121603E+02  0.17286726783E+02 -0.68975534313E+01  0.21243051962E+02  0.00000000000E+00 0. -1.
</event>
<event>
 7    1  0.1339094E-013  0.7246161E+02  0.7816164E-02  0.1226708E+00
        -11   -1    0    0    0    0  0.00000000000E+00  0.00000000000E+00  0.45593999997E+02  0.45594000000E+02  0.51100000000E-03 0.  1.
         11   -1    0    0    0    0 -0.00000000000E+00 -0.00000000000E+00 -0.45593999997E+02  0.45594000000E+02  0.51100000000E-03 0. -1.
    9900012    2    1    2    0    0 -0.10999614517E+02  0.51800913738E+01  0.14242635842E+02  0.72461613753E+02  0.70000056613E+02 0.  0.
         12    1    1    2    0    0  0.10999614517E+02 -0.51800913738E+01 -0.14242635842E+02  0.18726386247E+02  0.00000000000E+00 0. -1.
         11    1    3    3    0    0 -0.74957382187E+01 -0.16576433659E+01 -0.24747900338E+02  0.25911241661E+02  0.51100000000E-03 0. -1.
        -11    1    3    3    0    0 -0.91880764390E+01  0.12490994646E+02  0.33256793554E+02  0.36694141407E+02  0.51100000000E-03 0.  1.
         12    1    3    3    0    0  0.56842001408E+01 -0.56532599061E+01  0.57337426264E+01  0.98562306849E+01  0.00000000000E+00 0. -1.
</event>
<event>
 7    1  0.1339094E-013  0.7246195E+02  0.7816164E-02  0.1226707E+00
        -11   -1    0    0    0    0  0.00000000000E+00  0.00000000000E+00  0.45593999997E+02  0.45594000000E+02  0.51100000000E-03 0. -1.
         11   -1    0    0    0    0 -0.00000000000E+00 -0.00000000000E+00 -0.45593999997E+02  0.45594000000E+02  0.51100000000E-03 0.  1.
    9900012    2    1    2    0    0  0.15851128117E+02 -0.86424928759E+01 -0.49713270317E+01  0.72461947609E+02  0.70000491521E+02 0.  0.
         12    1    1    2    0    0 -0.15851128117E+02  0.86424928759E+01  0.49713270317E+01  0.18726052391E+02  0.00000000000E+00 0. -1.
         11    1    3    3    0    0  0.10251092464E+02 -0.18953929381E+01  0.14139180137E+02  0.17566838825E+02  0.51100000000E-03 0. -1.
        -11    1    3    3    0    0  0.16728703029E+01 -0.12089991522E+02 -0.35326639647E+02  0.37375631888E+02  0.51100000000E-03 0.  1.
        -12    1    3    3    0    0  0.39271653497E+01  0.53428915842E+01  0.16216132478E+02  0.17519476896E+02  0.00000000000E+00 0.  1.
</event>
<event>
 7    1  0.1339094E-013  0.7246166E+02  0.7816164E-02  0.1226708E+00
        -11   -1    0    0    0    0  0.00000000000E+00  0.00000000000E+00  0.45593999997E+02  0.45594000000E+02  0.51100000000E-03 0.  1.
         11   -1    0    0    0    0 -0.00000000000E+00 -0.00000000000E+00 -0.45593999997E+02  0.45594000000E+02  0.51100000000E-03 0. -1.
    9900012    2    1    2    0    0  0.17323047857E+02  0.38769086453E+01  0.59630022655E+01  0.72461660162E+02  0.70000117070E+02 0.  0.
         12    1    1    2    0    0 -0.17323047857E+02 -0.38769086453E+01 -0.59630022655E+01  0.18726339838E+02  0.00000000000E+00 0. -1.
         11    1    3    3    0    0  0.56153726771E+00  0.23332989478E+02 -0.44241599557E+01  0.23755355474E+02  0.51100000000E-03 0. -1.
        -11    1    3    3    0    0 -0.72493193867E+01 -0.18946579448E+02  0.13676676958E+02  0.24465833262E+02  0.51100000000E-03 0.  1.
        -12    1    3    3    0    0  0.24010829976E+02 -0.50950138542E+00 -0.32895147364E+01  0.24240471427E+02  0.00000000000E+00 0.  1.
</event>
<event>
 7    1  0.1339094E-013  0.7246158E+02  0.7816164E-02  0.1226708E+00
        -11   -1    0    0    0    0  0.00000000000E+00  0.00000000000E+00  0.45593999997E+02  0.45594000000E+02  0.51100000000E-03 0.  1.
         11   -1    0    0    0    0 -0.00000000000E+00 -0.00000000000E+00 -0.45593999997E+02  0.45594000000E+02  0.51100000000E-03 0. -1.
    9900012    2    1    2    0    0 -0.17757634924E+02  0.52035137311E+01  0.28755496260E+01  0.72461576453E+02  0.70000008022E+02 0.  0.
         12    1    1    2    0    0  0.17757634924E+02 -0.52035137311E+01 -0.28755496260E+01  0.18726423547E+02  0.00000000000E+00 0. -1.
         11    1    3    3    0    0  0.14270124492E+02 -0.53047216235E+01 -0.70013787107E+01  0.16756963587E+02  0.51100000000E-03 0. -1.
        -11    1    3    3    0    0 -0.41285354958E+02  0.69156215399E+01  0.15079820238E+02  0.44493902211E+02  0.51100000000E-03 0.  1.
        -12    1    3    3    0    0  0.92575955424E+01  0.35926138147E+01 -0.52028919011E+01  0.11210710655E+02  0.00000000000E+00 0.  1.
</event>
<event>
 7    1  0.1339094E-013  0.7246160E+02  0.7816164E-02  0.1226708E+00
        -11   -1    0    0    0    0  0.00000000000E+00  0.00000000000E+00  0.45593999997E+02  0.45594000000E+02  0.51100000000E-03 0. -1.
         11   -1    0    0    0    0 -0.00000000000E+00 -0.00000000000E+00 -0.45593999997E+02  0.45594000000E+02  0.51100000000E-03 0.  1.
    9900012    2    1    2    0    0  0.13335557755E+02  0.11581443529E+02 -0.62218305800E+01  0.72461598568E+02  0.70000036831E+02 0.  0.
         12    1    1    2    0    0 -0.13335557755E+02 -0.11581443529E+02  0.62218305800E+01  0.18726401432E+02  0.00000000000E+00 0. -1.
         11    1    3    3    0    0  0.74217301592E+01 -0.43408571931E+01  0.11333232922E+02  0.14225585698E+02  0.51100000000E-03 0. -1.
        -11    1    3    3    0    0  0.76708715186E+01 -0.82616596616E+01 -0.29226544808E+02  0.31325520138E+02  0.51100000000E-03 0.  1.
        -12    1    3    3    0    0 -0.17570439230E+01  0.24183960384E+02  0.11671481306E+02  0.26910492732E+02  0.00000000000E+00 0.  1.
</event>
<event>
 7    1  0.1339094E-013  0.7246154E+02  0.7816164E-02  0.1226708E+00
        -11   -1    0    0    0    0  0.00000000000E+00  0.00000000000E+00  0.45593999997E+02  0.45594000000E+02  0.51100000000E-03 0. -1.
         11   -1    0    0    0    0 -0.00000000000E+00 -0.00000000000E+00 -0.45593999997E+02  0.45594000000E+02  0.51100000000E-03 0.  1.
    9900012    2    1    2    0    0 -0.17777771251E+02  0.46583032353E+01  0.35960363070E+01  0.72461536991E+02  0.69999956617E+02 0.  0.
         12    1    1    2    0    0  0.17777771251E+02 -0.46583032353E+01 -0.35960363070E+01  0.18726463009E+02  0.00000000000E+00 0. -1.
         11    1    3    3    0    0 -0.14026982319E+02  0.27809561908E+02  0.40268558723E+01  0.31406106651E+02  0.51100000000E-03 0. -1.
        -11    1    3    3    0    0 -0.10262825674E+02 -0.25137657836E+02  0.97144632664E+01  0.28837444913E+02  0.51100000000E-03 0.  1.
         12    1    3    3    0    0  0.65120367421E+01  0.19863991635E+01 -0.10145282832E+02  0.12217985427E+02  0.00000000000E+00 0. -1.
</event>
<event>
 7    1  0.1339094E-013  0.7246158E+02  0.7816164E-02  0.1226708E+00
        -11   -1    0    0    0    0  0.00000000000E+00  0.00000000000E+00  0.45593999997E+02  0.45594000000E+02  0.51100000000E-03 0. -1.
         11   -1    0    0    0    0 -0.00000000000E+00 -0.00000000000E+00 -0.45593999997E+02  0.45594000000E+02  0.51100000000E-03 0.  1.
    9900012    2    1    2    0    0  0.89026968691E+00 -0.18077078185E+02  0.48068311562E+01  0.72461575846E+02  0.70000007232E+02 0.  0.
         12    1    1    2    0    0 -0.89026968691E+00  0.18077078185E+02 -0.48068311562E+01  0.18726424154E+02  0.00000000000E+00 0. -1.
         11    1    3    3    0    0  0.20066063654E+02  0.27156296050E+01  0.84263868589E+01  0.21932294693E+02  0.51100000000E-03 0. -1.
        -11    1    3    3    0    0 -0.19716442969E+02 -0.32273778107E+02 -0.71828351405E+01  0.38495817923E+02  0.51100000000E-03 0.  1.
         12    1    3    3    0    0  0.54064900122E+00  0.11481070317E+02  0.35632794378E+01  0.12033463231E+02  0.00000000000E+00 0. -1.
</event>
<event>
 7    1  0.1339094E-013  0.7246156E+02  0.7816164E-02  0.1226708E+00
        -11   -1    0    0    0    0  0.00000000000E+00  0.00000000000E+00  0.45593999997E+02  0.45594000000E+02  0.51100000000E-03 0. -1.
         11   -1    0    0    0    0 -0.00000000000E+00 -0.00000000000E+00 -0.45593999997E+02  0.45594000000E+02  0.51100000000E-03 0.  1.
    9900012    2    1    2    0    0 -0.11057524409E+02 -0.52637483651E+01 -0.14166995738E+02  0.72461557168E+02  0.69999982900E+02 0.  0.
         12    1    1    2    0    0  0.11057524409E+02  0.52637483651E+01  0.14166995738E+02  0.18726442832E+02  0.00000000000E+00 0. -1.
         11    1    3    3    0    0 -0.10704167419E+02 -0.99003135220E+01 -0.25312575668E+02  0.29211673953E+02  0.51100000000E-03 0.  1.
        -11    1    3    3    0    0 -0.18641728049E+01 -0.69472910387E+01  0.24484190953E+02  0.25518926308E+02  0.51100000000E-03 0. -1.
         12    1    3    3    0    0  0.15108158150E+01  0.11583856196E+02 -0.13338611023E+02  0.17730956907E+02  0.00000000000E+00 0. -1.
</event>
<event>
 7    1  0.1339094E-013  0.7246158E+02  0.7816164E-02  0.1226708E+00
        -11   -1    0    0    0    0  0.00000000000E+00  0.00000000000E+00  0.45593999997E+02  0.45594000000E+02  0.51100000000E-03 0. -1.
         11   -1    0    0    0    0 -0.00000000000E+00 -0.00000000000E+00 -0.45593999997E+02  0.45594000000E+02  0.51100000000E-03 0.  1.
    9900012    2    1    2    0    0 -0.17454730651E+02  0.57423977360E+01 -0.36105666394E+01  0.72461576280E+02  0.70000007798E+02 0.  0.
         12    1    1    2    0    0  0.17454730651E+02 -0.57423977360E+01  0.36105666394E+01  0.18726423720E+02  0.00000000000E+00 0. -1.
         11    1    3    3    0    0  0.10880364619E+02  0.12411546336E+02 -0.20281139931E+02  0.26148679773E+02  0.51100000000E-03 0. -1.
        -11    1    3    3    0    0 -0.12829357546E+02 -0.18714881159E+02  0.13560003315E+02  0.26433177675E+02  0.51100000000E-03 0.  1.
         12    1    3    3    0    0 -0.15505737725E+02  0.12045732559E+02  0.31105699765E+01  0.19879718832E+02  0.00000000000E+00 0. -1.
</event>
<event>
 7    1  0.1339094E-013  0.7246156E+02  0.7816164E-02  0.1226708E+00
        -11   -1    0    0    0    0  0.00000000000E+00  0.00000000000E+00  0.45593999997E+02  0.45594000000E+02  0.51100000000E-03 0. -1.
         11   -1    0    0    0    0 -0.00000000000E+00 -0.00000000000E+00 -0.45593999997E+02  0.45594000000E+02  0.51100000000E-03 0.  1.
    9900012    2    1    2    0    0  0.58028615573E+00 -0.18333103254E+02 -0.37736224956E+01  0.72461557901E+02  0.69999983855E+02 0.  0.
         12    1    1    2    0    0 -0.58028615573E+00  0.18333103254E+02  0.37736224956E+01  0.18726442099E+02  0.00000000000E+00 0. -1.
         11    1    3    3    0    0 -0.22874355618E+02  0.31907295241E+01  0.46866156427E+01  0.23566528515E+02  0.51100000000E-03 0. -1.
        -11    1    3    3    0    0  0.23045828232E+02 -0.88230106301E+01  0.98810569976E+01  0.26581779532E+02  0.51100000000E-03 0.  1.
        -12    1    3    3    0    0  0.40881354194E+00 -0.12700822148E+02 -0.18341295136E+02  0.22313249853E+02  0.00000000000E+00 0.  1.
</event>
<event>
 7    1  0.1339094E-013  0.7246156E+02  0.7816164E-02  0.1226708E+00
        -11   -1    0    0    0    0  0.00000000000E+00  0.00000000000E+00  0.45593999997E+02  0.45594000000E+02  0.51100000000E-03 0.  1.
         11   -1    0    0    0    0 -0.00000000000E+00 -0.00000000000E+00 -0.45593999997E+02  0.45594000000E+02  0.51100000000E-03 0. -1.
    9900012    2    1    2    0    0 -0.17455921829E+02  0.28903350647E+01  0.61332196389E+01  0.72461558085E+02  0.69999984094E+02 0.  0.
         12    1    1    2    0    0  0.17455921829E+02 -0.28903350647E+01 -0.61332196389E+01  0.18726441915E+02  0.00000000000E+00 0. -1.
         11    1    3    3    0    0  0.13182447067E+02  0.97708593203E+01 -0.14087737327E+02  0.21626625853E+02  0.51100000000E-03 0. -1.
        -11    1    3    3    0    0 -0.41475852171E+01 -0.12948234643E+02  0.19343685108E+02  0.23643971690E+02  0.51100000000E-03 0.  1.
         12    1    3    3    0    0 -0.26490783679E+02  0.60677103870E+01  0.87727185788E+00  0.27190960541E+02  0.00000000000E+00 0. -1.
</event>
<event>
 7    1  0.1339094E-013  0.7246178E+02  0.7816164E-02  0.1226707E+00
        -11   -1    0    0    0    0  0.00000000000E+00  0.00000000000E+00  0.45593999997E+02  0.45594000000E+02  0.51100000000E-03 0. -1.
         11   -1    0    0    0    0 -0.00000000000E+00 -0.00000000000E+00 -0.45593999997E+02  0.45594000000E+02  0.51100000000E-03 0.  1.
    9900012    2    1    2    0    0  0.52034676421E+01 -0.41779501268E+01 -0.17496853783E+02  0.72461782147E+02  0.70000275977E+02 0.  0.
         12    1    1    2    0    0 -0.52034676421E+01  0.41779501268E+01  0.17496853783E+02  0.18726217853E+02  0.00000000000E+00 0. -1.
         11    1    3    3    0    0 -0.14198551985E+02  0.18365517692E+02  0.12531213851E+02  0.26380341912E+02  0.51100000000E-03 0. -1.
        -11    1    3    3    0    0  0.15599317661E+01 -0.80019942324E+01  0.11719005367E+00  0.81534675188E+01  0.51100000000E-03 0.  1.
         12    1    3    3    0    0  0.17842087861E+02 -0.14541473586E+02 -0.30145257688E+02  0.37927972716E+02  0.00000000000E+00 0. -1.
</event>
<event>
 7    1  0.1339094E-013  0.7246085E+02  0.7816164E-02  0.1226710E+00
        -11   -1    0    0    0    0  0.00000000000E+00  0.00000000000E+00  0.45593999997E+02  0.45594000000E+02  0.51100000000E-03 0.  1.
         11   -1    0    0    0    0 -0.00000000000E+00 -0.00000000000E+00 -0.45593999997E+02  0.45594000000E+02  0.51100000000E-03 0. -1.
    9900012    2    1    2    0    0  0.17078703655E+01  0.12341597553E+02  0.13981210532E+02  0.72460851277E+02  0.69999063340E+02 0.  0.
         12    1    1    2    0    0 -0.17078703655E+01 -0.12341597553E+02 -0.13981210532E+02  0.18727148723E+02  0.00000000000E+00 0. -1.
         11    1    3    3    0    0  0.17122047607E+02  0.17202884791E+02 -0.54537276541E+01  0.24876633715E+02  0.51100000000E-03 0. -1.
        -11    1    3    3    0    0 -0.93437230392E+01 -0.13830347526E+02  0.28786469413E+02  0.33275283537E+02  0.51100000000E-03 0.  1.
        -12    1    3    3    0    0 -0.60704542019E+01  0.89690602876E+01 -0.93515312268E+01  0.14308934025E+02  0.00000000000E+00 0.  1.
</event>
<event>
 7    1  0.1339094E-013  0.7246159E+02  0.7816164E-02  0.1226708E+00
        -11   -1    0    0    0    0  0.00000000000E+00  0.00000000000E+00  0.45593999997E+02  0.45594000000E+02  0.51100000000E-03 0. -1.
         11   -1    0    0    0    0 -0.00000000000E+00 -0.00000000000E+00 -0.45593999997E+02  0.45594000000E+02  0.51100000000E-03 0.  1.
    9900012    2    1    2    0    0 -0.19451403949E+01 -0.10126895193E+02 -0.15631400998E+02  0.72461594190E+02  0.70000031128E+02 0.  0.
         12    1    1    2    0    0  0.19451403949E+01  0.10126895193E+02  0.15631400998E+02  0.18726405810E+02  0.00000000000E+00 0. -1.
         11    1    3    3    0    0 -0.18107160975E+02 -0.14744116987E+02  0.17210351359E+02  0.29007834433E+02  0.51100000000E-03 0. -1.
        -11    1    3    3    0    0  0.20658514498E+02 -0.13348466492E+01 -0.26737314448E+02  0.33814789974E+02  0.51100000000E-03 0.  1.
         12    1    3    3    0    0 -0.44964939174E+01  0.59520684422E+01 -0.61044379091E+01  0.96389697829E+01  0.00000000000E+00 0. -1.
</event>
<event>
 7    1  0.1339094E-013  0.7246151E+02  0.7816164E-02  0.1226708E+00
        -11   -1    0    0    0    0  0.00000000000E+00  0.00000000000E+00  0.45593999997E+02  0.45594000000E+02  0.51100000000E-03 0. -1.
         11   -1    0    0    0    0 -0.00000000000E+00 -0.00000000000E+00 -0.45593999997E+02  0.45594000000E+02  0.51100000000E-03 0.  1.
    9900012    2    1    2    0    0  0.22364235215E+01 -0.72432180172E+01 -0.17123539322E+02  0.72461510838E+02  0.69999922547E+02 0.  0.
         12    1    1    2    0    0 -0.22364235215E+01  0.72432180172E+01  0.17123539322E+02  0.18726489162E+02  0.00000000000E+00 0. -1.
         11    1    3    3    0    0  0.22374155275E+02 -0.11312388018E+02 -0.99052742090E+01  0.26957140136E+02  0.51100000000E-03 0. -1.
        -11    1    3    3    0    0 -0.27372580646E+02 -0.22646514855E+01 -0.16581401977E+02  0.32083168630E+02  0.51100000000E-03 0.  1.
        -12    1    3    3    0    0  0.72348488930E+01  0.63338214861E+01  0.93631368635E+01  0.13421202072E+02  0.00000000000E+00 0.  1.
</event>
<event>
 7    1  0.1339094E-013  0.7246155E+02  0.7816164E-02  0.1226708E+00
        -11   -1    0    0    0    0  0.00000000000E+00  0.00000000000E+00  0.45593999997E+02  0.45594000000E+02  0.51100000000E-03 0.  1.
         11   -1    0    0    0    0 -0.00000000000E+00 -0.00000000000E+00 -0.45593999997E+02  0.45594000000E+02  0.51100000000E-03 0. -1.
    9900012    2    1    2    0    0  0.88969651510E+00  0.79722373714E+01  0.16921342335E+02  0.72461549321E+02  0.69999972679E+02 0.  0.
         12    1    1    2    0    0 -0.88969651510E+00 -0.79722373714E+01 -0.16921342335E+02  0.18726450679E+02  0.00000000000E+00 0. -1.
         11    1    3    3    0    0 -0.11195492981E+02  0.40178682812E+01 -0.15508934329E+02  0.19545060064E+02  0.51100000000E-03 0. -1.
        -11    1    3    3    0    0  0.19517153045E+02 -0.71560416760E+01  0.33587033176E+02  0.39499582192E+02  0.51100000000E-03 0.  1.
        -12    1    3    3    0    0 -0.74319635487E+01  0.11110410766E+02 -0.11567565124E+01  0.13416907066E+02  0.00000000000E+00 0.  1.
</event>
<event>
 7    1  0.1339094E-013  0.7246157E+02  0.7816164E-02  0.1226708E+00
        -11   -1    0    0    0    0  0.00000000000E+00  0.00000000000E+00  0.45593999997E+02  0.45594000000E+02  0.51100000000E-03 0. -1.
         11   -1    0    0    0    0 -0.00000000000E+00 -0.00000000000E+00 -0.45593999997E+02  0.45594000000E+02  0.51100000000E-03 0.  1.
    9900012    2    1    2    0    0 -0.82140288508E+01  0.12859292152E+02  0.10855756004E+02  0.72461572070E+02  0.70000002313E+02 0.  0.
         12    1    1    2    0    0  0.82140288508E+01 -0.12859292152E+02 -0.10855756004E+02  0.18726427930E+02  0.00000000000E+00 0. -1.
         11    1    3    3    0    0  0.15640023877E+02 -0.91712121970E+01  0.16009708313E+02  0.24187439727E+02  0.51100000000E-03 0. -1.
        -11    1    3    3    0    0 -0.13291861015E+02  0.40826789254E+01 -0.18794819171E+02  0.23379201534E+02  0.51100000000E-03 0.  1.
         12    1    3    3    0    0 -0.10562191713E+02  0.17947825423E+02  0.13640866862E+02  0.24894930809E+02  0.00000000000E+00 0. -1.
</event>
<event>
 7    1  0.1339094E-013  0.7246158E+02  0.7816164E-02  0.1226708E+00
        -11   -1    0    0    0    0  0.00000000000E+00  0.00000000000E+00  0.45593999997E+02  0.45594000000E+02  0.51100000000E-03 0. -1.
         11   -1    0    0    0    0 -0.00000000000E+00 -0.00000000000E+00 -0.45593999997E+02  0.45594000000E+02  0.51100000000E-03 0.  1.
    9900012    2    1    2    0    0  0.12179849354E+02  0.11310195546E+02 -0.86260989735E+01  0.72461579171E+02  0.70000011563E+02 0.  0.
         12    1    1    2    0    0 -0.12179849354E+02 -0.11310195546E+02  0.86260989735E+01  0.18726420829E+02  0.00000000000E+00 0. -1.
         11    1    3    3    0    0  0.24030568382E+02  0.12824539183E+02  0.13743181173E+02  0.30509212560E+02  0.51100000000E-03 0. -1.
        -11    1    3    3    0    0 -0.16803042124E+02 -0.14680180064E+01  0.20906205153E+01  0.16996117082E+02  0.51100000000E-03 0.  1.
         12    1    3    3    0    0  0.49523230955E+01 -0.46325631175E-01 -0.24459900662E+02  0.24956249528E+02  0.00000000000E+00 0. -1.
</event>
<event>
 7    1  0.1339094E-013  0.7246158E+02  0.7816164E-02  0.1226708E+00
        -11   -1    0    0    0    0  0.00000000000E+00  0.00000000000E+00  0.45593999997E+02  0.45594000000E+02  0.51100000000E-03 0.  1.
         11   -1    0    0    0    0 -0.00000000000E+00 -0.00000000000E+00 -0.45593999997E+02  0.45594000000E+02  0.51100000000E-03 0. -1.
    9900012    2    1    2    0    0  0.11158551363E+02  0.65803876533E+00  0.15024398207E+02  0.72461579492E+02  0.70000011982E+02 0.  0.
         12    1    1    2    0    0 -0.11158551363E+02 -0.65803876533E+00 -0.15024398207E+02  0.18726420508E+02  0.00000000000E+00 0. -1.
         11    1    3    3    0    0  0.63460224532E+01  0.12860440374E+02 -0.12346209705E+02  0.18923314243E+02  0.51100000000E-03 0. -1.
        -11    1    3    3    0    0 -0.68463393388E+01 -0.23904411165E+02  0.44108359782E+01  0.25253687053E+02  0.51100000000E-03 0.  1.
         12    1    3    3    0    0  0.11658868248E+02  0.11702009556E+02  0.22959771935E+02  0.28284578197E+02  0.00000000000E+00 0. -1.
</event>
<event>
 7    1  0.1339094E-013  0.7246158E+02  0.7816164E-02  0.1226708E+00
        -11   -1    0    0    0    0  0.00000000000E+00  0.00000000000E+00  0.45593999997E+02  0.45594000000E+02  0.51100000000E-03 0.  1.
         11   -1    0    0    0    0 -0.00000000000E+00 -0.00000000000E+00 -0.45593999997E+02  0.45594000000E+02  0.51100000000E-03 0. -1.
    9900012    2    1    2    0    0 -0.10476995852E+02 -0.67007659350E+00  0.15506849531E+02  0.72461579437E+02  0.70000011910E+02 0.  0.
         12    1    1    2    0    0  0.10476995852E+02  0.67007659350E+00 -0.15506849531E+02  0.18726420563E+02  0.00000000000E+00 0. -1.
         11    1    3    3    0    0 -0.78290663259E+01  0.26038819875E+02  0.11728419795E+02  0.29611995055E+02  0.51100000000E-03 0. -1.
        -11    1    3    3    0    0  0.84935035547E+01 -0.19116994326E+02  0.14643019118E+02  0.25534625195E+02  0.51100000000E-03 0.  1.
         12    1    3    3    0    0 -0.11141433081E+02 -0.75919021419E+01 -0.10864589382E+02  0.17314959187E+02  0.00000000000E+00 0. -1.
</event>
<event>
 7    1  0.1339094E-013  0.7246158E+02  0.7816164E-02  0.1226708E+00
        -11   -1    0    0    0    0  0.00000000000E+00  0.00000000000E+00  0.45593999997E+02  0.45594000000E+02  0.51100000000E-03 0. -1.
         11   -1    0    0    0    0 -0.00000000000E+00 -0.00000000000E+00 -0.45593999997E+02  0.45594000000E+02  0.51100000000E-03 0.  1.
    9900012    2    1    2    0    0 -0.86605411734E-02  0.15727117854E+02 -0.10165453379E+02  0.72461581405E+02  0.70000014474E+02 0.  0.
         12    1    1    2    0    0  0.86605411734E-02 -0.15727117854E+02  0.10165453379E+02  0.18726418595E+02  0.00000000000E+00 0. -1.
         11    1    3    3    0    0 -0.21487442553E+00 -0.27710246858E+01 -0.30684457173E+02  0.30810074020E+02  0.51100000000E-03 0. -1.
        -11    1    3    3    0    0 -0.29330774092E+01  0.25903897405E+02  0.21168680889E+02  0.33581660095E+02  0.51100000000E-03 0.  1.
         12    1    3    3    0    0  0.31392912935E+01 -0.74057548660E+01 -0.64967709498E+00  0.80698472903E+01  0.00000000000E+00 0. -1.
</event>
<event>
 7    1  0.1339094E-013  0.7246184E+02  0.7816164E-02  0.1226707E+00
        -11   -1    0    0    0    0  0.00000000000E+00  0.00000000000E+00  0.45593999997E+02  0.45594000000E+02  0.51100000000E-03 0.  1.
         11   -1    0    0    0    0 -0.00000000000E+00 -0.00000000000E+00 -0.45593999997E+02  0.45594000000E+02  0.51100000000E-03 0. -1.
    9900012    2    1    2    0    0 -0.17207885787E+02  0.12319313869E+01  0.72828704945E+01  0.72461836730E+02  0.70000347081E+02 0.  0.
         12    1    1    2    0    0  0.17207885787E+02 -0.12319313869E+01 -0.72828704945E+01  0.18726163270E+02  0.00000000000E+00 0. -1.
         11    1    3    3    0    0  0.46694889837E+01 -0.30503475541E+02 -0.13288042711E+00  0.30859095984E+02  0.51100000000E-03 0. -1.
        -11    1    3    3    0    0 -0.53437940212E+01  0.19867389675E+02  0.32494101990E+01  0.20828537490E+02  0.51100000000E-03 0.  1.
         12    1    3    3    0    0 -0.16533580749E+02  0.11868017253E+02  0.41663407226E+01  0.20774203256E+02  0.00000000000E+00 0. -1.
</event>
<event>
 7    1  0.1339094E-013  0.7246153E+02  0.7816164E-02  0.1226708E+00
        -11   -1    0    0    0    0  0.00000000000E+00  0.00000000000E+00  0.45593999997E+02  0.45594000000E+02  0.51100000000E-03 0.  1.
         11   -1    0    0    0    0 -0.00000000000E+00 -0.00000000000E+00 -0.45593999997E+02  0.45594000000E+02  0.51100000000E-03 0. -1.
    9900012    2    1    2    0    0 -0.18325302262E+02  0.27312475711E+01 -0.27210993206E+01  0.72461526819E+02  0.69999943365E+02 0.  0.
         12    1    1    2    0    0  0.18325302262E+02 -0.27312475711E+01  0.27210993206E+01  0.18726473181E+02  0.00000000000E+00 0. -1.
         11    1    3    3    0    0 -0.48782688043E+01  0.99561845769E+00 -0.21644145755E+02  0.22209408105E+02  0.51100000000E-03 0. -1.
        -11    1    3    3    0    0 -0.15738315632E+02  0.41027007835E+00  0.32663133125E+02  0.36259387285E+02  0.51100000000E-03 0.  1.
        -12    1    3    3    0    0  0.22912821742E+01  0.13253590351E+01 -0.13740086691E+02  0.13992731429E+02  0.00000000000E+00 0.  1.
</event>
<event>
 7    1  0.1339094E-013  0.7246165E+02  0.7816164E-02  0.1226708E+00
        -11   -1    0    0    0    0  0.00000000000E+00  0.00000000000E+00  0.45593999997E+02  0.45594000000E+02  0.51100000000E-03 0. -1.
         11   -1    0    0    0    0 -0.00000000000E+00 -0.00000000000E+00 -0.45593999997E+02  0.45594000000E+02  0.51100000000E-03 0.  1.
    9900012    2    1    2    0    0 -0.27316689267E+01 -0.17744053824E+02 -0.53256679468E+01  0.72461649573E+02  0.70000103275E+02 0.  0.
         12    1    1    2    0    0  0.27316689267E+01  0.17744053824E+02  0.53256679468E+01  0.18726350427E+02  0.00000000000E+00 0. -1.
         11    1    3    3    0    0  0.12704002866E+02  0.65207211203E+01  0.17457473672E+02  0.22553821849E+02  0.51100000000E-03 0. -1.
        -11    1    3    3    0    0  0.22982712375E+01 -0.26434174910E+02 -0.13286023096E+02  0.29674333418E+02  0.51100000000E-03 0.  1.
         12    1    3    3    0    0 -0.17733943030E+02  0.21693999659E+01 -0.94971185224E+01  0.20233494306E+02  0.00000000000E+00 0. -1.
</event>
<event>
 7    1  0.1339094E-013  0.7246162E+02  0.7816164E-02  0.1226708E+00
        -11   -1    0    0    0    0  0.00000000000E+00  0.00000000000E+00  0.45593999997E+02  0.45594000000E+02  0.51100000000E-03 0.  1.
         11   -1    0    0    0    0 -0.00000000000E+00 -0.00000000000E+00 -0.45593999997E+02  0.45594000000E+02  0.51100000000E-03 0. -1.
    9900012    2    1    2    0    0  0.73601591494E+01  0.45832793286E+01  0.16598154455E+02  0.72461624926E+02  0.70000071168E+02 0.  0.
         12    1    1    2    0    0 -0.73601591494E+01 -0.45832793286E+01 -0.16598154455E+02  0.18726375074E+02  0.00000000000E+00 0. -1.
         11    1    3    3    0    0  0.89750680848E+01 -0.64387598288E+01 -0.14927430959E+02  0.18569805345E+02  0.51100000000E-03 0. -1.
        -11    1    3    3    0    0  0.81626584374E+01  0.24762465137E+02  0.14097732412E+02  0.29640423949E+02  0.51100000000E-03 0.  1.
        -12    1    3    3    0    0 -0.97775673728E+01 -0.13740425980E+02  0.17427853002E+02  0.24251395632E+02  0.00000000000E+00 0.  1.
</event>
<event>
 7    1  0.1339094E-013  0.7246158E+02  0.7816164E-02  0.1226708E+00
        -11   -1    0    0    0    0  0.00000000000E+00  0.00000000000E+00  0.45593999997E+02  0.45594000000E+02  0.51100000000E-03 0.  1.
         11   -1    0    0    0    0 -0.00000000000E+00 -0.00000000000E+00 -0.45593999997E+02  0.45594000000E+02  0.51100000000E-03 0. -1.
    9900012    2    1    2    0    0 -0.13193821202E+02  0.13194845365E+02 -0.15805453233E+01  0.72461575204E+02  0.70000006396E+02 0.  0.
         12    1    1    2    0    0  0.13193821202E+02 -0.13194845365E+02  0.15805453233E+01  0.18726424796E+02  0.00000000000E+00 0. -1.
         11    1    3    3    0    0 -0.22737013700E+02 -0.13212644823E+02 -0.73931406293E+01  0.27316740359E+02  0.51100000000E-03 0. -1.
        -11    1    3    3    0    0 -0.35674117723E+01  0.21234987349E+02 -0.10188764448E+02  0.23821461662E+02  0.51100000000E-03 0.  1.
        -12    1    3    3    0    0  0.13110604270E+02  0.51725028384E+01  0.16001359754E+02  0.21323373183E+02  0.00000000000E+00 0.  1.
</event>
<event>
 7    1  0.1339094E-013  0.7246149E+02  0.7816164E-02  0.1226708E+00
        -11   -1    0    0    0    0  0.00000000000E+00  0.00000000000E+00  0.45593999997E+02  0.45594000000E+02  0.51100000000E-03 0. -1.
         11   -1    0    0    0    0 -0.00000000000E+00 -0.00000000000E+00 -0.45593999997E+02  0.45594000000E+02  0.51100000000E-03 0.  1.
    9900012    2    1    2    0    0 -0.17674037919E+02 -0.31879926591E+01 -0.53053903227E+01  0.72461492583E+02  0.69999898766E+02 0.  0.
         12    1    1    2    0    0  0.17674037919E+02  0.31879926591E+01  0.53053903227E+01  0.18726507417E+02  0.00000000000E+00 0. -1.
         11    1    3    3    0    0  0.20769416765E+02 -0.14446993555E+02 -0.16526181311E+01  0.25353805286E+02  0.51100000000E-03 0. -1.
        -11    1    3    3    0    0 -0.18723946671E+02  0.17547517710E+02 -0.57692606640E+01  0.26301823617E+02  0.51100000000E-03 0.  1.
         12    1    3    3    0    0 -0.19719508013E+02 -0.62885168133E+01  0.21164884724E+01  0.20805863680E+02  0.00000000000E+00 0. -1.
</event>
<event>
 7    1  0.1339094E-013  0.7246159E+02  0.7816164E-02  0.1226708E+00
        -11   -1    0    0    0    0  0.00000000000E+00  0.00000000000E+00  0.45593999997E+02  0.45594000000E+02  0.51100000000E-03 0.  1.
         11   -1    0    0    0    0 -0.00000000000E+00 -0.00000000000E+00 -0.45593999997E+02  0.45594000000E+02  0.51100000000E-03 0. -1.
    9900012    2    1    2    0    0 -0.14778189232E+02 -0.11499487432E+02 -0.21294205088E+00  0.72461589973E+02  0.70000025635E+02 0.  0.
         12    1    1    2    0    0  0.14778189232E+02  0.11499487432E+02  0.21294205088E+00  0.18726410027E+02  0.00000000000E+00 0. -1.
         11    1    3    3    0    0 -0.13901358099E+02 -0.16294438240E+02 -0.22608738011E+02  0.31143402339E+02  0.51100000000E-03 0. -1.
        -11    1    3    3    0    0 -0.80905622107E+01  0.17964680005E+02  0.12413880940E+02  0.23287150208E+02  0.51100000000E-03 0.  1.
         12    1    3    3    0    0  0.72137310774E+01 -0.13169729197E+02  0.99819150207E+01  0.18031037426E+02  0.00000000000E+00 0. -1.
</event>
<event>
 7    1  0.1339094E-013  0.7246199E+02  0.7816164E-02  0.1226707E+00
        -11   -1    0    0    0    0  0.00000000000E+00  0.00000000000E+00  0.45593999997E+02  0.45594000000E+02  0.51100000000E-03 0.  1.
         11   -1    0    0    0    0 -0.00000000000E+00 -0.00000000000E+00 -0.45593999997E+02  0.45594000000E+02  0.51100000000E-03 0. -1.
    9900012    2    1    2    0    0 -0.92944755108E+01 -0.79374261692E+00  0.16237188016E+02  0.72461986622E+02  0.70000542342E+02 0.  0.
         12    1    1    2    0    0  0.92944755108E+01  0.79374261692E+00 -0.16237188016E+02  0.18726013378E+02  0.00000000000E+00 0. -1.
         11    1    3    3    0    0 -0.41417443283E+01 -0.17654417707E+02 -0.15263489332E+02  0.23702460157E+02  0.51100000000E-03 0. -1.
        -11    1    3    3    0    0 -0.16986258373E+02  0.99730074030E+01  0.74013243897E+01  0.21042182709E+02  0.51100000000E-03 0.  1.
         12    1    3    3    0    0  0.11833527190E+02  0.68876676867E+01  0.24099352958E+02  0.27717343757E+02  0.00000000000E+00 0. -1.
</event>
<event>
 7    1  0.1339094E-013  0.7246159E+02  0.7816164E-02  0.1226708E+00
        -11   -1    0    0    0    0  0.00000000000E+00  0.00000000000E+00  0.45593999997E+02  0.45594000000E+02  0.51100000000E-03 0.  1.
         11   -1    0    0    0    0 -0.00000000000E+00 -0.00000000000E+00 -0.45593999997E+02  0.45594000000E+02  0.51100000000E-03 0. -1.
    9900012    2    1    2    0    0  0.12270412617E+02  0.14099580911E+02 -0.11476665253E+01  0.72461592279E+02  0.70000028639E+02 0.  0.
         12    1    1    2    0    0 -0.12270412617E+02 -0.14099580911E+02  0.11476665253E+01  0.18726407721E+02  0.00000000000E+00 0. -1.
         11    1    3    3    0    0  0.39672920560E+01 -0.17858393028E+02  0.17799093494E+02  0.25523897376E+02  0.51100000000E-03 0. -1.
        -11    1    3    3    0    0 -0.90222900501E+00  0.29883293221E+02 -0.53260011709E+01  0.30367606420E+02  0.51100000000E-03 0.  1.
         12    1    3    3    0    0  0.92053495662E+01  0.20746807181E+01 -0.13620758849E+02  0.16570088483E+02  0.00000000000E+00 0. -1.
</event>
<event>
 7    1  0.1339094E-013  0.7246155E+02  0.7816164E-02  0.1226708E+00
        -11   -1    0    0    0    0  0.00000000000E+00  0.00000000000E+00  0.45593999997E+02  0.45594000000E+02  0.51100000000E-03 0. -1.
         11   -1    0    0    0    0 -0.00000000000E+00 -0.00000000000E+00 -0.45593999997E+02  0.45594000000E+02  0.51100000000E-03 0.  1.
    9900012    2    1    2    0    0  0.11200015102E+02 -0.27661596446E+00 -0.15005439269E+02  0.72461546456E+02  0.69999968946E+02 0.  0.
         12    1    1    2    0    0 -0.11200015102E+02  0.27661596446E+00  0.15005439269E+02  0.18726453544E+02  0.00000000000E+00 0. -1.
         11    1    3    3    0    0  0.22251355101E+02 -0.15320522860E+01  0.38021237822E+01  0.22625784706E+02  0.51100000000E-03 0. -1.
        -11    1    3    3    0    0 -0.26457136314E+02 -0.80552017901E+01 -0.14904557932E+02  0.31416750074E+02  0.51100000000E-03 0.  1.
         12    1    3    3    0    0  0.15405796315E+02  0.93106381117E+01 -0.39030051196E+01  0.18419011676E+02  0.00000000000E+00 0. -1.
</event>
<event>
 7    1  0.1339094E-013  0.7246191E+02  0.7816164E-02  0.1226707E+00
        -11   -1    0    0    0    0  0.00000000000E+00  0.00000000000E+00  0.45593999997E+02  0.45594000000E+02  0.51100000000E-03 0.  1.
         11   -1    0    0    0    0 -0.00000000000E+00 -0.00000000000E+00 -0.45593999997E+02  0.45594000000E+02  0.51100000000E-03 0. -1.
    9900012    2    1    2    0    0 -0.10795154435E+02  0.14566205875E+02  0.46858110254E+01  0.72461907566E+02  0.70000439358E+02 0.  0.
         12    1    1    2    0    0  0.10795154435E+02 -0.14566205875E+02 -0.46858110254E+01  0.18726092434E+02  0.00000000000E+00 0. -1.
         11    1    3    3    0    0 -0.81992744679E+01  0.40409759366E+02 -0.35381788331E+00  0.41234717668E+02  0.51100000000E-03 0. -1.
        -11    1    3    3    0    0 -0.57794291484E+01 -0.21435036480E+02  0.95449730318E+01  0.24165452626E+02  0.51100000000E-03 0.  1.
         12    1    3    3    0    0  0.31835491812E+01 -0.44085170115E+01 -0.45053441231E+01  0.70617372719E+01  0.00000000000E+00 0. -1.
</event>
<event>
 7    1  0.1339094E-013  0.7246162E+02  0.7816164E-02  0.1226708E+00
        -11   -1    0    0    0    0  0.00000000000E+00  0.00000000000E+00  0.45593999997E+02  0.45594000000E+02  0.51100000000E-03 0. -1.
         11   -1    0    0    0    0 -0.00000000000E+00 -0.00000000000E+00 -0.45593999997E+02  0.45594000000E+02  0.51100000000E-03 0.  1.
    9900012    2    1    2    0    0  0.95244130298E+01  0.23153872514E+01 -0.15956246085E+02  0.72461621525E+02  0.70000066737E+02 0.  0.
         12    1    1    2    0    0 -0.95244130298E+01 -0.23153872514E+01  0.15956246085E+02  0.18726378475E+02  0.00000000000E+00 0. -1.
         11    1    3    3    0    0 -0.38495790137E+01 -0.22633452157E+02  0.16045632587E+02  0.28009904329E+02  0.51100000000E-03 0. -1.
        -11    1    3    3    0    0  0.68226229471E+01  0.11203598416E+02 -0.62392827828E+01  0.14525751314E+02  0.51100000000E-03 0.  1.
         12    1    3    3    0    0  0.65513690964E+01  0.13745240993E+02 -0.25762595889E+02  0.29925965881E+02  0.00000000000E+00 0. -1.
</event>
<event>
 8    1  0.1339094E-013  0.7246162E+02  0.7816164E-02  0.1226708E+00
        -11   -1    0    0    0    0  0.00000000000E+00  0.00000000000E+00  0.45593999997E+02  0.45594000000E+02  0.51100000000E-03 0.  1.
         11   -1    0    0    0    0 -0.00000000000E+00 -0.00000000000E+00 -0.45593999997E+02  0.45594000000E+02  0.51100000000E-03 0. -1.
    9900012    2    1    2    0    0  0.11365747308E+02 -0.14881896504E+02  0.16155640072E+00  0.72461624059E+02  0.70000070038E+02 0.  0.
        -24    2    3    3    0    0  0.20219450899E+02 -0.12136994332E+02  0.13535979339E+01  0.63115848624E+02  0.58529012414E+02 0.  0.
         12    1    1    2    0    0 -0.11365747308E+02  0.14881896504E+02 -0.16155640072E+00  0.18726375941E+02  0.00000000000E+00 0. -1.
         11    1    4    4    0    0  0.29669827436E+02  0.30628481542E+01 -0.19498895132E+02  0.35635468434E+02  0.51100000000E-03 0. -1.
        -11    1    3    3    0    0 -0.88537035902E+01 -0.27449021718E+01 -0.11920415332E+01  0.93457754346E+01  0.51100000000E-03 0.  1.
        -12    1    4    4    0    0 -0.94503765375E+01 -0.15199842486E+02  0.20852493066E+02  0.27480380190E+02  0.00000000000E+00 0.  1.
</event>
<event>
 7    1  0.1339094E-013  0.7246156E+02  0.7816164E-02  0.1226708E+00
        -11   -1    0    0    0    0  0.00000000000E+00  0.00000000000E+00  0.45593999997E+02  0.45594000000E+02  0.51100000000E-03 0.  1.
         11   -1    0    0    0    0 -0.00000000000E+00 -0.00000000000E+00 -0.45593999997E+02  0.45594000000E+02  0.51100000000E-03 0. -1.
    9900012    2    1    2    0    0  0.65089215160E+01  0.17076999621E+01  0.17475615235E+02  0.72461563438E+02  0.69999991069E+02 0.  0.
         12    1    1    2    0    0 -0.65089215160E+01 -0.17076999621E+01 -0.17475615235E+02  0.18726436562E+02  0.00000000000E+00 0. -1.
         11    1    3    3    0    0  0.29071856070E+02 -0.15305402193E+02  0.15358508471E+02  0.36267229483E+02  0.51100000000E-03 0.  1.
        -11    1    3    3    0    0 -0.18532363123E+02  0.95454605533E+01 -0.85775889962E+01  0.22541946086E+02  0.51100000000E-03 0. -1.
         12    1    3    3    0    0 -0.40305714311E+01  0.74676416013E+01  0.10694695760E+02  0.13652387870E+02  0.00000000000E+00 0. -1.
</event>
<event>
 7    1  0.1339094E-013  0.7246157E+02  0.7816164E-02  0.1226708E+00
        -11   -1    0    0    0    0  0.00000000000E+00  0.00000000000E+00  0.45593999997E+02  0.45594000000E+02  0.51100000000E-03 0.  1.
         11   -1    0    0    0    0 -0.00000000000E+00 -0.00000000000E+00 -0.45593999997E+02  0.45594000000E+02  0.51100000000E-03 0. -1.
    9900012    2    1    2    0    0 -0.10755429256E+02 -0.15074175440E+02  0.27873493185E+01  0.72461565745E+02  0.69999994074E+02 0.  0.
         12    1    1    2    0    0  0.10755429256E+02  0.15074175440E+02 -0.27873493185E+01  0.18726434255E+02  0.00000000000E+00 0. -1.
         11    1    3    3    0    0  0.13546234953E+02 -0.20008222904E+01 -0.12565169730E+02  0.18584597436E+02  0.51100000000E-03 0. -1.
        -11    1    3    3    0    0 -0.23718048045E+02 -0.27570406540E+02  0.15065047508E+02  0.39365324545E+02  0.51100000000E-03 0.  1.
         12    1    3    3    0    0 -0.58361616423E+00  0.14497053391E+02  0.28747154011E+00  0.14511643764E+02  0.00000000000E+00 0. -1.
</event>
<event>
 7    1  0.1339094E-013  0.7246159E+02  0.7816164E-02  0.1226708E+00
        -11   -1    0    0    0    0  0.00000000000E+00  0.00000000000E+00  0.45593999997E+02  0.45594000000E+02  0.51100000000E-03 0.  1.
         11   -1    0    0    0    0 -0.00000000000E+00 -0.00000000000E+00 -0.45593999997E+02  0.45594000000E+02  0.51100000000E-03 0. -1.
    9900012    2    1    2    0    0 -0.12728064992E+02  0.13613440684E+02  0.18299955032E+01  0.72461593798E+02  0.70000030618E+02 0.  0.
         12    1    1    2    0    0  0.12728064992E+02 -0.13613440684E+02 -0.18299955032E+01  0.18726406202E+02  0.00000000000E+00 0. -1.
         11    1    3    3    0    0 -0.10036236461E+02  0.26460967836E+01 -0.90175576281E+01  0.13749335123E+02  0.51100000000E-03 0. -1.
        -11    1    3    3    0    0  0.25169079581E+02 -0.27089208648E+01 -0.13843297788E+01  0.25352261998E+02  0.51100000000E-03 0.  1.
        -12    1    3    3    0    0 -0.27860908113E+02  0.13676264765E+02  0.12231882910E+02  0.33359996677E+02  0.00000000000E+00 0.  1.
</event>
<event>
 7    1  0.1339094E-013  0.7246160E+02  0.7816164E-02  0.1226708E+00
        -11   -1    0    0    0    0  0.00000000000E+00  0.00000000000E+00  0.45593999997E+02  0.45594000000E+02  0.51100000000E-03 0. -1.
         11   -1    0    0    0    0 -0.00000000000E+00 -0.00000000000E+00 -0.45593999997E+02  0.45594000000E+02  0.51100000000E-03 0.  1.
    9900012    2    1    2    0    0 -0.78091696488E+01  0.15530921185E+02  0.69631573127E+01  0.72461596095E+02  0.70000033610E+02 0.  0.
         12    1    1    2    0    0  0.78091696488E+01 -0.15530921185E+02 -0.69631573127E+01  0.18726403905E+02  0.00000000000E+00 0. -1.
         11    1    3    3    0    0 -0.24828046839E+01 -0.44365336224E+01 -0.27777848311E+02  0.28239263566E+02  0.51100000000E-03 0. -1.
        -11    1    3    3    0    0 -0.10738889503E+02  0.72782188463E+01  0.12280699864E+02  0.17863700813E+02  0.51100000000E-03 0.  1.
         12    1    3    3    0    0  0.54125245377E+01  0.12689235961E+02  0.22460305760E+02  0.26358631717E+02  0.00000000000E+00 0. -1.
</event>
<event>
 7    1  0.1370222E-013  0.7246160E+02  0.7816164E-02  0.1226708E+00
        -11   -1    0    0    0    0  0.00000000000E+00  0.00000000000E+00  0.45593999997E+02  0.45594000000E+02  0.51100000000E-03 0. -1.
         11   -1    0    0    0    0 -0.00000000000E+00 -0.00000000000E+00 -0.45593999997E+02  0.45594000000E+02  0.51100000000E-03 0.  1.
    9900012    2    1    2    0    0  0.22534752711E+01 -0.12774923015E+02 -0.13505604130E+02  0.72461597469E+02  0.70000035400E+02 0.  0.
         12    1    1    2    0    0 -0.22534752711E+01  0.12774923015E+02  0.13505604130E+02  0.18726402531E+02  0.00000000000E+00 0. -1.
         11    1    3    3    0    0  0.12825638901E+02 -0.29996263163E+01  0.87066727175E+01  0.15789266016E+02  0.51100000000E-03 0. -1.
        -11    1    3    3    0    0 -0.24372271718E+02  0.78926621553E+01 -0.73938000030E+00  0.25629054365E+02  0.51100000000E-03 0.  1.
        -12    1    3    3    0    0  0.13800108088E+02 -0.17667958854E+02 -0.21472896848E+02  0.31043277088E+02  0.00000000000E+00 0.  1.
</event>
<event>
 7    1  0.1339094E-013  0.7246154E+02  0.7816164E-02  0.1226708E+00
        -11   -1    0    0    0    0  0.00000000000E+00  0.00000000000E+00  0.45593999997E+02  0.45594000000E+02  0.51100000000E-03 0.  1.
         11   -1    0    0    0    0 -0.00000000000E+00 -0.00000000000E+00 -0.45593999997E+02  0.45594000000E+02  0.51100000000E-03 0. -1.
    9900012    2    1    2    0    0  0.17815646021E+01  0.18240942668E+02  0.38437360586E+01  0.72461540945E+02  0.69999961767E+02 0.  0.
         12    1    1    2    0    0 -0.17815646021E+01 -0.18240942668E+02 -0.38437360586E+01  0.18726459055E+02  0.00000000000E+00 0. -1.
         11    1    3    3    0    0 -0.41867742557E+01 -0.15880476906E+02  0.23153755674E+02  0.28386881257E+02  0.51100000000E-03 0. -1.
        -11    1    3    3    0    0 -0.56415851546E+01  0.18193665868E+02 -0.49281968223E+01  0.19675469116E+02  0.51100000000E-03 0.  1.
         12    1    3    3    0    0  0.11609924012E+02  0.15927753707E+02 -0.14381822793E+02  0.24399190572E+02  0.00000000000E+00 0. -1.
</event>
<event>
 7    1  0.1339094E-013  0.7246164E+02  0.7816164E-02  0.1226708E+00
        -11   -1    0    0    0    0  0.00000000000E+00  0.00000000000E+00  0.45593999997E+02  0.45594000000E+02  0.51100000000E-03 0. -1.
         11   -1    0    0    0    0 -0.00000000000E+00 -0.00000000000E+00 -0.45593999997E+02  0.45594000000E+02  0.51100000000E-03 0.  1.
    9900012    2    1    2    0    0 -0.52241377878E+00  0.13505522764E+02 -0.12961660770E+02  0.72461635932E+02  0.70000085505E+02 0.  0.
         12    1    1    2    0    0  0.52241377878E+00 -0.13505522764E+02  0.12961660770E+02  0.18726364068E+02  0.00000000000E+00 0. -1.
         11    1    3    3    0    0 -0.58224011813E+01 -0.11106292527E+02  0.14747029036E+02  0.19357813793E+02  0.51100000000E-03 0. -1.
        -11    1    3    3    0    0  0.20093084448E+02  0.12758261311E+02 -0.65305898484E+01  0.24681042894E+02  0.51100000000E-03 0.  1.
        -12    1    3    3    0    0 -0.14793097046E+02  0.11853553980E+02 -0.21178099958E+02  0.28422779244E+02  0.00000000000E+00 0.  1.
</event>
<event>
 7    1  0.1339094E-013  0.7246160E+02  0.7816164E-02  0.1226708E+00
        -11   -1    0    0    0    0  0.00000000000E+00  0.00000000000E+00  0.45593999997E+02  0.45594000000E+02  0.51100000000E-03 0.  1.
         11   -1    0    0    0    0 -0.00000000000E+00 -0.00000000000E+00 -0.45593999997E+02  0.45594000000E+02  0.51100000000E-03 0. -1.
    9900012    2    1    2    0    0  0.45030897796E+01 -0.98405257088E+01  0.15282815167E+02  0.72461596095E+02  0.70000033610E+02 0.  0.
         12    1    1    2    0    0 -0.45030897796E+01  0.98405257088E+01 -0.15282815167E+02  0.18726403905E+02  0.00000000000E+00 0. -1.
         11    1    3    3    0    0 -0.66759905396E+01 -0.45309006166E+00 -0.24478121607E+02  0.25376220719E+02  0.51100000000E-03 0. -1.
        -11    1    3    3    0    0  0.21913121352E+01 -0.79724189377E+00  0.32708929670E+02  0.32791942972E+02  0.51100000000E-03 0.  1.
         12    1    3    3    0    0  0.89877681841E+01 -0.85901937534E+01  0.70520071052E+01  0.14293432403E+02  0.00000000000E+00 0. -1.
</event>
<event>
 7    1  0.1339094E-013  0.7246157E+02  0.7816164E-02  0.1226708E+00
        -11   -1    0    0    0    0  0.00000000000E+00  0.00000000000E+00  0.45593999997E+02  0.45594000000E+02  0.51100000000E-03 0. -1.
         11   -1    0    0    0    0 -0.00000000000E+00 -0.00000000000E+00 -0.45593999997E+02  0.45594000000E+02  0.51100000000E-03 0.  1.
    9900012    2    1    2    0    0 -0.10791189930E+02  0.13684130494E+02 -0.68537686894E+01  0.72461565402E+02  0.69999993627E+02 0.  0.
         12    1    1    2    0    0  0.10791189930E+02 -0.13684130494E+02  0.68537686894E+01  0.18726434598E+02  0.00000000000E+00 0. -1.
         11    1    3    3    0    0 -0.75450200786E+01 -0.15338903459E+02  0.60362156234E+01  0.18128573762E+02  0.51100000000E-03 0. -1.
        -11    1    3    3    0    0  0.18945465603E+02  0.14851668028E+02 -0.14237520379E+02  0.27968012030E+02  0.51100000000E-03 0.  1.
        -12    1    3    3    0    0 -0.22191635455E+02  0.14171365926E+02  0.13475360657E+01  0.26364979610E+02  0.00000000000E+00 0.  1.
</event>
<event>
 7    1  0.1339094E-013  0.7246207E+02  0.7816164E-02  0.1226707E+00
        -11   -1    0    0    0    0  0.00000000000E+00  0.00000000000E+00  0.45593999997E+02  0.45594000000E+02  0.51100000000E-03 0. -1.
         11   -1    0    0    0    0 -0.00000000000E+00 -0.00000000000E+00 -0.45593999997E+02  0.45594000000E+02  0.51100000000E-03 0.  1.
    9900012    2    1    2    0    0 -0.15332315497E+01 -0.14023719213E+02 -0.12314417113E+02  0.72462072295E+02  0.70000653947E+02 0.  0.
         12    1    1    2    0    0  0.15332315497E+01  0.14023719213E+02  0.12314417113E+02  0.18725927705E+02  0.00000000000E+00 0. -1.
         11    1    3    3    0    0  0.61831836736E+01  0.18434267348E+02  0.69753564899E+01  0.20656949712E+02  0.51100000000E-03 0. -1.
        -11    1    3    3    0    0 -0.12741130430E+01 -0.13339441095E+02 -0.27051691307E+02  0.30188707419E+02  0.51100000000E-03 0.  1.
        -12    1    3    3    0    0 -0.64423021804E+01 -0.19118545466E+02  0.77619177040E+01  0.21616415165E+02  0.00000000000E+00 0.  1.
</event>
<event>
 7    1  0.1339094E-013  0.7246154E+02  0.7816164E-02  0.1226708E+00
        -11   -1    0    0    0    0  0.00000000000E+00  0.00000000000E+00  0.45593999997E+02  0.45594000000E+02  0.51100000000E-03 0.  1.
         11   -1    0    0    0    0 -0.00000000000E+00 -0.00000000000E+00 -0.45593999997E+02  0.45594000000E+02  0.51100000000E-03 0. -1.
    9900012    2    1    2    0    0  0.11847990890E+02 -0.14205271409E+02 -0.29181600040E+01  0.72461540598E+02  0.69999961315E+02 0.  0.
         12    1    1    2    0    0 -0.11847990890E+02  0.14205271409E+02  0.29181600040E+01  0.18726459402E+02  0.00000000000E+00 0. -1.
         11    1    3    3    0    0 -0.28811389261E+01  0.13017372808E+02  0.23396447224E+02  0.26928548036E+02  0.51100000000E-03 0. -1.
        -11    1    3    3    0    0  0.37370527668E+01 -0.16989958575E+02 -0.27825920116E+01  0.17617237988E+02  0.51100000000E-03 0.  1.
         12    1    3    3    0    0  0.10992077049E+02 -0.10232685642E+02 -0.23532015216E+02  0.27915754574E+02  0.00000000000E+00 0. -1.
</event>
<event>
 7    1  0.1339094E-013  0.7246153E+02  0.7816164E-02  0.1226708E+00
        -11   -1    0    0    0    0  0.00000000000E+00  0.00000000000E+00  0.45593999997E+02  0.45594000000E+02  0.51100000000E-03 0.  1.
         11   -1    0    0    0    0 -0.00000000000E+00 -0.00000000000E+00 -0.45593999997E+02  0.45594000000E+02  0.51100000000E-03 0. -1.
    9900012    2    1    2    0    0 -0.71450326793E+01 -0.69964714288E+01  0.15832829631E+02  0.72461532138E+02  0.69999950294E+02 0.  0.
         12    1    1    2    0    0  0.71450326793E+01  0.69964714288E+01 -0.15832829631E+02  0.18726467862E+02  0.00000000000E+00 0. -1.
         11    1    3    3    0    0 -0.19636028530E+02  0.77722779053E+01  0.25741349209E+02  0.33295630038E+02  0.51100000000E-03 0. -1.
        -11    1    3    3    0    0  0.13274245630E+02 -0.22926357541E+02 -0.24203306777E+00  0.26493056589E+02  0.51100000000E-03 0.  1.
         12    1    3    3    0    0 -0.78324977950E+00  0.81576082074E+01 -0.96664865101E+01  0.12672845510E+02  0.00000000000E+00 0. -1.
</event>
<event>
 7    1  0.1339094E-013  0.7246154E+02  0.7816164E-02  0.1226708E+00
        -11   -1    0    0    0    0  0.00000000000E+00  0.00000000000E+00  0.45593999997E+02  0.45594000000E+02  0.51100000000E-03 0. -1.
         11   -1    0    0    0    0 -0.00000000000E+00 -0.00000000000E+00 -0.45593999997E+02  0.45594000000E+02  0.51100000000E-03 0.  1.
    9900012    2    1    2    0    0  0.88768972661E+01  0.24225344987E+01 -0.16309885462E+02  0.72461538982E+02  0.69999959210E+02 0.  0.
         12    1    1    2    0    0 -0.88768972661E+01 -0.24225344987E+01  0.16309885462E+02  0.18726461018E+02  0.00000000000E+00 0. -1.
         11    1    3    3    0    0  0.26792015254E+02  0.15480835970E+02  0.11956690298E+02  0.33172741925E+02  0.51100000000E-03 0. -1.
        -11    1    3    3    0    0 -0.89422797824E+01 -0.38961704118E+01 -0.18557547945E+01  0.99291660125E+01  0.51100000000E-03 0.  1.
         12    1    3    3    0    0 -0.89728382054E+01 -0.91621310591E+01 -0.26410820965E+02  0.29359631045E+02  0.00000000000E+00 0. -1.
</event>
<event>
 7    1  0.1339094E-013  0.7246158E+02  0.7816164E-02  0.1226708E+00
        -11   -1    0    0    0    0  0.00000000000E+00  0.00000000000E+00  0.45593999997E+02  0.45594000000E+02  0.51100000000E-03 0.  1.
         11   -1    0    0    0    0 -0.00000000000E+00 -0.00000000000E+00 -0.45593999997E+02  0.45594000000E+02  0.51100000000E-03 0. -1.
    9900012    2    1    2    0    0  0.10201203682E+02  0.14295475397E+02  0.65002806123E+01  0.72461579589E+02  0.70000012108E+02 0.  0.
         12    1    1    2    0    0 -0.10201203682E+02 -0.14295475397E+02 -0.65002806123E+01  0.18726420411E+02  0.00000000000E+00 0. -1.
         11    1    3    3    0    0  0.16565548950E+02 -0.86005351659E+01 -0.17283967851E+02  0.25438595914E+02  0.51100000000E-03 0. -1.
        -11    1    3    3    0    0  0.28808144501E+01  0.38641584620E+00  0.22465813807E+02  0.22653061589E+02  0.51100000000E-03 0.  1.
         12    1    3    3    0    0 -0.92451597180E+01  0.22509594716E+02  0.13184346560E+01  0.24369922085E+02  0.00000000000E+00 0. -1.
</event>
<event>
 7    1  0.1339094E-013  0.7246153E+02  0.7816164E-02  0.1226708E+00
        -11   -1    0    0    0    0  0.00000000000E+00  0.00000000000E+00  0.45593999997E+02  0.45594000000E+02  0.51100000000E-03 0. -1.
         11   -1    0    0    0    0 -0.00000000000E+00 -0.00000000000E+00 -0.45593999997E+02  0.45594000000E+02  0.51100000000E-03 0.  1.
    9900012    2    1    2    0    0  0.17316472366E+02 -0.60325213112E+01  0.37985775836E+01  0.72461528890E+02  0.69999946064E+02 0.  0.
         12    1    1    2    0    0 -0.17316472366E+02  0.60325213112E+01 -0.37985775836E+01  0.18726471110E+02  0.00000000000E+00 0. -1.
         11    1    3    3    0    0  0.26779686424E+02  0.13293778369E+02  0.22971719037E+02  0.37703793231E+02  0.51100000000E-03 0. -1.
        -11    1    3    3    0    0 -0.26684403759E+01 -0.15349877496E+02 -0.21496931053E+02  0.26549149857E+02  0.51100000000E-03 0.  1.
         12    1    3    3    0    0 -0.67947736820E+01 -0.39764221837E+01  0.23237895996E+01  0.82085858024E+01  0.00000000000E+00 0. -1.
</event>
<event>
 7    1  0.1339094E-013  0.7246153E+02  0.7816164E-02  0.1226708E+00
        -11   -1    0    0    0    0  0.00000000000E+00  0.00000000000E+00  0.45593999997E+02  0.45594000000E+02  0.51100000000E-03 0. -1.
         11   -1    0    0    0    0 -0.00000000000E+00 -0.00000000000E+00 -0.45593999997E+02  0.45594000000E+02  0.51100000000E-03 0.  1.
    9900012    2    1    2    0    0 -0.81584322781E+01  0.58097689039E+01 -0.15822998564E+02  0.72461529016E+02  0.69999946228E+02 0.  0.
         12    1    1    2    0    0  0.81584322781E+01 -0.58097689039E+01  0.15822998564E+02  0.18726470984E+02  0.00000000000E+00 0. -1.
         11    1    3    3    0    0  0.16068604627E+02 -0.49673876548E+01  0.11856296980E+02  0.20577822361E+02  0.51100000000E-03 0. -1.
        -11    1    3    3    0    0 -0.29077672529E+02  0.15482508716E+02 -0.30180768134E+02  0.44677711235E+02  0.51100000000E-03 0.  1.
        -12    1    3    3    0    0  0.48506356239E+01 -0.47053521573E+01  0.25014725900E+01  0.72059954204E+01  0.00000000000E+00 0.  1.
</event>
<event>
 7    1  0.1339094E-013  0.7246160E+02  0.7816164E-02  0.1226708E+00
        -11   -1    0    0    0    0  0.00000000000E+00  0.00000000000E+00  0.45593999997E+02  0.45594000000E+02  0.51100000000E-03 0. -1.
         11   -1    0    0    0    0 -0.00000000000E+00 -0.00000000000E+00 -0.45593999997E+02  0.45594000000E+02  0.51100000000E-03 0.  1.
    9900012    2    1    2    0    0  0.62060080332E+01  0.17139134768E+02 -0.42911219776E+01  0.72461596071E+02  0.70000033578E+02 0.  0.
         12    1    1    2    0    0 -0.62060080332E+01 -0.17139134768E+02  0.42911219776E+01  0.18726403929E+02  0.00000000000E+00 0. -1.
         11    1    3    3    0    0  0.16225166845E+02  0.11863329719E+02  0.30851501251E+01  0.20335013713E+02  0.51100000000E-03 0. -1.
        -11    1    3    3    0    0 -0.26169126472E+02  0.12960972407E+02  0.59745534447E+01  0.29807805608E+02  0.51100000000E-03 0.  1.
        -12    1    3    3    0    0  0.16149967661E+02 -0.76851673580E+01 -0.13350825547E+02  0.22318776749E+02  0.00000000000E+00 0.  1.
</event>
<event>
 7    1  0.1339094E-013  0.7246156E+02  0.7816164E-02  0.1226708E+00
        -11   -1    0    0    0    0  0.00000000000E+00  0.00000000000E+00  0.45593999997E+02  0.45594000000E+02  0.51100000000E-03 0.  1.
         11   -1    0    0    0    0 -0.00000000000E+00 -0.00000000000E+00 -0.45593999997E+02  0.45594000000E+02  0.51100000000E-03 0. -1.
    9900012    2    1    2    0    0 -0.13180226170E+02 -0.12738993838E+02 -0.38313397226E+01  0.72461561738E+02  0.69999988854E+02 0.  0.
         12    1    1    2    0    0  0.13180226170E+02  0.12738993838E+02  0.38313397226E+01  0.18726438262E+02  0.00000000000E+00 0. -1.
         11    1    3    3    0    0  0.50096285447E+01 -0.81607933922E+01 -0.18416406488E+02  0.20757142268E+02  0.51100000000E-03 0. -1.
        -11    1    3    3    0    0 -0.23061872802E+02 -0.11103501357E+02  0.26777286775E+02  0.37042688979E+02  0.51100000000E-03 0.  1.
         12    1    3    3    0    0  0.48720180874E+01  0.65253009111E+01 -0.12192220009E+02  0.14661730491E+02  0.00000000000E+00 0. -1.
</event>
<event>
 7    1  0.1339094E-013  0.7246158E+02  0.7816164E-02  0.1226708E+00
        -11   -1    0    0    0    0  0.00000000000E+00  0.00000000000E+00  0.45593999997E+02  0.45594000000E+02  0.51100000000E-03 0. -1.
         11   -1    0    0    0    0 -0.00000000000E+00 -0.00000000000E+00 -0.45593999997E+02  0.45594000000E+02  0.51100000000E-03 0.  1.
    9900012    2    1    2    0    0 -0.60225767391E+01  0.10715243421E+01 -0.17699126684E+02  0.72461583355E+02  0.70000017014E+02 0.  0.
         12    1    1    2    0    0  0.60225767391E+01 -0.10715243421E+01  0.17699126684E+02  0.18726416645E+02  0.00000000000E+00 0. -1.
         11    1    3    3    0    0 -0.25004937221E+02 -0.11063001926E+02 -0.72572275927E+01  0.28289649161E+02  0.51100000000E-03 0. -1.
        -11    1    3    3    0    0  0.22471605287E+02 -0.41093912457E+01 -0.14514912372E+02  0.27065528298E+02  0.51100000000E-03 0.  1.
         12    1    3    3    0    0 -0.34892448051E+01  0.16243917514E+02  0.40730132815E+01  0.17106405896E+02  0.00000000000E+00 0. -1.
</event>
<event>
 7    1  0.1339094E-013  0.7246156E+02  0.7816164E-02  0.1226708E+00
        -11   -1    0    0    0    0  0.00000000000E+00  0.00000000000E+00  0.45593999997E+02  0.45594000000E+02  0.51100000000E-03 0.  1.
         11   -1    0    0    0    0 -0.00000000000E+00 -0.00000000000E+00 -0.45593999997E+02  0.45594000000E+02  0.51100000000E-03 0. -1.
    9900012    2    1    2    0    0 -0.92090005110E+01 -0.75909751540E+01  0.14430908656E+02  0.72461555627E+02  0.69999980893E+02 0.  0.
         12    1    1    2    0    0  0.92090005110E+01  0.75909751540E+01 -0.14430908656E+02  0.18726444373E+02  0.00000000000E+00 0. -1.
         11    1    3    3    0    0 -0.16310155444E+02 -0.26036685813E+02 -0.13112995201E+02  0.33404802381E+02  0.51100000000E-03 0. -1.
        -11    1    3    3    0    0  0.21303859324E+01 -0.38840915760E+01  0.71423847353E+01  0.84046636792E+01  0.51100000000E-03 0.  1.
         12    1    3    3    0    0  0.49707690007E+01  0.22329802235E+02  0.20401519122E+02  0.30652089567E+02  0.00000000000E+00 0. -1.
</event>
<event>
 7    1  0.1339094E-013  0.7246157E+02  0.7816164E-02  0.1226708E+00
        -11   -1    0    0    0    0  0.00000000000E+00  0.00000000000E+00  0.45593999997E+02  0.45594000000E+02  0.51100000000E-03 0.  1.
         11   -1    0    0    0    0 -0.00000000000E+00 -0.00000000000E+00 -0.45593999997E+02  0.45594000000E+02  0.51100000000E-03 0. -1.
    9900012    2    1    2    0    0 -0.74083583969E+01  0.97738962171E+01  0.14151550226E+02  0.72461569609E+02  0.69999999107E+02 0.  0.
         12    1    1    2    0    0  0.74083583969E+01 -0.97738962171E+01 -0.14151550226E+02  0.18726430391E+02  0.00000000000E+00 0. -1.
         11    1    3    3    0    0  0.56850268869E+01 -0.10688320246E+02  0.47413046076E+01  0.13001526450E+02  0.51100000000E-03 0. -1.
        -11    1    3    3    0    0  0.66194664966E+01  0.25829124109E+02  0.22758330983E+02  0.35055707358E+02  0.51100000000E-03 0.  1.
        -12    1    3    3    0    0 -0.19712851780E+02 -0.53669076461E+01 -0.13348085365E+02  0.24404335801E+02  0.00000000000E+00 0.  1.
</event>
<event>
 7    1  0.1339094E-013  0.7246160E+02  0.7816164E-02  0.1226708E+00
        -11   -1    0    0    0    0  0.00000000000E+00  0.00000000000E+00  0.45593999997E+02  0.45594000000E+02  0.51100000000E-03 0. -1.
         11   -1    0    0    0    0 -0.00000000000E+00 -0.00000000000E+00 -0.45593999997E+02  0.45594000000E+02  0.51100000000E-03 0.  1.
    9900012    2    1    2    0    0 -0.17941186097E+02  0.51496903613E+01 -0.15074704016E+01  0.72461603219E+02  0.70000042891E+02 0.  0.
         12    1    1    2    0    0  0.17941186097E+02 -0.51496903613E+01  0.15074704016E+01  0.18726396781E+02  0.00000000000E+00 0. -1.
         11    1    3    3    0    0  0.24066510056E+02 -0.37064220122E+01  0.81093498023E+01  0.25665074028E+02  0.51100000000E-03 0. -1.
        -11    1    3    3    0    0 -0.15013839311E+02 -0.26081356063E+01  0.17594804858E+01  0.15339932009E+02  0.51100000000E-03 0.  1.
         12    1    3    3    0    0 -0.26993856841E+02  0.11464247980E+02 -0.11376300690E+02  0.31456597182E+02  0.00000000000E+00 0. -1.
</event>
<event>
 7    1  0.1339094E-013  0.7246168E+02  0.7816164E-02  0.1226708E+00
        -11   -1    0    0    0    0  0.00000000000E+00  0.00000000000E+00  0.45593999997E+02  0.45594000000E+02  0.51100000000E-03 0.  1.
         11   -1    0    0    0    0 -0.00000000000E+00 -0.00000000000E+00 -0.45593999997E+02  0.45594000000E+02  0.51100000000E-03 0. -1.
    9900012    2    1    2    0    0  0.14088061321E+01 -0.29792845102E+01  0.18434049447E+02  0.72461680289E+02  0.70000143288E+02 0.  0.
         12    1    1    2    0    0 -0.14088061321E+01  0.29792845102E+01 -0.18434049447E+02  0.18726319711E+02  0.00000000000E+00 0. -1.
         11    1    3    3    0    0  0.81142817359E+00  0.18034221503E+02 -0.20552327478E+02  0.27354884864E+02  0.51100000000E-03 0. -1.
        -11    1    3    3    0    0 -0.15368358467E+01 -0.16419555415E+02  0.22749463242E+02  0.28098073644E+02  0.51100000000E-03 0.  1.
         12    1    3    3    0    0  0.21342138053E+01 -0.45939505981E+01  0.16236913683E+02  0.17008721781E+02  0.00000000000E+00 0. -1.
</event>
<event>
 7    1  0.1339094E-013  0.7246156E+02  0.7816164E-02  0.1226708E+00
        -11   -1    0    0    0    0  0.00000000000E+00  0.00000000000E+00  0.45593999997E+02  0.45594000000E+02  0.51100000000E-03 0.  1.
         11   -1    0    0    0    0 -0.00000000000E+00 -0.00000000000E+00 -0.45593999997E+02  0.45594000000E+02  0.51100000000E-03 0. -1.
    9900012    2    1    2    0    0 -0.12224108870E+02 -0.11717830973E+02  0.79964383831E+01  0.72461563415E+02  0.69999991038E+02 0.  0.
         12    1    1    2    0    0  0.12224108870E+02  0.11717830973E+02 -0.79964383831E+01  0.18726436585E+02  0.00000000000E+00 0. -1.
         11    1    3    3    0    0  0.91835595994E+01 -0.13417198665E+02 -0.17261296631E+02  0.23713104997E+02  0.51100000000E-03 0. -1.
        -11    1    3    3    0    0 -0.10454941478E+02  0.18642523024E+02  0.10955410222E+02  0.24018128142E+02  0.51100000000E-03 0.  1.
         12    1    3    3    0    0 -0.10952726991E+02 -0.16943155332E+02  0.14302324791E+02  0.24730330276E+02  0.00000000000E+00 0. -1.
</event>
<event>
 7    1  0.1339094E-013  0.7246140E+02  0.7816164E-02  0.1226708E+00
        -11   -1    0    0    0    0  0.00000000000E+00  0.00000000000E+00  0.45593999997E+02  0.45594000000E+02  0.51100000000E-03 0.  1.
         11   -1    0    0    0    0 -0.00000000000E+00 -0.00000000000E+00 -0.45593999997E+02  0.45594000000E+02  0.51100000000E-03 0. -1.
    9900012    2    1    2    0    0  0.10354961576E+02 -0.13571374732E+02 -0.76992154935E+01  0.72461404993E+02  0.69999784663E+02 0.  0.
         12    1    1    2    0    0 -0.10354961576E+02  0.13571374732E+02  0.76992154935E+01  0.18726595007E+02  0.00000000000E+00 0. -1.
         11    1    3    3    0    0 -0.16180287344E+02  0.72124861105E+01 -0.19099424292E+02  0.26050137485E+02  0.51100000000E-03 0. -1.
        -11    1    3    3    0    0  0.46002939463E+01  0.47128930060E+01  0.10945931938E+02  0.12774485944E+02  0.51100000000E-03 0.  1.
         12    1    3    3    0    0  0.21934954974E+02 -0.25496753849E+02  0.45427686077E+00  0.33636781564E+02  0.00000000000E+00 0. -1.
</event>
<event>
 7    1  0.1339094E-013  0.7246156E+02  0.7816164E-02  0.1226708E+00
        -11   -1    0    0    0    0  0.00000000000E+00  0.00000000000E+00  0.45593999997E+02  0.45594000000E+02  0.51100000000E-03 0.  1.
         11   -1    0    0    0    0 -0.00000000000E+00 -0.00000000000E+00 -0.45593999997E+02  0.45594000000E+02  0.51100000000E-03 0. -1.
    9900012    2    1    2    0    0 -0.95135711436E+00 -0.18644539982E+02 -0.14681622585E+01  0.72461562754E+02  0.69999990178E+02 0.  0.
         12    1    1    2    0    0  0.95135711436E+00  0.18644539982E+02  0.14681622585E+01  0.18726437246E+02  0.00000000000E+00 0. -1.
         11    1    3    3    0    0 -0.71353101342E+01  0.11802980072E+02 -0.18325103157E+02  0.22935396122E+02  0.51100000000E-03 0. -1.
        -11    1    3    3    0    0 -0.48796508733E+01 -0.32036524087E+02  0.19789533763E+02  0.37970719180E+02  0.51100000000E-03 0.  1.
        -12    1    3    3    0    0  0.11063603893E+02  0.15890040331E+01 -0.29325928642E+01  0.11555447453E+02  0.00000000000E+00 0.  1.
</event>
<event>
 7    1  0.1339094E-013  0.7246155E+02  0.7816164E-02  0.1226708E+00
        -11   -1    0    0    0    0  0.00000000000E+00  0.00000000000E+00  0.45593999997E+02  0.45594000000E+02  0.51100000000E-03 0.  1.
         11   -1    0    0    0    0 -0.00000000000E+00 -0.00000000000E+00 -0.45593999997E+02  0.45594000000E+02  0.51100000000E-03 0. -1.
    9900012    2    1    2    0    0  0.17998533638E+02 -0.39833405537E+01  0.32963275315E+01  0.72461548380E+02  0.69999971452E+02 0.  0.
         12    1    1    2    0    0 -0.17998533638E+02  0.39833405537E+01 -0.32963275315E+01  0.18726451620E+02  0.00000000000E+00 0. -1.
         11    1    3    3    0    0  0.25057467551E+02 -0.11535459265E+02 -0.63111869901E+01  0.28297960739E+02  0.51100000000E-03 0. -1.
        -11    1    3    3    0    0 -0.19218676848E+02  0.69112977873E+01  0.19678869368E+02  0.28361619784E+02  0.51100000000E-03 0.  1.
         12    1    3    3    0    0  0.12159742935E+02  0.64082092391E+00 -0.10071354846E+02  0.15801967857E+02  0.00000000000E+00 0. -1.
</event>
<event>
 7    1  0.1339094E-013  0.7246155E+02  0.7816164E-02  0.1226708E+00
        -11   -1    0    0    0    0  0.00000000000E+00  0.00000000000E+00  0.45593999997E+02  0.45594000000E+02  0.51100000000E-03 0. -1.
         11   -1    0    0    0    0 -0.00000000000E+00 -0.00000000000E+00 -0.45593999997E+02  0.45594000000E+02  0.51100000000E-03 0.  1.
    9900012    2    1    2    0    0  0.12769008191E+02  0.13211564750E+02  0.36175929442E+01  0.72461548333E+02  0.69999971391E+02 0.  0.
         12    1    1    2    0    0 -0.12769008191E+02 -0.13211564750E+02 -0.36175929442E+01  0.18726451667E+02  0.00000000000E+00 0. -1.
         11    1    3    3    0    0  0.70161086446E+01  0.25585477431E+02  0.30332700259E+02  0.40297830477E+02  0.51100000000E-03 0. -1.
        -11    1    3    3    0    0  0.45666296947E+01  0.47071269108E+00 -0.10377763604E+02  0.11347848029E+02  0.51100000000E-03 0.  1.
         12    1    3    3    0    0  0.11862698519E+01 -0.12844625372E+02 -0.16337343711E+02  0.20815869827E+02  0.00000000000E+00 0. -1.
</event>
<event>
 7    1  0.1339094E-013  0.7246156E+02  0.7816164E-02  0.1226708E+00
        -11   -1    0    0    0    0  0.00000000000E+00  0.00000000000E+00  0.45593999997E+02  0.45594000000E+02  0.51100000000E-03 0.  1.
         11   -1    0    0    0    0 -0.00000000000E+00 -0.00000000000E+00 -0.45593999997E+02  0.45594000000E+02  0.51100000000E-03 0. -1.
    9900012    2    1    2    0    0  0.14845153198E+02 -0.99406684728E+01  0.56110682938E+01  0.72461560121E+02  0.69999986747E+02 0.  0.
         12    1    1    2    0    0 -0.14845153198E+02  0.99406684728E+01 -0.56110682938E+01  0.18726439879E+02  0.00000000000E+00 0. -1.
         11    1    3    3    0    0 -0.53942353803E+01 -0.26857965523E+02 -0.93136389727E+01  0.28934269622E+02  0.51100000000E-03 0. -1.
        -11    1    3    3    0    0  0.13688855481E+02  0.85278517300E+01 -0.81836804459E+01  0.18085398680E+02  0.51100000000E-03 0.  1.
         12    1    3    3    0    0  0.65505330972E+01  0.83894453203E+01  0.23108387712E+02  0.25441891819E+02  0.00000000000E+00 0. -1.
</event>
<event>
 7    1  0.1339094E-013  0.7246160E+02  0.7816164E-02  0.1226708E+00
        -11   -1    0    0    0    0  0.00000000000E+00  0.00000000000E+00  0.45593999997E+02  0.45594000000E+02  0.51100000000E-03 0.  1.
         11   -1    0    0    0    0 -0.00000000000E+00 -0.00000000000E+00 -0.45593999997E+02  0.45594000000E+02  0.51100000000E-03 0. -1.
    9900012    2    1    2    0    0  0.12423835273E+02  0.79341189074E+01  0.11548859213E+02  0.72461599522E+02  0.70000038074E+02 0.  0.
         12    1    1    2    0    0 -0.12423835273E+02 -0.79341189074E+01 -0.11548859213E+02  0.18726400478E+02  0.00000000000E+00 0. -1.
         11    1    3    3    0    0 -0.17703187607E+01  0.14993632208E+02 -0.24377460698E+02  0.28674093284E+02  0.51100000000E-03 0. -1.
        -11    1    3    3    0    0  0.17335143014E+02 -0.11514751440E+00  0.23344763834E+02  0.29077455889E+02  0.51100000000E-03 0.  1.
         12    1    3    3    0    0 -0.31409889795E+01 -0.69443657859E+01  0.12581556078E+02  0.14710050349E+02  0.00000000000E+00 0. -1.
</event>
<event>
 7    1  0.1339094E-013  0.7246151E+02  0.7816164E-02  0.1226708E+00
        -11   -1    0    0    0    0  0.00000000000E+00  0.00000000000E+00  0.45593999997E+02  0.45594000000E+02  0.51100000000E-03 0.  1.
         11   -1    0    0    0    0 -0.00000000000E+00 -0.00000000000E+00 -0.45593999997E+02  0.45594000000E+02  0.51100000000E-03 0. -1.
    9900012    2    1    2    0    0  0.91580351847E+01 -0.51512972163E+01  0.15500841262E+02  0.72461506701E+02  0.69999917158E+02 0.  0.
         12    1    1    2    0    0 -0.91580351847E+01  0.51512972163E+01 -0.15500841262E+02  0.18726493299E+02  0.00000000000E+00 0. -1.
         11    1    3    3    0    0 -0.76629962839E+01 -0.22425437564E+02 -0.39337250927E+01  0.24022821553E+02  0.51100000000E-03 0. -1.
        -11    1    3    3    0    0  0.98941238998E+01  0.20346221889E+02 -0.47302966613E+01  0.23113592098E+02  0.51100000000E-03 0.  1.
        -12    1    3    3    0    0  0.69269075688E+01 -0.30720815414E+01  0.24164863016E+02  0.25325093051E+02  0.00000000000E+00 0.  1.
</event>
<event>
 7    1  0.1339094E-013  0.7246156E+02  0.7816164E-02  0.1226708E+00
        -11   -1    0    0    0    0  0.00000000000E+00  0.00000000000E+00  0.45593999997E+02  0.45594000000E+02  0.51100000000E-03 0. -1.
         11   -1    0    0    0    0 -0.00000000000E+00 -0.00000000000E+00 -0.45593999997E+02  0.45594000000E+02  0.51100000000E-03 0.  1.
    9900012    2    1    2    0    0  0.16061080764E+01 -0.17587046079E+02 -0.62286364969E+01  0.72461556516E+02  0.69999982051E+02 0.  0.
         12    1    1    2    0    0 -0.16061080764E+01  0.17587046079E+02  0.62286364969E+01  0.18726443484E+02  0.00000000000E+00 0. -1.
         11    1    3    3    0    0 -0.77439104778E+01 -0.11493022525E+02  0.96620613053E+01  0.16894174889E+02  0.51100000000E-03 0. -1.
        -11    1    3    3    0    0  0.25154161736E+02 -0.16166932888E+02 -0.20516960615E+02  0.36263580143E+02  0.51100000000E-03 0.  1.
        -12    1    3    3    0    0 -0.15804143182E+02  0.10072909334E+02  0.46262628123E+01  0.19303801485E+02  0.00000000000E+00 0.  1.
</event>
<event>
 7    1  0.1339094E-013  0.7246155E+02  0.7816164E-02  0.1226708E+00
        -11   -1    0    0    0    0  0.00000000000E+00  0.00000000000E+00  0.45593999997E+02  0.45594000000E+02  0.51100000000E-03 0. -1.
         11   -1    0    0    0    0 -0.00000000000E+00 -0.00000000000E+00 -0.45593999997E+02  0.45594000000E+02  0.51100000000E-03 0.  1.
    9900012    2    1    2    0    0 -0.11675380785E+02 -0.30588577552E+01  0.14318129275E+02  0.72461549371E+02  0.69999972743E+02 0.  0.
         12    1    1    2    0    0  0.11675380785E+02  0.30588577552E+01 -0.14318129275E+02  0.18726450629E+02  0.00000000000E+00 0. -1.
         11    1    3    3    0    0  0.12924353709E+02  0.17605494344E+02  0.90859962807E+01  0.23654760167E+02  0.51100000000E-03 0. -1.
        -11    1    3    3    0    0 -0.17359722427E+02  0.62759267774E+01 -0.49482519729E+01  0.19111054851E+02  0.51100000000E-03 0.  1.
         12    1    3    3    0    0 -0.72400120664E+01 -0.26940278877E+02  0.10180384967E+02  0.29695734353E+02  0.00000000000E+00 0. -1.
</event>
<event>
 7    1  0.1339094E-013  0.7246152E+02  0.7816164E-02  0.1226708E+00
        -11   -1    0    0    0    0  0.00000000000E+00  0.00000000000E+00  0.45593999997E+02  0.45594000000E+02  0.51100000000E-03 0.  1.
         11   -1    0    0    0    0 -0.00000000000E+00 -0.00000000000E+00 -0.45593999997E+02  0.45594000000E+02  0.51100000000E-03 0. -1.
    9900012    2    1    2    0    0  0.15822569369E+02  0.92520540728E+00  0.99735237592E+01  0.72461524553E+02  0.69999940413E+02 0.  0.
         12    1    1    2    0    0 -0.15822569369E+02 -0.92520540728E+00 -0.99735237592E+01  0.18726475447E+02  0.00000000000E+00 0. -1.
         11    1    3    3    0    0  0.66399416221E+01 -0.29042474746E+02  0.22523777951E+01  0.29876870152E+02  0.51100000000E-03 0.  1.
        -11    1    3    3    0    0 -0.18599481322E+01  0.28424643873E+02  0.11631916235E+02  0.30768835888E+02  0.51100000000E-03 0. -1.
        -12    1    3    3    0    0  0.11042575879E+02  0.15430362803E+01 -0.39107702707E+01  0.11815818513E+02  0.00000000000E+00 0.  1.
</event>
<event>
 7    1  0.1339094E-013  0.7246159E+02  0.7816164E-02  0.1226708E+00
        -11   -1    0    0    0    0  0.00000000000E+00  0.00000000000E+00  0.45593999997E+02  0.45594000000E+02  0.51100000000E-03 0.  1.
         11   -1    0    0    0    0 -0.00000000000E+00 -0.00000000000E+00 -0.45593999997E+02  0.45594000000E+02  0.51100000000E-03 0. -1.
    9900012    2    1    2    0    0  0.12532652419E+02  0.84274677450E+01  0.11071989722E+02  0.72461586952E+02  0.70000021700E+02 0.  0.
         12    1    1    2    0    0 -0.12532652419E+02 -0.84274677450E+01 -0.11071989722E+02  0.18726413048E+02  0.00000000000E+00 0. -1.
         11    1    3    3    0    0 -0.84714586898E+01 -0.10393110529E+02  0.59292187652E+01  0.14660763767E+02  0.51100000000E-03 0. -1.
        -11    1    3    3    0    0  0.26200458861E+02  0.32782608224E+02  0.77525813332E+01  0.42676292764E+02  0.51100000000E-03 0.  1.
        -12    1    3    3    0    0 -0.51963477523E+01 -0.13962029950E+02 -0.26098103768E+01  0.15124530422E+02  0.00000000000E+00 0.  1.
</event>
<event>
 7    1  0.1339094E-013  0.7246160E+02  0.7816164E-02  0.1226708E+00
        -11   -1    0    0    0    0  0.00000000000E+00  0.00000000000E+00  0.45593999997E+02  0.45594000000E+02  0.51100000000E-03 0.  1.
         11   -1    0    0    0    0 -0.00000000000E+00 -0.00000000000E+00 -0.45593999997E+02  0.45594000000E+02  0.51100000000E-03 0. -1.
    9900012    2    1    2    0    0  0.42183765954E+01 -0.17676696828E+02 -0.45185814511E+01  0.72461604453E+02  0.70000044498E+02 0.  0.
         12    1    1    2    0    0 -0.42183765954E+01  0.17676696828E+02  0.45185814511E+01  0.18726395547E+02  0.00000000000E+00 0. -1.
         11    1    3    3    0    0 -0.19810176351E+02 -0.27414087618E+02 -0.14358616189E+02  0.36744321277E+02  0.51100000000E-03 0. -1.
        -11    1    3    3    0    0  0.60471388893E+01 -0.24759269912E+01  0.12212969316E+02  0.13851163236E+02  0.51100000000E-03 0.  1.
         12    1    3    3    0    0  0.17981414057E+02  0.12213317781E+02 -0.23729345774E+01  0.21866119940E+02  0.00000000000E+00 0. -1.
</event>
<event>
 7    1  0.1339094E-013  0.7246153E+02  0.7816164E-02  0.1226708E+00
        -11   -1    0    0    0    0  0.00000000000E+00  0.00000000000E+00  0.45593999997E+02  0.45594000000E+02  0.51100000000E-03 0. -1.
         11   -1    0    0    0    0 -0.00000000000E+00 -0.00000000000E+00 -0.45593999997E+02  0.45594000000E+02  0.51100000000E-03 0.  1.
    9900012    2    1    2    0    0 -0.58029316813E+01  0.16801235142E+02 -0.58928077799E+01  0.72461529379E+02  0.69999946700E+02 0.  0.
         12    1    1    2    0    0  0.58029316813E+01 -0.16801235142E+02  0.58928077799E+01  0.18726470621E+02  0.00000000000E+00 0. -1.
         11    1    3    3    0    0 -0.12477506769E+02  0.15392709559E+02 -0.84707966299E+01  0.21549433369E+02  0.51100000000E-03 0. -1.
        -11    1    3    3    0    0  0.41715185468E+01 -0.24355535260E+02  0.37860482455E+01  0.24998556486E+02  0.51100000000E-03 0.  1.
        -12    1    3    3    0    0  0.25030565412E+01  0.25764060843E+02 -0.12080593955E+01  0.25913539524E+02  0.00000000000E+00 0.  1.
</event>
<event>
 7    1  0.1339094E-013  0.7246153E+02  0.7816164E-02  0.1226708E+00
        -11   -1    0    0    0    0  0.00000000000E+00  0.00000000000E+00  0.45593999997E+02  0.45594000000E+02  0.51100000000E-03 0.  1.
         11   -1    0    0    0    0 -0.00000000000E+00 -0.00000000000E+00 -0.45593999997E+02  0.45594000000E+02  0.51100000000E-03 0. -1.
    9900012    2    1    2    0    0 -0.18164953168E+02  0.40093303163E+00 -0.45337080846E+01  0.72461527298E+02  0.69999943989E+02 0.  0.
         12    1    1    2    0    0  0.18164953168E+02 -0.40093303163E+00  0.45337080846E+01  0.18726472702E+02  0.00000000000E+00 0. -1.
         11    1    3    3    0    0 -0.30439140196E+02 -0.60439697836E+01  0.11543376253E+02  0.33110728808E+02  0.51100000000E-03 0. -1.
        -11    1    3    3    0    0  0.10216109288E+02  0.19850490925E+02 -0.10764428026E+02  0.24784749141E+02  0.51100000000E-03 0.  1.
         12    1    3    3    0    0  0.20580777403E+01 -0.13405588110E+02 -0.53126563108E+01  0.14566049349E+02  0.00000000000E+00 0. -1.
</event>
<event>
 7    1  0.1339094E-013  0.7246153E+02  0.7816164E-02  0.1226708E+00
        -11   -1    0    0    0    0  0.00000000000E+00  0.00000000000E+00  0.45593999997E+02  0.45594000000E+02  0.51100000000E-03 0. -1.
         11   -1    0    0    0    0 -0.00000000000E+00 -0.00000000000E+00 -0.45593999997E+02  0.45594000000E+02  0.51100000000E-03 0.  1.
    9900012    2    1    2    0    0 -0.13743171566E+02  0.38732712290E+01 -0.12116259239E+02  0.72461528558E+02  0.69999945631E+02 0.  0.
         12    1    1    2    0    0  0.13743171566E+02 -0.38732712290E+01  0.12116259239E+02  0.18726471442E+02  0.00000000000E+00 0. -1.
         11    1    3    3    0    0  0.87029258183E+01  0.58093218686E+01  0.51029623967E+01  0.11641707944E+02  0.51100000000E-03 0. -1.
        -11    1    3    3    0    0 -0.13212325484E+02  0.69022853794E+01 -0.35506289049E+02  0.38508488031E+02  0.51100000000E-03 0.  1.
        -12    1    3    3    0    0 -0.92337719003E+01 -0.88383360190E+01  0.18287067413E+02  0.22311332583E+02  0.00000000000E+00 0.  1.
</event>
<event>
 7    1  0.1339094E-013  0.7246160E+02  0.7816164E-02  0.1226708E+00
        -11   -1    0    0    0    0  0.00000000000E+00  0.00000000000E+00  0.45593999997E+02  0.45594000000E+02  0.51100000000E-03 0.  1.
         11   -1    0    0    0    0 -0.00000000000E+00 -0.00000000000E+00 -0.45593999997E+02  0.45594000000E+02  0.51100000000E-03 0. -1.
    9900012    2    1    2    0    0  0.82725343345E+01 -0.16478241156E+02  0.32727083785E+01  0.72461604831E+02  0.70000044990E+02 0.  0.
         12    1    1    2    0    0 -0.82725343345E+01  0.16478241156E+02 -0.32727083785E+01  0.18726395169E+02  0.00000000000E+00 0. -1.
         11    1    3    3    0    0 -0.14611100484E+01 -0.35774628850E+02 -0.15961423922E-01  0.35804457362E+02  0.51100000000E-03 0. -1.
        -11    1    3    3    0    0  0.99992436602E+01  0.86786421387E+01  0.15558009831E+02  0.20429277357E+02  0.51100000000E-03 0.  1.
         12    1    3    3    0    0 -0.26559927736E+00  0.10617745556E+02 -0.12269340029E+02  0.16227870113E+02  0.00000000000E+00 0. -1.
</event>
<event>
 7    1  0.1339094E-013  0.7246160E+02  0.7816164E-02  0.1226708E+00
        -11   -1    0    0    0    0  0.00000000000E+00  0.00000000000E+00  0.45593999997E+02  0.45594000000E+02  0.51100000000E-03 0. -1.
         11   -1    0    0    0    0 -0.00000000000E+00 -0.00000000000E+00 -0.45593999997E+02  0.45594000000E+02  0.51100000000E-03 0.  1.
    9900012    2    1    2    0    0 -0.53778044734E+01 -0.16014892145E+02 -0.80796342494E+01  0.72461600427E+02  0.70000039253E+02 0.  0.
         12    1    1    2    0    0  0.53778044734E+01  0.16014892145E+02  0.80796342494E+01  0.18726399573E+02  0.00000000000E+00 0. -1.
         11    1    3    3    0    0 -0.19908624325E+01 -0.20459976805E+02  0.19149741706E+01  0.20645612377E+02  0.51100000000E-03 0. -1.
        -11    1    3    3    0    0 -0.39231724054E+01  0.18231919973E+02  0.14553741174E+02  0.23655983810E+02  0.51100000000E-03 0.  1.
        -12    1    3    3    0    0  0.53623036446E+00 -0.13786835313E+02 -0.24548349594E+02  0.28160004239E+02  0.00000000000E+00 0.  1.
</event>
<event>
 7    1  0.1339094E-013  0.7246150E+02  0.7816164E-02  0.1226708E+00
        -11   -1    0    0    0    0  0.00000000000E+00  0.00000000000E+00  0.45593999997E+02  0.45594000000E+02  0.51100000000E-03 0.  1.
         11   -1    0    0    0    0 -0.00000000000E+00 -0.00000000000E+00 -0.45593999997E+02  0.45594000000E+02  0.51100000000E-03 0. -1.
    9900012    2    1    2    0    0  0.43088885946E+00 -0.51763040663E+01  0.17991719093E+02  0.72461501531E+02  0.69999910423E+02 0.  0.
         12    1    1    2    0    0 -0.43088885946E+00  0.51763040663E+01 -0.17991719093E+02  0.18726498469E+02  0.00000000000E+00 0. -1.
         11    1    3    3    0    0  0.45928567523E+01 -0.74116118355E+01 -0.58644885391E+01  0.10508023089E+02  0.51100000000E-03 0. -1.
        -11    1    3    3    0    0 -0.29526909164E+02  0.85058594740E+01  0.16144331050E+02  0.34710624245E+02  0.51100000000E-03 0.  1.
        -12    1    3    3    0    0  0.25364941272E+02 -0.62705517049E+01  0.77118765820E+01  0.27242854197E+02  0.00000000000E+00 0.  1.
</event>
<event>
 7    1  0.1339094E-013  0.7246150E+02  0.7816164E-02  0.1226708E+00
        -11   -1    0    0    0    0  0.00000000000E+00  0.00000000000E+00  0.45593999997E+02  0.45594000000E+02  0.51100000000E-03 0.  1.
         11   -1    0    0    0    0 -0.00000000000E+00 -0.00000000000E+00 -0.45593999997E+02  0.45594000000E+02  0.51100000000E-03 0. -1.
    9900012    2    1    2    0    0 -0.69882883360E+00 -0.12164357254E+02  0.14220469720E+02  0.72461502512E+02  0.69999911700E+02 0.  0.
         12    1    1    2    0    0  0.69882883360E+00  0.12164357254E+02 -0.14220469720E+02  0.18726497488E+02  0.00000000000E+00 0. -1.
         11    1    3    3    0    0  0.14716480655E+01 -0.21552132929E+02 -0.14297552714E+02  0.25905215608E+02  0.51100000000E-03 0. -1.
        -11    1    3    3    0    0 -0.16555128575E+01 -0.21189379516E+01  0.33784371376E+02  0.33891213764E+02  0.51100000000E-03 0.  1.
         12    1    3    3    0    0 -0.51496404161E+00  0.11506713627E+02 -0.52663489423E+01  0.12665073140E+02  0.00000000000E+00 0. -1.
</event>
<event>
 7    1  0.1339094E-013  0.7246154E+02  0.7816164E-02  0.1226708E+00
        -11   -1    0    0    0    0  0.00000000000E+00  0.00000000000E+00  0.45593999997E+02  0.45594000000E+02  0.51100000000E-03 0. -1.
         11   -1    0    0    0    0 -0.00000000000E+00 -0.00000000000E+00 -0.45593999997E+02  0.45594000000E+02  0.51100000000E-03 0.  1.
    9900012    2    1    2    0    0  0.10716189947E+02  0.58960404960E+01 -0.14180272877E+02  0.72461543865E+02  0.69999965570E+02 0.  0.
         12    1    1    2    0    0 -0.10716189947E+02 -0.58960404960E+01  0.14180272877E+02  0.18726456135E+02  0.00000000000E+00 0. -1.
         11    1    3    3    0    0 -0.15946863583E+01  0.81565204812E+01  0.54057034724E+01  0.99143068963E+01  0.51100000000E-03 0. -1.
        -11    1    3    3    0    0 -0.60688483494E+00 -0.14372489888E+02 -0.35772234225E+02  0.38556316169E+02  0.51100000000E-03 0.  1.
        -12    1    3    3    0    0  0.12917761141E+02  0.12112009903E+02  0.16186257876E+02  0.23990920799E+02  0.00000000000E+00 0.  1.
</event>
<event>
 7    1  0.1339094E-013  0.7246167E+02  0.7816164E-02  0.1226708E+00
        -11   -1    0    0    0    0  0.00000000000E+00  0.00000000000E+00  0.45593999997E+02  0.45594000000E+02  0.51100000000E-03 0. -1.
         11   -1    0    0    0    0 -0.00000000000E+00 -0.00000000000E+00 -0.45593999997E+02  0.45594000000E+02  0.51100000000E-03 0.  1.
    9900012    2    1    2    0    0  0.26757841038E+01  0.73157773761E+01 -0.17029241469E+02  0.72461668694E+02  0.70000128183E+02 0.  0.
         12    1    1    2    0    0 -0.26757841038E+01 -0.73157773761E+01  0.17029241469E+02  0.18726331306E+02  0.00000000000E+00 0. -1.
         11    1    3    3    0    0 -0.10073557784E+02 -0.14494002946E+02 -0.28708195769E+02  0.33700344099E+02  0.51100000000E-03 0. -1.
        -11    1    3    3    0    0  0.16507793585E+02  0.11743121940E+02 -0.30943403724E+01  0.20493489321E+02  0.51100000000E-03 0.  1.
         12    1    3    3    0    0 -0.37584516974E+01  0.10066658382E+02  0.14773294672E+02  0.18267835274E+02  0.00000000000E+00 0. -1.
</event>
<event>
 7    1  0.1339094E-013  0.7246150E+02  0.7816164E-02  0.1226708E+00
        -11   -1    0    0    0    0  0.00000000000E+00  0.00000000000E+00  0.45593999997E+02  0.45594000000E+02  0.51100000000E-03 0. -1.
         11   -1    0    0    0    0 -0.00000000000E+00 -0.00000000000E+00 -0.45593999997E+02  0.45594000000E+02  0.51100000000E-03 0.  1.
    9900012    2    1    2    0    0 -0.17316902134E+02 -0.70028430905E+01  0.13292329322E+01  0.72461500833E+02  0.69999909513E+02 0.  0.
         12    1    1    2    0    0  0.17316902134E+02  0.70028430905E+01 -0.13292329322E+01  0.18726499167E+02  0.00000000000E+00 0. -1.
         11    1    3    3    0    0  0.50225059325E+01 -0.23981638842E+02  0.16858198074E+02  0.29741274518E+02  0.51100000000E-03 0. -1.
        -11    1    3    3    0    0 -0.23720460911E+02  0.16965718875E+01 -0.55619341702E+01  0.24422811755E+02  0.51100000000E-03 0.  1.
         12    1    3    3    0    0  0.13810528449E+01  0.15282223864E+02 -0.99670309720E+01  0.18297414560E+02  0.00000000000E+00 0. -1.
</event>
<event>
 7    1  0.1339094E-013  0.7246158E+02  0.7816164E-02  0.1226708E+00
        -11   -1    0    0    0    0  0.00000000000E+00  0.00000000000E+00  0.45593999997E+02  0.45594000000E+02  0.51100000000E-03 0. -1.
         11   -1    0    0    0    0 -0.00000000000E+00 -0.00000000000E+00 -0.45593999997E+02  0.45594000000E+02  0.51100000000E-03 0.  1.
    9900012    2    1    2    0    0  0.61370654733E+00  0.17733581165E+02  0.59851649329E+01  0.72461581871E+02  0.70000015081E+02 0.  0.
         12    1    1    2    0    0 -0.61370654733E+00 -0.17733581165E+02 -0.59851649329E+01  0.18726418129E+02  0.00000000000E+00 0. -1.
         11    1    3    3    0    0  0.15365979386E+02 -0.32071869933E+01 -0.96668267956E+01  0.18434937251E+02  0.51100000000E-03 0. -1.
        -11    1    3    3    0    0 -0.20619618695E+02  0.28479838694E+02 -0.61033742003E+00  0.35165926679E+02  0.51100000000E-03 0.  1.
        -12    1    3    3    0    0  0.58673458557E+01 -0.75390705354E+01  0.16262329148E+02  0.18860717941E+02  0.00000000000E+00 0.  1.
</event>
<event>
 7    1  0.1339094E-013  0.7246158E+02  0.7816164E-02  0.1226708E+00
        -11   -1    0    0    0    0  0.00000000000E+00  0.00000000000E+00  0.45593999997E+02  0.45594000000E+02  0.51100000000E-03 0. -1.
         11   -1    0    0    0    0 -0.00000000000E+00 -0.00000000000E+00 -0.45593999997E+02  0.45594000000E+02  0.51100000000E-03 0.  1.
    9900012    2    1    2    0    0 -0.11626508572E+02 -0.94237003323E+01 -0.11255969367E+02  0.72461583474E+02  0.70000017169E+02 0.  0.
         12    1    1    2    0    0  0.11626508572E+02  0.94237003323E+01  0.11255969367E+02  0.18726416526E+02  0.00000000000E+00 0. -1.
         11    1    3    3    0    0 -0.10397674667E+02  0.11486302891E+01  0.66441382732E+01  0.12392560820E+02  0.51100000000E-03 0. -1.
        -11    1    3    3    0    0 -0.77866052299E+01  0.93493110071E+01 -0.32374909779E+02  0.34585771941E+02  0.51100000000E-03 0.  1.
        -12    1    3    3    0    0  0.65577713249E+01 -0.19921641628E+02  0.14474802139E+02  0.25483250713E+02  0.00000000000E+00 0.  1.
</event>
<event>
 7    1  0.1339094E-013  0.7246159E+02  0.7816164E-02  0.1226708E+00
        -11   -1    0    0    0    0  0.00000000000E+00  0.00000000000E+00  0.45593999997E+02  0.45594000000E+02  0.51100000000E-03 0.  1.
         11   -1    0    0    0    0 -0.00000000000E+00 -0.00000000000E+00 -0.45593999997E+02  0.45594000000E+02  0.51100000000E-03 0. -1.
    9900012    2    1    2    0    0 -0.12188603381E+02  0.77218450626E+01  0.11936893481E+02  0.72461591654E+02  0.70000027826E+02 0.  0.
         12    1    1    2    0    0  0.12188603381E+02 -0.77218450626E+01 -0.11936893481E+02  0.18726408346E+02  0.00000000000E+00 0. -1.
         11    1    3    3    0    0  0.20475785320E+02 -0.57215650901E+01  0.14990217428E+02  0.26013471709E+02  0.51100000000E-03 0. -1.
        -11    1    3    3    0    0 -0.30812294025E+02  0.13518390789E+02  0.85346033071E+01  0.34712876666E+02  0.51100000000E-03 0.  1.
         12    1    3    3    0    0 -0.18520946758E+01 -0.74980636277E-01 -0.11587927254E+02  0.11735243279E+02  0.00000000000E+00 0. -1.
</event>
<event>
 7    1  0.1339094E-013  0.7246155E+02  0.7816164E-02  0.1226708E+00
        -11   -1    0    0    0    0  0.00000000000E+00  0.00000000000E+00  0.45593999997E+02  0.45594000000E+02  0.51100000000E-03 0.  1.
         11   -1    0    0    0    0 -0.00000000000E+00 -0.00000000000E+00 -0.45593999997E+02  0.45594000000E+02  0.51100000000E-03 0. -1.
    9900012    2    1    2    0    0 -0.31535357085E+01 -0.36194648786E+01  0.18100677852E+02  0.72461552068E+02  0.69999976256E+02 0.  0.
         12    1    1    2    0    0  0.31535357085E+01  0.36194648786E+01 -0.18100677852E+02  0.18726447932E+02  0.00000000000E+00 0. -1.
         11    1    3    3    0    0  0.17552890417E+02 -0.14531954911E+02  0.13812216866E+02  0.26646932479E+02  0.51100000000E-03 0. -1.
        -11    1    3    3    0    0 -0.18369365108E+02 -0.61429497041E+01 -0.11440936170E+02  0.22495875761E+02  0.51100000000E-03 0.  1.
         12    1    3    3    0    0 -0.23370610175E+01  0.17055439736E+02  0.15729397156E+02  0.23318743828E+02  0.00000000000E+00 0. -1.
</event>
<event>
 7    1  0.1339094E-013  0.7246159E+02  0.7816164E-02  0.1226708E+00
        -11   -1    0    0    0    0  0.00000000000E+00  0.00000000000E+00  0.45593999997E+02  0.45594000000E+02  0.51100000000E-03 0. -1.
         11   -1    0    0    0    0 -0.00000000000E+00 -0.00000000000E+00 -0.45593999997E+02  0.45594000000E+02  0.51100000000E-03 0.  1.
    9900012    2    1    2    0    0  0.75132931165E+01 -0.17143852523E+02 -0.56311357547E+00  0.72461592184E+02  0.70000028515E+02 0.  0.
         12    1    1    2    0    0 -0.75132931165E+01  0.17143852523E+02  0.56311357547E+00  0.18726407816E+02  0.00000000000E+00 0. -1.
         11    1    3    3    0    0  0.94102623765E+01 -0.12453712800E+02  0.29788934918E+02  0.33630769309E+02  0.51100000000E-03 0. -1.
        -11    1    3    3    0    0  0.10528663588E+02 -0.38300563483E+01 -0.10262593329E+02  0.15193515416E+02  0.51100000000E-03 0.  1.
         12    1    3    3    0    0 -0.12425632848E+02 -0.86008337505E+00 -0.20089455165E+02  0.23637307459E+02  0.00000000000E+00 0. -1.
</event>
<event>
 7    1  0.1339094E-013  0.7246158E+02  0.7816164E-02  0.1226708E+00
        -11   -1    0    0    0    0  0.00000000000E+00  0.00000000000E+00  0.45593999997E+02  0.45594000000E+02  0.51100000000E-03 0.  1.
         11   -1    0    0    0    0 -0.00000000000E+00 -0.00000000000E+00 -0.45593999997E+02  0.45594000000E+02  0.51100000000E-03 0. -1.
    9900012    2    1    2    0    0  0.47075996346E+01  0.16492823973E+02  0.75169147477E+01  0.72461581649E+02  0.70000014791E+02 0.  0.
         12    1    1    2    0    0 -0.47075996346E+01 -0.16492823973E+02 -0.75169147477E+01  0.18726418351E+02  0.00000000000E+00 0. -1.
         11    1    3    3    0    0  0.15090475778E+02 -0.71361046259E+01 -0.46688062436E+01  0.17333326294E+02  0.51100000000E-03 0. -1.
        -11    1    3    3    0    0 -0.11282901117E+02  0.35703054774E+02  0.18173677944E+02  0.41620842712E+02  0.51100000000E-03 0.  1.
        -12    1    3    3    0    0  0.90002497358E+00 -0.12074126174E+02 -0.59879569527E+01  0.13507412642E+02  0.00000000000E+00 0.  1.
</event>
<event>
 7    1  0.1339094E-013  0.7246154E+02  0.7816164E-02  0.1226708E+00
        -11   -1    0    0    0    0  0.00000000000E+00  0.00000000000E+00  0.45593999997E+02  0.45594000000E+02  0.51100000000E-03 0. -1.
         11   -1    0    0    0    0 -0.00000000000E+00 -0.00000000000E+00 -0.45593999997E+02  0.45594000000E+02  0.51100000000E-03 0.  1.
    9900012    2    1    2    0    0 -0.33132402926E+01 -0.73489655891E+01 -0.16902528890E+02  0.72461539059E+02  0.69999959311E+02 0.  0.
         12    1    1    2    0    0  0.33132402926E+01  0.73489655891E+01  0.16902528890E+02  0.18726460941E+02  0.00000000000E+00 0. -1.
         11    1    3    3    0    0  0.17059864926E+02  0.81434744719E+01 -0.76373565808E+01  0.20388339402E+02  0.51100000000E-03 0. -1.
        -11    1    3    3    0    0 -0.69913480921E+01 -0.10499646071E+02 -0.26703045907E+02  0.29532595157E+02  0.51100000000E-03 0.  1.
         12    1    3    3    0    0 -0.13381757127E+02 -0.49927939904E+01  0.17437873597E+02  0.22540604500E+02  0.00000000000E+00 0. -1.
</event>
<event>
 7    1  0.1339094E-013  0.7246161E+02  0.7816164E-02  0.1226708E+00
        -11   -1    0    0    0    0  0.00000000000E+00  0.00000000000E+00  0.45593999997E+02  0.45594000000E+02  0.51100000000E-03 0. -1.
         11   -1    0    0    0    0 -0.00000000000E+00 -0.00000000000E+00 -0.45593999997E+02  0.45594000000E+02  0.51100000000E-03 0.  1.
    9900012    2    1    2    0    0 -0.18195863457E+02  0.42564789450E+01 -0.12126737417E+01  0.72461611198E+02  0.70000053284E+02 0.  0.
         12    1    1    2    0    0  0.18195863457E+02 -0.42564789450E+01  0.12126737417E+01  0.18726388802E+02  0.00000000000E+00 0. -1.
         11    1    3    3    0    0 -0.26536680367E+02  0.18293693926E+02  0.16014807361E+02  0.35990675145E+02  0.51100000000E-03 0. -1.
        -11    1    3    3    0    0 -0.36451248153E+01 -0.10341586187E+02  0.41181280945E+01  0.11712997867E+02  0.51100000000E-03 0.  1.
         12    1    3    3    0    0  0.11985941725E+02 -0.36956287945E+01 -0.21345609197E+02  0.24757938185E+02  0.00000000000E+00 0. -1.
</event>
<event>
 7    1  0.1339094E-013  0.7246160E+02  0.7816164E-02  0.1226708E+00
        -11   -1    0    0    0    0  0.00000000000E+00  0.00000000000E+00  0.45593999997E+02  0.45594000000E+02  0.51100000000E-03 0.  1.
         11   -1    0    0    0    0 -0.00000000000E+00 -0.00000000000E+00 -0.45593999997E+02  0.45594000000E+02  0.51100000000E-03 0. -1.
    9900012    2    1    2    0    0  0.16596082359E+02 -0.34317709972E+01  0.79668785128E+01  0.72461597380E+02  0.70000035284E+02 0.  0.
         12    1    1    2    0    0 -0.16596082359E+02  0.34317709972E+01 -0.79668785128E+01  0.18726402620E+02  0.00000000000E+00 0. -1.
         11    1    3    3    0    0 -0.12699471345E+02 -0.16634698831E+02  0.90600955189E+01  0.22805155310E+02  0.51100000000E-03 0. -1.
        -11    1    3    3    0    0  0.31765428684E+02  0.21452402485E+01  0.10423559136E+02  0.33500673135E+02  0.51100000000E-03 0.  1.
        -12    1    3    3    0    0 -0.24698749801E+01  0.11057687585E+02 -0.11516776142E+02  0.16155768935E+02  0.00000000000E+00 0.  1.
</event>
<event>
 7    1  0.1339094E-013  0.7246158E+02  0.7816164E-02  0.1226708E+00
        -11   -1    0    0    0    0  0.00000000000E+00  0.00000000000E+00  0.45593999997E+02  0.45594000000E+02  0.51100000000E-03 0.  1.
         11   -1    0    0    0    0 -0.00000000000E+00 -0.00000000000E+00 -0.45593999997E+02  0.45594000000E+02  0.51100000000E-03 0. -1.
    9900012    2    1    2    0    0 -0.10802139743E+02  0.66423433089E+01  0.13779402259E+02  0.72461578178E+02  0.70000010269E+02 0.  0.
         12    1    1    2    0    0  0.10802139743E+02 -0.66423433089E+01 -0.13779402259E+02  0.18726421822E+02  0.00000000000E+00 0. -1.
         11    1    3    3    0    0 -0.23186194239E+02 -0.39900003421E+01 -0.45711705316E+00  0.23531439869E+02  0.51100000000E-03 0. -1.
        -11    1    3    3    0    0  0.24735308658E+02  0.38726532721E+01 -0.45563251081E+01  0.25447849349E+02  0.51100000000E-03 0.  1.
        -12    1    3    3    0    0 -0.12351254162E+02  0.67596903790E+01  0.18792844420E+02  0.23482288959E+02  0.00000000000E+00 0.  1.
</event>
<event>
 7    1  0.1339094E-013  0.7246155E+02  0.7816164E-02  0.1226708E+00
        -11   -1    0    0    0    0  0.00000000000E+00  0.00000000000E+00  0.45593999997E+02  0.45594000000E+02  0.51100000000E-03 0.  1.
         11   -1    0    0    0    0 -0.00000000000E+00 -0.00000000000E+00 -0.45593999997E+02  0.45594000000E+02  0.51100000000E-03 0. -1.
    9900012    2    1    2    0    0  0.40111389229E+01 -0.76687232153E+01  0.16606661315E+02  0.72461554762E+02  0.69999979767E+02 0.  0.
         12    1    1    2    0    0 -0.40111389229E+01  0.76687232153E+01 -0.16606661315E+02  0.18726445238E+02  0.00000000000E+00 0. -1.
         11    1    3    3    0    0  0.68269958445E+01 -0.23750572547E+02  0.13214298498E+02  0.28023476829E+02  0.51100000000E-03 0. -1.
        -11    1    3    3    0    0  0.16748825578E+01  0.22015549177E+02 -0.13569499507E+02  0.25915650759E+02  0.51100000000E-03 0.  1.
         12    1    3    3    0    0 -0.44907394795E+01 -0.59336998453E+01  0.16961862324E+02  0.18522427174E+02  0.00000000000E+00 0. -1.
</event>
<event>
 7    1  0.1339094E-013  0.7246155E+02  0.7816164E-02  0.1226708E+00
        -11   -1    0    0    0    0  0.00000000000E+00  0.00000000000E+00  0.45593999997E+02  0.45594000000E+02  0.51100000000E-03 0. -1.
         11   -1    0    0    0    0 -0.00000000000E+00 -0.00000000000E+00 -0.45593999997E+02  0.45594000000E+02  0.51100000000E-03 0.  1.
    9900012    2    1    2    0    0 -0.14929541588E+02  0.27513821955E+01 -0.10964419254E+02  0.72461553311E+02  0.69999977876E+02 0.  0.
         12    1    1    2    0    0  0.14929541588E+02 -0.27513821955E+01  0.10964419254E+02  0.18726446689E+02  0.00000000000E+00 0. -1.
         11    1    3    3    0    0 -0.69641102062E+01  0.11537292558E+02  0.21911716825E+02  0.25724138178E+02  0.51100000000E-03 0. -1.
        -11    1    3    3    0    0 -0.94932685472E+01 -0.22380208753E+01 -0.37388560604E+02  0.38639815598E+02  0.51100000000E-03 0.  1.
         12    1    3    3    0    0  0.15278371655E+01 -0.65478894873E+01  0.45124245244E+01  0.80975995350E+01  0.00000000000E+00 0. -1.
</event>
<event>
 7    1  0.1339094E-013  0.7246154E+02  0.7816164E-02  0.1226708E+00
        -11   -1    0    0    0    0  0.00000000000E+00  0.00000000000E+00  0.45593999997E+02  0.45594000000E+02  0.51100000000E-03 0.  1.
         11   -1    0    0    0    0 -0.00000000000E+00 -0.00000000000E+00 -0.45593999997E+02  0.45594000000E+02  0.51100000000E-03 0. -1.
    9900012    2    1    2    0    0 -0.17644380459E+02 -0.57682770077E+01 -0.24664244852E+01  0.72461536608E+02  0.69999956117E+02 0.  0.
         12    1    1    2    0    0  0.17644380459E+02  0.57682770077E+01  0.24664244852E+01  0.18726463392E+02  0.00000000000E+00 0. -1.
         11    1    3    3    0    0 -0.24756723878E+02  0.20343148388E+01  0.27415657683E+01  0.24990998322E+02  0.51100000000E-03 0. -1.
        -11    1    3    3    0    0  0.63230486176E+01 -0.27120338339E+02 -0.33111211282E+01  0.28043844580E+02  0.51100000000E-03 0.  1.
        -12    1    3    3    0    0  0.78929480103E+00  0.19317746493E+02 -0.18968691253E+01  0.19426693705E+02  0.00000000000E+00 0.  1.
</event>
<event>
 7    1  0.1339094E-013  0.7246156E+02  0.7816164E-02  0.1226708E+00
        -11   -1    0    0    0    0  0.00000000000E+00  0.00000000000E+00  0.45593999997E+02  0.45594000000E+02  0.51100000000E-03 0.  1.
         11   -1    0    0    0    0 -0.00000000000E+00 -0.00000000000E+00 -0.45593999997E+02  0.45594000000E+02  0.51100000000E-03 0. -1.
    9900012    2    1    2    0    0 -0.12551022625E+02  0.83257221278E+01 -0.11128055591E+02  0.72461563096E+02  0.69999990622E+02 0.  0.
         12    1    1    2    0    0  0.12551022625E+02 -0.83257221278E+01  0.11128055591E+02  0.18726436904E+02  0.00000000000E+00 0. -1.
         11    1    3    3    0    0 -0.30040256459E+02 -0.10455888691E+02 -0.14728069674E+02  0.35052227504E+02  0.51100000000E-03 0. -1.
        -11    1    3    3    0    0  0.67956668410E+01  0.24182114733E+02  0.39326815507E+01  0.25424825372E+02  0.51100000000E-03 0.  1.
        -12    1    3    3    0    0  0.10693566992E+02 -0.54005039143E+01 -0.33266746839E+00  0.11984510219E+02  0.00000000000E+00 0.  1.
</event>
<event>
 7    1  0.1339094E-013  0.7246177E+02  0.7816164E-02  0.1226707E+00
        -11   -1    0    0    0    0  0.00000000000E+00  0.00000000000E+00  0.45593999997E+02  0.45594000000E+02  0.51100000000E-03 0. -1.
         11   -1    0    0    0    0 -0.00000000000E+00 -0.00000000000E+00 -0.45593999997E+02  0.45594000000E+02  0.51100000000E-03 0.  1.
    9900012    2    1    2    0    0 -0.35531666896E+01  0.11507016160E+02 -0.14339983256E+02  0.72461774161E+02  0.70000265573E+02 0.  0.
         12    1    1    2    0    0  0.35531666896E+01 -0.11507016160E+02  0.14339983256E+02  0.18726225839E+02  0.00000000000E+00 0. -1.
         11    1    3    3    0    0 -0.14038188039E+02  0.32622632201E+02 -0.12168719509E+02  0.37541771267E+02  0.51100000000E-03 0. -1.
        -11    1    3    3    0    0 -0.67899440832E+00 -0.85483522439E+01 -0.12523580100E+02  0.15178123016E+02  0.51100000000E-03 0.  1.
         12    1    3    3    0    0  0.11164015757E+02 -0.12567263798E+02  0.10352316354E+02  0.19741879877E+02  0.00000000000E+00 0. -1.
</event>
<event>
 7    1  0.1339094E-013  0.7246157E+02  0.7816164E-02  0.1226708E+00
        -11   -1    0    0    0    0  0.00000000000E+00  0.00000000000E+00  0.45593999997E+02  0.45594000000E+02  0.51100000000E-03 0. -1.
         11   -1    0    0    0    0 -0.00000000000E+00 -0.00000000000E+00 -0.45593999997E+02  0.45594000000E+02  0.51100000000E-03 0.  1.
    9900012    2    1    2    0    0  0.68444763583E+01  0.13528218197E+02 -0.10991801106E+02  0.72461568526E+02  0.69999997696E+02 0.  0.
         12    1    1    2    0    0 -0.68444763583E+01 -0.13528218197E+02  0.10991801106E+02  0.18726431474E+02  0.00000000000E+00 0. -1.
         11    1    3    3    0    0  0.32432405225E+02 -0.12932424672E+01 -0.19130733606E+02  0.37676496033E+02  0.51100000000E-03 0. -1.
        -11    1    3    3    0    0 -0.38863199688E+01 -0.35085123906E+01  0.17131074930E-02  0.52357564201E+01  0.51100000000E-03 0.  1.
         12    1    3    3    0    0 -0.21701608898E+02  0.18329973054E+02  0.81372193924E+01  0.29549316073E+02  0.00000000000E+00 0. -1.
</event>
<event>
 7    1  0.1339094E-013  0.7246155E+02  0.7816164E-02  0.1226708E+00
        -11   -1    0    0    0    0  0.00000000000E+00  0.00000000000E+00  0.45593999997E+02  0.45594000000E+02  0.51100000000E-03 0. -1.
         11   -1    0    0    0    0 -0.00000000000E+00 -0.00000000000E+00 -0.45593999997E+02  0.45594000000E+02  0.51100000000E-03 0.  1.
    9900012    2    1    2    0    0 -0.77977343955E+01 -0.93554748096E+01 -0.14224990487E+02  0.72461550123E+02  0.69999973724E+02 0.  0.
         12    1    1    2    0    0  0.77977343955E+01  0.93554748096E+01  0.14224990487E+02  0.18726449877E+02  0.00000000000E+00 0. -1.
         11    1    3    3    0    0  0.12683050308E+02  0.18778163660E+02 -0.12964344381E+02  0.26106578118E+02  0.51100000000E-03 0. -1.
        -11    1    3    3    0    0 -0.11469234992E+02 -0.33752006795E+02  0.10801924303E+00  0.35647622395E+02  0.51100000000E-03 0.  1.
         12    1    3    3    0    0 -0.90115497116E+01  0.56183683254E+01 -0.13686653494E+01  0.10707349611E+02  0.00000000000E+00 0. -1.
</event>
<event>
 7    1  0.1339094E-013  0.7246156E+02  0.7816164E-02  0.1226708E+00
        -11   -1    0    0    0    0  0.00000000000E+00  0.00000000000E+00  0.45593999997E+02  0.45594000000E+02  0.51100000000E-03 0.  1.
         11   -1    0    0    0    0 -0.00000000000E+00 -0.00000000000E+00 -0.45593999997E+02  0.45594000000E+02  0.51100000000E-03 0. -1.
    9900012    2    1    2    0    0  0.19707252366E+01 -0.16580866790E+02  0.84776489414E+01  0.72461563258E+02  0.69999990834E+02 0.  0.
         12    1    1    2    0    0 -0.19707252366E+01  0.16580866790E+02 -0.84776489414E+01  0.18726436742E+02  0.00000000000E+00 0. -1.
         11    1    3    3    0    0  0.32182522821E+02 -0.16434695301E+02  0.81835454104E+01  0.37051105253E+02  0.51100000000E-03 0. -1.
        -11    1    3    3    0    0 -0.11506937757E+02 -0.87803829068E+01  0.25094323709E+01  0.14690200531E+02  0.51100000000E-03 0.  1.
         12    1    3    3    0    0 -0.18704859827E+02  0.86342114181E+01 -0.22153288399E+01  0.20720257475E+02  0.00000000000E+00 0. -1.
</event>
<event>
 7    1  0.1339094E-013  0.7246162E+02  0.7816164E-02  0.1226708E+00
        -11   -1    0    0    0    0  0.00000000000E+00  0.00000000000E+00  0.45593999997E+02  0.45594000000E+02  0.51100000000E-03 0.  1.
         11   -1    0    0    0    0 -0.00000000000E+00 -0.00000000000E+00 -0.45593999997E+02  0.45594000000E+02  0.51100000000E-03 0. -1.
    9900012    2    1    2    0    0 -0.58653670091E+01 -0.14785085268E+02  0.98831221932E+01  0.72461618053E+02  0.70000062215E+02 0.  0.
         12    1    1    2    0    0  0.58653670091E+01  0.14785085268E+02 -0.98831221932E+01  0.18726381947E+02  0.00000000000E+00 0. -1.
         11    1    3    3    0    0  0.16293043714E+02  0.75172215337E+01 -0.47721405208E+01  0.18567315866E+02  0.51100000000E-03 0. -1.
        -11    1    3    3    0    0 -0.29752648135E+02 -0.47717622594E+01  0.17078951642E+02  0.34636402463E+02  0.51100000000E-03 0.  1.
        -12    1    3    3    0    0  0.75942374122E+01 -0.17530544542E+02 -0.24236889278E+01  0.19257899725E+02  0.00000000000E+00 0.  1.
</event>
<event>
 7    1  0.1339094E-013  0.7246179E+02  0.7816164E-02  0.1226707E+00
        -11   -1    0    0    0    0  0.00000000000E+00  0.00000000000E+00  0.45593999997E+02  0.45594000000E+02  0.51100000000E-03 0.  1.
         11   -1    0    0    0    0 -0.00000000000E+00 -0.00000000000E+00 -0.45593999997E+02  0.45594000000E+02  0.51100000000E-03 0. -1.
    9900012    2    1    2    0    0  0.98632924633E+00  0.15199080889E+01  0.18638351428E+02  0.72461785488E+02  0.70000280330E+02 0.  0.
         12    1    1    2    0    0 -0.98632924633E+00 -0.15199080889E+01 -0.18638351428E+02  0.18726214512E+02  0.00000000000E+00 0. -1.
         11    1    3    3    0    0  0.19458617914E+01 -0.17915730383E+02 -0.19277016307E+02  0.26388693246E+02  0.51100000000E-03 0. -1.
        -11    1    3    3    0    0 -0.39540581839E+01  0.14903061957E+02  0.11846363684E+02  0.19444077880E+02  0.51100000000E-03 0.  1.
         12    1    3    3    0    0  0.29945256388E+01  0.45325765153E+01  0.26069004052E+02  0.26629014363E+02  0.00000000000E+00 0. -1.
</event>
<event>
 7    1  0.1339094E-013  0.7246157E+02  0.7816164E-02  0.1226708E+00
        -11   -1    0    0    0    0  0.00000000000E+00  0.00000000000E+00  0.45593999997E+02  0.45594000000E+02  0.51100000000E-03 0. -1.
         11   -1    0    0    0    0 -0.00000000000E+00 -0.00000000000E+00 -0.45593999997E+02  0.45594000000E+02  0.51100000000E-03 0.  1.
    9900012    2    1    2    0    0  0.18480572702E+01 -0.89736825947E+01 -0.16332079908E+02  0.72461571373E+02  0.70000001405E+02 0.  0.
         12    1    1    2    0    0 -0.18480572702E+01  0.89736825947E+01  0.16332079908E+02  0.18726428627E+02  0.00000000000E+00 0. -1.
         11    1    3    3    0    0  0.30263500941E+02 -0.82182674408E+01  0.25268639122E+01  0.31461157805E+02  0.51100000000E-03 0. -1.
        -11    1    3    3    0    0 -0.90412878537E+01  0.94327442154E+01 -0.16778549894E+01  0.13173334700E+02  0.51100000000E-03 0.  1.
         12    1    3    3    0    0 -0.19374155817E+02 -0.10188159369E+02 -0.17181088831E+02  0.27827078869E+02  0.00000000000E+00 0. -1.
</event>
<event>
 7    1  0.1339094E-013  0.7246162E+02  0.7816164E-02  0.1226708E+00
        -11   -1    0    0    0    0  0.00000000000E+00  0.00000000000E+00  0.45593999997E+02  0.45594000000E+02  0.51100000000E-03 0. -1.
         11   -1    0    0    0    0 -0.00000000000E+00 -0.00000000000E+00 -0.45593999997E+02  0.45594000000E+02  0.51100000000E-03 0.  1.
    9900012    2    1    2    0    0 -0.42969927478E+01 -0.17406485869E+02  0.54062540137E+01  0.72461615420E+02  0.70000058784E+02 0.  0.
         12    1    1    2    0    0  0.42969927478E+01  0.17406485869E+02 -0.54062540137E+01  0.18726384580E+02  0.00000000000E+00 0. -1.
         11    1    3    3    0    0 -0.31182609450E+02 -0.24403050760E+02  0.42783932351E+01  0.39826733075E+02  0.51100000000E-03 0. -1.
        -11    1    3    3    0    0  0.23076943498E+02 -0.16697505292E+01  0.40166064494E+00  0.23140758837E+02  0.51100000000E-03 0.  1.
        -12    1    3    3    0    0  0.38086732039E+01  0.86663154204E+01  0.72620013362E+00  0.94941235074E+01  0.00000000000E+00 0.  1.
</event>
<event>
 7    1  0.1339094E-013  0.7246161E+02  0.7816164E-02  0.1226708E+00
        -11   -1    0    0    0    0  0.00000000000E+00  0.00000000000E+00  0.45593999997E+02  0.45594000000E+02  0.51100000000E-03 0. -1.
         11   -1    0    0    0    0 -0.00000000000E+00 -0.00000000000E+00 -0.45593999997E+02  0.45594000000E+02  0.51100000000E-03 0.  1.
    9900012    2    1    2    0    0 -0.27434607952E+01  0.80233039141E+01 -0.16696641415E+02  0.72461606397E+02  0.70000047031E+02 0.  0.
         12    1    1    2    0    0  0.27434607952E+01 -0.80233039141E+01  0.16696641415E+02  0.18726393603E+02  0.00000000000E+00 0. -1.
         11    1    3    3    0    0  0.13900636668E+02  0.53024540794E+01  0.15845010346E+02  0.21734950475E+02  0.51100000000E-03 0. -1.
        -11    1    3    3    0    0 -0.23431418276E+02  0.54790292470E+01 -0.35448715094E+02  0.42844632406E+02  0.51100000000E-03 0.  1.
        -12    1    3    3    0    0  0.67873208131E+01 -0.27581794122E+01  0.29070633333E+01  0.78820235164E+01  0.00000000000E+00 0.  1.
</event>
<event>
 7    1  0.1339094E-013  0.7246156E+02  0.7816164E-02  0.1226708E+00
        -11   -1    0    0    0    0  0.00000000000E+00  0.00000000000E+00  0.45593999997E+02  0.45594000000E+02  0.51100000000E-03 0.  1.
         11   -1    0    0    0    0 -0.00000000000E+00 -0.00000000000E+00 -0.45593999997E+02  0.45594000000E+02  0.51100000000E-03 0. -1.
    9900012    2    1    2    0    0  0.51855273990E+01 -0.15548474112E+02  0.90572997378E+01  0.72461563602E+02  0.69999991282E+02 0.  0.
         12    1    1    2    0    0 -0.51855273990E+01  0.15548474112E+02 -0.90572997378E+01  0.18726436398E+02  0.00000000000E+00 0. -1.
         11    1    3    3    0    0 -0.24079628601E+01 -0.39324813906E+02 -0.17282092151E+00  0.39398846952E+02  0.51100000000E-03 0. -1.
        -11    1    3    3    0    0  0.53903754353E+01  0.15782449370E+01  0.91724322586E+01  0.10755487819E+02  0.51100000000E-03 0.  1.
         12    1    3    3    0    0  0.22031148238E+01  0.22198094856E+02  0.57688400667E-01  0.22307228831E+02  0.00000000000E+00 0. -1.
</event>
<event>
 7    1  0.1339094E-013  0.7246151E+02  0.7816164E-02  0.1226708E+00
        -11   -1    0    0    0    0  0.00000000000E+00  0.00000000000E+00  0.45593999997E+02  0.45594000000E+02  0.51100000000E-03 0.  1.
         11   -1    0    0    0    0 -0.00000000000E+00 -0.00000000000E+00 -0.45593999997E+02  0.45594000000E+02  0.51100000000E-03 0. -1.
    9900012    2    1    2    0    0  0.36664626520E+01  0.15292659477E+02  0.10167246227E+02  0.72461513995E+02  0.69999926660E+02 0.  0.
         12    1    1    2    0    0 -0.36664626520E+01 -0.15292659477E+02 -0.10167246227E+02  0.18726486005E+02  0.00000000000E+00 0. -1.
         11    1    3    3    0    0 -0.19668485547E+02 -0.17515055349E+02  0.97161616157E+01  0.28071877109E+02  0.51100000000E-03 0. -1.
        -11    1    3    3    0    0  0.96616876665E+00  0.80733583323E+01  0.66075264286E+01  0.10477213495E+02  0.51100000000E-03 0.  1.
         12    1    3    3    0    0  0.22368779433E+02  0.24734356493E+02 -0.61564418171E+01  0.33912423392E+02  0.00000000000E+00 0. -1.
</event>
<event>
 7    1  0.1339094E-013  0.7246151E+02  0.7816164E-02  0.1226708E+00
        -11   -1    0    0    0    0  0.00000000000E+00  0.00000000000E+00  0.45593999997E+02  0.45594000000E+02  0.51100000000E-03 0. -1.
         11   -1    0    0    0    0 -0.00000000000E+00 -0.00000000000E+00 -0.45593999997E+02  0.45594000000E+02  0.51100000000E-03 0.  1.
    9900012    2    1    2    0    0  0.10717443514E+02  0.13317784511E+02  0.76455606499E+01  0.72461506004E+02  0.69999916249E+02 0.  0.
         12    1    1    2    0    0 -0.10717443514E+02 -0.13317784511E+02 -0.76455606499E+01  0.18726493996E+02  0.00000000000E+00 0. -1.
         11    1    3    3    0    0 -0.23013325719E+00  0.21178810604E+00  0.37997542872E+01  0.38126038900E+01  0.51100000000E-03 0. -1.
        -11    1    3    3    0    0  0.31230744116E+02  0.23987336239E+02 -0.11452472740E+02  0.41011105935E+02  0.51100000000E-03 0.  1.
        -12    1    3    3    0    0 -0.20283167345E+02 -0.10881339835E+02  0.15298279103E+02  0.27637796179E+02  0.00000000000E+00 0.  1.
</event>
<event>
 7    1  0.1418612E-013  0.7246159E+02  0.7816164E-02  0.1226708E+00
        -11   -1    0    0    0    0  0.00000000000E+00  0.00000000000E+00  0.45593999997E+02  0.45594000000E+02  0.51100000000E-03 0. -1.
         11   -1    0    0    0    0 -0.00000000000E+00 -0.00000000000E+00 -0.45593999997E+02  0.45594000000E+02  0.51100000000E-03 0.  1.
    9900012    2    1    2    0    0 -0.11142993912E+02  0.57838939032E+01 -0.13894554450E+02  0.72461591231E+02  0.70000027274E+02 0.  0.
         12    1    1    2    0    0  0.11142993912E+02 -0.57838939032E+01  0.13894554450E+02  0.18726408769E+02  0.00000000000E+00 0. -1.
         11    1    3    3    0    0  0.17475240342E+02  0.51878514218E+01  0.63350965457E+01  0.19298478590E+02  0.51100000000E-03 0. -1.
        -11    1    3    3    0    0 -0.12516249450E+02  0.20546516766E-01 -0.31236067141E+02  0.33650390981E+02  0.51100000000E-03 0.  1.
         12    1    3    3    0    0 -0.16101984804E+02  0.57549596464E+00  0.11006416145E+02  0.19512721660E+02  0.00000000000E+00 0. -1.
</event>
<event>
 7    1  0.1339094E-013  0.7246156E+02  0.7816164E-02  0.1226708E+00
        -11   -1    0    0    0    0  0.00000000000E+00  0.00000000000E+00  0.45593999997E+02  0.45594000000E+02  0.51100000000E-03 0.  1.
         11   -1    0    0    0    0 -0.00000000000E+00 -0.00000000000E+00 -0.45593999997E+02  0.45594000000E+02  0.51100000000E-03 0. -1.
    9900012    2    1    2    0    0 -0.14904639537E+02  0.22179105289E-01  0.11337134600E+02  0.72461564339E+02  0.69999992242E+02 0.  0.
         12    1    1    2    0    0  0.14904639537E+02 -0.22179105289E-01 -0.11337134600E+02  0.18726435661E+02  0.00000000000E+00 0. -1.
         11    1    3    3    0    0 -0.80302662671E+01 -0.33016286708E+01  0.30253156165E+02  0.31474424322E+02  0.51100000000E-03 0. -1.
        -11    1    3    3    0    0 -0.15320433026E+02 -0.11165355571E+02 -0.13816001401E+02  0.23457679512E+02  0.51100000000E-03 0.  1.
         12    1    3    3    0    0  0.84460597568E+01  0.14489163347E+02 -0.51000201633E+01  0.17529460504E+02  0.00000000000E+00 0. -1.
</event>
<event>
 7    1  0.1339094E-013  0.7246155E+02  0.7816164E-02  0.1226708E+00
        -11   -1    0    0    0    0  0.00000000000E+00  0.00000000000E+00  0.45593999997E+02  0.45594000000E+02  0.51100000000E-03 0. -1.
         11   -1    0    0    0    0 -0.00000000000E+00 -0.00000000000E+00 -0.45593999997E+02  0.45594000000E+02  0.51100000000E-03 0.  1.
    9900012    2    1    2    0    0 -0.16659196044E+02 -0.16532615953E+01  0.83915307537E+01  0.72461551455E+02  0.69999975458E+02 0.  0.
         12    1    1    2    0    0  0.16659196044E+02  0.16532615953E+01 -0.83915307537E+01  0.18726448545E+02  0.00000000000E+00 0. -1.
         11    1    3    3    0    0 -0.30636591628E+01 -0.46081593566E+01  0.20272616309E+02  0.21014283533E+02  0.51100000000E-03 0. -1.
        -11    1    3    3    0    0 -0.21976106571E+02  0.12342663803E+02 -0.23395942407E+02  0.34389834707E+02  0.51100000000E-03 0.  1.
        -12    1    3    3    0    0  0.83805696895E+01 -0.93877660417E+01  0.11514856852E+02  0.17057433216E+02  0.00000000000E+00 0.  1.
</event>
<event>
 7    1  0.1339094E-013  0.7246161E+02  0.7816164E-02  0.1226708E+00
        -11   -1    0    0    0    0  0.00000000000E+00  0.00000000000E+00  0.45593999997E+02  0.45594000000E+02  0.51100000000E-03 0. -1.
         11   -1    0    0    0    0 -0.00000000000E+00 -0.00000000000E+00 -0.45593999997E+02  0.45594000000E+02  0.51100000000E-03 0.  1.
    9900012    2    1    2    0    0  0.10232515814E+02 -0.15636511997E+02 -0.12135771893E+01  0.72461610681E+02  0.70000052612E+02 0.  0.
         12    1    1    2    0    0 -0.10232515814E+02  0.15636511997E+02  0.12135771893E+01  0.18726389319E+02  0.00000000000E+00 0. -1.
         11    1    3    3    0    0 -0.55616211212E+01  0.12930886062E+02 -0.19672910433E+02  0.24190139500E+02  0.51100000000E-03 0.  1.
        -11    1    3    3    0    0  0.17209694598E+02 -0.41017805949E+01  0.15620956945E+02  0.23601112015E+02  0.51100000000E-03 0. -1.
        -12    1    3    3    0    0 -0.14155576630E+01 -0.24465617464E+02  0.28383762985E+01  0.24670359166E+02  0.00000000000E+00 0.  1.
</event>
<event>
 7    1  0.1339094E-013  0.7246158E+02  0.7816164E-02  0.1226708E+00
        -11   -1    0    0    0    0  0.00000000000E+00  0.00000000000E+00  0.45593999997E+02  0.45594000000E+02  0.51100000000E-03 0.  1.
         11   -1    0    0    0    0 -0.00000000000E+00 -0.00000000000E+00 -0.45593999997E+02  0.45594000000E+02  0.51100000000E-03 0. -1.
    9900012    2    1    2    0    0 -0.15313048523E+02 -0.78317596538E+01  0.74062776533E+01  0.72461578478E+02  0.70000010661E+02 0.  0.
         12    1    1    2    0    0  0.15313048523E+02  0.78317596538E+01 -0.74062776533E+01  0.18726421522E+02  0.00000000000E+00 0. -1.
         11    1    3    3    0    0  0.16605816339E+02  0.41418073909E+01  0.18281029326E+01  0.17211904756E+02  0.51100000000E-03 0. -1.
        -11    1    3    3    0    0 -0.11816805946E+02 -0.24574168606E+02  0.13248361256E+02  0.30315767212E+02  0.51100000000E-03 0.  1.
         12    1    3    3    0    0 -0.20102058915E+02  0.12600601561E+02 -0.76701865351E+01  0.24933906510E+02  0.00000000000E+00 0. -1.
</event>
<event>
 7    1  0.1339094E-013  0.7246155E+02  0.7816164E-02  0.1226708E+00
        -11   -1    0    0    0    0  0.00000000000E+00  0.00000000000E+00  0.45593999997E+02  0.45594000000E+02  0.51100000000E-03 0. -1.
         11   -1    0    0    0    0 -0.00000000000E+00 -0.00000000000E+00 -0.45593999997E+02  0.45594000000E+02  0.51100000000E-03 0.  1.
    9900012    2    1    2    0    0  0.29479259733E+01 -0.18492783272E+02 -0.80927052660E-01  0.72461552128E+02  0.69999976335E+02 0.  0.
         12    1    1    2    0    0 -0.29479259733E+01  0.18492783272E+02  0.80927052660E-01  0.18726447872E+02  0.00000000000E+00 0. -1.
         11    1    3    3    0    0  0.57817424205E+01  0.15384453248E+02  0.24583006851E+02  0.29570833151E+02  0.51100000000E-03 0. -1.
        -11    1    3    3    0    0  0.29161152718E+01 -0.14383739799E+02 -0.88394766390E+01  0.17132776961E+02  0.51100000000E-03 0.  1.
         12    1    3    3    0    0 -0.57499317190E+01 -0.19493496721E+02 -0.15824457265E+02  0.25757942016E+02  0.00000000000E+00 0. -1.
</event>
<event>
 7    1  0.1339094E-013  0.7246136E+02  0.7816164E-02  0.1226709E+00
        -11   -1    0    0    0    0  0.00000000000E+00  0.00000000000E+00  0.45593999997E+02  0.45594000000E+02  0.51100000000E-03 0. -1.
         11   -1    0    0    0    0 -0.00000000000E+00 -0.00000000000E+00 -0.45593999997E+02  0.45594000000E+02  0.51100000000E-03 0.  1.
    9900012    2    1    2    0    0 -0.17851226786E+02 -0.48121122743E+01 -0.29773128892E+01  0.72461358166E+02  0.69999723663E+02 0.  0.
         12    1    1    2    0    0  0.17851226786E+02  0.48121122743E+01  0.29773128892E+01  0.18726641834E+02  0.00000000000E+00 0. -1.
         11    1    3    3    0    0 -0.11381751088E+02  0.28091481996E+02  0.23983360462E+01  0.30404401566E+02  0.51100000000E-03 0. -1.
        -11    1    3    3    0    0 -0.11545985934E+02 -0.15993019371E+02  0.65113979012E+01  0.20772211309E+02  0.51100000000E-03 0.  1.
         12    1    3    3    0    0  0.50765102357E+01 -0.16910574899E+02 -0.11887046837E+02  0.21284745291E+02  0.00000000000E+00 0. -1.
</event>
<event>
 7    1  0.1339094E-013  0.7246158E+02  0.7816164E-02  0.1226708E+00
        -11   -1    0    0    0    0  0.00000000000E+00  0.00000000000E+00  0.45593999997E+02  0.45594000000E+02  0.51100000000E-03 0.  1.
         11   -1    0    0    0    0 -0.00000000000E+00 -0.00000000000E+00 -0.45593999997E+02  0.45594000000E+02  0.51100000000E-03 0. -1.
    9900012    2    1    2    0    0  0.45954344641E+01  0.16809637098E+02  0.68554346713E+01  0.72461577442E+02  0.70000009311E+02 0.  0.
         12    1    1    2    0    0 -0.45954344641E+01 -0.16809637098E+02 -0.68554346713E+01  0.18726422558E+02  0.00000000000E+00 0. -1.
         11    1    3    3    0    0  0.21139151030E+02 -0.16296404372E+02 -0.86652712020E+01  0.28062847806E+02  0.51100000000E-03 0. -1.
        -11    1    3    3    0    0 -0.12231682000E+02  0.30093447961E+02  0.19423881751E+02  0.37848604166E+02  0.51100000000E-03 0.  1.
         12    1    3    3    0    0 -0.43120345657E+01  0.30125935088E+01 -0.39031758780E+01  0.65501254705E+01  0.00000000000E+00 0. -1.
</event>
<event>
 7    1  0.1339094E-013  0.7246215E+02  0.7816164E-02  0.1226706E+00
        -11   -1    0    0    0    0  0.00000000000E+00  0.00000000000E+00  0.45593999997E+02  0.45594000000E+02  0.51100000000E-03 0. -1.
         11   -1    0    0    0    0 -0.00000000000E+00 -0.00000000000E+00 -0.45593999997E+02  0.45594000000E+02  0.51100000000E-03 0.  1.
    9900012    2    1    2    0    0  0.53187144319E+01 -0.59595718599E+01  0.16936716009E+02  0.72462147039E+02  0.70000751313E+02 0.  0.
         12    1    1    2    0    0 -0.53187144319E+01  0.59595718599E+01 -0.16936716009E+02  0.18725852961E+02  0.00000000000E+00 0. -1.
         11    1    3    3    0    0  0.66537309961E+00 -0.80304142626E+01  0.30838753351E+02  0.31874111487E+02  0.51100000000E-03 0. -1.
        -11    1    3    3    0    0 -0.16340125973E+02 -0.15547693424E+00 -0.98849240626E+01  0.19098052620E+02  0.51100000000E-03 0.  1.
         12    1    3    3    0    0  0.20993467305E+02  0.22263193370E+01 -0.40171132798E+01  0.21489982931E+02  0.00000000000E+00 0. -1.
</event>
<event>
 7    1  0.1339094E-013  0.7246152E+02  0.7816164E-02  0.1226708E+00
        -11   -1    0    0    0    0  0.00000000000E+00  0.00000000000E+00  0.45593999997E+02  0.45594000000E+02  0.51100000000E-03 0.  1.
         11   -1    0    0    0    0 -0.00000000000E+00 -0.00000000000E+00 -0.45593999997E+02  0.45594000000E+02  0.51100000000E-03 0. -1.
    9900012    2    1    2    0    0 -0.15584056507E+01  0.10486620538E+02  0.15436429911E+02  0.72461515897E+02  0.69999929137E+02 0.  0.
         12    1    1    2    0    0  0.15584056507E+01 -0.10486620538E+02 -0.15436429911E+02  0.18726484103E+02  0.00000000000E+00 0. -1.
         11    1    3    3    0    0  0.66432819121E+01 -0.11009430045E+02  0.67340634572E+01  0.14515107832E+02  0.51100000000E-03 0. -1.
        -11    1    3    3    0    0 -0.13524615335E+02  0.24638031197E+02  0.26792023255E+02  0.38829889410E+02  0.51100000000E-03 0.  1.
        -12    1    3    3    0    0  0.53229277724E+01 -0.31419806139E+01 -0.18089656802E+02  0.19116518654E+02  0.00000000000E+00 0.  1.
</event>
<event>
 7    1  0.1339094E-013  0.7246158E+02  0.7816164E-02  0.1226708E+00
        -11   -1    0    0    0    0  0.00000000000E+00  0.00000000000E+00  0.45593999997E+02  0.45594000000E+02  0.51100000000E-03 0. -1.
         11   -1    0    0    0    0 -0.00000000000E+00 -0.00000000000E+00 -0.45593999997E+02  0.45594000000E+02  0.51100000000E-03 0.  1.
    9900012    2    1    2    0    0  0.45243220041E+01  0.17252873837E+02 -0.57050518150E+01  0.72461581190E+02  0.70000014193E+02 0.  0.
         12    1    1    2    0    0 -0.45243220041E+01 -0.17252873837E+02  0.57050518150E+01  0.18726418810E+02  0.00000000000E+00 0. -1.
         11    1    3    3    0    0  0.55010104329E+01  0.26950166902E+02 -0.28521938050E+02  0.39624153773E+02  0.51100000000E-03 0.  1.
        -11    1    3    3    0    0 -0.11101958544E+02 -0.67766468252E+01  0.11336592800E+02  0.17253833264E+02  0.51100000000E-03 0. -1.
        -12    1    3    3    0    0  0.10125270116E+02 -0.29206462388E+01  0.11480293436E+02  0.15583594153E+02  0.00000000000E+00 0.  1.
</event>
<event>
 7    1  0.1339094E-013  0.7246161E+02  0.7816164E-02  0.1226708E+00
        -11   -1    0    0    0    0  0.00000000000E+00  0.00000000000E+00  0.45593999997E+02  0.45594000000E+02  0.51100000000E-03 0.  1.
         11   -1    0    0    0    0 -0.00000000000E+00 -0.00000000000E+00 -0.45593999997E+02  0.45594000000E+02  0.51100000000E-03 0. -1.
    9900012    2    1    2    0    0 -0.25774255420E+01 -0.37343196744E+01  0.18168362030E+02  0.72461611007E+02  0.70000053036E+02 0.  0.
         12    1    1    2    0    0  0.25774255420E+01  0.37343196744E+01 -0.18168362030E+02  0.18726388993E+02  0.00000000000E+00 0. -1.
         11    1    3    3    0    0  0.94106918724E+01 -0.10837698595E+02  0.19556338737E+02  0.24258343254E+02  0.51100000000E-03 0.  1.
        -11    1    3    3    0    0 -0.27137497855E+02 -0.60560741686E+01 -0.35052937933E+01  0.28025112114E+02  0.51100000000E-03 0. -1.
        -12    1    3    3    0    0  0.15149380441E+02  0.13159453089E+02  0.21173170862E+01  0.20178155639E+02  0.00000000000E+00 0.  1.
</event>
<event>
 7    1  0.1339094E-013  0.7246156E+02  0.7816164E-02  0.1226708E+00
        -11   -1    0    0    0    0  0.00000000000E+00  0.00000000000E+00  0.45593999997E+02  0.45594000000E+02  0.51100000000E-03 0. -1.
         11   -1    0    0    0    0 -0.00000000000E+00 -0.00000000000E+00 -0.45593999997E+02  0.45594000000E+02  0.51100000000E-03 0.  1.
    9900012    2    1    2    0    0 -0.15048644022E+02 -0.10944124639E+02 -0.21080666261E+01  0.72461561579E+02  0.69999988647E+02 0.  0.
         12    1    1    2    0    0  0.15048644022E+02  0.10944124639E+02  0.21080666261E+01  0.18726438421E+02  0.00000000000E+00 0. -1.
         11    1    3    3    0    0  0.82747429186E+01  0.21703315539E+02  0.95229279272E+00  0.23246766175E+02  0.51100000000E-03 0. -1.
        -11    1    3    3    0    0  0.50624673865E+00 -0.23373199779E+02 -0.35063507409E+01  0.23640161789E+02  0.51100000000E-03 0.  1.
         12    1    3    3    0    0 -0.23829633679E+02 -0.92742403999E+01  0.44599132212E+00  0.25574633615E+02  0.00000000000E+00 0. -1.
</event>
<event>
 7    1  0.1339094E-013  0.7246153E+02  0.7816164E-02  0.1226708E+00
        -11   -1    0    0    0    0  0.00000000000E+00  0.00000000000E+00  0.45593999997E+02  0.45594000000E+02  0.51100000000E-03 0.  1.
         11   -1    0    0    0    0 -0.00000000000E+00 -0.00000000000E+00 -0.45593999997E+02  0.45594000000E+02  0.51100000000E-03 0. -1.
    9900012    2    1    2    0    0  0.88359072336E+01 -0.31303375331E+01  0.16211370536E+02  0.72461526644E+02  0.69999943137E+02 0.  0.
         12    1    1    2    0    0 -0.88359072336E+01  0.31303375331E+01 -0.16211370536E+02  0.18726473356E+02  0.00000000000E+00 0. -1.
         11    1    3    3    0    0  0.10041336411E+02 -0.15417266764E+02  0.84163833472E+01  0.20232549525E+02  0.51100000000E-03 0. -1.
        -11    1    3    3    0    0 -0.13506194834E+02  0.23031294750E+02  0.18694472624E+02  0.32593575190E+02  0.51100000000E-03 0.  1.
        -12    1    3    3    0    0  0.12300765657E+02 -0.10744365519E+02 -0.10899485435E+02  0.19635401928E+02  0.00000000000E+00 0.  1.
</event>
<event>
 7    1  0.1339094E-013  0.7246160E+02  0.7816164E-02  0.1226708E+00
        -11   -1    0    0    0    0  0.00000000000E+00  0.00000000000E+00  0.45593999997E+02  0.45594000000E+02  0.51100000000E-03 0.  1.
         11   -1    0    0    0    0 -0.00000000000E+00 -0.00000000000E+00 -0.45593999997E+02  0.45594000000E+02  0.51100000000E-03 0. -1.
    9900012    2    1    2    0    0 -0.14619003764E+02 -0.11461693642E+02  0.23648205537E+01  0.72461599693E+02  0.70000038297E+02 0.  0.
         12    1    1    2    0    0  0.14619003764E+02  0.11461693642E+02 -0.23648205537E+01  0.18726400307E+02  0.00000000000E+00 0. -1.
         11    1    3    3    0    0 -0.47806506073E+01  0.89372161304E+01 -0.19329193783E+02  0.21825356468E+02  0.51100000000E-03 0. -1.
        -11    1    3    3    0    0 -0.26885894492E+01 -0.30769174401E+02  0.77470325204E+01  0.31843164410E+02  0.51100000000E-03 0.  1.
        -12    1    3    3    0    0 -0.71497637078E+01  0.10370264628E+02  0.13946981817E+02  0.18793078815E+02  0.00000000000E+00 0.  1.
</event>
<event>
 7    1  0.1339094E-013  0.7246152E+02  0.7816164E-02  0.1226708E+00
        -11   -1    0    0    0    0  0.00000000000E+00  0.00000000000E+00  0.45593999997E+02  0.45594000000E+02  0.51100000000E-03 0. -1.
         11   -1    0    0    0    0 -0.00000000000E+00 -0.00000000000E+00 -0.45593999997E+02  0.45594000000E+02  0.51100000000E-03 0.  1.
    9900012    2    1    2    0    0 -0.15219142264E+02  0.54154680867E+01 -0.94726626630E+01  0.72461523455E+02  0.69999938983E+02 0.  0.
         12    1    1    2    0    0  0.15219142264E+02 -0.54154680867E+01  0.94726626630E+01  0.18726476545E+02  0.00000000000E+00 0. -1.
         11    1    3    3    0    0  0.17199702527E+02  0.11160933492E+02 -0.93376047877E+01  0.22529693004E+02  0.51100000000E-03 0. -1.
        -11    1    3    3    0    0 -0.22060121536E+02 -0.21677368832E+02 -0.88879116046E-01  0.30928387953E+02  0.51100000000E-03 0.  1.
        -12    1    3    3    0    0 -0.10358723256E+02  0.15931903427E+02 -0.46178759244E-01  0.19003442498E+02  0.00000000000E+00 0.  1.
</event>
<event>
 7    1  0.1339094E-013  0.7246160E+02  0.7816164E-02  0.1226708E+00
        -11   -1    0    0    0    0  0.00000000000E+00  0.00000000000E+00  0.45593999997E+02  0.45594000000E+02  0.51100000000E-03 0.  1.
         11   -1    0    0    0    0 -0.00000000000E+00 -0.00000000000E+00 -0.45593999997E+02  0.45594000000E+02  0.51100000000E-03 0. -1.
    9900012    2    1    2    0    0  0.12571354797E+02 -0.58580558994E+01  0.12582620857E+02  0.72461598104E+02  0.70000036227E+02 0.  0.
         12    1    1    2    0    0 -0.12571354797E+02  0.58580558994E+01 -0.12582620857E+02  0.18726401896E+02  0.00000000000E+00 0. -1.
         11    1    3    3    0    0 -0.15039042356E+02 -0.11061006302E+02 -0.12527877730E+01  0.18710642236E+02  0.51100000000E-03 0.  1.
        -11    1    3    3    0    0  0.33872512015E+02  0.13702334734E+02  0.24243497144E+00  0.36539838838E+02  0.51100000000E-03 0. -1.
         12    1    3    3    0    0 -0.62621148612E+01 -0.84993843317E+01  0.13592973658E+02  0.17211117030E+02  0.00000000000E+00 0. -1.
</event>
<event>
 7    1  0.1339094E-013  0.7246166E+02  0.7816164E-02  0.1226708E+00
        -11   -1    0    0    0    0  0.00000000000E+00  0.00000000000E+00  0.45593999997E+02  0.45594000000E+02  0.51100000000E-03 0.  1.
         11   -1    0    0    0    0 -0.00000000000E+00 -0.00000000000E+00 -0.45593999997E+02  0.45594000000E+02  0.51100000000E-03 0. -1.
    9900012    2    1    2    0    0 -0.89906173227E+01 -0.77836796644E+01  0.14465786626E+02  0.72461658882E+02  0.70000115402E+02 0.  0.
         12    1    1    2    0    0  0.89906173227E+01  0.77836796644E+01 -0.14465786626E+02  0.18726341118E+02  0.00000000000E+00 0. -1.
         11    1    3    3    0    0 -0.32000569673E+02  0.80620820636E+01  0.82003083209E+01  0.34004098039E+02  0.51100000000E-03 0. -1.
        -11    1    3    3    0    0  0.23036978228E+02 -0.10229803507E+02  0.14050930734E+02  0.28857926129E+02  0.51100000000E-03 0.  1.
         12    1    3    3    0    0 -0.27025877987E-01 -0.56159582208E+01 -0.77854524287E+01  0.95996347147E+01  0.00000000000E+00 0. -1.
</event>
<event>
 7    1  0.1339094E-013  0.7246176E+02  0.7816164E-02  0.1226708E+00
        -11   -1    0    0    0    0  0.00000000000E+00  0.00000000000E+00  0.45593999997E+02  0.45594000000E+02  0.51100000000E-03 0. -1.
         11   -1    0    0    0    0 -0.00000000000E+00 -0.00000000000E+00 -0.45593999997E+02  0.45594000000E+02  0.51100000000E-03 0.  1.
    9900012    2    1    2    0    0  0.10949812566E+02  0.14873929801E+02  0.30886811253E+01  0.72461758144E+02  0.70000244709E+02 0.  0.
         12    1    1    2    0    0 -0.10949812566E+02 -0.14873929801E+02 -0.30886811253E+01  0.18726241856E+02  0.00000000000E+00 0. -1.
         11    1    3    3    0    0 -0.79601671681E+01 -0.17331773126E+02  0.15449406781E+02  0.24544628561E+02  0.51100000000E-03 0. -1.
        -11    1    3    3    0    0  0.80409395122E+01  0.10484618057E+02 -0.18622932862E+02  0.22834131310E+02  0.51100000000E-03 0.  1.
         12    1    3    3    0    0  0.10869040222E+02  0.21721084870E+02  0.62622072058E+01  0.25082998273E+02  0.00000000000E+00 0. -1.
</event>
<event>
 7    1  0.1339094E-013  0.7246142E+02  0.7816164E-02  0.1226708E+00
        -11   -1    0    0    0    0  0.00000000000E+00  0.00000000000E+00  0.45593999997E+02  0.45594000000E+02  0.51100000000E-03 0.  1.
         11   -1    0    0    0    0 -0.00000000000E+00 -0.00000000000E+00 -0.45593999997E+02  0.45594000000E+02  0.51100000000E-03 0. -1.
    9900012    2    1    2    0    0 -0.18643902236E+02 -0.11088132868E+01 -0.13639035720E+01  0.72461420215E+02  0.69999804493E+02 0.  0.
         12    1    1    2    0    0  0.18643902236E+02  0.11088132868E+01  0.13639035720E+01  0.18726579785E+02  0.00000000000E+00 0. -1.
         11    1    3    3    0    0  0.15372523637E+02  0.56023824384E+00  0.72612343381E+01  0.17010404882E+02  0.51100000000E-03 0.  1.
        -11    1    3    3    0    0 -0.19252941733E+02 -0.60227326064E+01 -0.25563113562E+02  0.32564119037E+02  0.51100000000E-03 0. -1.
        -12    1    3    3    0    0 -0.14763484140E+02  0.43536810758E+01  0.16937975652E+02  0.22886896296E+02  0.00000000000E+00 0.  1.
</event>
<event>
 7    1  0.1339094E-013  0.7246155E+02  0.7816164E-02  0.1226708E+00
        -11   -1    0    0    0    0  0.00000000000E+00  0.00000000000E+00  0.45593999997E+02  0.45594000000E+02  0.51100000000E-03 0. -1.
         11   -1    0    0    0    0 -0.00000000000E+00 -0.00000000000E+00 -0.45593999997E+02  0.45594000000E+02  0.51100000000E-03 0.  1.
    9900012    2    1    2    0    0 -0.13978203237E+02  0.11506374873E+02 -0.47846787797E+01  0.72461548668E+02  0.69999971827E+02 0.  0.
         12    1    1    2    0    0  0.13978203237E+02 -0.11506374873E+02  0.47846787797E+01  0.18726451332E+02  0.00000000000E+00 0. -1.
         11    1    3    3    0    0  0.47878980380E+01  0.31223896927E+02  0.89463191984E+01  0.32831270679E+02  0.51100000000E-03 0. -1.
        -11    1    3    3    0    0 -0.30616825766E+01 -0.21128707040E+02 -0.67967244938E+01  0.22405169615E+02  0.51100000000E-03 0.  1.
        -12    1    3    3    0    0 -0.15704418699E+02  0.14111849856E+01 -0.69342734843E+01  0.17225108374E+02  0.00000000000E+00 0.  1.
</event>
<event>
 7    1  0.1339094E-013  0.7246159E+02  0.7816164E-02  0.1226708E+00
        -11   -1    0    0    0    0  0.00000000000E+00  0.00000000000E+00  0.45593999997E+02  0.45594000000E+02  0.51100000000E-03 0.  1.
         11   -1    0    0    0    0 -0.00000000000E+00 -0.00000000000E+00 -0.45593999997E+02  0.45594000000E+02  0.51100000000E-03 0. -1.
    9900012    2    1    2    0    0 -0.15444250866E+02  0.26602455670E+01 -0.10250689095E+02  0.72461590355E+02  0.70000026132E+02 0.  0.
         12    1    1    2    0    0  0.15444250866E+02 -0.26602455670E+01  0.10250689095E+02  0.18726409645E+02  0.00000000000E+00 0. -1.
         11    1    3    3    0    0  0.12648479078E+02  0.16612066086E+00 -0.24070385433E+02  0.27191819988E+02  0.51100000000E-03 0. -1.
        -11    1    3    3    0    0 -0.24019403116E+02  0.13354745998E+02  0.33738701517E+00  0.27484446456E+02  0.51100000000E-03 0.  1.
         12    1    3    3    0    0 -0.40733268282E+01 -0.10860621092E+02  0.13482309323E+02  0.17785323912E+02  0.00000000000E+00 0. -1.
</event>
<event>
 7    1  0.1339094E-013  0.7246157E+02  0.7816164E-02  0.1226708E+00
        -11   -1    0    0    0    0  0.00000000000E+00  0.00000000000E+00  0.45593999997E+02  0.45594000000E+02  0.51100000000E-03 0.  1.
         11   -1    0    0    0    0 -0.00000000000E+00 -0.00000000000E+00 -0.45593999997E+02  0.45594000000E+02  0.51100000000E-03 0. -1.
    9900012    2    1    2    0    0  0.78928025710E+01 -0.14144596625E+02  0.93975139495E+01  0.72461569092E+02  0.69999998434E+02 0.  0.
         12    1    1    2    0    0 -0.78928025710E+01  0.14144596625E+02 -0.93975139495E+01  0.18726430908E+02  0.00000000000E+00 0. -1.
         11    1    3    3    0    0 -0.18601031682E+02 -0.18253672071E+02 -0.85468152309E+01  0.27427048229E+02  0.51100000000E-03 0. -1.
        -11    1    3    3    0    0  0.24967394816E+02 -0.10014295455E+02  0.13815127669E+02  0.30240943606E+02  0.51100000000E-03 0.  1.
         12    1    3    3    0    0  0.15264394366E+01  0.14123370901E+02  0.41292015111E+01  0.14793577258E+02  0.00000000000E+00 0. -1.
</event>
<event>
 7    1  0.1339094E-013  0.7246166E+02  0.7816164E-02  0.1226708E+00
        -11   -1    0    0    0    0  0.00000000000E+00  0.00000000000E+00  0.45593999997E+02  0.45594000000E+02  0.51100000000E-03 0.  1.
         11   -1    0    0    0    0 -0.00000000000E+00 -0.00000000000E+00 -0.45593999997E+02  0.45594000000E+02  0.51100000000E-03 0. -1.
    9900012    2    1    2    0    0  0.42049404884E+00  0.13979691167E+02  0.12452594691E+02  0.72461663068E+02  0.70000120854E+02 0.  0.
         12    1    1    2    0    0 -0.42049404884E+00 -0.13979691167E+02 -0.12452594691E+02  0.18726336932E+02  0.00000000000E+00 0. -1.
         11    1    3    3    0    0  0.46588001291E+01  0.23831174349E+02 -0.12396117361E+02  0.27263400657E+02  0.51100000000E-03 0. -1.
        -11    1    3    3    0    0 -0.12793099277E+02  0.63885797510E+00  0.28441904934E+02  0.31193164078E+02  0.51100000000E-03 0.  1.
         12    1    3    3    0    0  0.85547931968E+01 -0.10490341157E+02 -0.35931928822E+01  0.14005098333E+02  0.00000000000E+00 0. -1.
</event>
<event>
 7    1  0.1339094E-013  0.7246170E+02  0.7816164E-02  0.1226708E+00
        -11   -1    0    0    0    0  0.00000000000E+00  0.00000000000E+00  0.45593999997E+02  0.45594000000E+02  0.51100000000E-03 0.  1.
         11   -1    0    0    0    0 -0.00000000000E+00 -0.00000000000E+00 -0.45593999997E+02  0.45594000000E+02  0.51100000000E-03 0. -1.
    9900012    2    1    2    0    0  0.40664372991E+01  0.31464190755E+01  0.18006619214E+02  0.72461702960E+02  0.70000172822E+02 0.  0.
         12    1    1    2    0    0 -0.40664372991E+01 -0.31464190755E+01 -0.18006619214E+02  0.18726297040E+02  0.00000000000E+00 0. -1.
         11    1    3    3    0    0  0.18573291256E+02 -0.10351778938E+02 -0.14869977200E+02  0.25946920770E+02  0.51100000000E-03 0. -1.
        -11    1    3    3    0    0 -0.16758476434E+02  0.68377535351E+01  0.65227610007E+01  0.19239226001E+02  0.51100000000E-03 0.  1.
        -12    1    3    3    0    0  0.22516224774E+01  0.66604444783E+01  0.26353835413E+02  0.27275556189E+02  0.00000000000E+00 0.  1.
</event>
<event>
 8    1  0.1339094E-013  0.7246157E+02  0.7816164E-02  0.1226708E+00
        -11   -1    0    0    0    0  0.00000000000E+00  0.00000000000E+00  0.45593999997E+02  0.45594000000E+02  0.51100000000E-03 0.  1.
         11   -1    0    0    0    0 -0.00000000000E+00 -0.00000000000E+00 -0.45593999997E+02  0.45594000000E+02  0.51100000000E-03 0. -1.
    9900012    2    1    2    0    0 -0.10124534883E+02  0.32785736442E+01  0.15408568401E+02  0.72461568629E+02  0.69999997831E+02 0.  0.
        -24    2    3    3    0    0 -0.16873363770E+02 -0.29108243287E+01  0.11470089848E+01  0.55513193608E+02  0.52794088038E+02 0.  0.
         12    1    1    2    0    0  0.10124534883E+02 -0.32785736442E+01 -0.15408568401E+02  0.18726431371E+02  0.00000000000E+00 0. -1.
         11    1    4    4    0    0 -0.27072085265E+02 -0.21291147185E+02  0.17305853676E+01  0.34484861534E+02  0.51100000000E-03 0. -1.
        -11    1    3    3    0    0  0.67488288878E+01  0.61893979730E+01  0.14261559416E+02  0.16948375021E+02  0.51100000000E-03 0.  1.
        -12    1    4    4    0    0  0.10198721495E+02  0.18380322856E+02 -0.58357638276E+00  0.21028332074E+02  0.00000000000E+00 0.  1.
</event>
<event>
 8    1  0.1339094E-013  0.7246161E+02  0.7816164E-02  0.1226708E+00
        -11   -1    0    0    0    0  0.00000000000E+00  0.00000000000E+00  0.45593999997E+02  0.45594000000E+02  0.51100000000E-03 0. -1.
         11   -1    0    0    0    0 -0.00000000000E+00 -0.00000000000E+00 -0.45593999997E+02  0.45594000000E+02  0.51100000000E-03 0.  1.
    9900012    2    1    2    0    0 -0.39917867903E+01  0.13226465741E+02 -0.12641358903E+02  0.72461609192E+02  0.70000050672E+02 0.  0.
        -24    2    3    3    0    0 -0.53769567788E+00  0.23814822938E+02  0.13294478259E+01  0.54594670605E+02  0.49105760545E+02 0.  0.
         12    1    1    2    0    0  0.39917867903E+01 -0.13226465741E+02  0.12641358903E+02  0.18726390808E+02  0.00000000000E+00 0. -1.
         11    1    4    4    0    0 -0.15410058093E+02  0.31124697721E+02  0.96570442863E+01  0.36048234399E+02  0.51100000000E-03 0. -1.
        -11    1    3    3    0    0 -0.34540911124E+01 -0.10588357198E+02 -0.13970806729E+02  0.17866938587E+02  0.51100000000E-03 0.  1.
        -12    1    4    4    0    0  0.14872362415E+02 -0.73098747829E+01 -0.83275964604E+01  0.18546436206E+02  0.00000000000E+00 0.  1.
</event>
<event>
 7    1  0.1339094E-013  0.7246153E+02  0.7816164E-02  0.1226708E+00
        -11   -1    0    0    0    0  0.00000000000E+00  0.00000000000E+00  0.45593999997E+02  0.45594000000E+02  0.51100000000E-03 0.  1.
         11   -1    0    0    0    0 -0.00000000000E+00 -0.00000000000E+00 -0.45593999997E+02  0.45594000000E+02  0.51100000000E-03 0. -1.
    9900012    2    1    2    0    0 -0.73813971389E+01 -0.12918901543E+02  0.11370919853E+02  0.72461525182E+02  0.69999941233E+02 0.  0.
         12    1    1    2    0    0  0.73813971389E+01  0.12918901543E+02 -0.11370919853E+02  0.18726474818E+02  0.00000000000E+00 0. -1.
         11    1    3    3    0    0 -0.25421729199E+01 -0.10948592507E+02  0.20098077333E+02  0.23027527739E+02  0.51100000000E-03 0.  1.
        -11    1    3    3    0    0  0.11591071019E+02  0.12004987942E+02 -0.19214765587E+02  0.25449555589E+02  0.51100000000E-03 0. -1.
        -12    1    3    3    0    0 -0.16430295238E+02 -0.13975296978E+02  0.10487608108E+02  0.23984441854E+02  0.00000000000E+00 0.  1.
</event>
<event>
 7    1  0.1339094E-013  0.7246158E+02  0.7816164E-02  0.1226708E+00
        -11   -1    0    0    0    0  0.00000000000E+00  0.00000000000E+00  0.45593999997E+02  0.45594000000E+02  0.51100000000E-03 0.  1.
         11   -1    0    0    0    0 -0.00000000000E+00 -0.00000000000E+00 -0.45593999997E+02  0.45594000000E+02  0.51100000000E-03 0. -1.
    9900012    2    1    2    0    0  0.78745097377E+01  0.17498378559E+01  0.16899966871E+02  0.72461582393E+02  0.70000015761E+02 0.  0.
         12    1    1    2    0    0 -0.78745097377E+01 -0.17498378559E+01 -0.16899966871E+02  0.18726417607E+02  0.00000000000E+00 0. -1.
         11    1    3    3    0    0  0.35131548083E+01  0.19058788664E+02  0.35234955984E+01  0.19697581159E+02  0.51100000000E-03 0. -1.
        -11    1    3    3    0    0  0.81244964470E+01 -0.15069282322E+02 -0.15778483519E+02  0.23281994215E+02  0.51100000000E-03 0.  1.
        -12    1    3    3    0    0 -0.37631415176E+01 -0.22396684864E+01  0.29154954791E+02  0.29482007019E+02  0.00000000000E+00 0.  1.
</event>
<event>
 7    1  0.1339094E-013  0.7246159E+02  0.7816164E-02  0.1226708E+00
        -11   -1    0    0    0    0  0.00000000000E+00  0.00000000000E+00  0.45593999997E+02  0.45594000000E+02  0.51100000000E-03 0.  1.
         11   -1    0    0    0    0 -0.00000000000E+00 -0.00000000000E+00 -0.45593999997E+02  0.45594000000E+02  0.51100000000E-03 0. -1.
    9900012    2    1    2    0    0 -0.10415121507E+02 -0.10281599589E+02  0.11683000273E+02  0.72461587063E+02  0.70000021844E+02 0.  0.
         12    1    1    2    0    0  0.10415121507E+02  0.10281599589E+02 -0.11683000273E+02  0.18726412937E+02  0.00000000000E+00 0. -1.
         11    1    3    3    0    0  0.18259598756E+02 -0.53334053162E+01 -0.14292728658E+00  0.19023106673E+02  0.51100000000E-03 0. -1.
        -11    1    3    3    0    0 -0.19713182811E+02 -0.11942318736E+02 -0.12764973840E+02  0.26347165136E+02  0.51100000000E-03 0.  1.
        -12    1    3    3    0    0 -0.89615374532E+01  0.69941244636E+01  0.24590901399E+02  0.27091315254E+02  0.00000000000E+00 0.  1.
</event>
<event>
 7    1  0.1339094E-013  0.7246157E+02  0.7816164E-02  0.1226708E+00
        -11   -1    0    0    0    0  0.00000000000E+00  0.00000000000E+00  0.45593999997E+02  0.45594000000E+02  0.51100000000E-03 0. -1.
         11   -1    0    0    0    0 -0.00000000000E+00 -0.00000000000E+00 -0.45593999997E+02  0.45594000000E+02  0.51100000000E-03 0.  1.
    9900012    2    1    2    0    0  0.10369147219E+02  0.13490506711E+02 -0.78208741574E+01  0.72461573273E+02  0.70000003880E+02 0.  0.
         12    1    1    2    0    0 -0.10369147219E+02 -0.13490506711E+02  0.78208741574E+01  0.18726426727E+02  0.00000000000E+00 0. -1.
         11    1    3    3    0    0 -0.76605334622E+00 -0.17333130329E+02 -0.24758508139E+02  0.30232564732E+02  0.51100000000E-03 0. -1.
        -11    1    3    3    0    0  0.13515671867E+02  0.16028730948E+02  0.19857914940E+01  0.21060317423E+02  0.51100000000E-03 0.  1.
         12    1    3    3    0    0 -0.23804713021E+01  0.14794906092E+02  0.14951842488E+02  0.21168691119E+02  0.00000000000E+00 0. -1.
</event>
<event>
 7    1  0.1339094E-013  0.7246152E+02  0.7816164E-02  0.1226708E+00
        -11   -1    0    0    0    0  0.00000000000E+00  0.00000000000E+00  0.45593999997E+02  0.45594000000E+02  0.51100000000E-03 0.  1.
         11   -1    0    0    0    0 -0.00000000000E+00 -0.00000000000E+00 -0.45593999997E+02  0.45594000000E+02  0.51100000000E-03 0. -1.
    9900012    2    1    2    0    0 -0.18225017111E+02 -0.33555792004E+01 -0.26962975330E+01  0.72461516592E+02  0.69999930042E+02 0.  0.
         12    1    1    2    0    0  0.18225017111E+02  0.33555792004E+01  0.26962975330E+01  0.18726483408E+02  0.00000000000E+00 0. -1.
         11    1    3    3    0    0 -0.37069723868E+01 -0.15083351870E+02  0.21546490896E+02  0.26561257841E+02  0.51100000000E-03 0. -1.
        -11    1    3    3    0    0 -0.23432016009E+02 -0.37552585220E+00 -0.11089723042E+02  0.25926479732E+02  0.51100000000E-03 0.  1.
         12    1    3    3    0    0  0.89139712848E+01  0.12103298522E+02 -0.13153065387E+02  0.19973779018E+02  0.00000000000E+00 0. -1.
</event>
<event>
 7    1  0.1339094E-013  0.7246169E+02  0.7816164E-02  0.1226708E+00
        -11   -1    0    0    0    0  0.00000000000E+00  0.00000000000E+00  0.45593999997E+02  0.45594000000E+02  0.51100000000E-03 0. -1.
         11   -1    0    0    0    0 -0.00000000000E+00 -0.00000000000E+00 -0.45593999997E+02  0.45594000000E+02  0.51100000000E-03 0.  1.
    9900012    2    1    2    0    0  0.28291661243E+01  0.80899395038E+01 -0.16650024367E+02  0.72461691940E+02  0.70000158466E+02 0.  0.
         12    1    1    2    0    0 -0.28291661243E+01 -0.80899395038E+01  0.16650024367E+02  0.18726308060E+02  0.00000000000E+00 0. -1.
         11    1    3    3    0    0 -0.22872901787E+02  0.12243925129E+02 -0.41578899456E+01  0.26274919368E+02  0.51100000000E-03 0. -1.
        -11    1    3    3    0    0  0.12945952717E+02  0.12785886441E+02 -0.16550094636E+02  0.24596386249E+02  0.51100000000E-03 0.  1.
         12    1    3    3    0    0  0.12756115195E+02 -0.16939872066E+02  0.40579602146E+01  0.21590386323E+02  0.00000000000E+00 0. -1.
</event>
<event>
 7    1  0.1339094E-013  0.7246156E+02  0.7816164E-02  0.1226708E+00
        -11   -1    0    0    0    0  0.00000000000E+00  0.00000000000E+00  0.45593999997E+02  0.45594000000E+02  0.51100000000E-03 0.  1.
         11   -1    0    0    0    0 -0.00000000000E+00 -0.00000000000E+00 -0.45593999997E+02  0.45594000000E+02  0.51100000000E-03 0. -1.
    9900012    2    1    2    0    0  0.86496874189E+01  0.16569747687E+02  0.11427931421E+01  0.72461558613E+02  0.69999984783E+02 0.  0.
         12    1    1    2    0    0 -0.86496874189E+01 -0.16569747687E+02 -0.11427931421E+01  0.18726441387E+02  0.00000000000E+00 0. -1.
         11    1    3    3    0    0  0.16083872410E+02  0.12031973163E+02  0.22415563715E+02  0.30098452233E+02  0.51100000000E-03 0. -1.
        -11    1    3    3    0    0 -0.19300126273E+02 -0.57128596495E+01 -0.16339018550E+02  0.25924798302E+02  0.51100000000E-03 0.  1.
        -12    1    3    3    0    0  0.11865941282E+02  0.10250634174E+02 -0.49337520225E+01  0.16438308079E+02  0.00000000000E+00 0.  1.
</event>
<event>
 7    1  0.1339094E-013  0.7246177E+02  0.7816164E-02  0.1226707E+00
        -11   -1    0    0    0    0  0.00000000000E+00  0.00000000000E+00  0.45593999997E+02  0.45594000000E+02  0.51100000000E-03 0. -1.
         11   -1    0    0    0    0 -0.00000000000E+00 -0.00000000000E+00 -0.45593999997E+02  0.45594000000E+02  0.51100000000E-03 0.  1.
    9900012    2    1    2    0    0  0.14924790759E+02 -0.82733553158E+01 -0.77119343361E+01  0.72461769237E+02  0.70000259159E+02 0.  0.
         12    1    1    2    0    0 -0.14924790759E+02  0.82733553158E+01  0.77119343361E+01  0.18726230763E+02  0.00000000000E+00 0. -1.
         11    1    3    3    0    0  0.18811784194E+02 -0.25173471184E+02  0.33329867971E+01  0.31602146719E+02  0.51100000000E-03 0. -1.
        -11    1    3    3    0    0 -0.12947456818E+02  0.23105398780E+02 -0.13317214341E+02  0.29645308042E+02  0.51100000000E-03 0.  1.
        -12    1    3    3    0    0  0.90604633830E+01 -0.62052829117E+01  0.22722932082E+01  0.11214314475E+02  0.00000000000E+00 0.  1.
</event>
<event>
 7    1  0.1339094E-013  0.7246092E+02  0.7816164E-02  0.1226710E+00
        -11   -1    0    0    0    0  0.00000000000E+00  0.00000000000E+00  0.45593999997E+02  0.45594000000E+02  0.51100000000E-03 0. -1.
         11   -1    0    0    0    0 -0.00000000000E+00 -0.00000000000E+00 -0.45593999997E+02  0.45594000000E+02  0.51100000000E-03 0.  1.
    9900012    2    1    2    0    0  0.14682952823E+02  0.45278066481E+01  0.10705767981E+02  0.72460917881E+02  0.69999150105E+02 0.  0.
         12    1    1    2    0    0 -0.14682952823E+02 -0.45278066481E+01 -0.10705767981E+02  0.18727082119E+02  0.00000000000E+00 0. -1.
         11    1    3    3    0    0  0.77042750360E+01 -0.16066786833E+02  0.43191925896E+01  0.18334473482E+02  0.51100000000E-03 0. -1.
        -11    1    3    3    0    0 -0.99802385768E+01  0.20599826444E+02  0.21504748997E+02  0.31407200468E+02  0.51100000000E-03 0.  1.
        -12    1    3    3    0    0  0.16958916364E+02 -0.52329626751E-02 -0.15118173606E+02  0.22719243931E+02  0.00000000000E+00 0.  1.
</event>
<event>
 7    1  0.1339094E-013  0.7246156E+02  0.7816164E-02  0.1226708E+00
        -11   -1    0    0    0    0  0.00000000000E+00  0.00000000000E+00  0.45593999997E+02  0.45594000000E+02  0.51100000000E-03 0.  1.
         11   -1    0    0    0    0 -0.00000000000E+00 -0.00000000000E+00 -0.45593999997E+02  0.45594000000E+02  0.51100000000E-03 0. -1.
    9900012    2    1    2    0    0 -0.24718200636E+01  0.81767641076E+01  0.16664640260E+02  0.72461558782E+02  0.69999985003E+02 0.  0.
         12    1    1    2    0    0  0.24718200636E+01 -0.81767641076E+01 -0.16664640260E+02  0.18726441218E+02  0.00000000000E+00 0. -1.
         11    1    3    3    0    0  0.14797136931E+02  0.32560895975E+01 -0.29313943658E+01  0.15432124093E+02  0.51100000000E-03 0. -1.
        -11    1    3    3    0    0 -0.19463951061E+02  0.84634714697E+01  0.35076370712E+02  0.40997896566E+02  0.51100000000E-03 0.  1.
        -12    1    3    3    0    0  0.21949940665E+01 -0.35427969597E+01 -0.15480336087E+02  0.16031538123E+02  0.00000000000E+00 0.  1.
</event>
<event>
 7    1  0.1867315E-013  0.7246148E+02  0.7816164E-02  0.1226708E+00
        -11   -1    0    0    0    0  0.00000000000E+00  0.00000000000E+00  0.45593999997E+02  0.45594000000E+02  0.51100000000E-03 0. -1.
         11   -1    0    0    0    0 -0.00000000000E+00 -0.00000000000E+00 -0.45593999997E+02  0.45594000000E+02  0.51100000000E-03 0.  1.
    9900012    2    1    2    0    0  0.43499408607E+01  0.34432101308E+01 -0.17885879556E+02  0.72461484868E+02  0.69999888716E+02 0.  0.
         12    1    1    2    0    0 -0.43499408607E+01 -0.34432101308E+01  0.17885879556E+02  0.18726515132E+02  0.00000000000E+00 0. -1.
         11    1    3    3    0    0  0.84791604023E+01 -0.10758789718E+02  0.15491629382E+02  0.20679417267E+02  0.51100000000E-03 0. -1.
        -11    1    3    3    0    0 -0.20506351406E+02  0.91108700645E+01 -0.18897892511E+02  0.29336815487E+02  0.51100000000E-03 0.  1.
        -12    1    3    3    0    0  0.16377131864E+02  0.50911297838E+01 -0.14479616428E+02  0.22445252114E+02  0.00000000000E+00 0.  1.
</event>
<event>
 7    1  0.1339094E-013  0.7246154E+02  0.7816164E-02  0.1226708E+00
        -11   -1    0    0    0    0  0.00000000000E+00  0.00000000000E+00  0.45593999997E+02  0.45594000000E+02  0.51100000000E-03 0.  1.
         11   -1    0    0    0    0 -0.00000000000E+00 -0.00000000000E+00 -0.45593999997E+02  0.45594000000E+02  0.51100000000E-03 0. -1.
    9900012    2    1    2    0    0 -0.16553384030E+02 -0.40871087128E+01  0.77434724335E+01  0.72461538888E+02  0.69999959087E+02 0.  0.
         12    1    1    2    0    0  0.16553384030E+02  0.40871087128E+01 -0.77434724335E+01  0.18726461112E+02  0.00000000000E+00 0. -1.
         11    1    3    3    0    0 -0.25738012532E+02  0.22810131004E+02 -0.10419987570E+02  0.35934990006E+02  0.51100000000E-03 0. -1.
        -11    1    3    3    0    0  0.29843259883E+01 -0.11462593400E+02  0.15768376726E+02  0.19721535282E+02  0.51100000000E-03 0.  1.
         12    1    3    3    0    0  0.62003025138E+01 -0.15434646316E+02  0.23950832778E+01  0.16805013600E+02  0.00000000000E+00 0. -1.
</event>
<event>
 7    1  0.1339094E-013  0.7246157E+02  0.7816164E-02  0.1226708E+00
        -11   -1    0    0    0    0  0.00000000000E+00  0.00000000000E+00  0.45593999997E+02  0.45594000000E+02  0.51100000000E-03 0. -1.
         11   -1    0    0    0    0 -0.00000000000E+00 -0.00000000000E+00 -0.45593999997E+02  0.45594000000E+02  0.51100000000E-03 0.  1.
    9900012    2    1    2    0    0 -0.16149785622E+02  0.70289553460E+01 -0.63606070513E+01  0.72461571858E+02  0.70000002037E+02 0.  0.
         12    1    1    2    0    0  0.16149785622E+02 -0.70289553460E+01  0.63606070513E+01  0.18726428142E+02  0.00000000000E+00 0. -1.
         11    1    3    3    0    0 -0.25677139135E+02  0.12318463134E+02 -0.22135658589E+02  0.36070034510E+02  0.51100000000E-03 0.  1.
        -11    1    3    3    0    0  0.96099208640E+01  0.10132806035E+02 -0.49447661581E+00  0.13973862907E+02  0.51100000000E-03 0. -1.
         12    1    3    3    0    0 -0.82567351121E-01 -0.15422313823E+02  0.16269528153E+02  0.22417674441E+02  0.00000000000E+00 0. -1.
</event>
<event>
 7    1  0.1339094E-013  0.7246161E+02  0.7816164E-02  0.1226708E+00
        -11   -1    0    0    0    0  0.00000000000E+00  0.00000000000E+00  0.45593999997E+02  0.45594000000E+02  0.51100000000E-03 0.  1.
         11   -1    0    0    0    0 -0.00000000000E+00 -0.00000000000E+00 -0.45593999997E+02  0.45594000000E+02  0.51100000000E-03 0. -1.
    9900012    2    1    2    0    0 -0.10779143325E+02  0.14891574170E+02  0.35677180161E+01  0.72461614232E+02  0.70000057237E+02 0.  0.
         12    1    1    2    0    0  0.10779143325E+02 -0.14891574170E+02 -0.35677180161E+01  0.18726385768E+02  0.00000000000E+00 0. -1.
         11    1    3    3    0    0 -0.22524982933E+02 -0.19927464807E+02 -0.30947101713E+01  0.30233358085E+02  0.51100000000E-03 0. -1.
        -11    1    3    3    0    0  0.15500068457E+02  0.18571599698E+02  0.80519987116E+01  0.25494923436E+02  0.51100000000E-03 0.  1.
        -12    1    3    3    0    0 -0.37542288489E+01  0.16247439279E+02 -0.13895705242E+01  0.16733332711E+02  0.00000000000E+00 0.  1.
</event>
<event>
 7    1  0.1339094E-013  0.7246157E+02  0.7816164E-02  0.1226708E+00
        -11   -1    0    0    0    0  0.00000000000E+00  0.00000000000E+00  0.45593999997E+02  0.45594000000E+02  0.51100000000E-03 0. -1.
         11   -1    0    0    0    0 -0.00000000000E+00 -0.00000000000E+00 -0.45593999997E+02  0.45594000000E+02  0.51100000000E-03 0.  1.
    9900012    2    1    2    0    0  0.17834314345E+02  0.12627239689E+01  0.55697336290E+01  0.72461570210E+02  0.69999999890E+02 0.  0.
         12    1    1    2    0    0 -0.17834314345E+02 -0.12627239689E+01 -0.55697336290E+01  0.18726429790E+02  0.00000000000E+00 0. -1.
         11    1    3    3    0    0  0.44433833179E+00  0.26244535622E+01  0.39287585198E+01  0.47455596953E+01  0.51100000000E-03 0. -1.
        -11    1    3    3    0    0  0.32931262833E+02  0.18338841094E+02 -0.11476264059E+02  0.39401596433E+02  0.51100000000E-03 0.  1.
        -12    1    3    3    0    0 -0.15541286820E+02 -0.19700570687E+02  0.13117239168E+02  0.28314414082E+02  0.00000000000E+00 0.  1.
</event>
<event>
 7    1  0.1339094E-013  0.7246155E+02  0.7816164E-02  0.1226708E+00
        -11   -1    0    0    0    0  0.00000000000E+00  0.00000000000E+00  0.45593999997E+02  0.45594000000E+02  0.51100000000E-03 0.  1.
         11   -1    0    0    0    0 -0.00000000000E+00 -0.00000000000E+00 -0.45593999997E+02  0.45594000000E+02  0.51100000000E-03 0. -1.
    9900012    2    1    2    0    0  0.47395286723E+01  0.20869269323E+01  0.17996156342E+02  0.72461547075E+02  0.69999969753E+02 0.  0.
         12    1    1    2    0    0 -0.47395286723E+01 -0.20869269323E+01 -0.17996156342E+02  0.18726452925E+02  0.00000000000E+00 0. -1.
         11    1    3    3    0    0 -0.70862973651E+01  0.14970694432E+02 -0.17612567517E+02  0.24177258673E+02  0.51100000000E-03 0. -1.
        -11    1    3    3    0    0 -0.10373568393E+01 -0.14129222261E+02  0.49398405511E+01  0.15003768055E+02  0.51100000000E-03 0.  1.
         12    1    3    3    0    0  0.12863182877E+02  0.12454547611E+01  0.30668883307E+02  0.33280520348E+02  0.00000000000E+00 0. -1.
</event>
<event>
 7    1  0.1339094E-013  0.7246151E+02  0.7816164E-02  0.1226708E+00
        -11   -1    0    0    0    0  0.00000000000E+00  0.00000000000E+00  0.45593999997E+02  0.45594000000E+02  0.51100000000E-03 0.  1.
         11   -1    0    0    0    0 -0.00000000000E+00 -0.00000000000E+00 -0.45593999997E+02  0.45594000000E+02  0.51100000000E-03 0. -1.
    9900012    2    1    2    0    0 -0.10117644346E+02  0.13417153017E+02 -0.82640571885E+01  0.72461511717E+02  0.69999923692E+02 0.  0.
         12    1    1    2    0    0  0.10117644346E+02 -0.13417153017E+02  0.82640571885E+01  0.18726488283E+02  0.00000000000E+00 0. -1.
         11    1    3    3    0    0  0.52558951430E+01  0.12171479777E+01 -0.19026820943E+02  0.19776900627E+02  0.51100000000E-03 0. -1.
        -11    1    3    3    0    0 -0.12025357610E+02  0.21465862929E+01  0.29069821308E+02  0.31532072077E+02  0.51100000000E-03 0.  1.
         12    1    3    3    0    0 -0.33481818799E+01  0.10053418747E+02 -0.18307057554E+02  0.21152539012E+02  0.00000000000E+00 0. -1.
</event>
<event>
 7    1  0.1339094E-013  0.7246161E+02  0.7816164E-02  0.1226708E+00
        -11   -1    0    0    0    0  0.00000000000E+00  0.00000000000E+00  0.45593999997E+02  0.45594000000E+02  0.51100000000E-03 0. -1.
         11   -1    0    0    0    0 -0.00000000000E+00 -0.00000000000E+00 -0.45593999997E+02  0.45594000000E+02  0.51100000000E-03 0.  1.
    9900012    2    1    2    0    0 -0.12647046215E+02 -0.44638462816E+01 -0.13069196455E+02  0.72461612266E+02  0.70000054676E+02 0.  0.
         12    1    1    2    0    0  0.12647046215E+02  0.44638462816E+01  0.13069196455E+02  0.18726387734E+02  0.00000000000E+00 0. -1.
         11    1    3    3    0    0  0.12673982148E+02  0.93838007317E+01 -0.84528399767E+01  0.17892345950E+02  0.51100000000E-03 0. -1.
        -11    1    3    3    0    0 -0.35382854677E+02  0.11381929215E+01 -0.77742775644E+01  0.36244741413E+02  0.51100000000E-03 0.  1.
        -12    1    3    3    0    0  0.10061826314E+02 -0.14985839935E+02  0.31579210862E+01  0.18324524903E+02  0.00000000000E+00 0.  1.
</event>
<event>
 7    1  0.1339094E-013  0.7246160E+02  0.7816164E-02  0.1226708E+00
        -11   -1    0    0    0    0  0.00000000000E+00  0.00000000000E+00  0.45593999997E+02  0.45594000000E+02  0.51100000000E-03 0.  1.
         11   -1    0    0    0    0 -0.00000000000E+00 -0.00000000000E+00 -0.45593999997E+02  0.45594000000E+02  0.51100000000E-03 0. -1.
    9900012    2    1    2    0    0  0.10128219887E+02  0.14899048662E+02  0.51103375387E+01  0.72461600483E+02  0.70000039327E+02 0.  0.
         12    1    1    2    0    0 -0.10128219887E+02 -0.14899048662E+02 -0.51103375387E+01  0.18726399517E+02  0.00000000000E+00 0. -1.
         11    1    3    3    0    0 -0.26355342018E+02  0.68017319539E+01 -0.12724923112E+02  0.30046485301E+02  0.51100000000E-03 0. -1.
        -11    1    3    3    0    0  0.28421534809E+02  0.95168777757E+01  0.16188861920E+02  0.34065141333E+02  0.51100000000E-03 0.  1.
         12    1    3    3    0    0  0.80620270958E+01 -0.14195610680E+01  0.16463987301E+01  0.83499738501E+01  0.00000000000E+00 0. -1.
</event>
<event>
 7    1  0.1339094E-013  0.7246158E+02  0.7816164E-02  0.1226708E+00
        -11   -1    0    0    0    0  0.00000000000E+00  0.00000000000E+00  0.45593999997E+02  0.45594000000E+02  0.51100000000E-03 0. -1.
         11   -1    0    0    0    0 -0.00000000000E+00 -0.00000000000E+00 -0.45593999997E+02  0.45594000000E+02  0.51100000000E-03 0.  1.
    9900012    2    1    2    0    0  0.43948248872E+01 -0.97082556227E+01 -0.15398507030E+02  0.72461581982E+02  0.70000015225E+02 0.  0.
         12    1    1    2    0    0 -0.43948248872E+01  0.97082556227E+01  0.15398507030E+02  0.18726418018E+02  0.00000000000E+00 0. -1.
         11    1    3    3    0    0 -0.16631315670E+02 -0.37617668233E+01 -0.98691830110E+01  0.19701581767E+02  0.51100000000E-03 0. -1.
        -11    1    3    3    0    0  0.28035420474E+02 -0.56044772889E+01  0.14125998873E+02  0.31889478065E+02  0.51100000000E-03 0.  1.
         12    1    3    3    0    0 -0.70092799165E+01 -0.34201151050E+00 -0.19655322892E+02  0.20870522150E+02  0.00000000000E+00 0. -1.
</event>
<event>
 7    1  0.1339094E-013  0.7246158E+02  0.7816164E-02  0.1226708E+00
        -11   -1    0    0    0    0  0.00000000000E+00  0.00000000000E+00  0.45593999997E+02  0.45594000000E+02  0.51100000000E-03 0. -1.
         11   -1    0    0    0    0 -0.00000000000E+00 -0.00000000000E+00 -0.45593999997E+02  0.45594000000E+02  0.51100000000E-03 0.  1.
    9900012    2    1    2    0    0  0.16685274868E+02 -0.13006602159E+01 -0.84017030864E+01  0.72461582052E+02  0.70000015317E+02 0.  0.
         12    1    1    2    0    0 -0.16685274868E+02  0.13006602159E+01  0.84017030864E+01  0.18726417948E+02  0.00000000000E+00 0. -1.
         11    1    3    3    0    0 -0.38177769485E+01  0.77164701760E+00  0.11002424399E+02  0.11671512450E+02  0.51100000000E-03 0. -1.
        -11    1    3    3    0    0  0.16842152544E+01  0.18080897479E+02 -0.26679303174E+02  0.32272908961E+02  0.51100000000E-03 0.  1.
        -12    1    3    3    0    0  0.18818836562E+02 -0.20153204713E+02  0.72751756883E+01  0.28517160641E+02  0.00000000000E+00 0.  1.
</event>
<event>
 7    1  0.1339094E-013  0.7246158E+02  0.7816164E-02  0.1226708E+00
        -11   -1    0    0    0    0  0.00000000000E+00  0.00000000000E+00  0.45593999997E+02  0.45594000000E+02  0.51100000000E-03 0.  1.
         11   -1    0    0    0    0 -0.00000000000E+00 -0.00000000000E+00 -0.45593999997E+02  0.45594000000E+02  0.51100000000E-03 0. -1.
    9900012    2    1    2    0    0 -0.14741072152E+02  0.51889870767E+01  0.10317659529E+02  0.72461577671E+02  0.70000009610E+02 0.  0.
         12    1    1    2    0    0  0.14741072152E+02 -0.51889870767E+01 -0.10317659529E+02  0.18726422329E+02  0.00000000000E+00 0. -1.
         11    1    3    3    0    0 -0.27412222707E+02  0.93411859498E+01  0.17384055410E+02  0.33777108985E+02  0.51100000000E-03 0. -1.
        -11    1    3    3    0    0  0.15764463551E+02  0.13105356709E+02 -0.37057561546E+01  0.20832698204E+02  0.51100000000E-03 0.  1.
         12    1    3    3    0    0 -0.30933129959E+01 -0.17257555583E+02 -0.33606397258E+01  0.17851770482E+02  0.00000000000E+00 0. -1.
</event>
<event>
 7    1  0.1339094E-013  0.7246143E+02  0.7816164E-02  0.1226708E+00
        -11   -1    0    0    0    0  0.00000000000E+00  0.00000000000E+00  0.45593999997E+02  0.45594000000E+02  0.51100000000E-03 0. -1.
         11   -1    0    0    0    0 -0.00000000000E+00 -0.00000000000E+00 -0.45593999997E+02  0.45594000000E+02  0.51100000000E-03 0.  1.
    9900012    2    1    2    0    0  0.11050314167E+02  0.81180093356E+01 -0.12754324763E+02  0.72461432805E+02  0.69999820894E+02 0.  0.
         12    1    1    2    0    0 -0.11050314167E+02 -0.81180093356E+01  0.12754324763E+02  0.18726567195E+02  0.00000000000E+00 0. -1.
         11    1    3    3    0    0  0.25294932006E+02  0.32843168816E+02 -0.93805781202E+01  0.42502971298E+02  0.51100000000E-03 0. -1.
        -11    1    3    3    0    0 -0.10275281016E+02 -0.12070296653E+02  0.12792868271E+01  0.15903145485E+02  0.51100000000E-03 0.  1.
         12    1    3    3    0    0 -0.39693368226E+01 -0.12654862827E+02 -0.46530334700E+01  0.14055316021E+02  0.00000000000E+00 0. -1.
</event>
<event>
 7    1  0.1339094E-013  0.7246162E+02  0.7816164E-02  0.1226708E+00
        -11   -1    0    0    0    0  0.00000000000E+00  0.00000000000E+00  0.45593999997E+02  0.45594000000E+02  0.51100000000E-03 0.  1.
         11   -1    0    0    0    0 -0.00000000000E+00 -0.00000000000E+00 -0.45593999997E+02  0.45594000000E+02  0.51100000000E-03 0. -1.
    9900012    2    1    2    0    0  0.14358219332E+02 -0.11985829099E+02  0.92670725477E+00  0.72461618932E+02  0.70000063360E+02 0.  0.
         12    1    1    2    0    0 -0.14358219332E+02  0.11985829099E+02 -0.92670725477E+00  0.18726381068E+02  0.00000000000E+00 0. -1.
         11    1    3    3    0    0  0.24896462788E+02 -0.31928825255E+02 -0.13133021334E+02  0.42564774064E+02  0.51100000000E-03 0. -1.
        -11    1    3    3    0    0 -0.65511914483E+01  0.88521739234E+00  0.56169421729E+01  0.86747771648E+01  0.51100000000E-03 0.  1.
         12    1    3    3    0    0 -0.39870520085E+01  0.19057778764E+02  0.84427864159E+01  0.21222067703E+02  0.00000000000E+00 0. -1.
</event>
<event>
 7    1  0.1339094E-013  0.7246160E+02  0.7816164E-02  0.1226708E+00
        -11   -1    0    0    0    0  0.00000000000E+00  0.00000000000E+00  0.45593999997E+02  0.45594000000E+02  0.51100000000E-03 0. -1.
         11   -1    0    0    0    0 -0.00000000000E+00 -0.00000000000E+00 -0.45593999997E+02  0.45594000000E+02  0.51100000000E-03 0.  1.
    9900012    2    1    2    0    0 -0.63745356861E+01  0.17478471131E+02 -0.21322144319E+01  0.72461601609E+02  0.70000040794E+02 0.  0.
         12    1    1    2    0    0  0.63745356861E+01 -0.17478471131E+02  0.21322144319E+01  0.18726398391E+02  0.00000000000E+00 0. -1.
         11    1    3    3    0    0 -0.25129293916E+02  0.35258052074E+01  0.17655917617E+02  0.30913494500E+02  0.51100000000E-03 0. -1.
        -11    1    3    3    0    0  0.21272511590E+01  0.48634540695E+01 -0.21851001592E+02  0.22486543839E+02  0.51100000000E-03 0.  1.
         12    1    3    3    0    0  0.16627507071E+02  0.90892118545E+01  0.20628695440E+01  0.19061563270E+02  0.00000000000E+00 0. -1.
</event>
<event>
 7    1  0.1339094E-013  0.7246157E+02  0.7816164E-02  0.1226708E+00
        -11   -1    0    0    0    0  0.00000000000E+00  0.00000000000E+00  0.45593999997E+02  0.45594000000E+02  0.51100000000E-03 0.  1.
         11   -1    0    0    0    0 -0.00000000000E+00 -0.00000000000E+00 -0.45593999997E+02  0.45594000000E+02  0.51100000000E-03 0. -1.
    9900012    2    1    2    0    0  0.10970406537E+02 -0.12409704921E+02 -0.87366135450E+01  0.72461574499E+02  0.70000005477E+02 0.  0.
         12    1    1    2    0    0 -0.10970406537E+02  0.12409704921E+02  0.87366135450E+01  0.18726425501E+02  0.00000000000E+00 0. -1.
         11    1    3    3    0    0 -0.72002638355E+01  0.23011114812E+02 -0.12515311389E+02  0.27165938666E+02  0.51100000000E-03 0. -1.
        -11    1    3    3    0    0 -0.50664767950E+00 -0.40976342746E+01  0.75775130140E+01  0.86293685897E+01  0.51100000000E-03 0.  1.
         12    1    3    3    0    0  0.18677318052E+02 -0.31323185458E+02 -0.37988151700E+01  0.36666267243E+02  0.00000000000E+00 0. -1.
</event>
<event>
 7    1  0.1339094E-013  0.7246160E+02  0.7816164E-02  0.1226708E+00
        -11   -1    0    0    0    0  0.00000000000E+00  0.00000000000E+00  0.45593999997E+02  0.45594000000E+02  0.51100000000E-03 0. -1.
         11   -1    0    0    0    0 -0.00000000000E+00 -0.00000000000E+00 -0.45593999997E+02  0.45594000000E+02  0.51100000000E-03 0.  1.
    9900012    2    1    2    0    0  0.11379292203E+02 -0.14084315922E+02  0.47772347053E+01  0.72461595715E+02  0.70000033115E+02 0.  0.
         12    1    1    2    0    0 -0.11379292203E+02  0.14084315922E+02 -0.47772347053E+01  0.18726404285E+02  0.00000000000E+00 0. -1.
         11    1    3    3    0    0  0.50899644983E+01 -0.28233037410E+02 -0.14170653525E+02  0.31997180526E+02  0.51100000000E-03 0.  1.
        -11    1    3    3    0    0 -0.11975376814E+02  0.11270245781E+01  0.11978360177E+02  0.16975304034E+02  0.51100000000E-03 0. -1.
         12    1    3    3    0    0  0.18264704519E+02  0.13021696910E+02  0.69695280525E+01  0.23489111155E+02  0.00000000000E+00 0. -1.
</event>
<event>
 7    1  0.1339094E-013  0.7246159E+02  0.7816164E-02  0.1226708E+00
        -11   -1    0    0    0    0  0.00000000000E+00  0.00000000000E+00  0.45593999997E+02  0.45594000000E+02  0.51100000000E-03 0. -1.
         11   -1    0    0    0    0 -0.00000000000E+00 -0.00000000000E+00 -0.45593999997E+02  0.45594000000E+02  0.51100000000E-03 0.  1.
    9900012    2    1    2    0    0  0.58540624203E+01  0.16581293180E+02  0.64396442016E+01  0.72461592235E+02  0.70000028582E+02 0.  0.
         12    1    1    2    0    0 -0.58540624203E+01 -0.16581293180E+02 -0.64396442016E+01  0.18726407765E+02  0.00000000000E+00 0. -1.
         11    1    3    3    0    0  0.28313722541E+02  0.16904167729E+02  0.17156311471E+02  0.37171989377E+02  0.51100000000E-03 0. -1.
        -11    1    3    3    0    0 -0.24900811961E+02 -0.53796484783E+00 -0.63536780179E+00  0.24914725264E+02  0.51100000000E-03 0.  1.
        -12    1    3    3    0    0  0.24411518397E+01  0.21509029862E+00 -0.10081299467E+02  0.10374877594E+02  0.00000000000E+00 0.  1.
</event>
<event>
 7    1  0.1339094E-013  0.7246163E+02  0.7816164E-02  0.1226708E+00
        -11   -1    0    0    0    0  0.00000000000E+00  0.00000000000E+00  0.45593999997E+02  0.45594000000E+02  0.51100000000E-03 0.  1.
         11   -1    0    0    0    0 -0.00000000000E+00 -0.00000000000E+00 -0.45593999997E+02  0.45594000000E+02  0.51100000000E-03 0. -1.
    9900012    2    1    2    0    0 -0.34225317472E+01 -0.11149720963E+02  0.14650838212E+02  0.72461626581E+02  0.70000073324E+02 0.  0.
         12    1    1    2    0    0  0.34225317472E+01  0.11149720963E+02 -0.14650838212E+02  0.18726373419E+02  0.00000000000E+00 0. -1.
         11    1    3    3    0    0  0.22221480540E+02 -0.16704358135E+02  0.16835852497E+02  0.32500395500E+02  0.51100000000E-03 0.  1.
        -11    1    3    3    0    0 -0.20307774280E+02  0.20453191899E+01  0.12509322041E+02  0.23938925728E+02  0.51100000000E-03 0. -1.
        -12    1    3    3    0    0 -0.53362380071E+01  0.35093179817E+01 -0.14694336327E+02  0.16022305354E+02  0.00000000000E+00 0.  1.
</event>
<event>
 7    1  0.1339094E-013  0.7246154E+02  0.7816164E-02  0.1226708E+00
        -11   -1    0    0    0    0  0.00000000000E+00  0.00000000000E+00  0.45593999997E+02  0.45594000000E+02  0.51100000000E-03 0. -1.
         11   -1    0    0    0    0 -0.00000000000E+00 -0.00000000000E+00 -0.45593999997E+02  0.45594000000E+02  0.51100000000E-03 0.  1.
    9900012    2    1    2    0    0 -0.64115943252E+01 -0.16815686022E+02 -0.51773128789E+01  0.72461537258E+02  0.69999956964E+02 0.  0.
         12    1    1    2    0    0  0.64115943252E+01  0.16815686022E+02  0.51773128789E+01  0.18726462742E+02  0.00000000000E+00 0. -1.
         11    1    3    3    0    0 -0.25770616157E+01 -0.21949732839E+01  0.55267193972E+01  0.64810324675E+01  0.51100000000E-03 0. -1.
        -11    1    3    3    0    0 -0.18715294096E+02  0.73225436756E+01 -0.27896083000E+02  0.34381293256E+02  0.51100000000E-03 0.  1.
        -12    1    3    3    0    0  0.14880761387E+02 -0.21943256414E+02  0.17192050724E+02  0.31599211534E+02  0.00000000000E+00 0.  1.
</event>
<event>
 7    1  0.1339094E-013  0.7246158E+02  0.7816164E-02  0.1226708E+00
        -11   -1    0    0    0    0  0.00000000000E+00  0.00000000000E+00  0.45593999997E+02  0.45594000000E+02  0.51100000000E-03 0.  1.
         11   -1    0    0    0    0 -0.00000000000E+00 -0.00000000000E+00 -0.45593999997E+02  0.45594000000E+02  0.51100000000E-03 0. -1.
    9900012    2    1    2    0    0 -0.11121303237E+02 -0.96299967003E+01  0.11586998713E+02  0.72461581194E+02  0.70000014199E+02 0.  0.
         12    1    1    2    0    0  0.11121303237E+02  0.96299967003E+01 -0.11586998713E+02  0.18726418806E+02  0.00000000000E+00 0. -1.
         11    1    3    3    0    0  0.31058531988E+01 -0.55035652128E+01 -0.30152467050E+01  0.70019473790E+01  0.51100000000E-03 0. -1.
        -11    1    3    3    0    0 -0.43054956205E+01 -0.10211685131E+02  0.37861854453E+02  0.39450422414E+02  0.51100000000E-03 0.  1.
        -12    1    3    3    0    0 -0.99216608151E+01  0.60852536431E+01 -0.23259609035E+02  0.26009211401E+02  0.00000000000E+00 0.  1.
</event>
<event>
 7    1  0.1339094E-013  0.7246171E+02  0.7816164E-02  0.1226708E+00
        -11   -1    0    0    0    0  0.00000000000E+00  0.00000000000E+00  0.45593999997E+02  0.45594000000E+02  0.51100000000E-03 0.  1.
         11   -1    0    0    0    0 -0.00000000000E+00 -0.00000000000E+00 -0.45593999997E+02  0.45594000000E+02  0.51100000000E-03 0. -1.
    9900012    2    1    2    0    0  0.17741387817E+01  0.78346888360E+01  0.16915793023E+02  0.72461709092E+02  0.70000180809E+02 0.  0.
         12    1    1    2    0    0 -0.17741387817E+01 -0.78346888360E+01 -0.16915793023E+02  0.18726290908E+02  0.00000000000E+00 0. -1.
         11    1    3    3    0    0 -0.48328950483E+01  0.11395640756E+02 -0.23818874876E+02  0.26843179830E+02  0.51100000000E-03 0. -1.
        -11    1    3    3    0    0 -0.32319004214E+01 -0.79749507527E+01  0.10851584109E+02  0.13849256218E+02  0.51100000000E-03 0.  1.
         12    1    3    3    0    0  0.98389342513E+01  0.44139988331E+01  0.29883083790E+02  0.31769273043E+02  0.00000000000E+00 0. -1.
</event>
<event>
 7    1  0.1339094E-013  0.7246160E+02  0.7816164E-02  0.1226708E+00
        -11   -1    0    0    0    0  0.00000000000E+00  0.00000000000E+00  0.45593999997E+02  0.45594000000E+02  0.51100000000E-03 0.  1.
         11   -1    0    0    0    0 -0.00000000000E+00 -0.00000000000E+00 -0.45593999997E+02  0.45594000000E+02  0.51100000000E-03 0. -1.
    9900012    2    1    2    0    0 -0.16462596282E+02 -0.65570607322E+01  0.60552440212E+01  0.72461598799E+02  0.70000037133E+02 0.  0.
         12    1    1    2    0    0  0.16462596282E+02  0.65570607322E+01 -0.60552440212E+01  0.18726401201E+02  0.00000000000E+00 0. -1.
         11    1    3    3    0    0 -0.26747702087E+02  0.36175804789E+01  0.24375584046E+02  0.36368881662E+02  0.51100000000E-03 0.  1.
        -11    1    3    3    0    0  0.94395823447E+01  0.25562117514E+01 -0.20900695781E+02  0.23075506879E+02  0.51100000000E-03 0. -1.
         12    1    3    3    0    0  0.84552346056E+00 -0.12730852962E+02  0.25803557554E+01  0.13017210258E+02  0.00000000000E+00 0. -1.
</event>
<event>
 7    1  0.1339094E-013  0.7246158E+02  0.7816164E-02  0.1226708E+00
        -11   -1    0    0    0    0  0.00000000000E+00  0.00000000000E+00  0.45593999997E+02  0.45594000000E+02  0.51100000000E-03 0.  1.
         11   -1    0    0    0    0 -0.00000000000E+00 -0.00000000000E+00 -0.45593999997E+02  0.45594000000E+02  0.51100000000E-03 0. -1.
    9900012    2    1    2    0    0  0.45644899184E+01  0.18091625912E+02  0.15929452401E+01  0.72461575598E+02  0.70000006909E+02 0.  0.
         12    1    1    2    0    0 -0.45644899184E+01 -0.18091625912E+02 -0.15929452401E+01  0.18726424402E+02  0.00000000000E+00 0. -1.
         11    1    3    3    0    0  0.18096066497E+02  0.47508765243E+01 -0.11702180361E+01  0.18745875837E+02  0.51100000000E-03 0. -1.
        -11    1    3    3    0    0 -0.22160250788E+02 -0.73225020505E+01 -0.12635434987E+02  0.26539592477E+02  0.51100000000E-03 0.  1.
        -12    1    3    3    0    0  0.86286742099E+01  0.20663251438E+02  0.15398598263E+02  0.27176107284E+02  0.00000000000E+00 0.  1.
</event>
<event>
 7    1  0.1339094E-013  0.7246168E+02  0.7816164E-02  0.1226708E+00
        -11   -1    0    0    0    0  0.00000000000E+00  0.00000000000E+00  0.45593999997E+02  0.45594000000E+02  0.51100000000E-03 0.  1.
         11   -1    0    0    0    0 -0.00000000000E+00 -0.00000000000E+00 -0.45593999997E+02  0.45594000000E+02  0.51100000000E-03 0. -1.
    9900012    2    1    2    0    0  0.18377071860E+02  0.24495258651E+01 -0.26378232096E+01  0.72461680062E+02  0.70000142993E+02 0.  0.
         12    1    1    2    0    0 -0.18377071860E+02 -0.24495258651E+01  0.26378232096E+01  0.18726319938E+02  0.00000000000E+00 0. -1.
         11    1    3    3    0    0  0.25796995994E+02 -0.22603342657E+02 -0.11383830688E+02  0.36138451862E+02  0.51100000000E-03 0. -1.
        -11    1    3    3    0    0 -0.10671424772E+02  0.22157661595E+02 -0.20535766820E+01  0.24679109617E+02  0.51100000000E-03 0.  1.
         12    1    3    3    0    0  0.32515006382E+01  0.28952069263E+01  0.10799584161E+02  0.11644118584E+02  0.00000000000E+00 0. -1.
</event>
<event>
 7    1  0.1339094E-013  0.7246157E+02  0.7816164E-02  0.1226708E+00
        -11   -1    0    0    0    0  0.00000000000E+00  0.00000000000E+00  0.45593999997E+02  0.45594000000E+02  0.51100000000E-03 0. -1.
         11   -1    0    0    0    0 -0.00000000000E+00 -0.00000000000E+00 -0.45593999997E+02  0.45594000000E+02  0.51100000000E-03 0.  1.
    9900012    2    1    2    0    0  0.29564283983E+01 -0.27832914734E+01 -0.18280919795E+02  0.72461569244E+02  0.69999998632E+02 0.  0.
         12    1    1    2    0    0 -0.29564283983E+01  0.27832914734E+01  0.18280919795E+02  0.18726430756E+02  0.00000000000E+00 0. -1.
         11    1    3    3    0    0  0.25044238124E+02  0.20060845843E+02  0.33228421934E+01  0.32259768748E+02  0.51100000000E-03 0. -1.
        -11    1    3    3    0    0 -0.78393050648E+01 -0.11873005322E+02 -0.15899567643E+02  0.21335866769E+02  0.51100000000E-03 0.  1.
         12    1    3    3    0    0 -0.14248504660E+02 -0.10971131995E+02 -0.57041943449E+01  0.18865933728E+02  0.00000000000E+00 0. -1.
</event>
<event>
 7    1  0.1339094E-013  0.7246157E+02  0.7816164E-02  0.1226708E+00
        -11   -1    0    0    0    0  0.00000000000E+00  0.00000000000E+00  0.45593999997E+02  0.45594000000E+02  0.51100000000E-03 0. -1.
         11   -1    0    0    0    0 -0.00000000000E+00 -0.00000000000E+00 -0.45593999997E+02  0.45594000000E+02  0.51100000000E-03 0.  1.
    9900012    2    1    2    0    0 -0.78646133826E+01  0.16719797604E+02  0.30455459954E+01  0.72461571457E+02  0.70000001514E+02 0.  0.
         12    1    1    2    0    0  0.78646133826E+01 -0.16719797604E+02 -0.30455459954E+01  0.18726428543E+02  0.00000000000E+00 0. -1.
         11    1    3    3    0    0  0.19855756901E+02  0.19839251812E+01  0.23930166944E+01  0.20097601110E+02  0.51100000000E-03 0. -1.
        -11    1    3    3    0    0 -0.24745146702E+02  0.23214611822E+02  0.13641759501E+02  0.36569633439E+02  0.51100000000E-03 0.  1.
         12    1    3    3    0    0 -0.29752235814E+01 -0.84787393992E+01 -0.12989230199E+02  0.15794336907E+02  0.00000000000E+00 0. -1.
</event>
<event>
 7    1  0.1339094E-013  0.7246158E+02  0.7816164E-02  0.1226708E+00
        -11   -1    0    0    0    0  0.00000000000E+00  0.00000000000E+00  0.45593999997E+02  0.45594000000E+02  0.51100000000E-03 0.  1.
         11   -1    0    0    0    0 -0.00000000000E+00 -0.00000000000E+00 -0.45593999997E+02  0.45594000000E+02  0.51100000000E-03 0. -1.
    9900012    2    1    2    0    0  0.23857185799E+01 -0.42165722795E+01  0.18088884246E+02  0.72461578339E+02  0.70000010480E+02 0.  0.
         12    1    1    2    0    0 -0.23857185799E+01  0.42165722795E+01 -0.18088884246E+02  0.18726421661E+02  0.00000000000E+00 0. -1.
         11    1    3    3    0    0 -0.62042666715E+01  0.15281452252E+01 -0.18356040661E+02  0.19436367505E+02  0.51100000000E-03 0. -1.
        -11    1    3    3    0    0 -0.89214262057E+01 -0.15881356387E+02  0.15718106477E+02  0.24059679917E+02  0.51100000000E-03 0.  1.
        -12    1    3    3    0    0  0.17511411457E+02  0.10136638882E+02  0.20726818431E+02  0.28965530917E+02  0.00000000000E+00 0.  1.
</event>
<event>
 7    1  0.1339094E-013  0.7246150E+02  0.7816164E-02  0.1226708E+00
        -11   -1    0    0    0    0  0.00000000000E+00  0.00000000000E+00  0.45593999997E+02  0.45594000000E+02  0.51100000000E-03 0. -1.
         11   -1    0    0    0    0 -0.00000000000E+00 -0.00000000000E+00 -0.45593999997E+02  0.45594000000E+02  0.51100000000E-03 0.  1.
    9900012    2    1    2    0    0  0.10276483792E+02 -0.15454189255E+02 -0.24987142372E+01  0.72461503865E+02  0.69999913463E+02 0.  0.
         12    1    1    2    0    0 -0.10276483792E+02  0.15454189255E+02  0.24987142372E+01  0.18726496135E+02  0.00000000000E+00 0. -1.
         11    1    3    3    0    0  0.16895697519E+02 -0.22853088420E+02 -0.96207318883E+01  0.30004778408E+02  0.51100000000E-03 0.  1.
        -11    1    3    3    0    0 -0.12487756678E+02  0.61334028157E+01  0.22215896114E+02  0.26212759056E+02  0.51100000000E-03 0. -1.
         12    1    3    3    0    0  0.58685429511E+01  0.12654963490E+01 -0.15093878462E+02  0.16243966400E+02  0.00000000000E+00 0. -1.
</event>
<event>
 7    1  0.1339094E-013  0.7246151E+02  0.7816164E-02  0.1226708E+00
        -11   -1    0    0    0    0  0.00000000000E+00  0.00000000000E+00  0.45593999997E+02  0.45594000000E+02  0.51100000000E-03 0. -1.
         11   -1    0    0    0    0 -0.00000000000E+00 -0.00000000000E+00 -0.45593999997E+02  0.45594000000E+02  0.51100000000E-03 0.  1.
    9900012    2    1    2    0    0  0.14065005759E+02  0.62158994350E+01  0.10687361142E+02  0.72461508578E+02  0.69999919604E+02 0.  0.
         12    1    1    2    0    0 -0.14065005759E+02 -0.62158994350E+01 -0.10687361142E+02  0.18726491422E+02  0.00000000000E+00 0. -1.
         11    1    3    3    0    0  0.18741917858E+01 -0.54676636241E+01 -0.26627506221E+02  0.27247605916E+02  0.51100000000E-03 0. -1.
        -11    1    3    3    0    0  0.10863167747E+02  0.13569250373E+02  0.15535444873E+02  0.23312722210E+02  0.51100000000E-03 0.  1.
         12    1    3    3    0    0  0.13276462259E+01 -0.18856873142E+01  0.21779422491E+02  0.21901180452E+02  0.00000000000E+00 0. -1.
</event>
<event>
 7    1  0.1339094E-013  0.7246151E+02  0.7816164E-02  0.1226708E+00
        -11   -1    0    0    0    0  0.00000000000E+00  0.00000000000E+00  0.45593999997E+02  0.45594000000E+02  0.51100000000E-03 0. -1.
         11   -1    0    0    0    0 -0.00000000000E+00 -0.00000000000E+00 -0.45593999997E+02  0.45594000000E+02  0.51100000000E-03 0.  1.
    9900012    2    1    2    0    0 -0.10589085004E+02  0.15367351628E+02  0.15482641833E+01  0.72461512362E+02  0.69999924532E+02 0.  0.
         12    1    1    2    0    0  0.10589085004E+02 -0.15367351628E+02 -0.15482641833E+01  0.18726487638E+02  0.00000000000E+00 0. -1.
         11    1    3    3    0    0  0.13302272154E+02 -0.19501027734E+02  0.16864798483E+01  0.23666109560E+02  0.51100000000E-03 0.  1.
        -11    1    3    3    0    0 -0.13479980698E+02  0.17057882202E+02  0.12026260037E+02  0.24845767357E+02  0.51100000000E-03 0. -1.
         12    1    3    3    0    0 -0.10411376460E+02  0.17810497160E+02 -0.12164475702E+02  0.23949635446E+02  0.00000000000E+00 0. -1.
</event>
<event>
 7    1  0.1339094E-013  0.7246158E+02  0.7816164E-02  0.1226708E+00
        -11   -1    0    0    0    0  0.00000000000E+00  0.00000000000E+00  0.45593999997E+02  0.45594000000E+02  0.51100000000E-03 0.  1.
         11   -1    0    0    0    0 -0.00000000000E+00 -0.00000000000E+00 -0.45593999997E+02  0.45594000000E+02  0.51100000000E-03 0. -1.
    9900012    2    1    2    0    0  0.55168196520E+01 -0.17647741325E+02  0.29665811058E+01  0.72461583460E+02  0.70000017151E+02 0.  0.
         12    1    1    2    0    0 -0.55168196520E+01  0.17647741325E+02 -0.29665811058E+01  0.18726416540E+02  0.00000000000E+00 0. -1.
         11    1    3    3    0    0 -0.34176389136E+01 -0.38283239382E+02 -0.29954847569E+00  0.38436654418E+02  0.51100000000E-03 0. -1.
        -11    1    3    3    0    0  0.60910899342E+01  0.17379946238E+02  0.13553641258E+02  0.22866243667E+02  0.51100000000E-03 0.  1.
         12    1    3    3    0    0  0.28433686315E+01  0.32555518188E+01 -0.10287511676E+02  0.11158685375E+02  0.00000000000E+00 0. -1.
</event>
<event>
 7    1  0.1339094E-013  0.7246157E+02  0.7816164E-02  0.1226708E+00
        -11   -1    0    0    0    0  0.00000000000E+00  0.00000000000E+00  0.45593999997E+02  0.45594000000E+02  0.51100000000E-03 0. -1.
         11   -1    0    0    0    0 -0.00000000000E+00 -0.00000000000E+00 -0.45593999997E+02  0.45594000000E+02  0.51100000000E-03 0.  1.
    9900012    2    1    2    0    0  0.60832207229E+00 -0.18704546710E+02  0.67025645212E+00  0.72461565019E+02  0.69999993128E+02 0.  0.
         12    1    1    2    0    0 -0.60832207229E+00  0.18704546710E+02 -0.67025645212E+00  0.18726434981E+02  0.00000000000E+00 0. -1.
         11    1    3    3    0    0  0.15263219944E+02  0.10104343572E+02 -0.24553884707E+02  0.30626081965E+02  0.51100000000E-03 0. -1.
        -11    1    3    3    0    0 -0.46168561719E+01 -0.79473499734E+01  0.28078562875E+01  0.96104000803E+01  0.51100000000E-03 0.  1.
         12    1    3    3    0    0 -0.10038041700E+02 -0.20861540309E+02  0.22416284871E+02  0.32225082974E+02  0.00000000000E+00 0. -1.
</event>
<event>
 7    1  0.1339094E-013  0.7246159E+02  0.7816164E-02  0.1226708E+00
        -11   -1    0    0    0    0  0.00000000000E+00  0.00000000000E+00  0.45593999997E+02  0.45594000000E+02  0.51100000000E-03 0.  1.
         11   -1    0    0    0    0 -0.00000000000E+00 -0.00000000000E+00 -0.45593999997E+02  0.45594000000E+02  0.51100000000E-03 0. -1.
    9900012    2    1    2    0    0  0.12978854772E+02 -0.13038609478E+02 -0.34960782280E+01  0.72461586267E+02  0.70000020808E+02 0.  0.
         12    1    1    2    0    0 -0.12978854772E+02  0.13038609478E+02  0.34960782280E+01  0.18726413733E+02  0.00000000000E+00 0. -1.
         11    1    3    3    0    0  0.14159521803E+01  0.64315285958E+01 -0.20573143928E+02  0.21601475227E+02  0.51100000000E-03 0. -1.
        -11    1    3    3    0    0  0.15485598607E+02  0.98175194561E+01  0.73045080020E+01  0.19736851063E+02  0.51100000000E-03 0.  1.
        -12    1    3    3    0    0 -0.39226960151E+01 -0.29287657530E+02  0.97725576977E+01  0.31123259977E+02  0.00000000000E+00 0.  1.
</event>
<event>
 7    1  0.1339094E-013  0.7246155E+02  0.7816164E-02  0.1226708E+00
        -11   -1    0    0    0    0  0.00000000000E+00  0.00000000000E+00  0.45593999997E+02  0.45594000000E+02  0.51100000000E-03 0. -1.
         11   -1    0    0    0    0 -0.00000000000E+00 -0.00000000000E+00 -0.45593999997E+02  0.45594000000E+02  0.51100000000E-03 0.  1.
    9900012    2    1    2    0    0  0.21620289570E+01 -0.17740070676E+02 -0.55942501117E+01  0.72461545154E+02  0.69999967250E+02 0.  0.
         12    1    1    2    0    0 -0.21620289570E+01  0.17740070676E+02  0.55942501117E+01  0.18726454846E+02  0.00000000000E+00 0. -1.
         11    1    3    3    0    0  0.21847284924E+02 -0.24252260775E+02  0.11122447710E+02  0.34484559655E+02  0.51100000000E-03 0. -1.
        -11    1    3    3    0    0 -0.63684485018E+01  0.14245823629E+02 -0.16309394982E+02  0.22572040052E+02  0.51100000000E-03 0.  1.
        -12    1    3    3    0    0 -0.13316807465E+02 -0.77336335289E+01 -0.40730283962E+00  0.15404945447E+02  0.00000000000E+00 0.  1.
</event>
<event>
 7    1  0.1339094E-013  0.7246162E+02  0.7816164E-02  0.1226708E+00
        -11   -1    0    0    0    0  0.00000000000E+00  0.00000000000E+00  0.45593999997E+02  0.45594000000E+02  0.51100000000E-03 0.  1.
         11   -1    0    0    0    0 -0.00000000000E+00 -0.00000000000E+00 -0.45593999997E+02  0.45594000000E+02  0.51100000000E-03 0. -1.
    9900012    2    1    2    0    0 -0.35378466626E+01 -0.12248512524E+02  0.13716221420E+02  0.72461624267E+02  0.70000070310E+02 0.  0.
         12    1    1    2    0    0  0.35378466626E+01  0.12248512524E+02 -0.13716221420E+02  0.18726375733E+02  0.00000000000E+00 0. -1.
         11    1    3    3    0    0  0.20868064318E+02 -0.56310992456E+01 -0.18951166943E+02  0.28745993040E+02  0.51100000000E-03 0. -1.
        -11    1    3    3    0    0 -0.76007304816E+01 -0.88310668794E+01  0.96405068744E+01  0.15122771543E+02  0.51100000000E-03 0.  1.
         12    1    3    3    0    0 -0.16805180499E+02  0.22136536012E+01  0.23026881488E+02  0.28592859684E+02  0.00000000000E+00 0. -1.
</event>
<event>
 7    1  0.1339094E-013  0.7246157E+02  0.7816164E-02  0.1226708E+00
        -11   -1    0    0    0    0  0.00000000000E+00  0.00000000000E+00  0.45593999997E+02  0.45594000000E+02  0.51100000000E-03 0. -1.
         11   -1    0    0    0    0 -0.00000000000E+00 -0.00000000000E+00 -0.45593999997E+02  0.45594000000E+02  0.51100000000E-03 0.  1.
    9900012    2    1    2    0    0 -0.53468088783E+01  0.17932639197E+02  0.71492652151E+00  0.72461573922E+02  0.70000004725E+02 0.  0.
         12    1    1    2    0    0  0.53468088783E+01 -0.17932639197E+02 -0.71492652151E+00  0.18726426078E+02  0.00000000000E+00 0. -1.
         11    1    3    3    0    0  0.11600392444E+02  0.19615910834E+02  0.27363184301E+02  0.35610348469E+02  0.51100000000E-03 0. -1.
        -11    1    3    3    0    0 -0.17019804066E+02  0.49359303522E+01 -0.14032190909E+02  0.22603971352E+02  0.51100000000E-03 0.  1.
         12    1    3    3    0    0  0.72602744065E-01 -0.66192019901E+01 -0.12616066870E+02  0.14247254101E+02  0.00000000000E+00 0. -1.
</event>
<event>
 7    1  0.1339094E-013  0.7246154E+02  0.7816164E-02  0.1226708E+00
        -11   -1    0    0    0    0  0.00000000000E+00  0.00000000000E+00  0.45593999997E+02  0.45594000000E+02  0.51100000000E-03 0.  1.
         11   -1    0    0    0    0 -0.00000000000E+00 -0.00000000000E+00 -0.45593999997E+02  0.45594000000E+02  0.51100000000E-03 0. -1.
    9900012    2    1    2    0    0 -0.82666018494E+01 -0.12150684584E+02  0.11606228775E+02  0.72461537750E+02  0.69999957605E+02 0.  0.
         12    1    1    2    0    0  0.82666018494E+01  0.12150684584E+02 -0.11606228775E+02  0.18726462250E+02  0.00000000000E+00 0. -1.
         11    1    3    3    0    0 -0.14259292378E+02  0.10602065741E+02 -0.21862190346E+02  0.28172443701E+02  0.51100000000E-03 0. -1.
        -11    1    3    3    0    0 -0.44305811758E+01 -0.35668240033E+01  0.13705263086E+02  0.14838683215E+02  0.51100000000E-03 0.  1.
         12    1    3    3    0    0  0.10423271704E+02 -0.19185926322E+02  0.19763156036E+02  0.29450410835E+02  0.00000000000E+00 0. -1.
</event>
<event>
 7    1  0.1339094E-013  0.7246160E+02  0.7816164E-02  0.1226708E+00
        -11   -1    0    0    0    0  0.00000000000E+00  0.00000000000E+00  0.45593999997E+02  0.45594000000E+02  0.51100000000E-03 0.  1.
         11   -1    0    0    0    0 -0.00000000000E+00 -0.00000000000E+00 -0.45593999997E+02  0.45594000000E+02  0.51100000000E-03 0. -1.
    9900012    2    1    2    0    0 -0.17446741155E+02 -0.30186286197E+01  0.60972992256E+01  0.72461602762E+02  0.70000042295E+02 0.  0.
         12    1    1    2    0    0  0.17446741155E+02  0.30186286197E+01 -0.60972992256E+01  0.18726397238E+02  0.00000000000E+00 0. -1.
         11    1    3    3    0    0  0.13127138555E+01 -0.19407462263E+02 -0.32910662168E+01  0.19728251982E+02  0.51100000000E-03 0. -1.
        -11    1    3    3    0    0  0.58651835103E+01  0.64797154157E+01  0.21758939011E+02  0.23448635709E+02  0.51100000000E-03 0.  1.
        -12    1    3    3    0    0 -0.24624638521E+02  0.99091182280E+01 -0.12370573569E+02  0.29284715070E+02  0.00000000000E+00 0.  1.
</event>
<event>
 7    1  0.1339094E-013  0.7246158E+02  0.7816164E-02  0.1226708E+00
        -11   -1    0    0    0    0  0.00000000000E+00  0.00000000000E+00  0.45593999997E+02  0.45594000000E+02  0.51100000000E-03 0. -1.
         11   -1    0    0    0    0 -0.00000000000E+00 -0.00000000000E+00 -0.45593999997E+02  0.45594000000E+02  0.51100000000E-03 0.  1.
    9900012    2    1    2    0    0 -0.30989132825E+01  0.13109750660E+02  0.13008068515E+02  0.72461583568E+02  0.70000017291E+02 0.  0.
         12    1    1    2    0    0  0.30989132825E+01 -0.13109750660E+02 -0.13008068515E+02  0.18726416432E+02  0.00000000000E+00 0. -1.
         11    1    3    3    0    0 -0.15004837735E+02 -0.43157286908E+01  0.13653426990E+02  0.20740943527E+02  0.51100000000E-03 0. -1.
        -11    1    3    3    0    0 -0.69382573030E+01 -0.47727579871E+00 -0.18780517441E+02  0.20026858021E+02  0.51100000000E-03 0.  1.
         12    1    3    3    0    0  0.18844181755E+02  0.17902755149E+02  0.18135158967E+02  0.31693782020E+02  0.00000000000E+00 0. -1.
</event>
<event>
 7    1  0.1339094E-013  0.7246153E+02  0.7816164E-02  0.1226708E+00
        -11   -1    0    0    0    0  0.00000000000E+00  0.00000000000E+00  0.45593999997E+02  0.45594000000E+02  0.51100000000E-03 0. -1.
         11   -1    0    0    0    0 -0.00000000000E+00 -0.00000000000E+00 -0.45593999997E+02  0.45594000000E+02  0.51100000000E-03 0.  1.
    9900012    2    1    2    0    0  0.47522632371E+01  0.16753754278E+02 -0.68853721979E+01  0.72461531070E+02  0.69999948903E+02 0.  0.
         12    1    1    2    0    0 -0.47522632371E+01 -0.16753754278E+02  0.68853721979E+01  0.18726468930E+02  0.00000000000E+00 0. -1.
         11    1    3    3    0    0 -0.67626174758E+01 -0.48010825383E+01 -0.20046080446E+02  0.21693979123E+02  0.51100000000E-03 0. -1.
        -11    1    3    3    0    0  0.63449298377E+01  0.32489611624E+02  0.28899014582E+00  0.33104629792E+02  0.51100000000E-03 0.  1.
         12    1    3    3    0    0  0.51699508752E+01 -0.10934774808E+02  0.12871718102E+02  0.17662922155E+02  0.00000000000E+00 0. -1.
</event>
<event>
 7    1  0.1339094E-013  0.7246162E+02  0.7816164E-02  0.1226708E+00
        -11   -1    0    0    0    0  0.00000000000E+00  0.00000000000E+00  0.45593999997E+02  0.45594000000E+02  0.51100000000E-03 0.  1.
         11   -1    0    0    0    0 -0.00000000000E+00 -0.00000000000E+00 -0.45593999997E+02  0.45594000000E+02  0.51100000000E-03 0. -1.
    9900012    2    1    2    0    0  0.15320332739E+02  0.18633947269E+01  0.10606239712E+02  0.72461624057E+02  0.70000070035E+02 0.  0.
         12    1    1    2    0    0 -0.15320332739E+02 -0.18633947269E+01 -0.10606239712E+02  0.18726375943E+02  0.00000000000E+00 0. -1.
         11    1    3    3    0    0 -0.16684068219E+02  0.13880035643E+02 -0.13783265267E+02  0.25709763194E+02  0.51100000000E-03 0. -1.
        -11    1    3    3    0    0  0.25651227255E+02 -0.13968001314E+02  0.26841295406E+02  0.39667942469E+02  0.51100000000E-03 0.  1.
         12    1    3    3    0    0  0.63531737035E+01  0.19513603981E+01 -0.24517904266E+01  0.70839183935E+01  0.00000000000E+00 0. -1.
</event>
<event>
 7    1  0.1339094E-013  0.7246156E+02  0.7816164E-02  0.1226708E+00
        -11   -1    0    0    0    0  0.00000000000E+00  0.00000000000E+00  0.45593999997E+02  0.45594000000E+02  0.51100000000E-03 0.  1.
         11   -1    0    0    0    0 -0.00000000000E+00 -0.00000000000E+00 -0.45593999997E+02  0.45594000000E+02  0.51100000000E-03 0. -1.
    9900012    2    1    2    0    0  0.38808124355E+01 -0.39154277570E+01  0.17896597907E+02  0.72461561569E+02  0.69999988633E+02 0.  0.
         12    1    1    2    0    0 -0.38808124355E+01  0.39154277570E+01 -0.17896597907E+02  0.18726438431E+02  0.00000000000E+00 0. -1.
         11    1    3    3    0    0  0.38599961744E+01  0.69711947351E+01 -0.11602802270E+02  0.14075586925E+02  0.51100000000E-03 0. -1.
        -11    1    3    3    0    0 -0.16093502034E+02 -0.22210565454E+02  0.27077800798E+02  0.38542409393E+02  0.51100000000E-03 0.  1.
        -12    1    3    3    0    0  0.16114318295E+02  0.11323942962E+02  0.24215993791E+01  0.19843565251E+02  0.00000000000E+00 0.  1.
</event>
<event>
 7    1  0.1339094E-013  0.7246160E+02  0.7816164E-02  0.1226708E+00
        -11   -1    0    0    0    0  0.00000000000E+00  0.00000000000E+00  0.45593999997E+02  0.45594000000E+02  0.51100000000E-03 0. -1.
         11   -1    0    0    0    0 -0.00000000000E+00 -0.00000000000E+00 -0.45593999997E+02  0.45594000000E+02  0.51100000000E-03 0.  1.
    9900012    2    1    2    0    0 -0.15555600291E+02 -0.10425956976E+02  0.28307011970E-01  0.72461599370E+02  0.70000037877E+02 0.  0.
         12    1    1    2    0    0  0.15555600291E+02  0.10425956976E+02 -0.28307011970E-01  0.18726400630E+02  0.00000000000E+00 0. -1.
         11    1    3    3    0    0 -0.70984376579E+00  0.11880015650E+02  0.17209733683E+02  0.20923995406E+02  0.51100000000E-03 0. -1.
        -11    1    3    3    0    0 -0.17314179404E+01 -0.30772803737E+02 -0.18372975301E+02  0.35882161022E+02  0.51100000000E-03 0.  1.
        -12    1    3    3    0    0 -0.13114338585E+02  0.84668311113E+01  0.11915486296E+01  0.15655442942E+02  0.00000000000E+00 0.  1.
</event>
<event>
 7    1  0.1339094E-013  0.7246161E+02  0.7816164E-02  0.1226708E+00
        -11   -1    0    0    0    0  0.00000000000E+00  0.00000000000E+00  0.45593999997E+02  0.45594000000E+02  0.51100000000E-03 0.  1.
         11   -1    0    0    0    0 -0.00000000000E+00 -0.00000000000E+00 -0.45593999997E+02  0.45594000000E+02  0.51100000000E-03 0. -1.
    9900012    2    1    2    0    0  0.24877940255E+01  0.14576731195E+02  0.11489453100E+02  0.72461608357E+02  0.70000049583E+02 0.  0.
         12    1    1    2    0    0 -0.24877940255E+01 -0.14576731195E+02 -0.11489453100E+02  0.18726391643E+02  0.00000000000E+00 0. -1.
         11    1    3    3    0    0 -0.34654340244E-01 -0.21745759856E+01  0.52735256447E+00  0.22378745785E+01  0.51100000000E-03 0. -1.
        -11    1    3    3    0    0 -0.26095355233E+02  0.10332173814E+02 -0.14314203303E+02  0.31505837506E+02  0.51100000000E-03 0.  1.
        -12    1    3    3    0    0  0.28617803599E+02  0.64191333663E+01  0.25276303839E+02  0.38717896272E+02  0.00000000000E+00 0.  1.
</event>
<event>
 7    1  0.1339094E-013  0.7246158E+02  0.7816164E-02  0.1226708E+00
        -11   -1    0    0    0    0  0.00000000000E+00  0.00000000000E+00  0.45593999997E+02  0.45594000000E+02  0.51100000000E-03 0.  1.
         11   -1    0    0    0    0 -0.00000000000E+00 -0.00000000000E+00 -0.45593999997E+02  0.45594000000E+02  0.51100000000E-03 0. -1.
    9900012    2    1    2    0    0 -0.86103311073E+01  0.16574002217E+02 -0.13576705322E+01  0.72461584952E+02  0.70000019094E+02 0.  0.
         12    1    1    2    0    0  0.86103311073E+01 -0.16574002217E+02  0.13576705322E+01  0.18726415048E+02  0.00000000000E+00 0. -1.
         11    1    3    3    0    0  0.61493201506E+01  0.12474280014E+02 -0.72280216999E+01  0.15673739125E+02  0.51100000000E-03 0. -1.
        -11    1    3    3    0    0 -0.24285082446E+02 -0.13135279608E+02  0.18644424456E+02  0.33315392289E+02  0.51100000000E-03 0.  1.
        -12    1    3    3    0    0  0.95254311884E+01  0.17235001811E+02 -0.12774073288E+02  0.23472453539E+02  0.00000000000E+00 0.  1.
</event>
<event>
 7    1  0.1339094E-013  0.7246155E+02  0.7816164E-02  0.1226708E+00
        -11   -1    0    0    0    0  0.00000000000E+00  0.00000000000E+00  0.45593999997E+02  0.45594000000E+02  0.51100000000E-03 0.  1.
         11   -1    0    0    0    0 -0.00000000000E+00 -0.00000000000E+00 -0.45593999997E+02  0.45594000000E+02  0.51100000000E-03 0. -1.
    9900012    2    1    2    0    0 -0.22569671350E+01  0.54988586723E+01  0.17758059292E+02  0.72461547662E+02  0.69999970517E+02 0.  0.
         12    1    1    2    0    0  0.22569671350E+01 -0.54988586723E+01 -0.17758059292E+02  0.18726452338E+02  0.00000000000E+00 0. -1.
         11    1    3    3    0    0  0.24360235607E+02  0.54477661801E+01  0.36301441110E+01  0.25224535312E+02  0.51100000000E-03 0. -1.
        -11    1    3    3    0    0 -0.16408971598E+02 -0.69511438811E+01  0.25040798300E+02  0.30734578733E+02  0.51100000000E-03 0.  1.
         12    1    3    3    0    0 -0.10208231144E+02  0.70022363732E+01 -0.10912883119E+02  0.16502433617E+02  0.00000000000E+00 0. -1.
</event>
<event>
 7    1  0.1339094E-013  0.7246174E+02  0.7816164E-02  0.1226708E+00
        -11   -1    0    0    0    0  0.00000000000E+00  0.00000000000E+00  0.45593999997E+02  0.45594000000E+02  0.51100000000E-03 0. -1.
         11   -1    0    0    0    0 -0.00000000000E+00 -0.00000000000E+00 -0.45593999997E+02  0.45594000000E+02  0.51100000000E-03 0.  1.
    9900012    2    1    2    0    0  0.49882174723E+01  0.17319292168E+02 -0.50825921373E+01  0.72461736689E+02  0.70000216760E+02 0.  0.
         12    1    1    2    0    0 -0.49882174723E+01 -0.17319292168E+02  0.50825921373E+01  0.18726263311E+02  0.00000000000E+00 0. -1.
         11    1    3    3    0    0 -0.23673602793E+02 -0.48920574181E+01 -0.10418254336E+02  0.26323216343E+02  0.51100000000E-03 0. -1.
        -11    1    3    3    0    0  0.15698805625E+02 -0.66249170720E+00  0.11080182800E+02  0.19226592117E+02  0.51100000000E-03 0.  1.
         12    1    3    3    0    0  0.12963014640E+02  0.22873841293E+02 -0.57445206006E+01  0.26911928229E+02  0.00000000000E+00 0. -1.
</event>
<event>
 7    1  0.1339094E-013  0.7246160E+02  0.7816164E-02  0.1226708E+00
        -11   -1    0    0    0    0  0.00000000000E+00  0.00000000000E+00  0.45593999997E+02  0.45594000000E+02  0.51100000000E-03 0.  1.
         11   -1    0    0    0    0 -0.00000000000E+00 -0.00000000000E+00 -0.45593999997E+02  0.45594000000E+02  0.51100000000E-03 0. -1.
    9900012    2    1    2    0    0  0.18836863300E+01 -0.15889721302E+02  0.97286478208E+01  0.72461598699E+02  0.70000037003E+02 0.  0.
         12    1    1    2    0    0 -0.18836863300E+01  0.15889721302E+02 -0.97286478208E+01  0.18726401301E+02  0.00000000000E+00 0. -1.
         11    1    3    3    0    0  0.12654869386E+02 -0.60297683885E+01 -0.12099432484E+02  0.18517561738E+02  0.51100000000E-03 0. -1.
        -11    1    3    3    0    0  0.30222985038E+01 -0.17913248070E+02  0.30700648231E+02  0.35672798415E+02  0.51100000000E-03 0.  1.
         12    1    3    3    0    0 -0.13793481560E+02  0.80532951566E+01 -0.88725679259E+01  0.18271238547E+02  0.00000000000E+00 0. -1.
</event>
<event>
 7    1  0.1339094E-013  0.7246161E+02  0.7816164E-02  0.1226708E+00
        -11   -1    0    0    0    0  0.00000000000E+00  0.00000000000E+00  0.45593999997E+02  0.45594000000E+02  0.51100000000E-03 0.  1.
         11   -1    0    0    0    0 -0.00000000000E+00 -0.00000000000E+00 -0.45593999997E+02  0.45594000000E+02  0.51100000000E-03 0. -1.
    9900012    2    1    2    0    0  0.41410199637E+00  0.18118344005E+02  0.47150680177E+01  0.72461608560E+02  0.70000049848E+02 0.  0.
         12    1    1    2    0    0 -0.41410199637E+00 -0.18118344005E+02 -0.47150680177E+01  0.18726391440E+02  0.00000000000E+00 0. -1.
         11    1    3    3    0    0 -0.84940946094E+01 -0.21724439938E+01 -0.28800708409E+01  0.92284323939E+01  0.51100000000E-03 0. -1.
        -11    1    3    3    0    0  0.13989835287E+02  0.15273236305E+02  0.31825864599E+02  0.37972001479E+02  0.51100000000E-03 0.  1.
        -12    1    3    3    0    0 -0.50816386813E+01  0.50175516938E+01 -0.24230725740E+02  0.25261174687E+02  0.00000000000E+00 0.  1.
</event>
<event>
 7    1  0.1339094E-013  0.7246161E+02  0.7816164E-02  0.1226708E+00
        -11   -1    0    0    0    0  0.00000000000E+00  0.00000000000E+00  0.45593999997E+02  0.45594000000E+02  0.51100000000E-03 0.  1.
         11   -1    0    0    0    0 -0.00000000000E+00 -0.00000000000E+00 -0.45593999997E+02  0.45594000000E+02  0.51100000000E-03 0. -1.
    9900012    2    1    2    0    0 -0.11932663465E+02  0.57938476317E+00  0.14420593859E+02  0.72461610297E+02  0.70000052111E+02 0.  0.
         12    1    1    2    0    0  0.11932663465E+02 -0.57938476317E+00 -0.14420593859E+02  0.18726389703E+02  0.00000000000E+00 0. -1.
         11    1    3    3    0    0  0.17952431362E+02 -0.12036660915E+02  0.10454584092E+02  0.24009775646E+02  0.51100000000E-03 0. -1.
        -11    1    3    3    0    0 -0.34682333651E+02  0.12439610620E+02 -0.60553768348E+01  0.37340002260E+02  0.51100000000E-03 0.  1.
        -12    1    3    3    0    0  0.47972388249E+01  0.17643505822E+00  0.10021386601E+02  0.11111832391E+02  0.00000000000E+00 0.  1.
</event>
<event>
 7    1  0.1339094E-013  0.7246159E+02  0.7816164E-02  0.1226708E+00
        -11   -1    0    0    0    0  0.00000000000E+00  0.00000000000E+00  0.45593999997E+02  0.45594000000E+02  0.51100000000E-03 0.  1.
         11   -1    0    0    0    0 -0.00000000000E+00 -0.00000000000E+00 -0.45593999997E+02  0.45594000000E+02  0.51100000000E-03 0. -1.
    9900012    2    1    2    0    0  0.17339612155E+02 -0.29942754631E+01 -0.64070774413E+01  0.72461588796E+02  0.70000024102E+02 0.  0.
         12    1    1    2    0    0 -0.17339612155E+02  0.29942754631E+01  0.64070774413E+01  0.18726411204E+02  0.00000000000E+00 0. -1.
         11    1    3    3    0    0 -0.70448343191E+01  0.17946305463E+02 -0.51629917644E+01  0.19958859050E+02  0.51100000000E-03 0. -1.
        -11    1    3    3    0    0  0.17693365782E+02 -0.21035536401E+02 -0.19074991642E+02  0.33457499769E+02  0.51100000000E-03 0.  1.
         12    1    3    3    0    0  0.66910806924E+01  0.94955474987E-01  0.17830905965E+02  0.19045229978E+02  0.00000000000E+00 0. -1.
</event>
<event>
 7    1  0.1339094E-013  0.7246152E+02  0.7816164E-02  0.1226708E+00
        -11   -1    0    0    0    0  0.00000000000E+00  0.00000000000E+00  0.45593999997E+02  0.45594000000E+02  0.51100000000E-03 0. -1.
         11   -1    0    0    0    0 -0.00000000000E+00 -0.00000000000E+00 -0.45593999997E+02  0.45594000000E+02  0.51100000000E-03 0.  1.
    9900012    2    1    2    0    0 -0.25279115923E+01 -0.95795129992E+01 -0.15890991542E+02  0.72461520926E+02  0.69999935688E+02 0.  0.
         12    1    1    2    0    0  0.25279115923E+01  0.95795129992E+01  0.15890991542E+02  0.18726479074E+02  0.00000000000E+00 0. -1.
         11    1    3    3    0    0 -0.12118769465E+02 -0.35462259254E+02  0.16496570754E+01  0.37512101694E+02  0.51100000000E-03 0. -1.
        -11    1    3    3    0    0  0.36304988354E+01  0.16928451244E+01 -0.66420084266E+01  0.77564503872E+01  0.51100000000E-03 0.  1.
         12    1    3    3    0    0  0.59603590372E+01  0.24189901131E+02 -0.10898640191E+02  0.27192968845E+02  0.00000000000E+00 0. -1.
</event>
<event>
 7    1  0.1339094E-013  0.7246161E+02  0.7816164E-02  0.1226708E+00
        -11   -1    0    0    0    0  0.00000000000E+00  0.00000000000E+00  0.45593999997E+02  0.45594000000E+02  0.51100000000E-03 0. -1.
         11   -1    0    0    0    0 -0.00000000000E+00 -0.00000000000E+00 -0.45593999997E+02  0.45594000000E+02  0.51100000000E-03 0.  1.
    9900012    2    1    2    0    0  0.13494566340E+02 -0.11074000676E+02 -0.67779638651E+01  0.72461612045E+02  0.70000054388E+02 0.  0.
         12    1    1    2    0    0 -0.13494566340E+02  0.11074000676E+02  0.67779638651E+01  0.18726387955E+02  0.00000000000E+00 0. -1.
         11    1    3    3    0    0  0.25377912218E+02 -0.15441266658E+02  0.12978971179E+02  0.32417970907E+02  0.51100000000E-03 0. -1.
        -11    1    3    3    0    0  0.20347899280E+01  0.16234410462E+02 -0.73132044110E+01  0.17921479072E+02  0.51100000000E-03 0.  1.
         12    1    3    3    0    0 -0.13918135806E+02 -0.11867144480E+02 -0.12443730634E+02  0.22122162067E+02  0.00000000000E+00 0. -1.
</event>
<event>
 7    1  0.1339094E-013  0.7246163E+02  0.7816164E-02  0.1226708E+00
        -11   -1    0    0    0    0  0.00000000000E+00  0.00000000000E+00  0.45593999997E+02  0.45594000000E+02  0.51100000000E-03 0.  1.
         11   -1    0    0    0    0 -0.00000000000E+00 -0.00000000000E+00 -0.45593999997E+02  0.45594000000E+02  0.51100000000E-03 0. -1.
    9900012    2    1    2    0    0 -0.86449148065E+01  0.13932731875E+02  0.90455159844E+01  0.72461630118E+02  0.70000077932E+02 0.  0.
         12    1    1    2    0    0  0.86449148065E+01 -0.13932731875E+02 -0.90455159844E+01  0.18726369882E+02  0.00000000000E+00 0. -1.
         11    1    3    3    0    0 -0.13200639780E+02  0.14387716081E+02 -0.14731196184E+02  0.24459587198E+02  0.51100000000E-03 0. -1.
        -11    1    3    3    0    0 -0.41547121332E+01  0.56453216124E+00  0.34156793766E+02  0.34413179017E+02  0.51100000000E-03 0.  1.
         12    1    3    3    0    0  0.87104371067E+01 -0.10195163672E+01 -0.10380081597E+02  0.13588863903E+02  0.00000000000E+00 0. -1.
</event>
<event>
 7    1  0.1339094E-013  0.7246160E+02  0.7816164E-02  0.1226708E+00
        -11   -1    0    0    0    0  0.00000000000E+00  0.00000000000E+00  0.45593999997E+02  0.45594000000E+02  0.51100000000E-03 0.  1.
         11   -1    0    0    0    0 -0.00000000000E+00 -0.00000000000E+00 -0.45593999997E+02  0.45594000000E+02  0.51100000000E-03 0. -1.
    9900012    2    1    2    0    0 -0.16108715445E+02  0.91204107231E+01 -0.28293639400E+01  0.72461604048E+02  0.70000043970E+02 0.  0.
         12    1    1    2    0    0  0.16108715445E+02 -0.91204107231E+01  0.28293639400E+01  0.18726395952E+02  0.00000000000E+00 0. -1.
         11    1    3    3    0    0 -0.22442381813E+02 -0.90023661238E+01  0.20822568468E+02  0.31910538309E+02  0.51100000000E-03 0.  1.
        -11    1    3    3    0    0  0.29741818210E+01  0.11321690941E+02 -0.28997565880E+02  0.31271157166E+02  0.51100000000E-03 0. -1.
         12    1    3    3    0    0  0.33594845472E+01  0.68010859055E+01  0.53456334718E+01  0.92799085735E+01  0.00000000000E+00 0. -1.
</event>
<event>
 7    1  0.1339094E-013  0.7246162E+02  0.7816164E-02  0.1226708E+00
        -11   -1    0    0    0    0  0.00000000000E+00  0.00000000000E+00  0.45593999997E+02  0.45594000000E+02  0.51100000000E-03 0. -1.
         11   -1    0    0    0    0 -0.00000000000E+00 -0.00000000000E+00 -0.45593999997E+02  0.45594000000E+02  0.51100000000E-03 0.  1.
    9900012    2    1    2    0    0 -0.71700044554E+01  0.12717320927E+02 -0.11727656360E+02  0.72461624506E+02  0.70000070621E+02 0.  0.
         12    1    1    2    0    0  0.71700044554E+01 -0.12717320927E+02  0.11727656360E+02  0.18726375494E+02  0.00000000000E+00 0. -1.
         11    1    3    3    0    0 -0.12080113704E+02 -0.18374352408E+02 -0.21229546320E+02  0.30565333480E+02  0.51100000000E-03 0. -1.
        -11    1    3    3    0    0  0.42669163708E+01  0.24891794713E+02 -0.53270719025E+01  0.25810573699E+02  0.51100000000E-03 0.  1.
         12    1    3    3    0    0  0.64319287808E+00  0.61998786215E+01  0.14828961863E+02  0.16085717327E+02  0.00000000000E+00 0. -1.
</event>
<event>
 7    1  0.1339094E-013  0.7246160E+02  0.7816164E-02  0.1226708E+00
        -11   -1    0    0    0    0  0.00000000000E+00  0.00000000000E+00  0.45593999997E+02  0.45594000000E+02  0.51100000000E-03 0. -1.
         11   -1    0    0    0    0 -0.00000000000E+00 -0.00000000000E+00 -0.45593999997E+02  0.45594000000E+02  0.51100000000E-03 0.  1.
    9900012    2    1    2    0    0  0.12335116093E+02 -0.97253646572E+01 -0.10195105242E+02  0.72461602118E+02  0.70000041456E+02 0.  0.
         12    1    1    2    0    0 -0.12335116093E+02  0.97253646572E+01  0.10195105242E+02  0.18726397882E+02  0.00000000000E+00 0. -1.
         11    1    3    3    0    0  0.14014940132E+02  0.83277459421E+01  0.64520823670E+01  0.17532805438E+02  0.51100000000E-03 0. -1.
        -11    1    3    3    0    0 -0.13391514009E+02  0.13276297598E+02 -0.70537313136E+01  0.20133252372E+02  0.51100000000E-03 0.  1.
        -12    1    3    3    0    0  0.11711689970E+02 -0.31329408198E+02 -0.95934562954E+01  0.34795544308E+02  0.00000000000E+00 0.  1.
</event>
<event>
 7    1  0.1339094E-013  0.7246168E+02  0.7816164E-02  0.1226708E+00
        -11   -1    0    0    0    0  0.00000000000E+00  0.00000000000E+00  0.45593999997E+02  0.45594000000E+02  0.51100000000E-03 0. -1.
         11   -1    0    0    0    0 -0.00000000000E+00 -0.00000000000E+00 -0.45593999997E+02  0.45594000000E+02  0.51100000000E-03 0.  1.
    9900012    2    1    2    0    0  0.45427313897E+01 -0.60581186397E+01 -0.17127111330E+02  0.72461677552E+02  0.70000139723E+02 0.  0.
         12    1    1    2    0    0 -0.45427313897E+01  0.60581186397E+01  0.17127111330E+02  0.18726322448E+02  0.00000000000E+00 0. -1.
         11    1    3    3    0    0 -0.88201464725E+01 -0.20732661513E+02 -0.11790395655E+02  0.25429346574E+02  0.51100000000E-03 0. -1.
        -11    1    3    3    0    0  0.28339242198E+01  0.13604752875E+02  0.17213042272E+02  0.22122595955E+02  0.51100000000E-03 0.  1.
        -12    1    3    3    0    0  0.10528953642E+02  0.10697899987E+01 -0.22549757947E+02  0.24909735023E+02  0.00000000000E+00 0.  1.
</event>
<event>
 7    1  0.1339094E-013  0.7246155E+02  0.7816164E-02  0.1226708E+00
        -11   -1    0    0    0    0  0.00000000000E+00  0.00000000000E+00  0.45593999997E+02  0.45594000000E+02  0.51100000000E-03 0.  1.
         11   -1    0    0    0    0 -0.00000000000E+00 -0.00000000000E+00 -0.45593999997E+02  0.45594000000E+02  0.51100000000E-03 0. -1.
    9900012    2    1    2    0    0 -0.49435542857E+01  0.54814972804E+01  0.17210297438E+02  0.72461551343E+02  0.69999975312E+02 0.  0.
         12    1    1    2    0    0  0.49435542857E+01 -0.54814972804E+01 -0.17210297438E+02  0.18726448657E+02  0.00000000000E+00 0. -1.
         11    1    3    3    0    0  0.12925447817E+02 -0.15091168013E+02 -0.11773924270E+02  0.23096230131E+02  0.51100000000E-03 0. -1.
        -11    1    3    3    0    0  0.12922509134E+01 -0.42583820420E+01  0.13836395997E+02  0.14534427559E+02  0.51100000000E-03 0.  1.
         12    1    3    3    0    0 -0.19161253016E+02  0.24831047335E+02  0.15147825711E+02  0.34830893653E+02  0.00000000000E+00 0. -1.
</event>
<event>
 7    1  0.1339094E-013  0.7246154E+02  0.7816164E-02  0.1226708E+00
        -11   -1    0    0    0    0  0.00000000000E+00  0.00000000000E+00  0.45593999997E+02  0.45594000000E+02  0.51100000000E-03 0.  1.
         11   -1    0    0    0    0 -0.00000000000E+00 -0.00000000000E+00 -0.45593999997E+02  0.45594000000E+02  0.51100000000E-03 0. -1.
    9900012    2    1    2    0    0  0.17043471905E+02  0.37298873228E+01 -0.68035566123E+01  0.72461538065E+02  0.69999958016E+02 0.  0.
         12    1    1    2    0    0 -0.17043471905E+02 -0.37298873228E+01  0.68035566123E+01  0.18726461935E+02  0.00000000000E+00 0. -1.
         11    1    3    3    0    0  0.16273304084E+02 -0.72143362749E+00 -0.10661787719E+02  0.19468297561E+02  0.51100000000E-03 0. -1.
        -11    1    3    3    0    0 -0.23961114846E+02  0.93126868508E+00 -0.80836002154E+01  0.25305076145E+02  0.51100000000E-03 0.  1.
        -12    1    3    3    0    0  0.24731282666E+02  0.35200522652E+01  0.11941831322E+02  0.27688164359E+02  0.00000000000E+00 0.  1.
</event>
<event>
 7    1  0.1339094E-013  0.7246151E+02  0.7816164E-02  0.1226708E+00
        -11   -1    0    0    0    0  0.00000000000E+00  0.00000000000E+00  0.45593999997E+02  0.45594000000E+02  0.51100000000E-03 0.  1.
         11   -1    0    0    0    0 -0.00000000000E+00 -0.00000000000E+00 -0.45593999997E+02  0.45594000000E+02  0.51100000000E-03 0. -1.
    9900012    2    1    2    0    0  0.13550307219E+02  0.48238183038E+01  0.11991717478E+02  0.72461512427E+02  0.69999924616E+02 0.  0.
         12    1    1    2    0    0 -0.13550307219E+02 -0.48238183038E+01 -0.11991717478E+02  0.18726487573E+02  0.00000000000E+00 0. -1.
         11    1    3    3    0    0 -0.23424711146E+01  0.17563266635E+02 -0.16942515503E+02  0.24515389813E+02  0.51100000000E-03 0. -1.
        -11    1    3    3    0    0 -0.59777640350E+01 -0.23352534347E+01  0.21760081896E+02  0.22686741411E+02  0.51100000000E-03 0.  1.
         12    1    3    3    0    0  0.21870542369E+02 -0.10404194897E+02  0.71741510854E+01  0.25259381203E+02  0.00000000000E+00 0. -1.
</event>
<event>
 8    1  0.1339094E-013  0.7246155E+02  0.7816164E-02  0.1226708E+00
        -11   -1    0    0    0    0  0.00000000000E+00  0.00000000000E+00  0.45593999997E+02  0.45594000000E+02  0.51100000000E-03 0. -1.
         11   -1    0    0    0    0 -0.00000000000E+00 -0.00000000000E+00 -0.45593999997E+02  0.45594000000E+02  0.51100000000E-03 0.  1.
    9900012    2    1    2    0    0 -0.11240867821E+01  0.70721942296E+01 -0.17303188299E+02  0.72461552723E+02  0.69999977110E+02 0.  0.
         24    2    3    3    0    0  0.17550513178E+01  0.21132336703E+02 -0.21468153811E+02  0.57517524466E+02  0.48966602220E+02 0.  0.
         12    1    1    2    0    0  0.11240867821E+01 -0.70721942296E+01  0.17303188299E+02  0.18726447277E+02  0.00000000000E+00 0. -1.
         11    1    3    3    0    0 -0.28791380999E+01 -0.14060142473E+02  0.41649655114E+01  0.14944028257E+02  0.51100000000E-03 0. -1.
        -11    1    4    4    0    0  0.18169407524E+02  0.28587650630E+02 -0.74548437543E+01  0.34683653700E+02  0.51100000000E-03 0.  1.
         12    1    4    4    0    0 -0.16414356206E+02 -0.74553139274E+01 -0.14013310056E+02  0.22833870766E+02  0.00000000000E+00 0. -1.
</event>
<event>
 7    1  0.1339094E-013  0.7246158E+02  0.7816164E-02  0.1226708E+00
        -11   -1    0    0    0    0  0.00000000000E+00  0.00000000000E+00  0.45593999997E+02  0.45594000000E+02  0.51100000000E-03 0. -1.
         11   -1    0    0    0    0 -0.00000000000E+00 -0.00000000000E+00 -0.45593999997E+02  0.45594000000E+02  0.51100000000E-03 0.  1.
    9900012    2    1    2    0    0 -0.47208314564E+01  0.15132830920E+02 -0.99694458034E+01  0.72461583607E+02  0.70000017342E+02 0.  0.
         12    1    1    2    0    0  0.47208314564E+01 -0.15132830920E+02  0.99694458034E+01  0.18726416393E+02  0.00000000000E+00 0. -1.
         11    1    3    3    0    0  0.72157598760E+01  0.29150616694E+02  0.18435787996E+02  0.35237819505E+02  0.51100000000E-03 0. -1.
        -11    1    3    3    0    0 -0.73851420680E+01 -0.80705153502E+01 -0.39229631183E+01  0.11621668610E+02  0.51100000000E-03 0.  1.
         12    1    3    3    0    0 -0.45514492644E+01 -0.59472704229E+01 -0.24482270681E+02  0.25602095492E+02  0.00000000000E+00 0. -1.
</event>
<event>
 7    1  0.1339094E-013  0.7246158E+02  0.7816164E-02  0.1226708E+00
        -11   -1    0    0    0    0  0.00000000000E+00  0.00000000000E+00  0.45593999997E+02  0.45594000000E+02  0.51100000000E-03 0.  1.
         11   -1    0    0    0    0 -0.00000000000E+00 -0.00000000000E+00 -0.45593999997E+02  0.45594000000E+02  0.51100000000E-03 0. -1.
    9900012    2    1    2    0    0  0.18088496204E+02  0.26483514823E+01  0.40584711877E+01  0.72461584196E+02  0.70000018109E+02 0.  0.
         12    1    1    2    0    0 -0.18088496204E+02 -0.26483514823E+01 -0.40584711877E+01  0.18726415804E+02  0.00000000000E+00 0. -1.
         11    1    3    3    0    0  0.51066905954E+01 -0.39584079092E+01 -0.14979940433E+01  0.66325913810E+01  0.51100000000E-03 0. -1.
        -11    1    3    3    0    0  0.75182503637E+01  0.35067054227E+02  0.80026946262E+01  0.36745958992E+02  0.51100000000E-03 0.  1.
        -12    1    3    3    0    0  0.54635552449E+01 -0.28460294836E+02 -0.24462293952E+01  0.29083033822E+02  0.00000000000E+00 0.  1.
</event>
<event>
 7    1  0.1339094E-013  0.7246156E+02  0.7816164E-02  0.1226708E+00
        -11   -1    0    0    0    0  0.00000000000E+00  0.00000000000E+00  0.45593999997E+02  0.45594000000E+02  0.51100000000E-03 0.  1.
         11   -1    0    0    0    0 -0.00000000000E+00 -0.00000000000E+00 -0.45593999997E+02  0.45594000000E+02  0.51100000000E-03 0. -1.
    9900012    2    1    2    0    0  0.79391313367E+01 -0.92298587741E+01 -0.14228826540E+02  0.72461558692E+02  0.69999984885E+02 0.  0.
         12    1    1    2    0    0 -0.79391313367E+01  0.92298587741E+01  0.14228826540E+02  0.18726441308E+02  0.00000000000E+00 0. -1.
         11    1    3    3    0    0 -0.21672103274E+02  0.97123892311E+01 -0.16033564659E+02  0.28654594061E+02  0.51100000000E-03 0. -1.
        -11    1    3    3    0    0  0.19371383097E+02 -0.25180729277E+02  0.17157622845E+01  0.31816087920E+02  0.51100000000E-03 0.  1.
        -12    1    3    3    0    0  0.10239851513E+02  0.62384812720E+01  0.88975834850E-01  0.11990876710E+02  0.00000000000E+00 0.  1.
</event>
<event>
 7    1  0.1339094E-013  0.7246159E+02  0.7816164E-02  0.1226708E+00
        -11   -1    0    0    0    0  0.00000000000E+00  0.00000000000E+00  0.45593999997E+02  0.45594000000E+02  0.51100000000E-03 0.  1.
         11   -1    0    0    0    0 -0.00000000000E+00 -0.00000000000E+00 -0.45593999997E+02  0.45594000000E+02  0.51100000000E-03 0. -1.
    9900012    2    1    2    0    0 -0.52676755103E+01  0.86808017706E+01  0.15734480821E+02  0.72461585197E+02  0.70000019414E+02 0.  0.
         12    1    1    2    0    0  0.52676755103E+01 -0.86808017706E+01 -0.15734480821E+02  0.18726414803E+02  0.00000000000E+00 0. -1.
         11    1    3    3    0    0 -0.10807290200E+02  0.28653080878E+02  0.29337713454E+02  0.42408701893E+02  0.51100000000E-03 0.  1.
        -11    1    3    3    0    0  0.60702718323E+00 -0.19909672840E+02 -0.14989434452E+02  0.24928832705E+02  0.51100000000E-03 0. -1.
        -12    1    3    3    0    0  0.49325875069E+01 -0.62606267733E-01  0.13862018184E+01  0.51240505988E+01  0.00000000000E+00 0.  1.
</event>
<event>
 7    1  0.1339094E-013  0.7246156E+02  0.7816164E-02  0.1226708E+00
        -11   -1    0    0    0    0  0.00000000000E+00  0.00000000000E+00  0.45593999997E+02  0.45594000000E+02  0.51100000000E-03 0.  1.
         11   -1    0    0    0    0 -0.00000000000E+00 -0.00000000000E+00 -0.45593999997E+02  0.45594000000E+02  0.51100000000E-03 0. -1.
    9900012    2    1    2    0    0  0.85478456292E+01  0.13492495795E+02 -0.97758022952E+01  0.72461563655E+02  0.69999991351E+02 0.  0.
         12    1    1    2    0    0 -0.85478456292E+01 -0.13492495795E+02  0.97758022952E+01  0.18726436345E+02  0.00000000000E+00 0. -1.
         11    1    3    3    0    0 -0.81105800065E+00 -0.13979176359E+02 -0.19223364236E+02  0.23782618014E+02  0.51100000000E-03 0. -1.
        -11    1    3    3    0    0 -0.17463370358E+01 -0.98256063900E+00  0.17078463162E+02  0.17195610565E+02  0.51100000000E-03 0.  1.
         12    1    3    3    0    0  0.11105240666E+02  0.28454232793E+02 -0.76309012216E+01  0.31483335076E+02  0.00000000000E+00 0. -1.
</event>
<event>
 7    1  0.1339094E-013  0.7246153E+02  0.7816164E-02  0.1226708E+00
        -11   -1    0    0    0    0  0.00000000000E+00  0.00000000000E+00  0.45593999997E+02  0.45594000000E+02  0.51100000000E-03 0. -1.
         11   -1    0    0    0    0 -0.00000000000E+00 -0.00000000000E+00 -0.45593999997E+02  0.45594000000E+02  0.51100000000E-03 0.  1.
    9900012    2    1    2    0    0  0.65758560628E+01  0.14171681652E+02 -0.10324842298E+02  0.72461526432E+02  0.69999942862E+02 0.  0.
         12    1    1    2    0    0 -0.65758560628E+01 -0.14171681652E+02  0.10324842298E+02  0.18726473568E+02  0.00000000000E+00 0. -1.
         11    1    3    3    0    0  0.21133686808E+02 -0.10548795304E+02  0.77639349223E+01  0.24863396514E+02  0.51100000000E-03 0. -1.
        -11    1    3    3    0    0 -0.20915606201E+02  0.14710898115E+02  0.46909135508E+00  0.25575244926E+02  0.51100000000E-03 0.  1.
        -12    1    3    3    0    0  0.63577754552E+01  0.10009578841E+02 -0.18557868575E+02  0.22022884992E+02  0.00000000000E+00 0.  1.
</event>
<event>
 7    1  0.1339094E-013  0.7246159E+02  0.7816164E-02  0.1226708E+00
        -11   -1    0    0    0    0  0.00000000000E+00  0.00000000000E+00  0.45593999997E+02  0.45594000000E+02  0.51100000000E-03 0.  1.
         11   -1    0    0    0    0 -0.00000000000E+00 -0.00000000000E+00 -0.45593999997E+02  0.45594000000E+02  0.51100000000E-03 0. -1.
    9900012    2    1    2    0    0 -0.18345348087E+01  0.63322215177E+01  0.17527574153E+02  0.72461590761E+02  0.70000026661E+02 0.  0.
         12    1    1    2    0    0  0.18345348087E+01 -0.63322215177E+01 -0.17527574153E+02  0.18726409239E+02  0.00000000000E+00 0. -1.
         11    1    3    3    0    0  0.18255795231E+02  0.29580441372E+02  0.55319697033E+01  0.35197716692E+02  0.51100000000E-03 0.  1.
        -11    1    3    3    0    0 -0.76653191818E+01 -0.21172919595E+02  0.59469266751E+01  0.23289817077E+02  0.51100000000E-03 0. -1.
        -12    1    3    3    0    0 -0.12425010858E+02 -0.20753002600E+01  0.60486777745E+01  0.13974056992E+02  0.00000000000E+00 0.  1.
</event>
<event>
 7    1  0.1339094E-013  0.7246140E+02  0.7816164E-02  0.1226708E+00
        -11   -1    0    0    0    0  0.00000000000E+00  0.00000000000E+00  0.45593999997E+02  0.45594000000E+02  0.51100000000E-03 0. -1.
         11   -1    0    0    0    0 -0.00000000000E+00 -0.00000000000E+00 -0.45593999997E+02  0.45594000000E+02  0.51100000000E-03 0.  1.
    9900012    2    1    2    0    0 -0.18398792532E+02  0.18688125243E+01  0.29457703268E+01  0.72461398875E+02  0.69999776694E+02 0.  0.
         12    1    1    2    0    0  0.18398792532E+02 -0.18688125243E+01 -0.29457703268E+01  0.18726601125E+02  0.00000000000E+00 0. -1.
         11    1    3    3    0    0 -0.85716805781E+00 -0.40057416878E+01  0.56865939147E+01  0.70084273671E+01  0.51100000000E-03 0. -1.
        -11    1    3    3    0    0 -0.28910770806E+02  0.23840709269E+02 -0.15616811292E+02  0.40596759504E+02  0.51100000000E-03 0.  1.
        -12    1    3    3    0    0  0.11369146331E+02 -0.17966155057E+02  0.12875987704E+02  0.24856212004E+02  0.00000000000E+00 0.  1.
</event>
<event>
 7    1  0.1339094E-013  0.7246156E+02  0.7816164E-02  0.1226708E+00
        -11   -1    0    0    0    0  0.00000000000E+00  0.00000000000E+00  0.45593999997E+02  0.45594000000E+02  0.51100000000E-03 0. -1.
         11   -1    0    0    0    0 -0.00000000000E+00 -0.00000000000E+00 -0.45593999997E+02  0.45594000000E+02  0.51100000000E-03 0.  1.
    9900012    2    1    2    0    0 -0.51316294882E+01 -0.13594722461E+02 -0.11812254556E+02  0.72461562600E+02  0.69999989977E+02 0.  0.
         12    1    1    2    0    0  0.51316294882E+01  0.13594722461E+02  0.11812254556E+02  0.18726437400E+02  0.00000000000E+00 0. -1.
         11    1    3    3    0    0 -0.12083828578E+02 -0.25298940622E+02 -0.10159363382E+02  0.29820596478E+02  0.51100000000E-03 0. -1.
        -11    1    3    3    0    0 -0.65205040128E+01  0.23687363903E+02 -0.50401468648E+00  0.24573608044E+02  0.51100000000E-03 0.  1.
         12    1    3    3    0    0  0.13472703103E+02 -0.11983145741E+02 -0.11488764878E+01  0.18067358078E+02  0.00000000000E+00 0. -1.
</event>
<event>
 7    1  0.1339094E-013  0.7246157E+02  0.7816164E-02  0.1226708E+00
        -11   -1    0    0    0    0  0.00000000000E+00  0.00000000000E+00  0.45593999997E+02  0.45594000000E+02  0.51100000000E-03 0. -1.
         11   -1    0    0    0    0 -0.00000000000E+00 -0.00000000000E+00 -0.45593999997E+02  0.45594000000E+02  0.51100000000E-03 0.  1.
    9900012    2    1    2    0    0 -0.23130447728E+00  0.11801784137E+02 -0.14537656816E+02  0.72461572784E+02  0.70000003243E+02 0.  0.
         12    1    1    2    0    0  0.23130447728E+00 -0.11801784137E+02  0.14537656816E+02  0.18726427216E+02  0.00000000000E+00 0. -1.
         11    1    3    3    0    0 -0.40609517289E+01 -0.81451810945E+01  0.23403192781E+02  0.25110649865E+02  0.51100000000E-03 0. -1.
        -11    1    3    3    0    0  0.11088479971E+02  0.72457378068E+01 -0.22280822738E+02  0.25920844249E+02  0.51100000000E-03 0.  1.
        -12    1    3    3    0    0 -0.72588327195E+01  0.12701227425E+02 -0.15660026860E+02  0.21430078670E+02  0.00000000000E+00 0.  1.
</event>
<event>
 7    1  0.1339094E-013  0.7246156E+02  0.7816164E-02  0.1226708E+00
        -11   -1    0    0    0    0  0.00000000000E+00  0.00000000000E+00  0.45593999997E+02  0.45594000000E+02  0.51100000000E-03 0.  1.
         11   -1    0    0    0    0 -0.00000000000E+00 -0.00000000000E+00 -0.45593999997E+02  0.45594000000E+02  0.51100000000E-03 0. -1.
    9900012    2    1    2    0    0 -0.95524506151E+01 -0.13147719690E+02  0.93041705678E+01  0.72461563186E+02  0.69999990740E+02 0.  0.
         12    1    1    2    0    0  0.95524506151E+01  0.13147719690E+02 -0.93041705678E+01  0.18726436814E+02  0.00000000000E+00 0. -1.
         11    1    3    3    0    0  0.54309476909E+01  0.35283139924E+01 -0.18126703767E+02  0.19248937170E+02  0.51100000000E-03 0. -1.
        -11    1    3    3    0    0 -0.16782684649E+02 -0.24488056983E+02  0.32270328204E+02  0.43848574908E+02  0.51100000000E-03 0.  1.
        -12    1    3    3    0    0  0.17992863430E+01  0.78120233004E+01 -0.48394538691E+01  0.93640511073E+01  0.00000000000E+00 0.  1.
</event>
<event>
 7    1  0.1339094E-013  0.7246151E+02  0.7816164E-02  0.1226708E+00
        -11   -1    0    0    0    0  0.00000000000E+00  0.00000000000E+00  0.45593999997E+02  0.45594000000E+02  0.51100000000E-03 0. -1.
         11   -1    0    0    0    0 -0.00000000000E+00 -0.00000000000E+00 -0.45593999997E+02  0.45594000000E+02  0.51100000000E-03 0.  1.
    9900012    2    1    2    0    0  0.35356101466E+01 -0.45731720916E+01 -0.17811993528E+02  0.72461506587E+02  0.69999917010E+02 0.  0.
         12    1    1    2    0    0 -0.35356101466E+01  0.45731720916E+01  0.17811993528E+02  0.18726493413E+02  0.00000000000E+00 0. -1.
         11    1    3    3    0    0  0.25959243522E+02 -0.14016013717E+02  0.73651137091E+01  0.30406839115E+02  0.51100000000E-03 0. -1.
        -11    1    3    3    0    0 -0.22594998439E+02 -0.10721532911E+01 -0.20565376920E+02  0.30571525891E+02  0.51100000000E-03 0.  1.
         12    1    3    3    0    0  0.17136506368E+00  0.10514994916E+02 -0.46117303166E+01  0.11483141582E+02  0.00000000000E+00 0. -1.
</event>
<event>
 7    1  0.1339094E-013  0.7246158E+02  0.7816164E-02  0.1226708E+00
        -11   -1    0    0    0    0  0.00000000000E+00  0.00000000000E+00  0.45593999997E+02  0.45594000000E+02  0.51100000000E-03 0.  1.
         11   -1    0    0    0    0 -0.00000000000E+00 -0.00000000000E+00 -0.45593999997E+02  0.45594000000E+02  0.51100000000E-03 0. -1.
    9900012    2    1    2    0    0  0.13211939717E+02  0.11531149258E+02  0.65693404622E+01  0.72461575130E+02  0.70000006300E+02 0.  0.
         12    1    1    2    0    0 -0.13211939717E+02 -0.11531149258E+02 -0.65693404622E+01  0.18726424870E+02  0.00000000000E+00 0. -1.
         11    1    3    3    0    0  0.26166040427E+02  0.19633547327E+02  0.24285831920E+01  0.32802985670E+02  0.51100000000E-03 0. -1.
        -11    1    3    3    0    0 -0.87850288162E+01 -0.22371873947E+02  0.57280351275E+01  0.24708052571E+02  0.51100000000E-03 0.  1.
         12    1    3    3    0    0 -0.41690718940E+01  0.14269475877E+02 -0.15872778573E+01  0.14950536889E+02  0.00000000000E+00 0. -1.
</event>
<event>
 7    1  0.1339094E-013  0.7246155E+02  0.7816164E-02  0.1226708E+00
        -11   -1    0    0    0    0  0.00000000000E+00  0.00000000000E+00  0.45593999997E+02  0.45594000000E+02  0.51100000000E-03 0. -1.
         11   -1    0    0    0    0 -0.00000000000E+00 -0.00000000000E+00 -0.45593999997E+02  0.45594000000E+02  0.51100000000E-03 0.  1.
    9900012    2    1    2    0    0  0.16598396559E+02  0.68374724919E+01 -0.53312288108E+01  0.72461553486E+02  0.69999978104E+02 0.  0.
         12    1    1    2    0    0 -0.16598396559E+02 -0.68374724919E+01  0.53312288108E+01  0.18726446514E+02  0.00000000000E+00 0. -1.
         11    1    3    3    0    0 -0.39915606880E+01 -0.11825565525E+02  0.56023172189E+01  0.13680735185E+02  0.51100000000E-03 0. -1.
        -11    1    3    3    0    0  0.37379846037E+02  0.92883462225E+01 -0.77714499632E+01  0.39292769056E+02  0.51100000000E-03 0.  1.
        -12    1    3    3    0    0 -0.16789888790E+02  0.93746917944E+01 -0.31620960665E+01  0.19488049245E+02  0.00000000000E+00 0.  1.
</event>
<event>
 7    1  0.1339094E-013  0.7246156E+02  0.7816164E-02  0.1226708E+00
        -11   -1    0    0    0    0  0.00000000000E+00  0.00000000000E+00  0.45593999997E+02  0.45594000000E+02  0.51100000000E-03 0.  1.
         11   -1    0    0    0    0 -0.00000000000E+00 -0.00000000000E+00 -0.45593999997E+02  0.45594000000E+02  0.51100000000E-03 0. -1.
    9900012    2    1    2    0    0 -0.60949270292E+01  0.69896777938E+01 -0.16268861392E+02  0.72461559278E+02  0.69999985649E+02 0.  0.
         12    1    1    2    0    0  0.60949270292E+01 -0.69896777938E+01  0.16268861392E+02  0.18726440722E+02  0.00000000000E+00 0. -1.
         11    1    3    3    0    0  0.19645501757E+02  0.15950531260E+02 -0.25819922027E+02  0.36152919115E+02  0.51100000000E-03 0. -1.
        -11    1    3    3    0    0 -0.11986647897E+01  0.22343348575E+01  0.89766735348E+01  0.93278999536E+01  0.51100000000E-03 0.  1.
         12    1    3    3    0    0 -0.24541763997E+02 -0.11195188324E+02  0.57438710071E+00  0.26980740209E+02  0.00000000000E+00 0. -1.
</event>
<event>
 7    1  0.1339094E-013  0.7246155E+02  0.7816164E-02  0.1226708E+00
        -11   -1    0    0    0    0  0.00000000000E+00  0.00000000000E+00  0.45593999997E+02  0.45594000000E+02  0.51100000000E-03 0.  1.
         11   -1    0    0    0    0 -0.00000000000E+00 -0.00000000000E+00 -0.45593999997E+02  0.45594000000E+02  0.51100000000E-03 0. -1.
    9900012    2    1    2    0    0 -0.47264852280E+01  0.54776143564E+01  0.17272406667E+02  0.72461549357E+02  0.69999972725E+02 0.  0.
         12    1    1    2    0    0  0.47264852280E+01 -0.54776143564E+01 -0.17272406667E+02  0.18726450643E+02  0.00000000000E+00 0. -1.
         11    1    3    3    0    0  0.21400723529E+02 -0.34866542833E+01 -0.38773835938E+01  0.22026843383E+02  0.51100000000E-03 0. -1.
        -11    1    3    3    0    0 -0.19220118316E+02 -0.23270357143E+01  0.29131389222E+02  0.34978077157E+02  0.51100000000E-03 0.  1.
         12    1    3    3    0    0 -0.69070904411E+01  0.11291304354E+02 -0.79815989622E+01  0.15456628816E+02  0.00000000000E+00 0. -1.
</event>
<event>
 7    1  0.1339094E-013  0.7246148E+02  0.7816164E-02  0.1226708E+00
        -11   -1    0    0    0    0  0.00000000000E+00  0.00000000000E+00  0.45593999997E+02  0.45594000000E+02  0.51100000000E-03 0. -1.
         11   -1    0    0    0    0 -0.00000000000E+00 -0.00000000000E+00 -0.45593999997E+02  0.45594000000E+02  0.51100000000E-03 0.  1.
    9900012    2    1    2    0    0  0.14558512194E+02 -0.11040027560E+02  0.41048740726E+01  0.72461481985E+02  0.69999884961E+02 0.  0.
         12    1    1    2    0    0 -0.14558512194E+02  0.11040027560E+02 -0.41048740726E+01  0.18726518015E+02  0.00000000000E+00 0. -1.
         11    1    3    3    0    0  0.59914081376E+01  0.15920906862E+01  0.21408448678E+02  0.22287965347E+02  0.51100000000E-03 0. -1.
        -11    1    3    3    0    0  0.18867947009E+02 -0.18445531368E+02 -0.24765877787E+02  0.36188199107E+02  0.51100000000E-03 0.  1.
         12    1    3    3    0    0 -0.10300842953E+02  0.58134131217E+01  0.74623031815E+01  0.13985317531E+02  0.00000000000E+00 0. -1.
</event>
<event>
 7    1  0.1339094E-013  0.7246156E+02  0.7816164E-02  0.1226708E+00
        -11   -1    0    0    0    0  0.00000000000E+00  0.00000000000E+00  0.45593999997E+02  0.45594000000E+02  0.51100000000E-03 0.  1.
         11   -1    0    0    0    0 -0.00000000000E+00 -0.00000000000E+00 -0.45593999997E+02  0.45594000000E+02  0.51100000000E-03 0. -1.
    9900012    2    1    2    0    0  0.14407071110E+02  0.11946447693E+02  0.63091841731E+00  0.72461564982E+02  0.69999993079E+02 0.  0.
         12    1    1    2    0    0 -0.14407071110E+02 -0.11946447693E+02 -0.63091841731E+00  0.18726435018E+02  0.00000000000E+00 0. -1.
         11    1    3    3    0    0 -0.20229100786E+02 -0.16398830319E+02 -0.33332008980E+01  0.26253540389E+02  0.51100000000E-03 0.  1.
        -11    1    3    3    0    0  0.25712188798E+02  0.25356035062E+02  0.59254972216E+01  0.36594489810E+02  0.51100000000E-03 0. -1.
         12    1    3    3    0    0  0.89239830974E+01  0.29892429506E+01 -0.19613779063E+01  0.96135347834E+01  0.00000000000E+00 0. -1.
</event>
<event>
 7    1  0.1339094E-013  0.7246160E+02  0.7816164E-02  0.1226708E+00
        -11   -1    0    0    0    0  0.00000000000E+00  0.00000000000E+00  0.45593999997E+02  0.45594000000E+02  0.51100000000E-03 0.  1.
         11   -1    0    0    0    0 -0.00000000000E+00 -0.00000000000E+00 -0.45593999997E+02  0.45594000000E+02  0.51100000000E-03 0. -1.
    9900012    2    1    2    0    0 -0.54952694267E+01 -0.94596556868E+01  0.15198521880E+02  0.72461597806E+02  0.70000035839E+02 0.  0.
         12    1    1    2    0    0  0.54952694267E+01  0.94596556868E+01 -0.15198521880E+02  0.18726402194E+02  0.00000000000E+00 0. -1.
         11    1    3    3    0    0  0.80590127456E+01 -0.62180626376E+01 -0.17569727396E+02  0.20305351768E+02  0.51100000000E-03 0. -1.
        -11    1    3    3    0    0 -0.81993573887E+01 -0.60134049548E+01  0.40836722857E+02  0.42083588662E+02  0.51100000000E-03 0.  1.
        -12    1    3    3    0    0 -0.53549247836E+01  0.27718119056E+01 -0.80684735811E+01  0.10072657376E+02  0.00000000000E+00 0.  1.
</event>
<event>
 7    1  0.1339094E-013  0.7246144E+02  0.7816164E-02  0.1226708E+00
        -11   -1    0    0    0    0  0.00000000000E+00  0.00000000000E+00  0.45593999997E+02  0.45594000000E+02  0.51100000000E-03 0. -1.
         11   -1    0    0    0    0 -0.00000000000E+00 -0.00000000000E+00 -0.45593999997E+02  0.45594000000E+02  0.51100000000E-03 0.  1.
    9900012    2    1    2    0    0  0.16597489372E+02 -0.83742802680E+01  0.22536258840E+01  0.72461439902E+02  0.69999830140E+02 0.  0.
         12    1    1    2    0    0 -0.16597489372E+02  0.83742802680E+01 -0.22536258840E+01  0.18726560098E+02  0.00000000000E+00 0. -1.
         11    1    3    3    0    0  0.11055051381E+02 -0.99993527707E+01  0.20235455760E+02  0.25133143197E+02  0.51100000000E-03 0. -1.
        -11    1    3    3    0    0  0.81111190138E+01 -0.10393682948E+02 -0.28339186181E+02  0.31255853381E+02  0.51100000000E-03 0.  1.
        -12    1    3    3    0    0 -0.25686810230E+01  0.12018755451E+02  0.10357356305E+02  0.16072443324E+02  0.00000000000E+00 0.  1.
</event>
<event>
 7    1  0.1339094E-013  0.7246156E+02  0.7816164E-02  0.1226708E+00
        -11   -1    0    0    0    0  0.00000000000E+00  0.00000000000E+00  0.45593999997E+02  0.45594000000E+02  0.51100000000E-03 0.  1.
         11   -1    0    0    0    0 -0.00000000000E+00 -0.00000000000E+00 -0.45593999997E+02  0.45594000000E+02  0.51100000000E-03 0. -1.
    9900012    2    1    2    0    0 -0.13279450175E+02 -0.11973026323E+02  0.55661681096E+01  0.72461564576E+02  0.69999992550E+02 0.  0.
         12    1    1    2    0    0  0.13279450175E+02  0.11973026323E+02 -0.55661681096E+01  0.18726435424E+02  0.00000000000E+00 0. -1.
         11    1    3    3    0    0 -0.99973916438E+01  0.73622552507E+01 -0.10121371554E+02  0.16018514427E+02  0.51100000000E-03 0. -1.
        -11    1    3    3    0    0 -0.71184471215E+01 -0.18518518760E+02  0.33102122092E+02  0.38592205349E+02  0.51100000000E-03 0.  1.
        -12    1    3    3    0    0  0.38363885903E+01 -0.81676281401E+00 -0.17414582428E+02  0.17850844799E+02  0.00000000000E+00 0.  1.
</event>
<event>
 7    1  0.1339094E-013  0.7246163E+02  0.7816164E-02  0.1226708E+00
        -11   -1    0    0    0    0  0.00000000000E+00  0.00000000000E+00  0.45593999997E+02  0.45594000000E+02  0.51100000000E-03 0. -1.
         11   -1    0    0    0    0 -0.00000000000E+00 -0.00000000000E+00 -0.45593999997E+02  0.45594000000E+02  0.51100000000E-03 0.  1.
    9900012    2    1    2    0    0  0.11826440117E+02 -0.14474536100E+02 -0.11401224281E+01  0.72461634622E+02  0.70000083798E+02 0.  0.
         12    1    1    2    0    0 -0.11826440117E+02  0.14474536100E+02  0.11401224281E+01  0.18726365378E+02  0.00000000000E+00 0. -1.
         11    1    3    3    0    0  0.27178661117E+02 -0.21937662388E+02 -0.70426619155E+01  0.35630601149E+02  0.51100000000E-03 0.  1.
        -11    1    3    3    0    0 -0.57540669602E+01  0.91807081436E+01  0.18173219783E+02  0.21157991543E+02  0.51100000000E-03 0. -1.
         12    1    3    3    0    0 -0.95981540396E+01 -0.17175818552E+01 -0.12270680296E+02  0.15673041929E+02  0.00000000000E+00 0. -1.
</event>
<event>
 7    1  0.1339094E-013  0.7246153E+02  0.7816164E-02  0.1226708E+00
        -11   -1    0    0    0    0  0.00000000000E+00  0.00000000000E+00  0.45593999997E+02  0.45594000000E+02  0.51100000000E-03 0.  1.
         11   -1    0    0    0    0 -0.00000000000E+00 -0.00000000000E+00 -0.45593999997E+02  0.45594000000E+02  0.51100000000E-03 0. -1.
    9900012    2    1    2    0    0 -0.12260196399E+02 -0.80126486561E+01  0.11669013836E+02  0.72461525742E+02  0.69999941963E+02 0.  0.
         12    1    1    2    0    0  0.12260196399E+02  0.80126486561E+01 -0.11669013836E+02  0.18726474258E+02  0.00000000000E+00 0. -1.
         11    1    3    3    0    0 -0.22572685718E+02  0.17286813092E+02 -0.13936765599E+02  0.31663756616E+02  0.51100000000E-03 0. -1.
        -11    1    3    3    0    0  0.11751998964E+02 -0.76616934381E+01  0.12294642727E+02  0.18653934331E+02  0.51100000000E-03 0.  1.
        -12    1    3    3    0    0 -0.14395096447E+01 -0.17637768310E+02  0.13311136709E+02  0.22143834796E+02  0.00000000000E+00 0.  1.
</event>
<event>
 7    1  0.1339094E-013  0.7246157E+02  0.7816164E-02  0.1226708E+00
        -11   -1    0    0    0    0  0.00000000000E+00  0.00000000000E+00  0.45593999997E+02  0.45594000000E+02  0.51100000000E-03 0. -1.
         11   -1    0    0    0    0 -0.00000000000E+00 -0.00000000000E+00 -0.45593999997E+02  0.45594000000E+02  0.51100000000E-03 0.  1.
    9900012    2    1    2    0    0  0.29732125153E+01  0.12561635965E+02  0.13566299911E+02  0.72461569907E+02  0.69999999495E+02 0.  0.
         12    1    1    2    0    0 -0.29732125153E+01 -0.12561635965E+02 -0.13566299911E+02  0.18726430093E+02  0.00000000000E+00 0. -1.
         11    1    3    3    0    0 -0.14328825723E+02  0.98727812635E+01  0.35377779565E+02  0.39425554450E+02  0.51100000000E-03 0. -1.
        -11    1    3    3    0    0  0.64912159051E+01  0.95796628700E-01 -0.20895665395E+02  0.21880902483E+02  0.51100000000E-03 0.  1.
         12    1    3    3    0    0  0.10810822334E+02  0.25930580723E+01 -0.91581425918E+00  0.11155112974E+02  0.00000000000E+00 0. -1.
</event>
<event>
 7    1  0.1339094E-013  0.7246150E+02  0.7816164E-02  0.1226708E+00
        -11   -1    0    0    0    0  0.00000000000E+00  0.00000000000E+00  0.45593999997E+02  0.45594000000E+02  0.51100000000E-03 0.  1.
         11   -1    0    0    0    0 -0.00000000000E+00 -0.00000000000E+00 -0.45593999997E+02  0.45594000000E+02  0.51100000000E-03 0. -1.
    9900012    2    1    2    0    0 -0.17795178217E+02  0.27488828105E+01  0.51436577680E+01  0.72461496330E+02  0.69999903648E+02 0.  0.
         12    1    1    2    0    0  0.17795178217E+02 -0.27488828105E+01 -0.51436577680E+01  0.18726503670E+02  0.00000000000E+00 0. -1.
         11    1    3    3    0    0 -0.10639709119E+02  0.54066756556E+01 -0.66977982889E+01  0.13685614855E+02  0.51100000000E-03 0. -1.
        -11    1    3    3    0    0 -0.54130369494E+00  0.14392723199E+02  0.29828874191E+02  0.33124088312E+02  0.51100000000E-03 0.  1.
        -12    1    3    3    0    0 -0.66141654030E+01 -0.17050516044E+02 -0.17987418134E+02  0.25651793163E+02  0.00000000000E+00 0.  1.
</event>
<event>
 7    1  0.1339094E-013  0.7246128E+02  0.7816164E-02  0.1226709E+00
        -11   -1    0    0    0    0  0.00000000000E+00  0.00000000000E+00  0.45593999997E+02  0.45594000000E+02  0.51100000000E-03 0.  1.
         11   -1    0    0    0    0 -0.00000000000E+00 -0.00000000000E+00 -0.45593999997E+02  0.45594000000E+02  0.51100000000E-03 0. -1.
    9900012    2    1    2    0    0  0.38762337914E+01 -0.12665256723E+02  0.13238437926E+02  0.72461276983E+02  0.69999617906E+02 0.  0.
         12    1    1    2    0    0 -0.38762337914E+01  0.12665256723E+02 -0.13238437926E+02  0.18726723017E+02  0.00000000000E+00 0. -1.
         11    1    3    3    0    0 -0.19030283296E+02 -0.21775760398E+00  0.20685076506E+02  0.28108210384E+02  0.51100000000E-03 0.  1.
        -11    1    3    3    0    0  0.28170670819E+02  0.21033042467E+01 -0.46970157039E+01  0.28636908701E+02  0.51100000000E-03 0. -1.
        -12    1    3    3    0    0 -0.52641537326E+01 -0.14550803365E+02 -0.27496228763E+01  0.15716157898E+02  0.00000000000E+00 0.  1.
</event>
<event>
 7    1  0.1339094E-013  0.7246158E+02  0.7816164E-02  0.1226708E+00
        -11   -1    0    0    0    0  0.00000000000E+00  0.00000000000E+00  0.45593999997E+02  0.45594000000E+02  0.51100000000E-03 0. -1.
         11   -1    0    0    0    0 -0.00000000000E+00 -0.00000000000E+00 -0.45593999997E+02  0.45594000000E+02  0.51100000000E-03 0.  1.
    9900012    2    1    2    0    0 -0.13987817778E+01  0.37702173690E+01 -0.18289547960E+02  0.72461582990E+02  0.70000016538E+02 0.  0.
         12    1    1    2    0    0  0.13987817778E+01 -0.37702173690E+01  0.18289547960E+02  0.18726417010E+02  0.00000000000E+00 0. -1.
         11    1    3    3    0    0 -0.56660750161E+01 -0.19101913249E+02  0.18351618668E+02  0.27088178304E+02  0.51100000000E-03 0. -1.
        -11    1    3    3    0    0 -0.11569371765E+01  0.20825118098E+02 -0.30260685688E+02  0.36752321641E+02  0.51100000000E-03 0.  1.
         12    1    3    3    0    0  0.54242304148E+01  0.20470125200E+01 -0.63804809391E+01  0.86210830448E+01  0.00000000000E+00 0. -1.
</event>
<event>
 7    1  0.1339094E-013  0.7246159E+02  0.7816164E-02  0.1226708E+00
        -11   -1    0    0    0    0  0.00000000000E+00  0.00000000000E+00  0.45593999997E+02  0.45594000000E+02  0.51100000000E-03 0.  1.
         11   -1    0    0    0    0 -0.00000000000E+00 -0.00000000000E+00 -0.45593999997E+02  0.45594000000E+02  0.51100000000E-03 0. -1.
    9900012    2    1    2    0    0 -0.30426678088E+01 -0.89720119851E+01  0.16153127530E+02  0.72461592030E+02  0.70000028315E+02 0.  0.
         12    1    1    2    0    0  0.30426678088E+01  0.89720119851E+01 -0.16153127530E+02  0.18726407970E+02  0.00000000000E+00 0. -1.
         11    1    3    3    0    0 -0.15340842781E+02  0.52637483841E+01  0.55622884914E+01  0.17146065374E+02  0.51100000000E-03 0. -1.
        -11    1    3    3    0    0  0.25745916815E+02  0.85927081434E+01  0.96416326022E+01  0.28803609937E+02  0.51100000000E-03 0.  1.
        -12    1    3    3    0    0 -0.13447741843E+02 -0.22828468513E+02  0.94920643630E+00  0.26511916720E+02  0.00000000000E+00 0.  1.
</event>
<event>
 7    1  0.1339094E-013  0.7246155E+02  0.7816164E-02  0.1226708E+00
        -11   -1    0    0    0    0  0.00000000000E+00  0.00000000000E+00  0.45593999997E+02  0.45594000000E+02  0.51100000000E-03 0.  1.
         11   -1    0    0    0    0 -0.00000000000E+00 -0.00000000000E+00 -0.45593999997E+02  0.45594000000E+02  0.51100000000E-03 0. -1.
    9900012    2    1    2    0    0  0.57936319532E+01 -0.88069536060E+01  0.15477439953E+02  0.72461554782E+02  0.69999979792E+02 0.  0.
         12    1    1    2    0    0 -0.57936319532E+01  0.88069536060E+01 -0.15477439953E+02  0.18726445218E+02  0.00000000000E+00 0. -1.
         11    1    3    3    0    0 -0.22672586812E+02  0.12049291350E+02  0.54097068069E+01  0.26239217648E+02  0.51100000000E-03 0. -1.
        -11    1    3    3    0    0  0.12676103056E+02 -0.46390961948E+01  0.17767987767E+02  0.22313811681E+02  0.51100000000E-03 0.  1.
         12    1    3    3    0    0  0.15790115709E+02 -0.16217148761E+02 -0.77002546215E+01  0.23908525452E+02  0.00000000000E+00 0. -1.
</event>
<event>
 7    1  0.1339094E-013  0.7246152E+02  0.7816164E-02  0.1226708E+00
        -11   -1    0    0    0    0  0.00000000000E+00  0.00000000000E+00  0.45593999997E+02  0.45594000000E+02  0.51100000000E-03 0.  1.
         11   -1    0    0    0    0 -0.00000000000E+00 -0.00000000000E+00 -0.45593999997E+02  0.45594000000E+02  0.51100000000E-03 0. -1.
    9900012    2    1    2    0    0  0.12369049324E+02 -0.88813303667E+01  0.10899978019E+02  0.72461523261E+02  0.69999938730E+02 0.  0.
         12    1    1    2    0    0 -0.12369049324E+02  0.88813303667E+01 -0.10899978019E+02  0.18726476739E+02  0.00000000000E+00 0. -1.
         11    1    3    3    0    0  0.71856903844E+01  0.95040404846E+01 -0.26470755854E+01  0.12205242367E+02  0.51100000000E-03 0. -1.
        -11    1    3    3    0    0 -0.11346170546E+02 -0.27203114232E+02 -0.91163071135E+01  0.30852099858E+02  0.51100000000E-03 0.  1.
        -12    1    3    3    0    0  0.16529529485E+02  0.88177433810E+01  0.22663360718E+02  0.29404181035E+02  0.00000000000E+00 0.  1.
</event>
<event>
 7    1  0.1339094E-013  0.7246165E+02  0.7816164E-02  0.1226708E+00
        -11   -1    0    0    0    0  0.00000000000E+00  0.00000000000E+00  0.45593999997E+02  0.45594000000E+02  0.51100000000E-03 0. -1.
         11   -1    0    0    0    0 -0.00000000000E+00 -0.00000000000E+00 -0.45593999997E+02  0.45594000000E+02  0.51100000000E-03 0.  1.
    9900012    2    1    2    0    0  0.17634699962E+02  0.61824581307E+01  0.12126812171E+01  0.72461654200E+02  0.70000109302E+02 0.  0.
         12    1    1    2    0    0 -0.17634699962E+02 -0.61824581307E+01 -0.12126812171E+01  0.18726345800E+02  0.00000000000E+00 0. -1.
         11    1    3    3    0    0  0.10530528474E+02  0.15902065359E+02  0.87057595877E+01  0.20965637670E+02  0.51100000000E-03 0. -1.
        -11    1    3    3    0    0  0.10413559148E+02 -0.21272921565E+02  0.13532343778E+02  0.27278264872E+02  0.51100000000E-03 0.  1.
        -12    1    3    3    0    0 -0.33093876601E+01  0.11553314337E+02 -0.21025422148E+02  0.24217751658E+02  0.00000000000E+00 0.  1.
</event>
<event>
 7    1  0.1339094E-013  0.7246159E+02  0.7816164E-02  0.1226708E+00
        -11   -1    0    0    0    0  0.00000000000E+00  0.00000000000E+00  0.45593999997E+02  0.45594000000E+02  0.51100000000E-03 0. -1.
         11   -1    0    0    0    0 -0.00000000000E+00 -0.00000000000E+00 -0.45593999997E+02  0.45594000000E+02  0.51100000000E-03 0.  1.
    9900012    2    1    2    0    0 -0.79825377865E+00  0.18680521984E+02 -0.10389876051E+01  0.72461585342E+02  0.70000019603E+02 0.  0.
         12    1    1    2    0    0  0.79825377865E+00 -0.18680521984E+02  0.10389876051E+01  0.18726414658E+02  0.00000000000E+00 0. -1.
         11    1    3    3    0    0 -0.35311350545E+01  0.15866080245E+02  0.42212474544E+01  0.16793461450E+02  0.51100000000E-03 0. -1.
        -11    1    3    3    0    0  0.28359847424E+02  0.29176440287E+01 -0.87086785598E+01  0.29809976101E+02  0.51100000000E-03 0.  1.
        -12    1    3    3    0    0 -0.25626966148E+02 -0.10320229042E+00  0.34484435003E+01  0.25858147792E+02  0.00000000000E+00 0.  1.
</event>
<event>
 7    1  0.1339094E-013  0.7246165E+02  0.7816164E-02  0.1226708E+00
        -11   -1    0    0    0    0  0.00000000000E+00  0.00000000000E+00  0.45593999997E+02  0.45594000000E+02  0.51100000000E-03 0.  1.
         11   -1    0    0    0    0 -0.00000000000E+00 -0.00000000000E+00 -0.45593999997E+02  0.45594000000E+02  0.51100000000E-03 0. -1.
    9900012    2    1    2    0    0  0.12200726132E+02 -0.96474254112E+01  0.10428125237E+02  0.72461646079E+02  0.70000098724E+02 0.  0.
         12    1    1    2    0    0 -0.12200726132E+02  0.96474254112E+01 -0.10428125237E+02  0.18726353921E+02  0.00000000000E+00 0. -1.
         11    1    3    3    0    0  0.10894086399E+02  0.84535748786E+01 -0.33480840619E+01  0.14189915921E+02  0.51100000000E-03 0. -1.
        -11    1    3    3    0    0 -0.23893940033E+02  0.21288631367E+01  0.89183238967E+01  0.25592751512E+02  0.51100000000E-03 0.  1.
        -12    1    3    3    0    0  0.25200579765E+02 -0.20229863426E+02  0.48578854026E+01  0.32678978646E+02  0.00000000000E+00 0.  1.
</event>
<event>
 7    1  0.1339094E-013  0.7246156E+02  0.7816164E-02  0.1226708E+00
        -11   -1    0    0    0    0  0.00000000000E+00  0.00000000000E+00  0.45593999997E+02  0.45594000000E+02  0.51100000000E-03 0.  1.
         11   -1    0    0    0    0 -0.00000000000E+00 -0.00000000000E+00 -0.45593999997E+02  0.45594000000E+02  0.51100000000E-03 0. -1.
    9900012    2    1    2    0    0 -0.17261103226E+02  0.30058218246E+01  0.66105206602E+01  0.72461557924E+02  0.69999983885E+02 0.  0.
         12    1    1    2    0    0  0.17261103226E+02 -0.30058218246E+01 -0.66105206602E+01  0.18726442076E+02  0.00000000000E+00 0. -1.
         11    1    3    3    0    0  0.96030743831E+01  0.13613789572E+02  0.24828982118E+02  0.29900378884E+02  0.51100000000E-03 0. -1.
        -11    1    3    3    0    0 -0.11523479246E+02 -0.13157303054E+02  0.13776403069E+01  0.17544317903E+02  0.51100000000E-03 0.  1.
         12    1    3    3    0    0 -0.15340698363E+02  0.25493353072E+01 -0.19596101765E+02  0.25016861137E+02  0.00000000000E+00 0. -1.
</event>
<event>
 7    1  0.1339094E-013  0.7246159E+02  0.7816164E-02  0.1226708E+00
        -11   -1    0    0    0    0  0.00000000000E+00  0.00000000000E+00  0.45593999997E+02  0.45594000000E+02  0.51100000000E-03 0.  1.
         11   -1    0    0    0    0 -0.00000000000E+00 -0.00000000000E+00 -0.45593999997E+02  0.45594000000E+02  0.51100000000E-03 0. -1.
    9900012    2    1    2    0    0 -0.43908039549E+01 -0.22206846554E+00  0.18203018263E+02  0.72461592238E+02  0.70000028586E+02 0.  0.
         12    1    1    2    0    0  0.43908039549E+01  0.22206846554E+00 -0.18203018263E+02  0.18726407762E+02  0.00000000000E+00 0. -1.
         11    1    3    3    0    0  0.10759765717E+02 -0.24293934329E+02  0.21291397539E+01  0.26655225376E+02  0.51100000000E-03 0.  1.
        -11    1    3    3    0    0 -0.22761904353E+02  0.90328445367E+01  0.34127452789E+01  0.24725359468E+02  0.51100000000E-03 0. -1.
         12    1    3    3    0    0  0.76113346812E+01  0.15039021327E+02  0.12661133230E+02  0.21081007395E+02  0.00000000000E+00 0. -1.
</event>
<event>
 7    1  0.1339094E-013  0.7246158E+02  0.7816164E-02  0.1226708E+00
        -11   -1    0    0    0    0  0.00000000000E+00  0.00000000000E+00  0.45593999997E+02  0.45594000000E+02  0.51100000000E-03 0. -1.
         11   -1    0    0    0    0 -0.00000000000E+00 -0.00000000000E+00 -0.45593999997E+02  0.45594000000E+02  0.51100000000E-03 0.  1.
    9900012    2    1    2    0    0  0.49067014723E+01 -0.14060841961E+02 -0.11353236213E+02  0.72461575662E+02  0.70000006992E+02 0.  0.
         12    1    1    2    0    0 -0.49067014723E+01  0.14060841961E+02  0.11353236213E+02  0.18726424338E+02  0.00000000000E+00 0. -1.
         11    1    3    3    0    0 -0.16865379507E+02  0.10404825046E+02  0.63015253431E+01  0.20794485616E+02  0.51100000000E-03 0. -1.
        -11    1    3    3    0    0  0.83549337243E+01  0.63740712769E+01 -0.14471828877E+02  0.17884840885E+02  0.51100000000E-03 0.  1.
         12    1    3    3    0    0  0.13417147255E+02 -0.30839738284E+02 -0.31829326784E+01  0.33782249160E+02  0.00000000000E+00 0. -1.
</event>
<event>
 7    1  0.1339094E-013  0.7246155E+02  0.7816164E-02  0.1226708E+00
        -11   -1    0    0    0    0  0.00000000000E+00  0.00000000000E+00  0.45593999997E+02  0.45594000000E+02  0.51100000000E-03 0. -1.
         11   -1    0    0    0    0 -0.00000000000E+00 -0.00000000000E+00 -0.45593999997E+02  0.45594000000E+02  0.51100000000E-03 0.  1.
    9900012    2    1    2    0    0 -0.14757535618E+02 -0.10630217482E+02  0.44602385086E+01  0.72461545216E+02  0.69999967331E+02 0.  0.
         12    1    1    2    0    0  0.14757535618E+02  0.10630217482E+02 -0.44602385086E+01  0.18726454784E+02  0.00000000000E+00 0. -1.
         11    1    3    3    0    0 -0.18742594625E+02  0.10904772668E+02 -0.16433686976E+02  0.27207811160E+02  0.51100000000E-03 0. -1.
        -11    1    3    3    0    0  0.14855872075E+02  0.59063483758E+00  0.40918685235E+01  0.15420414161E+02  0.51100000000E-03 0.  1.
         12    1    3    3    0    0 -0.10870813068E+02 -0.22125624987E+02  0.16802056961E+02  0.29833319895E+02  0.00000000000E+00 0. -1.
</event>
<event>
 7    1  0.1339094E-013  0.7246155E+02  0.7816164E-02  0.1226708E+00
        -11   -1    0    0    0    0  0.00000000000E+00  0.00000000000E+00  0.45593999997E+02  0.45594000000E+02  0.51100000000E-03 0. -1.
         11   -1    0    0    0    0 -0.00000000000E+00 -0.00000000000E+00 -0.45593999997E+02  0.45594000000E+02  0.51100000000E-03 0.  1.
    9900012    2    1    2    0    0 -0.16802139489E+02 -0.41949401562E+01  0.71253528466E+01  0.72461546318E+02  0.69999968766E+02 0.  0.
         12    1    1    2    0    0  0.16802139489E+02  0.41949401562E+01 -0.71253528466E+01  0.18726453682E+02  0.00000000000E+00 0. -1.
         11    1    3    3    0    0  0.21656289737E+02  0.34193856138E+01  0.63902652295E+01  0.22836868724E+02  0.51100000000E-03 0. -1.
        -11    1    3    3    0    0 -0.28131501944E+02 -0.70135275701E+01  0.14491767124E+02  0.32412687103E+02  0.51100000000E-03 0.  1.
         12    1    3    3    0    0 -0.10326927283E+02 -0.60079819981E+00 -0.13756679507E+02  0.17211990490E+02  0.00000000000E+00 0. -1.
</event>
<event>
 7    1  0.1339094E-013  0.7246154E+02  0.7816164E-02  0.1226708E+00
        -11   -1    0    0    0    0  0.00000000000E+00  0.00000000000E+00  0.45593999997E+02  0.45594000000E+02  0.51100000000E-03 0.  1.
         11   -1    0    0    0    0 -0.00000000000E+00 -0.00000000000E+00 -0.45593999997E+02  0.45594000000E+02  0.51100000000E-03 0. -1.
    9900012    2    1    2    0    0 -0.25323953202E+00  0.47363438589E+01  0.18115826689E+02  0.72461541178E+02  0.69999962070E+02 0.  0.
         12    1    1    2    0    0  0.25323953202E+00 -0.47363438589E+01 -0.18115826689E+02  0.18726458822E+02  0.00000000000E+00 0. -1.
         11    1    3    3    0    0 -0.10248412878E+01  0.13563159138E+02 -0.19626282740E+02  0.23878872669E+02  0.51100000000E-03 0. -1.
        -11    1    3    3    0    0  0.32970446513E+01  0.61245477655E+01  0.31375349451E+02  0.32137099157E+02  0.51100000000E-03 0.  1.
         12    1    3    3    0    0 -0.25254428955E+01 -0.14951363045E+02  0.63667599773E+01  0.16445569352E+02  0.00000000000E+00 0. -1.
</event>
<event>
 7    1  0.1339094E-013  0.7246154E+02  0.7816164E-02  0.1226708E+00
        -11   -1    0    0    0    0  0.00000000000E+00  0.00000000000E+00  0.45593999997E+02  0.45594000000E+02  0.51100000000E-03 0.  1.
         11   -1    0    0    0    0 -0.00000000000E+00 -0.00000000000E+00 -0.45593999997E+02  0.45594000000E+02  0.51100000000E-03 0. -1.
    9900012    2    1    2    0    0  0.11511570624E+02  0.14752233537E+02  0.73197887128E+00  0.72461536222E+02  0.69999955614E+02 0.  0.
         12    1    1    2    0    0 -0.11511570624E+02 -0.14752233537E+02 -0.73197887128E+00  0.18726463778E+02  0.00000000000E+00 0. -1.
         11    1    3    3    0    0 -0.22064234964E+02 -0.34097778543E+01 -0.32081774295E+01  0.22555474995E+02  0.51100000000E-03 0. -1.
        -11    1    3    3    0    0  0.50992475156E+01  0.17865088956E+02  0.95366105384E+01  0.20883262902E+02  0.51100000000E-03 0.  1.
         12    1    3    3    0    0  0.28476558072E+02  0.29692243614E+00 -0.55964542377E+01  0.29022798325E+02  0.00000000000E+00 0. -1.
</event>
<event>
 7    1  0.1339094E-013  0.7246156E+02  0.7816164E-02  0.1226708E+00
        -11   -1    0    0    0    0  0.00000000000E+00  0.00000000000E+00  0.45593999997E+02  0.45594000000E+02  0.51100000000E-03 0.  1.
         11   -1    0    0    0    0 -0.00000000000E+00 -0.00000000000E+00 -0.45593999997E+02  0.45594000000E+02  0.51100000000E-03 0. -1.
    9900012    2    1    2    0    0 -0.15526444594E+02  0.18953122891E+01 -0.10296444209E+02  0.72461562705E+02  0.69999990114E+02 0.  0.
         12    1    1    2    0    0  0.15526444594E+02 -0.18953122891E+01  0.10296444209E+02  0.18726437295E+02  0.00000000000E+00 0. -1.
         11    1    3    3    0    0 -0.39366686420E+02 -0.34356389159E+01  0.89258817258E+01  0.40511862205E+02  0.51100000000E-03 0.  1.
        -11    1    3    3    0    0  0.17428955767E+02  0.64452261762E+01 -0.11508285450E+02  0.21857494684E+02  0.51100000000E-03 0. -1.
        -12    1    3    3    0    0  0.64112860592E+01 -0.11142749712E+01 -0.77140404848E+01  0.10092205817E+02  0.00000000000E+00 0.  1.
</event>
<event>
 7    1  0.1742340E-013  0.7246159E+02  0.7816164E-02  0.1226708E+00
        -11   -1    0    0    0    0  0.00000000000E+00  0.00000000000E+00  0.45593999997E+02  0.45594000000E+02  0.51100000000E-03 0. -1.
         11   -1    0    0    0    0 -0.00000000000E+00 -0.00000000000E+00 -0.45593999997E+02  0.45594000000E+02  0.51100000000E-03 0.  1.
    9900012    2    1    2    0    0  0.47514724847E+01 -0.12015301464E+01 -0.18073693969E+02  0.72461586058E+02  0.70000020535E+02 0.  0.
         12    1    1    2    0    0 -0.47514724847E+01  0.12015301464E+01  0.18073693969E+02  0.18726413942E+02  0.00000000000E+00 0. -1.
         11    1    3    3    0    0 -0.56751982018E+01  0.80571628665E+00  0.11361306449E+02  0.12725420930E+02  0.51100000000E-03 0. -1.
        -11    1    3    3    0    0  0.29027897774E+02  0.81408793324E+01 -0.12607688628E+02  0.32677921878E+02  0.51100000000E-03 0.  1.
        -12    1    3    3    0    0 -0.18601227087E+02 -0.10148125765E+02 -0.16827311789E+02  0.27058243249E+02  0.00000000000E+00 0.  1.
</event>
<event>
 7    1  0.1339094E-013  0.7246156E+02  0.7816164E-02  0.1226708E+00
        -11   -1    0    0    0    0  0.00000000000E+00  0.00000000000E+00  0.45593999997E+02  0.45594000000E+02  0.51100000000E-03 0.  1.
         11   -1    0    0    0    0 -0.00000000000E+00 -0.00000000000E+00 -0.45593999997E+02  0.45594000000E+02  0.51100000000E-03 0. -1.
    9900012    2    1    2    0    0 -0.12378867864E+02  0.12694402662E+02  0.60245598982E+01  0.72461560122E+02  0.69999986748E+02 0.  0.
         12    1    1    2    0    0  0.12378867864E+02 -0.12694402662E+02 -0.60245598982E+01  0.18726439878E+02  0.00000000000E+00 0. -1.
         11    1    3    3    0    0 -0.25824493805E+02 -0.17577338548E+01  0.22744742891E+02  0.34457472891E+02  0.51100000000E-03 0. -1.
        -11    1    3    3    0    0  0.96803885437E+00  0.77965088550E+01 -0.21647128571E+02  0.23028695690E+02  0.51100000000E-03 0.  1.
        -12    1    3    3    0    0  0.12477587086E+02  0.66556276619E+01  0.49269455783E+01  0.14975391541E+02  0.00000000000E+00 0.  1.
</event>
<event>
 7    1  0.1339094E-013  0.7246157E+02  0.7816164E-02  0.1226708E+00
        -11   -1    0    0    0    0  0.00000000000E+00  0.00000000000E+00  0.45593999997E+02  0.45594000000E+02  0.51100000000E-03 0. -1.
         11   -1    0    0    0    0 -0.00000000000E+00 -0.00000000000E+00 -0.45593999997E+02  0.45594000000E+02  0.51100000000E-03 0.  1.
    9900012    2    1    2    0    0 -0.23535119322E+01  0.14585949582E+01 -0.18520605193E+02  0.72461565893E+02  0.69999994266E+02 0.  0.
         12    1    1    2    0    0  0.23535119322E+01 -0.14585949582E+01  0.18520605193E+02  0.18726434107E+02  0.00000000000E+00 0. -1.
         11    1    3    3    0    0 -0.48373914627E+00  0.17533473319E+02  0.76700305063E+01  0.19143825595E+02  0.51100000000E-03 0.  1.
        -11    1    3    3    0    0  0.93548608423E+01 -0.28044803746E+02 -0.20388789055E+02  0.35912771515E+02  0.51100000000E-03 0. -1.
        -12    1    3    3    0    0 -0.11224633628E+02  0.11969925385E+02 -0.58018466445E+01  0.17404968782E+02  0.00000000000E+00 0.  1.
</event>
<event>
 7    1  0.1339094E-013  0.7246156E+02  0.7816164E-02  0.1226708E+00
        -11   -1    0    0    0    0  0.00000000000E+00  0.00000000000E+00  0.45593999997E+02  0.45594000000E+02  0.51100000000E-03 0.  1.
         11   -1    0    0    0    0 -0.00000000000E+00 -0.00000000000E+00 -0.45593999997E+02  0.45594000000E+02  0.51100000000E-03 0. -1.
    9900012    2    1    2    0    0  0.15308145624E+02 -0.36971875518E+01  0.10132676239E+02  0.72461557572E+02  0.69999983427E+02 0.  0.
         12    1    1    2    0    0 -0.15308145624E+02  0.36971875518E+01 -0.10132676239E+02  0.18726442428E+02  0.00000000000E+00 0. -1.
         11    1    3    3    0    0 -0.21533923565E+02 -0.16417576410E+02  0.33000461540E+01  0.27278874320E+02  0.51100000000E-03 0. -1.
        -11    1    3    3    0    0  0.20841191633E+02  0.15877372952E+02  0.10894847954E+02  0.28375058638E+02  0.51100000000E-03 0.  1.
         12    1    3    3    0    0  0.16000877556E+02 -0.31569840936E+01 -0.40622178693E+01  0.16807624614E+02  0.00000000000E+00 0. -1.
</event>
<event>
 7    1  0.1339094E-013  0.7246156E+02  0.7816164E-02  0.1226708E+00
        -11   -1    0    0    0    0  0.00000000000E+00  0.00000000000E+00  0.45593999997E+02  0.45594000000E+02  0.51100000000E-03 0.  1.
         11   -1    0    0    0    0 -0.00000000000E+00 -0.00000000000E+00 -0.45593999997E+02  0.45594000000E+02  0.51100000000E-03 0. -1.
    9900012    2    1    2    0    0  0.64139771500E+01  0.58516155027E+01  0.16592135081E+02  0.72461562714E+02  0.69999990126E+02 0.  0.
         12    1    1    2    0    0 -0.64139771500E+01 -0.58516155027E+01 -0.16592135081E+02  0.18726437286E+02  0.00000000000E+00 0. -1.
         11    1    3    3    0    0  0.29286266151E+01  0.19324025136E+02 -0.19279384705E+02  0.27453405548E+02  0.51100000000E-03 0. -1.
        -11    1    3    3    0    0 -0.57406447796E+01 -0.55331662621E+01  0.30811789559E+02  0.31826676035E+02  0.51100000000E-03 0.  1.
        -12    1    3    3    0    0  0.92259953145E+01 -0.79392433716E+01  0.50597302269E+01  0.13181481132E+02  0.00000000000E+00 0.  1.
</event>
<event>
 7    1  0.1339094E-013  0.7246158E+02  0.7816164E-02  0.1226708E+00
        -11   -1    0    0    0    0  0.00000000000E+00  0.00000000000E+00  0.45593999997E+02  0.45594000000E+02  0.51100000000E-03 0. -1.
         11   -1    0    0    0    0 -0.00000000000E+00 -0.00000000000E+00 -0.45593999997E+02  0.45594000000E+02  0.51100000000E-03 0.  1.
    9900012    2    1    2    0    0  0.76851673083E+01  0.14060609185E+02 -0.96910394955E+01  0.72461580863E+02  0.70000013767E+02 0.  0.
         12    1    1    2    0    0 -0.76851673083E+01 -0.14060609185E+02  0.96910394955E+01  0.18726419137E+02  0.00000000000E+00 0. -1.
         11    1    3    3    0    0  0.16334018864E+02  0.34404248144E+01  0.23473506797E+02  0.28803510494E+02  0.51100000000E-03 0. -1.
        -11    1    3    3    0    0 -0.47064805486E+01 -0.59917459992E+01 -0.21940510606E+02  0.23225804296E+02  0.51100000000E-03 0.  1.
        -12    1    3    3    0    0 -0.39423710074E+01  0.16611930370E+02 -0.11224035687E+02  0.20432266072E+02  0.00000000000E+00 0.  1.
</event>
<event>
 7    1  0.1339094E-013  0.7246189E+02  0.7816164E-02  0.1226707E+00
        -11   -1    0    0    0    0  0.00000000000E+00  0.00000000000E+00  0.45593999997E+02  0.45594000000E+02  0.51100000000E-03 0. -1.
         11   -1    0    0    0    0 -0.00000000000E+00 -0.00000000000E+00 -0.45593999997E+02  0.45594000000E+02  0.51100000000E-03 0.  1.
    9900012    2    1    2    0    0  0.11032500091E+02  0.10935359128E+02 -0.10457967744E+02  0.72461889170E+02  0.70000415393E+02 0.  0.
         12    1    1    2    0    0 -0.11032500091E+02 -0.10935359128E+02  0.10457967744E+02  0.18726110830E+02  0.00000000000E+00 0. -1.
         11    1    3    3    0    0 -0.16358435680E+02  0.15866272612E+02 -0.20549717408E+02  0.30685956239E+02  0.51100000000E-03 0. -1.
        -11    1    3    3    0    0  0.21537107755E+02  0.35356470895E+01 -0.60348443159E+01  0.22644362587E+02  0.51100000000E-03 0.  1.
         12    1    3    3    0    0  0.58538280149E+01 -0.84665605735E+01  0.16126593981E+02  0.19131570343E+02  0.00000000000E+00 0. -1.
</event>
<event>
 7    1  0.1339094E-013  0.7246156E+02  0.7816164E-02  0.1226708E+00
        -11   -1    0    0    0    0  0.00000000000E+00  0.00000000000E+00  0.45593999997E+02  0.45594000000E+02  0.51100000000E-03 0.  1.
         11   -1    0    0    0    0 -0.00000000000E+00 -0.00000000000E+00 -0.45593999997E+02  0.45594000000E+02  0.51100000000E-03 0. -1.
    9900012    2    1    2    0    0 -0.15609968042E+02 -0.16799665481E+01 -0.10207168408E+02  0.72461556750E+02  0.69999982356E+02 0.  0.
         12    1    1    2    0    0  0.15609968042E+02  0.16799665481E+01  0.10207168408E+02  0.18726443250E+02  0.00000000000E+00 0. -1.
         11    1    3    3    0    0  0.16703721672E+02  0.52663237538E+01  0.53224786020E+01  0.18305115741E+02  0.51100000000E-03 0.  1.
        -11    1    3    3    0    0 -0.18510250781E+02 -0.22205718614E+02 -0.92457562986E+00  0.28923660963E+02  0.51100000000E-03 0. -1.
        -12    1    3    3    0    0 -0.13803438933E+02  0.15259428312E+02 -0.14605071380E+02  0.25232780045E+02  0.00000000000E+00 0.  1.
</event>
<event>
 8    1  0.1339094E-013  0.7246155E+02  0.7816164E-02  0.1226708E+00
        -11   -1    0    0    0    0  0.00000000000E+00  0.00000000000E+00  0.45593999997E+02  0.45594000000E+02  0.51100000000E-03 0.  1.
         11   -1    0    0    0    0 -0.00000000000E+00 -0.00000000000E+00 -0.45593999997E+02  0.45594000000E+02  0.51100000000E-03 0. -1.
    9900012    2    1    2    0    0 -0.51335928748E+00 -0.61850869746E+01  0.17668081271E+02  0.72461549871E+02  0.69999973395E+02 0.  0.
         24    2    3    3    0    0 -0.97988075227E+01 -0.11124764211E+01  0.27682363287E+02  0.57893201601E+02  0.49880410201E+02 0.  0.
         12    1    1    2    0    0  0.51335928748E+00  0.61850869746E+01 -0.17668081271E+02  0.18726450129E+02  0.00000000000E+00 0. -1.
         11    1    3    3    0    0  0.92854482352E+01 -0.50726105536E+01 -0.10014282016E+02  0.14568348270E+02  0.51100000000E-03 0. -1.
        -11    1    4    4    0    0 -0.94354230144E+01 -0.14224657956E+02  0.37702600164E+02  0.41386642299E+02  0.51100000000E-03 0.  1.
         12    1    4    4    0    0 -0.36338450832E+00  0.13112181535E+02 -0.10020236877E+02  0.16506559302E+02  0.00000000000E+00 0. -1.
</event>
<event>
 7    1  0.1339094E-013  0.7246160E+02  0.7816164E-02  0.1226708E+00
        -11   -1    0    0    0    0  0.00000000000E+00  0.00000000000E+00  0.45593999997E+02  0.45594000000E+02  0.51100000000E-03 0.  1.
         11   -1    0    0    0    0 -0.00000000000E+00 -0.00000000000E+00 -0.45593999997E+02  0.45594000000E+02  0.51100000000E-03 0. -1.
    9900012    2    1    2    0    0  0.76358360311E+01  0.11647550488E+02 -0.12518254579E+02  0.72461598265E+02  0.70000036437E+02 0.  0.
         12    1    1    2    0    0 -0.76358360311E+01 -0.11647550488E+02  0.12518254579E+02  0.18726401735E+02  0.00000000000E+00 0. -1.
         11    1    3    3    0    0  0.12297245876E+02  0.59681698898E+01 -0.70166721404E+01  0.15364732219E+02  0.51100000000E-03 0. -1.
        -11    1    3    3    0    0 -0.24606302904E+02  0.20134617791E+02  0.27847839694E+00  0.31795448206E+02  0.51100000000E-03 0.  1.
        -12    1    3    3    0    0  0.19944893059E+02 -0.14455237193E+02 -0.57800608351E+01  0.25301417840E+02  0.00000000000E+00 0.  1.
</event>
<event>
 7    1  0.1339094E-013  0.7246162E+02  0.7816164E-02  0.1226708E+00
        -11   -1    0    0    0    0  0.00000000000E+00  0.00000000000E+00  0.45593999997E+02  0.45594000000E+02  0.51100000000E-03 0.  1.
         11   -1    0    0    0    0 -0.00000000000E+00 -0.00000000000E+00 -0.45593999997E+02  0.45594000000E+02  0.51100000000E-03 0. -1.
    9900012    2    1    2    0    0 -0.21516952503E+00 -0.16836604979E+02  0.81950953270E+01  0.72461624147E+02  0.70000070154E+02 0.  0.
         12    1    1    2    0    0  0.21516952503E+00  0.16836604979E+02 -0.81950953270E+01  0.18726375853E+02  0.00000000000E+00 0. -1.
         11    1    3    3    0    0 -0.36416611431E+01 -0.12434188709E+02 -0.24510471170E+02  0.27724248267E+02  0.51100000000E-03 0. -1.
        -11    1    3    3    0    0  0.12024769639E+02 -0.13345124289E+02  0.21534422377E+02  0.28043159140E+02  0.51100000000E-03 0.  1.
         12    1    3    3    0    0 -0.85982780214E+01  0.89427080187E+01  0.11171144120E+02  0.16694216741E+02  0.00000000000E+00 0. -1.
</event>
<event>
 7    1  0.1339094E-013  0.7246159E+02  0.7816164E-02  0.1226708E+00
        -11   -1    0    0    0    0  0.00000000000E+00  0.00000000000E+00  0.45593999997E+02  0.45594000000E+02  0.51100000000E-03 0.  1.
         11   -1    0    0    0    0 -0.00000000000E+00 -0.00000000000E+00 -0.45593999997E+02  0.45594000000E+02  0.51100000000E-03 0. -1.
    9900012    2    1    2    0    0 -0.10623202049E+02 -0.39670909422E+01  0.14902625695E+02  0.72461588573E+02  0.70000023812E+02 0.  0.
         12    1    1    2    0    0  0.10623202049E+02  0.39670909422E+01 -0.14902625695E+02  0.18726411427E+02  0.00000000000E+00 0. -1.
         11    1    3    3    0    0  0.14577336031E+02 -0.16666298645E+02  0.78454534216E+01  0.23490750860E+02  0.51100000000E-03 0. -1.
        -11    1    3    3    0    0 -0.10257627884E+02  0.16221554253E+02  0.20845628952E+02  0.28335454802E+02  0.51100000000E-03 0.  1.
         12    1    3    3    0    0 -0.14942910196E+02 -0.35223465495E+01 -0.13788456678E+02  0.20635382911E+02  0.00000000000E+00 0. -1.
</event>
<event>
 7    1  0.1339094E-013  0.7246154E+02  0.7816164E-02  0.1226708E+00
        -11   -1    0    0    0    0  0.00000000000E+00  0.00000000000E+00  0.45593999997E+02  0.45594000000E+02  0.51100000000E-03 0. -1.
         11   -1    0    0    0    0 -0.00000000000E+00 -0.00000000000E+00 -0.45593999997E+02  0.45594000000E+02  0.51100000000E-03 0.  1.
    9900012    2    1    2    0    0  0.12693814009E+01 -0.18455512419E+02  0.29091459111E+01  0.72461537501E+02  0.69999957281E+02 0.  0.
         12    1    1    2    0    0 -0.12693814009E+01  0.18455512419E+02 -0.29091459111E+01  0.18726462499E+02  0.00000000000E+00 0. -1.
         11    1    3    3    0    0  0.12167839316E+02  0.59302635391E+01  0.46190205478E+01  0.14302436518E+02  0.51100000000E-03 0. -1.
        -11    1    3    3    0    0 -0.20595062281E+02  0.31116652279E+01  0.13944234330E+02  0.25065528563E+02  0.51100000000E-03 0.  1.
        -12    1    3    3    0    0  0.96966043657E+01 -0.27497441186E+02 -0.15654108966E+02  0.33093572420E+02  0.00000000000E+00 0.  1.
</event>
<event>
 7    1  0.1339094E-013  0.7246159E+02  0.7816164E-02  0.1226708E+00
        -11   -1    0    0    0    0  0.00000000000E+00  0.00000000000E+00  0.45593999997E+02  0.45594000000E+02  0.51100000000E-03 0. -1.
         11   -1    0    0    0    0 -0.00000000000E+00 -0.00000000000E+00 -0.45593999997E+02  0.45594000000E+02  0.51100000000E-03 0.  1.
    9900012    2    1    2    0    0  0.15183702986E+02 -0.36155819082E+01  0.10347029934E+02  0.72461593582E+02  0.70000030336E+02 0.  0.
         12    1    1    2    0    0 -0.15183702986E+02  0.36155819082E+01 -0.10347029934E+02  0.18726406418E+02  0.00000000000E+00 0. -1.
         11    1    3    3    0    0 -0.74855508222E+00  0.24457728084E+02  0.22486783129E+02  0.33232457230E+02  0.51100000000E-03 0. -1.
        -11    1    3    3    0    0  0.14085154317E+01 -0.98365893601E+01 -0.12430165190E+02  0.15913874854E+02  0.51100000000E-03 0.  1.
         12    1    3    3    0    0  0.14523742636E+02 -0.18236720633E+02  0.29041199441E+00  0.23315261498E+02  0.00000000000E+00 0. -1.
</event>
<event>
 7    1  0.1339094E-013  0.7246145E+02  0.7816164E-02  0.1226708E+00
        -11   -1    0    0    0    0  0.00000000000E+00  0.00000000000E+00  0.45593999997E+02  0.45594000000E+02  0.51100000000E-03 0.  1.
         11   -1    0    0    0    0 -0.00000000000E+00 -0.00000000000E+00 -0.45593999997E+02  0.45594000000E+02  0.51100000000E-03 0. -1.
    9900012    2    1    2    0    0  0.16352156079E+02  0.48210708242E+01  0.77490713047E+01  0.72461445635E+02  0.69999837607E+02 0.  0.
         12    1    1    2    0    0 -0.16352156079E+02 -0.48210708242E+01 -0.77490713047E+01  0.18726554365E+02  0.00000000000E+00 0. -1.
         11    1    3    3    0    0  0.77908628241E+01 -0.40355095929E+01 -0.27713418928E+02  0.29069167001E+02  0.51100000000E-03 0. -1.
        -11    1    3    3    0    0  0.14974349176E+02  0.62138387878E+01  0.16200195580E+02  0.22919189838E+02  0.51100000000E-03 0.  1.
         12    1    3    3    0    0 -0.64130559212E+01  0.26427416292E+01  0.19262294652E+02  0.20473088796E+02  0.00000000000E+00 0. -1.
</event>
<event>
 7    1  0.1339094E-013  0.7246175E+02  0.7816164E-02  0.1226708E+00
        -11   -1    0    0    0    0  0.00000000000E+00  0.00000000000E+00  0.45593999997E+02  0.45594000000E+02  0.51100000000E-03 0. -1.
         11   -1    0    0    0    0 -0.00000000000E+00 -0.00000000000E+00 -0.45593999997E+02  0.45594000000E+02  0.51100000000E-03 0.  1.
    9900012    2    1    2    0    0  0.12530074408E+02 -0.20522578350E+01 -0.13764373308E+02  0.72461748388E+02  0.70000232000E+02 0.  0.
         12    1    1    2    0    0 -0.12530074408E+02  0.20522578350E+01  0.13764373308E+02  0.18726251612E+02  0.00000000000E+00 0. -1.
         11    1    3    3    0    0 -0.11229847529E+02 -0.14747946262E+02  0.93518388232E+01  0.20762183992E+02  0.51100000000E-03 0. -1.
        -11    1    3    3    0    0  0.16386372820E+02  0.13068750347E+02 -0.33163311365E+02  0.39231501001E+02  0.51100000000E-03 0.  1.
         12    1    3    3    0    0  0.73735491176E+01 -0.37306191962E+00  0.10047099235E+02  0.12468063395E+02  0.00000000000E+00 0. -1.
</event>
<event>
 8    1  0.1339094E-013  0.7246161E+02  0.7816164E-02  0.1226708E+00
        -11   -1    0    0    0    0  0.00000000000E+00  0.00000000000E+00  0.45593999997E+02  0.45594000000E+02  0.51100000000E-03 0.  1.
         11   -1    0    0    0    0 -0.00000000000E+00 -0.00000000000E+00 -0.45593999997E+02  0.45594000000E+02  0.51100000000E-03 0. -1.
    9900012    2    1    2    0    0  0.47605676687E+01  0.17803426442E+02  0.33245668745E+01  0.72461608396E+02  0.70000049635E+02 0.  0.
        -24    2    3    3    0    0  0.74447027723E+01  0.96976567099E+01 -0.11467293287E+02  0.55382170130E+02  0.52784636097E+02 0.  0.
         12    1    1    2    0    0 -0.47605676687E+01 -0.17803426442E+02 -0.33245668745E+01  0.18726391604E+02  0.00000000000E+00 0. -1.
         11    1    4    4    0    0  0.28338712693E+02  0.80522115846E+01 -0.16584535322E+02  0.33807803250E+02  0.51100000000E-03 0. -1.
        -11    1    3    3    0    0 -0.26841351036E+01  0.81057697319E+01  0.14791860161E+02  0.17079438266E+02  0.51100000000E-03 0.  1.
        -12    1    4    4    0    0 -0.20894009920E+02  0.16454451253E+01  0.51172420356E+01  0.21574366880E+02  0.00000000000E+00 0.  1.
</event>
<event>
 7    1  0.1339094E-013  0.7246154E+02  0.7816164E-02  0.1226708E+00
        -11   -1    0    0    0    0  0.00000000000E+00  0.00000000000E+00  0.45593999997E+02  0.45594000000E+02  0.51100000000E-03 0.  1.
         11   -1    0    0    0    0 -0.00000000000E+00 -0.00000000000E+00 -0.45593999997E+02  0.45594000000E+02  0.51100000000E-03 0. -1.
    9900012    2    1    2    0    0 -0.11254558694E+02  0.11115520562E+02  0.10022995435E+02  0.72461539409E+02  0.69999959766E+02 0.  0.
         12    1    1    2    0    0  0.11254558694E+02 -0.11115520562E+02 -0.10022995435E+02  0.18726460591E+02  0.00000000000E+00 0. -1.
         11    1    3    3    0    0 -0.27003566100E+02  0.25917206332E+02  0.56264085632E+01  0.37849050711E+02  0.51100000000E-03 0. -1.
        -11    1    3    3    0    0  0.18312615694E+02 -0.13491281798E+02  0.12541185834E+02  0.25973985456E+02  0.51100000000E-03 0.  1.
         12    1    3    3    0    0 -0.25636082876E+01 -0.13104039712E+01 -0.81445989613E+01  0.86385032419E+01  0.00000000000E+00 0. -1.
</event>
<event>
 7    1  0.1339094E-013  0.7246156E+02  0.7816164E-02  0.1226708E+00
        -11   -1    0    0    0    0  0.00000000000E+00  0.00000000000E+00  0.45593999997E+02  0.45594000000E+02  0.51100000000E-03 0. -1.
         11   -1    0    0    0    0 -0.00000000000E+00 -0.00000000000E+00 -0.45593999997E+02  0.45594000000E+02  0.51100000000E-03 0.  1.
    9900012    2    1    2    0    0  0.13347903467E+02 -0.71189539489E+01 -0.11037820286E+02  0.72461561231E+02  0.69999988194E+02 0.  0.
         12    1    1    2    0    0 -0.13347903467E+02  0.71189539489E+01  0.11037820286E+02  0.18726438769E+02  0.00000000000E+00 0. -1.
         11    1    3    3    0    0  0.13338843542E+02 -0.20727480794E+02 -0.73003904881E+01  0.25706981710E+02  0.51100000000E-03 0. -1.
        -11    1    3    3    0    0 -0.88629938240E+01  0.16535375989E+02 -0.20360497968E+02  0.27686119201E+02  0.51100000000E-03 0.  1.
        -12    1    3    3    0    0  0.88720537489E+01 -0.29268491442E+01  0.16623068170E+02  0.19068460321E+02  0.00000000000E+00 0.  1.
</event>
<event>
 7    1  0.1339094E-013  0.7246156E+02  0.7816164E-02  0.1226708E+00
        -11   -1    0    0    0    0  0.00000000000E+00  0.00000000000E+00  0.45593999997E+02  0.45594000000E+02  0.51100000000E-03 0. -1.
         11   -1    0    0    0    0 -0.00000000000E+00 -0.00000000000E+00 -0.45593999997E+02  0.45594000000E+02  0.51100000000E-03 0.  1.
    9900012    2    1    2    0    0  0.11163810727E+02  0.14347150684E+02 -0.44953685103E+01  0.72461555043E+02  0.69999980132E+02 0.  0.
         12    1    1    2    0    0 -0.11163810727E+02 -0.14347150684E+02  0.44953685103E+01  0.18726444957E+02  0.00000000000E+00 0. -1.
         11    1    3    3    0    0 -0.19714242775E+02  0.16567277800E+02  0.22707599611E+01  0.25851158832E+02  0.51100000000E-03 0. -1.
        -11    1    3    3    0    0  0.29129135383E+02 -0.12855270778E+02  0.31108014232E+01  0.31991273822E+02  0.51100000000E-03 0.  1.
        -12    1    3    3    0    0  0.17489181178E+01  0.10635143662E+02 -0.98769298946E+01  0.14619122390E+02  0.00000000000E+00 0.  1.
</event>
<event>
 7    1  0.1339094E-013  0.7246174E+02  0.7816164E-02  0.1226708E+00
        -11   -1    0    0    0    0  0.00000000000E+00  0.00000000000E+00  0.45593999997E+02  0.45594000000E+02  0.51100000000E-03 0.  1.
         11   -1    0    0    0    0 -0.00000000000E+00 -0.00000000000E+00 -0.45593999997E+02  0.45594000000E+02  0.51100000000E-03 0. -1.
    9900012    2    1    2    0    0 -0.10918247131E+02 -0.14942404412E+02  0.28616912840E+01  0.72461739107E+02  0.70000219909E+02 0.  0.
         12    1    1    2    0    0  0.10918247131E+02  0.14942404412E+02 -0.28616912840E+01  0.18726260893E+02  0.00000000000E+00 0. -1.
         11    1    3    3    0    0  0.14023522391E+02 -0.12119651883E+02 -0.31550117914E+01  0.18801575511E+02  0.51100000000E-03 0. -1.
        -11    1    3    3    0    0 -0.32549916462E+02 -0.70488881854E+01  0.18762960144E+02  0.38226071731E+02  0.51100000000E-03 0.  1.
         12    1    3    3    0    0  0.76081469402E+01  0.42261356566E+01 -0.12746257068E+02  0.15434091865E+02  0.00000000000E+00 0. -1.
</event>
<event>
 7    1  0.1339094E-013  0.7246161E+02  0.7816164E-02  0.1226708E+00
        -11   -1    0    0    0    0  0.00000000000E+00  0.00000000000E+00  0.45593999997E+02  0.45594000000E+02  0.51100000000E-03 0.  1.
         11   -1    0    0    0    0 -0.00000000000E+00 -0.00000000000E+00 -0.45593999997E+02  0.45594000000E+02  0.51100000000E-03 0. -1.
    9900012    2    1    2    0    0 -0.86126648319E+01  0.16097762913E+02  0.41667396291E+01  0.72461609919E+02  0.70000051619E+02 0.  0.
         12    1    1    2    0    0  0.86126648319E+01 -0.16097762913E+02 -0.41667396291E+01  0.18726390081E+02  0.00000000000E+00 0. -1.
         11    1    3    3    0    0 -0.24414477036E+01 -0.16529223357E+00 -0.28438320652E+02  0.28543406773E+02  0.51100000000E-03 0. -1.
        -11    1    3    3    0    0 -0.40840149737E+00 -0.62036083120E+01  0.63861935164E+01  0.89126323699E+01  0.51100000000E-03 0.  1.
         12    1    3    3    0    0 -0.57628156310E+01  0.22466663459E+02  0.26218866765E+02  0.35005570777E+02  0.00000000000E+00 0. -1.
</event>
<event>
 7    1  0.1339094E-013  0.7246161E+02  0.7816164E-02  0.1226708E+00
        -11   -1    0    0    0    0  0.00000000000E+00  0.00000000000E+00  0.45593999997E+02  0.45594000000E+02  0.51100000000E-03 0. -1.
         11   -1    0    0    0    0 -0.00000000000E+00 -0.00000000000E+00 -0.45593999997E+02  0.45594000000E+02  0.51100000000E-03 0.  1.
    9900012    2    1    2    0    0  0.52347069304E+01 -0.49355047372E+01 -0.17289194798E+02  0.72461611656E+02  0.70000053881E+02 0.  0.
         12    1    1    2    0    0 -0.52347069304E+01  0.49355047372E+01  0.17289194798E+02  0.18726388344E+02  0.00000000000E+00 0. -1.
         11    1    3    3    0    0  0.14641694735E+02 -0.22849880338E+02 -0.43407497931E+01  0.27483419824E+02  0.51100000000E-03 0. -1.
        -11    1    3    3    0    0 -0.82125366191E+01  0.20428219647E+02  0.83137763253E+01  0.23534587159E+02  0.51100000000E-03 0.  1.
        -12    1    3    3    0    0 -0.11944511854E+01 -0.25138440462E+01 -0.21262221330E+02  0.21443604674E+02  0.00000000000E+00 0.  1.
</event>
<event>
 7    1  0.1339094E-013  0.7246156E+02  0.7816164E-02  0.1226708E+00
        -11   -1    0    0    0    0  0.00000000000E+00  0.00000000000E+00  0.45593999997E+02  0.45594000000E+02  0.51100000000E-03 0. -1.
         11   -1    0    0    0    0 -0.00000000000E+00 -0.00000000000E+00 -0.45593999997E+02  0.45594000000E+02  0.51100000000E-03 0.  1.
    9900012    2    1    2    0    0  0.29660437019E+01  0.74513826703E+01 -0.16922142886E+02  0.72461563105E+02  0.69999990635E+02 0.  0.
         12    1    1    2    0    0 -0.29660437019E+01 -0.74513826703E+01  0.16922142886E+02  0.18726436895E+02  0.00000000000E+00 0. -1.
         11    1    3    3    0    0 -0.14846101516E+02  0.19631019413E+02 -0.16940625337E+02  0.29879230922E+02  0.51100000000E-03 0. -1.
        -11    1    3    3    0    0  0.18150353733E+02 -0.13497870158E+02  0.15256613020E+02  0.27283549632E+02  0.51100000000E-03 0.  1.
        -12    1    3    3    0    0 -0.33820851449E+00  0.13182334155E+01 -0.15238130568E+02  0.15298782552E+02  0.00000000000E+00 0.  1.
</event>
<event>
 7    1  0.1339094E-013  0.7246159E+02  0.7816164E-02  0.1226708E+00
        -11   -1    0    0    0    0  0.00000000000E+00  0.00000000000E+00  0.45593999997E+02  0.45594000000E+02  0.51100000000E-03 0.  1.
         11   -1    0    0    0    0 -0.00000000000E+00 -0.00000000000E+00 -0.45593999997E+02  0.45594000000E+02  0.51100000000E-03 0. -1.
    9900012    2    1    2    0    0  0.39796036969E+01 -0.17392557778E+02  0.56868423811E+01  0.72461588494E+02  0.70000023708E+02 0.  0.
         12    1    1    2    0    0 -0.39796036969E+01  0.17392557778E+02 -0.56868423811E+01  0.18726411506E+02  0.00000000000E+00 0. -1.
         11    1    3    3    0    0  0.17861669235E+02 -0.90166644329E+01 -0.18422267164E+02  0.27197782871E+02  0.51100000000E-03 0. -1.
        -11    1    3    3    0    0  0.89356252275E+01  0.21997986374E+00  0.18045778620E+02  0.20138120955E+02  0.51100000000E-03 0.  1.
        -12    1    3    3    0    0 -0.22817690766E+02 -0.85958732087E+01  0.60633309256E+01  0.25125684668E+02  0.00000000000E+00 0.  1.
</event>
<event>
 7    1  0.1339094E-013  0.7246137E+02  0.7816164E-02  0.1226709E+00
        -11   -1    0    0    0    0  0.00000000000E+00  0.00000000000E+00  0.45593999997E+02  0.45594000000E+02  0.51100000000E-03 0. -1.
         11   -1    0    0    0    0 -0.00000000000E+00 -0.00000000000E+00 -0.45593999997E+02  0.45594000000E+02  0.51100000000E-03 0.  1.
    9900012    2    1    2    0    0 -0.39141520347E+01  0.17513901696E+02 -0.53506457742E+01  0.72461367923E+02  0.69999736373E+02 0.  0.
         12    1    1    2    0    0  0.39141520347E+01 -0.17513901696E+02  0.53506457742E+01  0.18726632077E+02  0.00000000000E+00 0. -1.
         11    1    3    3    0    0  0.28775658563E+01  0.17846669526E+02  0.25814311083E+02  0.31514483264E+02  0.51100000000E-03 0. -1.
        -11    1    3    3    0    0 -0.46502933259E+01  0.12334065955E+02 -0.19848505437E+02  0.23826824785E+02  0.51100000000E-03 0.  1.
         12    1    3    3    0    0 -0.21414245652E+01 -0.12666833785E+02 -0.11316451421E+02  0.17120059874E+02  0.00000000000E+00 0. -1.
</event>
<event>
 7    1  0.1339094E-013  0.7246158E+02  0.7816164E-02  0.1226708E+00
        -11   -1    0    0    0    0  0.00000000000E+00  0.00000000000E+00  0.45593999997E+02  0.45594000000E+02  0.51100000000E-03 0.  1.
         11   -1    0    0    0    0 -0.00000000000E+00 -0.00000000000E+00 -0.45593999997E+02  0.45594000000E+02  0.51100000000E-03 0. -1.
    9900012    2    1    2    0    0  0.16112530036E+02 -0.19488680154E+01  0.93416761526E+01  0.72461584859E+02  0.70000018973E+02 0.  0.
         12    1    1    2    0    0 -0.16112530036E+02  0.19488680154E+01 -0.93416761526E+01  0.18726415141E+02  0.00000000000E+00 0. -1.
         11    1    3    3    0    0  0.14154932944E+02  0.80508748709E+01 -0.26231639939E+02  0.30875194688E+02  0.51100000000E-03 0. -1.
        -11    1    3    3    0    0 -0.67915737223E+00  0.48849247049E+01  0.32596707396E+01  0.59117846460E+01  0.51100000000E-03 0.  1.
         12    1    3    3    0    0  0.26367544645E+01 -0.14884667591E+02  0.32313645352E+02  0.35674605525E+02  0.00000000000E+00 0. -1.
</event>
<event>
 7    1  0.1339094E-013  0.7246153E+02  0.7816164E-02  0.1226708E+00
        -11   -1    0    0    0    0  0.00000000000E+00  0.00000000000E+00  0.45593999997E+02  0.45594000000E+02  0.51100000000E-03 0. -1.
         11   -1    0    0    0    0 -0.00000000000E+00 -0.00000000000E+00 -0.45593999997E+02  0.45594000000E+02  0.51100000000E-03 0.  1.
    9900012    2    1    2    0    0 -0.48264804251E+01  0.16698276146E+02 -0.69680222734E+01  0.72461530126E+02  0.69999947673E+02 0.  0.
         12    1    1    2    0    0  0.48264804251E+01 -0.16698276146E+02  0.69680222734E+01  0.18726469874E+02  0.00000000000E+00 0. -1.
         11    1    3    3    0    0  0.11198761327E+02  0.22330398426E+02  0.38501539797E+01  0.25276127770E+02  0.51100000000E-03 0. -1.
        -11    1    3    3    0    0 -0.27006702899E+02 -0.11867473563E+01 -0.18776062943E+02  0.32913688804E+02  0.51100000000E-03 0.  1.
         12    1    3    3    0    0  0.10981461147E+02 -0.44453749235E+01  0.79578866898E+01  0.14271713552E+02  0.00000000000E+00 0. -1.
</event>
<event>
 7    1  0.1339094E-013  0.7246151E+02  0.7816164E-02  0.1226708E+00
        -11   -1    0    0    0    0  0.00000000000E+00  0.00000000000E+00  0.45593999997E+02  0.45594000000E+02  0.51100000000E-03 0.  1.
         11   -1    0    0    0    0 -0.00000000000E+00 -0.00000000000E+00 -0.45593999997E+02  0.45594000000E+02  0.51100000000E-03 0. -1.
    9900012    2    1    2    0    0  0.11027783770E+02  0.11896334232E+02  0.93566314001E+01  0.72461512497E+02  0.69999924708E+02 0.  0.
         12    1    1    2    0    0 -0.11027783770E+02 -0.11896334232E+02 -0.93566314001E+01  0.18726487503E+02  0.00000000000E+00 0. -1.
         11    1    3    3    0    0 -0.26567298736E+02 -0.11903298057E+01  0.56572514107E+01  0.27189018756E+02  0.51100000000E-03 0. -1.
        -11    1    3    3    0    0  0.22715423429E+02 -0.19930022488E+01 -0.31243197734E+01  0.23015731442E+02  0.51100000000E-03 0.  1.
         12    1    3    3    0    0  0.14879659076E+02  0.15079666287E+02  0.68236997628E+01  0.22256762298E+02  0.00000000000E+00 0. -1.
</event>
<event>
 7    1  0.1339094E-013  0.7246158E+02  0.7816164E-02  0.1226708E+00
        -11   -1    0    0    0    0  0.00000000000E+00  0.00000000000E+00  0.45593999997E+02  0.45594000000E+02  0.51100000000E-03 0.  1.
         11   -1    0    0    0    0 -0.00000000000E+00 -0.00000000000E+00 -0.45593999997E+02  0.45594000000E+02  0.51100000000E-03 0. -1.
    9900012    2    1    2    0    0 -0.86716326239E+01  0.15181796364E+02 -0.67078008495E+01  0.72461581618E+02  0.70000014751E+02 0.  0.
         12    1    1    2    0    0  0.86716326239E+01 -0.15181796364E+02  0.67078008495E+01  0.18726418382E+02  0.00000000000E+00 0. -1.
         11    1    3    3    0    0  0.71055182466E+01 -0.10203489357E+02  0.18885896455E+02  0.22611427858E+02  0.51100000000E-03 0. -1.
        -11    1    3    3    0    0  0.19776809661E+01  0.15582740293E+02 -0.25043014425E+02  0.29561555927E+02  0.51100000000E-03 0.  1.
        -12    1    3    3    0    0 -0.17754831837E+02  0.98025454277E+01 -0.55068287932E+00  0.20288597833E+02  0.00000000000E+00 0.  1.
</event>
<event>
 7    1  0.1339094E-013  0.7246182E+02  0.7816164E-02  0.1226707E+00
        -11   -1    0    0    0    0  0.00000000000E+00  0.00000000000E+00  0.45593999997E+02  0.45594000000E+02  0.51100000000E-03 0.  1.
         11   -1    0    0    0    0 -0.00000000000E+00 -0.00000000000E+00 -0.45593999997E+02  0.45594000000E+02  0.51100000000E-03 0. -1.
    9900012    2    1    2    0    0  0.66130703067E+01 -0.55958423255E+01  0.16601916986E+02  0.72461820523E+02  0.70000325968E+02 0.  0.
         12    1    1    2    0    0 -0.66130703067E+01  0.55958423255E+01 -0.16601916986E+02  0.18726179477E+02  0.00000000000E+00 0. -1.
         11    1    3    3    0    0 -0.46215459928E+01  0.28285526691E+02  0.36691244768E+01  0.28894500900E+02  0.51100000000E-03 0. -1.
        -11    1    3    3    0    0  0.18069188608E+01 -0.22913573319E+02  0.16947938352E+02  0.28557475600E+02  0.51100000000E-03 0.  1.
         12    1    3    3    0    0  0.94276974387E+01 -0.10967795698E+02 -0.40151458428E+01  0.15009844023E+02  0.00000000000E+00 0. -1.
</event>
<event>
 7    1  0.1339094E-013  0.7246157E+02  0.7816164E-02  0.1226708E+00
        -11   -1    0    0    0    0  0.00000000000E+00  0.00000000000E+00  0.45593999997E+02  0.45594000000E+02  0.51100000000E-03 0. -1.
         11   -1    0    0    0    0 -0.00000000000E+00 -0.00000000000E+00 -0.45593999997E+02  0.45594000000E+02  0.51100000000E-03 0.  1.
    9900012    2    1    2    0    0  0.29673827059E+01  0.18394692315E+02 -0.18732803751E+01  0.72461568283E+02  0.69999997380E+02 0.  0.
         12    1    1    2    0    0 -0.29673827059E+01 -0.18394692315E+02  0.18732803751E+01  0.18726431717E+02  0.00000000000E+00 0. -1.
         11    1    3    3    0    0  0.22660276026E+02 -0.27229791664E+01 -0.31380617740E+01  0.23038015476E+02  0.51100000000E-03 0. -1.
        -11    1    3    3    0    0 -0.28041087533E+02  0.15142765319E+02 -0.10738259521E+02  0.33629096767E+02  0.51100000000E-03 0.  1.
         12    1    3    3    0    0  0.83481942129E+01  0.59749061631E+01  0.12003040920E+02  0.15794456040E+02  0.00000000000E+00 0. -1.
</event>
<event>
 7    1  0.1339094E-013  0.7246159E+02  0.7816164E-02  0.1226708E+00
        -11   -1    0    0    0    0  0.00000000000E+00  0.00000000000E+00  0.45593999997E+02  0.45594000000E+02  0.51100000000E-03 0.  1.
         11   -1    0    0    0    0 -0.00000000000E+00 -0.00000000000E+00 -0.45593999997E+02  0.45594000000E+02  0.51100000000E-03 0. -1.
    9900012    2    1    2    0    0 -0.16104721327E+01  0.17403845667E+02 -0.67224095754E+01  0.72461594713E+02  0.70000031810E+02 0.  0.
         12    1    1    2    0    0  0.16104721327E+01 -0.17403845667E+02  0.67224095754E+01  0.18726405287E+02  0.00000000000E+00 0. -1.
         11    1    3    3    0    0  0.18981469141E+01 -0.66063534495E+01 -0.17664696441E+02  0.18954903540E+02  0.51100000000E-03 0. -1.
        -11    1    3    3    0    0 -0.11849861571E+02  0.11634405451E+02  0.26928094217E+02  0.31637017367E+02  0.51100000000E-03 0.  1.
        -12    1    3    3    0    0  0.83412425240E+01  0.12375793666E+02 -0.15985807351E+02  0.21869673806E+02  0.00000000000E+00 0.  1.
</event>
<event>
 7    1  0.1339094E-013  0.7246159E+02  0.7816164E-02  0.1226708E+00
        -11   -1    0    0    0    0  0.00000000000E+00  0.00000000000E+00  0.45593999997E+02  0.45594000000E+02  0.51100000000E-03 0. -1.
         11   -1    0    0    0    0 -0.00000000000E+00 -0.00000000000E+00 -0.45593999997E+02  0.45594000000E+02  0.51100000000E-03 0.  1.
    9900012    2    1    2    0    0  0.10027162606E+02 -0.67087148077E+01 -0.14322270499E+02  0.72461594137E+02  0.70000031059E+02 0.  0.
         12    1    1    2    0    0 -0.10027162606E+02  0.67087148077E+01  0.14322270499E+02  0.18726405863E+02  0.00000000000E+00 0. -1.
         11    1    3    3    0    0 -0.12054438146E+02 -0.26802356254E+02 -0.10205552848E+02  0.31109951606E+02  0.51100000000E-03 0.  1.
        -11    1    3    3    0    0  0.13178286858E+02  0.84835100758E+01  0.11884912112E+02  0.19669476961E+02  0.51100000000E-03 0. -1.
         12    1    3    3    0    0  0.89033138932E+01  0.11610131370E+02 -0.16001629764E+02  0.21682165570E+02  0.00000000000E+00 0. -1.
</event>
<event>
 7    1  0.1339094E-013  0.7246156E+02  0.7816164E-02  0.1226708E+00
        -11   -1    0    0    0    0  0.00000000000E+00  0.00000000000E+00  0.45593999997E+02  0.45594000000E+02  0.51100000000E-03 0.  1.
         11   -1    0    0    0    0 -0.00000000000E+00 -0.00000000000E+00 -0.45593999997E+02  0.45594000000E+02  0.51100000000E-03 0. -1.
    9900012    2    1    2    0    0  0.60968399968E+01  0.67529852173E+01  0.16367806912E+02  0.72461564930E+02  0.69999993012E+02 0.  0.
         12    1    1    2    0    0 -0.60968399968E+01 -0.67529852173E+01 -0.16367806912E+02  0.18726435070E+02  0.00000000000E+00 0. -1.
         11    1    3    3    0    0  0.18047298478E+01 -0.70843734810E+01 -0.19035602247E+02  0.20391163542E+02  0.51100000000E-03 0. -1.
        -11    1    3    3    0    0  0.11120202490E+02 -0.27181216395E+01  0.31807317906E+02  0.33804623372E+02  0.51100000000E-03 0.  1.
        -12    1    3    3    0    0 -0.68280923412E+01  0.16555480338E+02  0.35960912536E+01  0.18265778016E+02  0.00000000000E+00 0.  1.
</event>
<event>
 7    1  0.1339094E-013  0.7246162E+02  0.7816164E-02  0.1226708E+00
        -11   -1    0    0    0    0  0.00000000000E+00  0.00000000000E+00  0.45593999997E+02  0.45594000000E+02  0.51100000000E-03 0.  1.
         11   -1    0    0    0    0 -0.00000000000E+00 -0.00000000000E+00 -0.45593999997E+02  0.45594000000E+02  0.51100000000E-03 0. -1.
    9900012    2    1    2    0    0 -0.46946182619E+01 -0.12124110723E+02  0.13477531628E+02  0.72461618602E+02  0.70000062930E+02 0.  0.
         12    1    1    2    0    0  0.46946182619E+01  0.12124110723E+02 -0.13477531628E+02  0.18726381398E+02  0.00000000000E+00 0. -1.
         11    1    3    3    0    0  0.81661417837E+01 -0.15603492530E+02  0.58693748711E+01  0.18563523706E+02  0.51100000000E-03 0.  1.
        -11    1    3    3    0    0 -0.22273729146E+02 -0.62141366487E+01 -0.14997635775E+02  0.27561995273E+02  0.51100000000E-03 0. -1.
        -12    1    3    3    0    0  0.94129691005E+01  0.96935184553E+01  0.22605792532E+02  0.26336099623E+02  0.00000000000E+00 0.  1.
</event>
<event>
 7    1  0.1339094E-013  0.7246147E+02  0.7816164E-02  0.1226708E+00
        -11   -1    0    0    0    0  0.00000000000E+00  0.00000000000E+00  0.45593999997E+02  0.45594000000E+02  0.51100000000E-03 0.  1.
         11   -1    0    0    0    0 -0.00000000000E+00 -0.00000000000E+00 -0.45593999997E+02  0.45594000000E+02  0.51100000000E-03 0. -1.
    9900012    2    1    2    0    0 -0.74018673820E+01  0.16168536114E+01  0.17125447237E+02  0.72461473376E+02  0.69999873746E+02 0.  0.
         12    1    1    2    0    0  0.74018673820E+01 -0.16168536114E+01 -0.17125447237E+02  0.18726526624E+02  0.00000000000E+00 0. -1.
         11    1    3    3    0    0  0.91363218060E+01  0.29101250206E+02  0.22182160182E+02  0.37714763294E+02  0.51100000000E-03 0. -1.
        -11    1    3    3    0    0 -0.13205562796E+02 -0.15952106703E+02  0.20278048935E+01  0.20807897298E+02  0.51100000000E-03 0.  1.
         12    1    3    3    0    0 -0.33326263918E+01 -0.11532289892E+02 -0.70845178388E+01  0.13938812784E+02  0.00000000000E+00 0. -1.
</event>
<event>
 7    1  0.1339094E-013  0.7246157E+02  0.7816164E-02  0.1226708E+00
        -11   -1    0    0    0    0  0.00000000000E+00  0.00000000000E+00  0.45593999997E+02  0.45594000000E+02  0.51100000000E-03 0.  1.
         11   -1    0    0    0    0 -0.00000000000E+00 -0.00000000000E+00 -0.45593999997E+02  0.45594000000E+02  0.51100000000E-03 0. -1.
    9900012    2    1    2    0    0  0.11406997548E+02  0.27059484569E+01  0.14602649677E+02  0.72461571411E+02  0.70000001454E+02 0.  0.
         12    1    1    2    0    0 -0.11406997548E+02 -0.27059484569E+01 -0.14602649677E+02  0.18726428589E+02  0.00000000000E+00 0. -1.
         11    1    3    3    0    0  0.36886673543E+02  0.12663971556E+02  0.61013474225E+01  0.39474413248E+02  0.51100000000E-03 0. -1.
        -11    1    3    3    0    0 -0.68326831694E+01 -0.23551955343E+01 -0.49594187452E+01  0.87651776850E+01  0.51100000000E-03 0.  1.
         12    1    3    3    0    0 -0.18646992826E+02 -0.76028275648E+01  0.13460721000E+02  0.24221980477E+02  0.00000000000E+00 0. -1.
</event>
<event>
 7    1  0.1339094E-013  0.7246159E+02  0.7816164E-02  0.1226708E+00
        -11   -1    0    0    0    0  0.00000000000E+00  0.00000000000E+00  0.45593999997E+02  0.45594000000E+02  0.51100000000E-03 0.  1.
         11   -1    0    0    0    0 -0.00000000000E+00 -0.00000000000E+00 -0.45593999997E+02  0.45594000000E+02  0.51100000000E-03 0. -1.
    9900012    2    1    2    0    0 -0.79340437309E+01 -0.12550609288E+02  0.11411026424E+02  0.72461591710E+02  0.70000027897E+02 0.  0.
         12    1    1    2    0    0  0.79340437309E+01  0.12550609288E+02 -0.11411026424E+02  0.18726408290E+02  0.00000000000E+00 0. -1.
         11    1    3    3    0    0  0.21907489395E+02 -0.13291414241E+02 -0.98379746012E+01  0.27447869291E+02  0.51100000000E-03 0. -1.
        -11    1    3    3    0    0 -0.15380467029E+02  0.96864907500E+01  0.49509923138E+00  0.18183288827E+02  0.51100000000E-03 0.  1.
         12    1    3    3    0    0 -0.14461066097E+02 -0.89456857962E+01  0.20753901794E+02  0.26830433591E+02  0.00000000000E+00 0. -1.
</event>
<event>
 7    1  0.1339094E-013  0.7246161E+02  0.7816164E-02  0.1226708E+00
        -11   -1    0    0    0    0  0.00000000000E+00  0.00000000000E+00  0.45593999997E+02  0.45594000000E+02  0.51100000000E-03 0.  1.
         11   -1    0    0    0    0 -0.00000000000E+00 -0.00000000000E+00 -0.45593999997E+02  0.45594000000E+02  0.51100000000E-03 0. -1.
    9900012    2    1    2    0    0  0.24247489226E+00  0.40236660356E+01  0.18287402008E+02  0.72461608072E+02  0.70000049213E+02 0.  0.
         12    1    1    2    0    0 -0.24247489226E+00 -0.40236660356E+01 -0.18287402008E+02  0.18726391928E+02  0.00000000000E+00 0. -1.
         11    1    3    3    0    0  0.20323083077E+02  0.71681379754E+01 -0.61698652952E+00  0.21559002306E+02  0.51100000000E-03 0. -1.
        -11    1    3    3    0    0  0.14418147696E+01  0.49811644334E+00  0.27426963143E+02  0.27469351236E+02  0.51100000000E-03 0.  1.
         12    1    3    3    0    0 -0.21522422955E+02 -0.36425883830E+01 -0.85225746053E+01  0.23433254530E+02  0.00000000000E+00 0. -1.
</event>
<event>
 7    1  0.1339094E-013  0.7246177E+02  0.7816164E-02  0.1226707E+00
        -11   -1    0    0    0    0  0.00000000000E+00  0.00000000000E+00  0.45593999997E+02  0.45594000000E+02  0.51100000000E-03 0.  1.
         11   -1    0    0    0    0 -0.00000000000E+00 -0.00000000000E+00 -0.45593999997E+02  0.45594000000E+02  0.51100000000E-03 0. -1.
    9900012    2    1    2    0    0 -0.51321635441E+01 -0.92786031976E+01  0.15435024323E+02  0.72461773584E+02  0.70000264822E+02 0.  0.
         12    1    1    2    0    0  0.51321635441E+01  0.92786031976E+01 -0.15435024323E+02  0.18726226416E+02  0.00000000000E+00 0. -1.
         11    1    3    3    0    0  0.11516750410E+02  0.13654693671E+02  0.63634536164E+00  0.17874314950E+02  0.51100000000E-03 0. -1.
        -11    1    3    3    0    0 -0.22708270910E+02 -0.47919458790E+01  0.23979762211E+02  0.33371504446E+02  0.51100000000E-03 0.  1.
         12    1    3    3    0    0  0.60593569564E+01 -0.18141350990E+02 -0.91810832502E+01  0.21215954188E+02  0.00000000000E+00 0. -1.
</event>
<event>
 7    1  0.1339094E-013  0.7246135E+02  0.7816164E-02  0.1226709E+00
        -11   -1    0    0    0    0  0.00000000000E+00  0.00000000000E+00  0.45593999997E+02  0.45594000000E+02  0.51100000000E-03 0. -1.
         11   -1    0    0    0    0 -0.00000000000E+00 -0.00000000000E+00 -0.45593999997E+02  0.45594000000E+02  0.51100000000E-03 0.  1.
    9900012    2    1    2    0    0 -0.89099685403E+01  0.16410612545E+02 -0.14112635317E+01  0.72461350319E+02  0.69999713441E+02 0.  0.
         12    1    1    2    0    0  0.89099685403E+01 -0.16410612545E+02  0.14112635317E+01  0.18726649681E+02  0.00000000000E+00 0. -1.
         11    1    3    3    0    0 -0.18030403641E+02 -0.19297988506E+02 -0.15484535842E+01  0.26455727633E+02  0.51100000000E-03 0. -1.
        -11    1    3    3    0    0 -0.59004551219E+01  0.28811276497E+02  0.12825146504E+01  0.29437219097E+02  0.51100000000E-03 0.  1.
         12    1    3    3    0    0  0.15020890222E+02  0.68973245543E+01 -0.11453245979E+01  0.16568403590E+02  0.00000000000E+00 0. -1.
</event>
<event>
 7    1  0.1339094E-013  0.7246154E+02  0.7816164E-02  0.1226708E+00
        -11   -1    0    0    0    0  0.00000000000E+00  0.00000000000E+00  0.45593999997E+02  0.45594000000E+02  0.51100000000E-03 0.  1.
         11   -1    0    0    0    0 -0.00000000000E+00 -0.00000000000E+00 -0.45593999997E+02  0.45594000000E+02  0.51100000000E-03 0. -1.
    9900012    2    1    2    0    0 -0.16108261635E+02  0.31761924286E+01  0.90064396613E+01  0.72461541536E+02  0.69999962537E+02 0.  0.
         12    1    1    2    0    0  0.16108261635E+02 -0.31761924286E+01 -0.90064396613E+01  0.18726458464E+02  0.00000000000E+00 0. -1.
         11    1    3    3    0    0  0.34263731828E+01 -0.18585541414E+02 -0.17429924253E+02  0.25709232633E+02  0.51100000000E-03 0. -1.
        -11    1    3    3    0    0 -0.18539670750E+02  0.15607523812E+02  0.54232938821E+01  0.24833974870E+02  0.51100000000E-03 0.  1.
        -12    1    3    3    0    0 -0.99496406747E+00  0.61542100306E+01  0.21013070032E+02  0.21918334033E+02  0.00000000000E+00 0.  1.
</event>
<event>
 7    1  0.1339094E-013  0.7246162E+02  0.7816164E-02  0.1226708E+00
        -11   -1    0    0    0    0  0.00000000000E+00  0.00000000000E+00  0.45593999997E+02  0.45594000000E+02  0.51100000000E-03 0.  1.
         11   -1    0    0    0    0 -0.00000000000E+00 -0.00000000000E+00 -0.45593999997E+02  0.45594000000E+02  0.51100000000E-03 0. -1.
    9900012    2    1    2    0    0 -0.91254735481E+01 -0.80646700998E+01  0.14225473807E+02  0.72461620843E+02  0.70000065849E+02 0.  0.
         12    1    1    2    0    0  0.91254735481E+01  0.80646700998E+01 -0.14225473807E+02  0.18726379157E+02  0.00000000000E+00 0. -1.
         11    1    3    3    0    0 -0.22201944039E+02  0.10960455082E+02 -0.53529106848E+01  0.25332026128E+02  0.51100000000E-03 0. -1.
        -11    1    3    3    0    0  0.78346716709E+01 -0.29717686249E+02  0.11878474230E+02  0.32948764870E+02  0.51100000000E-03 0.  1.
         12    1    3    3    0    0  0.52417988200E+01  0.10692561067E+02  0.76999102621E+01  0.14180829845E+02  0.00000000000E+00 0. -1.
</event>
<event>
 7    1  0.1339094E-013  0.7246150E+02  0.7816164E-02  0.1226708E+00
        -11   -1    0    0    0    0  0.00000000000E+00  0.00000000000E+00  0.45593999997E+02  0.45594000000E+02  0.51100000000E-03 0.  1.
         11   -1    0    0    0    0 -0.00000000000E+00 -0.00000000000E+00 -0.45593999997E+02  0.45594000000E+02  0.51100000000E-03 0. -1.
    9900012    2    1    2    0    0  0.79962767950E+01 -0.14720304304E+02  0.83698216878E+01  0.72461502290E+02  0.69999911412E+02 0.  0.
         12    1    1    2    0    0 -0.79962767950E+01  0.14720304304E+02 -0.83698216878E+01  0.18726497710E+02  0.00000000000E+00 0. -1.
         11    1    3    3    0    0 -0.65856858796E+01  0.10329745745E+02 -0.14880053378E+02  0.19274099057E+02  0.51100000000E-03 0. -1.
        -11    1    3    3    0    0  0.13764858069E+02  0.13184597802E+01  0.22962595547E+02  0.26804672137E+02  0.51100000000E-03 0.  1.
        -12    1    3    3    0    0  0.81710460571E+00 -0.26368509830E+02  0.28727951846E+00  0.26382731096E+02  0.00000000000E+00 0.  1.
</event>
<event>
 7    1  0.1339094E-013  0.7246156E+02  0.7816164E-02  0.1226708E+00
        -11   -1    0    0    0    0  0.00000000000E+00  0.00000000000E+00  0.45593999997E+02  0.45594000000E+02  0.51100000000E-03 0. -1.
         11   -1    0    0    0    0 -0.00000000000E+00 -0.00000000000E+00 -0.45593999997E+02  0.45594000000E+02  0.51100000000E-03 0.  1.
    9900012    2    1    2    0    0  0.51596311745E+01 -0.94101244354E+01 -0.15346248422E+02  0.72461559431E+02  0.69999985849E+02 0.  0.
         12    1    1    2    0    0 -0.51596311745E+01  0.94101244354E+01  0.15346248422E+02  0.18726440569E+02  0.00000000000E+00 0. -1.
         11    1    3    3    0    0  0.73446839175E+01 -0.67262480490E-01  0.56260982240E+01  0.92521288133E+01  0.51100000000E-03 0. -1.
        -11    1    3    3    0    0  0.98301705314E+01 -0.31917891420E+02 -0.16488796777E+02  0.37245999313E+02  0.51100000000E-03 0.  1.
        -12    1    3    3    0    0 -0.12015223274E+02  0.22575029466E+02 -0.44835498684E+01  0.25963431305E+02  0.00000000000E+00 0.  1.
</event>
<event>
 7    1  0.1339094E-013  0.7246145E+02  0.7816164E-02  0.1226708E+00
        -11   -1    0    0    0    0  0.00000000000E+00  0.00000000000E+00  0.45593999997E+02  0.45594000000E+02  0.51100000000E-03 0.  1.
         11   -1    0    0    0    0 -0.00000000000E+00 -0.00000000000E+00 -0.45593999997E+02  0.45594000000E+02  0.51100000000E-03 0. -1.
    9900012    2    1    2    0    0  0.32810518816E+01 -0.16949583622E+02  0.72546444356E+01  0.72461453274E+02  0.69999847559E+02 0.  0.
         12    1    1    2    0    0 -0.32810518816E+01  0.16949583622E+02 -0.72546444356E+01  0.18726546726E+02  0.00000000000E+00 0. -1.
         11    1    3    3    0    0  0.24886694995E+02 -0.17749031361E+02  0.10269156532E+02  0.32246414966E+02  0.51100000000E-03 0. -1.
        -11    1    3    3    0    0 -0.18086106436E+02 -0.57247342619E+01  0.12707312311E+02  0.22833212976E+02  0.51100000000E-03 0.  1.
         12    1    3    3    0    0 -0.35195366780E+01  0.65241820012E+01 -0.15721824407E+02  0.17381825332E+02  0.00000000000E+00 0. -1.
</event>
<event>
 7    1  0.1339094E-013  0.7246153E+02  0.7816164E-02  0.1226708E+00
        -11   -1    0    0    0    0  0.00000000000E+00  0.00000000000E+00  0.45593999997E+02  0.45594000000E+02  0.51100000000E-03 0.  1.
         11   -1    0    0    0    0 -0.00000000000E+00 -0.00000000000E+00 -0.45593999997E+02  0.45594000000E+02  0.51100000000E-03 0. -1.
    9900012    2    1    2    0    0 -0.14233546510E+02  0.73575693313E+01  0.96929277974E+01  0.72461534183E+02  0.69999952958E+02 0.  0.
         12    1    1    2    0    0  0.14233546510E+02 -0.73575693313E+01 -0.96929277974E+01  0.18726465817E+02  0.00000000000E+00 0. -1.
         11    1    3    3    0    0 -0.18149184487E+02  0.26051055073E+02 -0.77295039819E+01  0.32677141859E+02  0.51100000000E-03 0. -1.
        -11    1    3    3    0    0 -0.97923919164E+01 -0.10262325615E+02  0.18891654125E+02  0.23624158447E+02  0.51100000000E-03 0.  1.
         12    1    3    3    0    0  0.13708029894E+02 -0.84311601268E+01 -0.14692223460E+01  0.16160233877E+02  0.00000000000E+00 0. -1.
</event>
<event>
 7    1  0.1339094E-013  0.7246182E+02  0.7816164E-02  0.1226707E+00
        -11   -1    0    0    0    0  0.00000000000E+00  0.00000000000E+00  0.45593999997E+02  0.45594000000E+02  0.51100000000E-03 0.  1.
         11   -1    0    0    0    0 -0.00000000000E+00 -0.00000000000E+00 -0.45593999997E+02  0.45594000000E+02  0.51100000000E-03 0. -1.
    9900012    2    1    2    0    0 -0.47951693554E+01  0.12497550724E+02  0.13095315895E+02  0.72461822557E+02  0.70000328618E+02 0.  0.
         12    1    1    2    0    0  0.47951693554E+01 -0.12497550724E+02 -0.13095315895E+02  0.18726177443E+02  0.00000000000E+00 0. -1.
         11    1    3    3    0    0  0.48067165607E+01  0.79285278061E+01 -0.80916634623E+01  0.12306140545E+02  0.51100000000E-03 0. -1.
        -11    1    3    3    0    0  0.14590775048E+02  0.83681562154E+01  0.29780708324E+02  0.34202446455E+02  0.51100000000E-03 0.  1.
        -12    1    3    3    0    0 -0.24192660964E+02 -0.37991332979E+01 -0.85937289669E+01  0.25953235557E+02  0.00000000000E+00 0.  1.
</event>
<event>
 7    1  0.1339094E-013  0.7246154E+02  0.7816164E-02  0.1226708E+00
        -11   -1    0    0    0    0  0.00000000000E+00  0.00000000000E+00  0.45593999997E+02  0.45594000000E+02  0.51100000000E-03 0.  1.
         11   -1    0    0    0    0 -0.00000000000E+00 -0.00000000000E+00 -0.45593999997E+02  0.45594000000E+02  0.51100000000E-03 0. -1.
    9900012    2    1    2    0    0 -0.16666702844E+02 -0.63768341025E+01 -0.56777921730E+01  0.72461539555E+02  0.69999959956E+02 0.  0.
         12    1    1    2    0    0  0.16666702844E+02  0.63768341025E+01  0.56777921730E+01  0.18726460445E+02  0.00000000000E+00 0. -1.
         11    1    3    3    0    0  0.10974128913E+02 -0.29522563208E+02  0.55131245895E+01  0.31975111990E+02  0.51100000000E-03 0. -1.
        -11    1    3    3    0    0 -0.82239030138E+01  0.13542006385E+02 -0.10115935609E+02  0.18797624084E+02  0.51100000000E-03 0.  1.
         12    1    3    3    0    0 -0.19416928743E+02  0.96037227212E+01 -0.10749811534E+01  0.21688803480E+02  0.00000000000E+00 0. -1.
</event>
<event>
 7    1  0.1339094E-013  0.7246147E+02  0.7816164E-02  0.1226708E+00
        -11   -1    0    0    0    0  0.00000000000E+00  0.00000000000E+00  0.45593999997E+02  0.45594000000E+02  0.51100000000E-03 0.  1.
         11   -1    0    0    0    0 -0.00000000000E+00 -0.00000000000E+00 -0.45593999997E+02  0.45594000000E+02  0.51100000000E-03 0. -1.
    9900012    2    1    2    0    0  0.84163869020E+01  0.16653410623E+02  0.15847453190E+01  0.72461466109E+02  0.69999864279E+02 0.  0.
         12    1    1    2    0    0 -0.84163869020E+01 -0.16653410623E+02 -0.15847453190E+01  0.18726533891E+02  0.00000000000E+00 0. -1.
         11    1    3    3    0    0 -0.26385169870E+02 -0.89424302880E+00  0.43834801062E+01  0.26761759243E+02  0.51100000000E-03 0. -1.
        -11    1    3    3    0    0  0.16526403784E+02  0.19255349360E+02 -0.80278617039E+01  0.26614602473E+02  0.51100000000E-03 0.  1.
        -12    1    3    3    0    0  0.18275152988E+02 -0.17076957082E+01  0.52291269168E+01  0.19085104393E+02  0.00000000000E+00 0.  1.
</event>
<event>
 7    1  0.1339094E-013  0.7246156E+02  0.7816164E-02  0.1226708E+00
        -11   -1    0    0    0    0  0.00000000000E+00  0.00000000000E+00  0.45593999997E+02  0.45594000000E+02  0.51100000000E-03 0.  1.
         11   -1    0    0    0    0 -0.00000000000E+00 -0.00000000000E+00 -0.45593999997E+02  0.45594000000E+02  0.51100000000E-03 0. -1.
    9900012    2    1    2    0    0 -0.17289934716E+02  0.62081098679E+01  0.36328012988E+01  0.72461555706E+02  0.69999980996E+02 0.  0.
         12    1    1    2    0    0  0.17289934716E+02 -0.62081098679E+01 -0.36328012988E+01  0.18726444294E+02  0.00000000000E+00 0. -1.
         11    1    3    3    0    0  0.23967632247E+02  0.14214512963E+02  0.50104947614E+01  0.28312626729E+02  0.51100000000E-03 0. -1.
        -11    1    3    3    0    0 -0.24576323742E+02 -0.27536054372E+01  0.55377895669E+01  0.25342556010E+02  0.51100000000E-03 0.  1.
         12    1    3    3    0    0 -0.16681243221E+02 -0.52527976583E+01 -0.69154830296E+01  0.18806372967E+02  0.00000000000E+00 0. -1.
</event>
<event>
 7    1  0.1339094E-013  0.7246164E+02  0.7816164E-02  0.1226708E+00
        -11   -1    0    0    0    0  0.00000000000E+00  0.00000000000E+00  0.45593999997E+02  0.45594000000E+02  0.51100000000E-03 0.  1.
         11   -1    0    0    0    0 -0.00000000000E+00 -0.00000000000E+00 -0.45593999997E+02  0.45594000000E+02  0.51100000000E-03 0. -1.
    9900012    2    1    2    0    0 -0.52020273637E+01 -0.17449757890E+02  0.43728012615E+01  0.72461640770E+02  0.70000091808E+02 0.  0.
         12    1    1    2    0    0  0.52020273637E+01  0.17449757890E+02 -0.43728012615E+01  0.18726359230E+02  0.00000000000E+00 0. -1.
         11    1    3    3    0    0  0.73075888904E+01  0.19473274080E+02 -0.14885279909E+02  0.25576958713E+02  0.51100000000E-03 0. -1.
        -11    1    3    3    0    0 -0.33729195011E+01 -0.13934715433E+02  0.16707995626E+02  0.22016130410E+02  0.51100000000E-03 0.  1.
         12    1    3    3    0    0 -0.91366967531E+01 -0.22988316537E+02  0.25500855446E+01  0.24868551647E+02  0.00000000000E+00 0. -1.
</event>
<event>
 7    1  0.1339094E-013  0.7246157E+02  0.7816164E-02  0.1226708E+00
        -11   -1    0    0    0    0  0.00000000000E+00  0.00000000000E+00  0.45593999997E+02  0.45594000000E+02  0.51100000000E-03 0. -1.
         11   -1    0    0    0    0 -0.00000000000E+00 -0.00000000000E+00 -0.45593999997E+02  0.45594000000E+02  0.51100000000E-03 0.  1.
    9900012    2    1    2    0    0 -0.36619751909E+01 -0.13141803921E+02  0.12828175421E+02  0.72461570623E+02  0.70000000428E+02 0.  0.
         12    1    1    2    0    0  0.36619751909E+01  0.13141803921E+02 -0.12828175421E+02  0.18726429377E+02  0.00000000000E+00 0. -1.
         11    1    3    3    0    0  0.47901522844E+01  0.69933136845E+01  0.31181336044E+02  0.32312965090E+02  0.51100000000E-03 0. -1.
        -11    1    3    3    0    0 -0.13827535539E+02 -0.99959381425E+01  0.15932946487E+01  0.17136455483E+02  0.51100000000E-03 0.  1.
         12    1    3    3    0    0  0.53754080633E+01 -0.10139179463E+02 -0.19946455271E+02  0.23012150049E+02  0.00000000000E+00 0. -1.
</event>
<event>
 7    1  0.1339094E-013  0.7246153E+02  0.7816164E-02  0.1226708E+00
        -11   -1    0    0    0    0  0.00000000000E+00  0.00000000000E+00  0.45593999997E+02  0.45594000000E+02  0.51100000000E-03 0. -1.
         11   -1    0    0    0    0 -0.00000000000E+00 -0.00000000000E+00 -0.45593999997E+02  0.45594000000E+02  0.51100000000E-03 0.  1.
    9900012    2    1    2    0    0  0.11766560109E+02  0.63341384553E+01 -0.13118978104E+02  0.72461525872E+02  0.69999942132E+02 0.  0.
         12    1    1    2    0    0 -0.11766560109E+02 -0.63341384553E+01  0.13118978104E+02  0.18726474128E+02  0.00000000000E+00 0. -1.
         11    1    3    3    0    0 -0.15939313336E+02  0.33132407357E+01  0.66122270471E+01  0.17571591294E+02  0.51100000000E-03 0. -1.
        -11    1    3    3    0    0  0.33301797490E+02  0.71798743697E+01 -0.11040472346E+00  0.34067176306E+02  0.51100000000E-03 0.  1.
        -12    1    3    3    0    0 -0.55959240445E+01 -0.41589766501E+01 -0.19620800427E+02  0.20822758273E+02  0.00000000000E+00 0.  1.
</event>
<event>
 7    1  0.1339094E-013  0.7246156E+02  0.7816164E-02  0.1226708E+00
        -11   -1    0    0    0    0  0.00000000000E+00  0.00000000000E+00  0.45593999997E+02  0.45594000000E+02  0.51100000000E-03 0.  1.
         11   -1    0    0    0    0 -0.00000000000E+00 -0.00000000000E+00 -0.45593999997E+02  0.45594000000E+02  0.51100000000E-03 0. -1.
    9900012    2    1    2    0    0  0.17258060377E+02 -0.31856632571E+01 -0.65337937341E+01  0.72461559897E+02  0.69999986456E+02 0.  0.
         12    1    1    2    0    0 -0.17258060377E+02  0.31856632571E+01  0.65337937341E+01  0.18726440103E+02  0.00000000000E+00 0. -1.
         11    1    3    3    0    0 -0.23254872260E+02 -0.71340938019E+01 -0.12442672909E+01  0.24356366304E+02  0.51100000000E-03 0. -1.
        -11    1    3    3    0    0  0.41661698023E+02  0.21344571644E+01  0.72110594911E+00  0.41722571632E+02  0.51100000000E-03 0.  1.
        -12    1    3    3    0    0 -0.11487653864E+01  0.18139733803E+01 -0.60106323923E+01  0.63826219607E+01  0.00000000000E+00 0.  1.
</event>
<event>
 7    1  0.1339094E-013  0.7246134E+02  0.7816164E-02  0.1226709E+00
        -11   -1    0    0    0    0  0.00000000000E+00  0.00000000000E+00  0.45593999997E+02  0.45594000000E+02  0.51100000000E-03 0.  1.
         11   -1    0    0    0    0 -0.00000000000E+00 -0.00000000000E+00 -0.45593999997E+02  0.45594000000E+02  0.51100000000E-03 0. -1.
    9900012    2    1    2    0    0  0.37952599421E+00 -0.78235979927E+01  0.17009851012E+02  0.72461341009E+02  0.69999701313E+02 0.  0.
         12    1    1    2    0    0 -0.37952599421E+00  0.78235979927E+01 -0.17009851012E+02  0.18726658991E+02  0.00000000000E+00 0. -1.
         11    1    3    3    0    0  0.47130096988E+01  0.19765982120E+02  0.10549791759E+02  0.22895515195E+02  0.51100000000E-03 0. -1.
        -11    1    3    3    0    0 -0.36754582500E+01 -0.35668168864E+02 -0.42788433310E+01  0.36111435363E+02  0.51100000000E-03 0.  1.
        -12    1    3    3    0    0 -0.65802545462E+00  0.80785887516E+01  0.10738902583E+02  0.13454390451E+02  0.00000000000E+00 0.  1.
</event>
<event>
 7    1  0.1339094E-013  0.7246226E+02  0.7816164E-02  0.1226706E+00
        -11   -1    0    0    0    0  0.00000000000E+00  0.00000000000E+00  0.45593999997E+02  0.45594000000E+02  0.51100000000E-03 0.  1.
         11   -1    0    0    0    0 -0.00000000000E+00 -0.00000000000E+00 -0.45593999997E+02  0.45594000000E+02  0.51100000000E-03 0. -1.
    9900012    2    1    2    0    0 -0.14361466067E+01  0.15750871043E+02  0.10025021853E+02  0.72462255186E+02  0.70000892193E+02 0.  0.
         12    1    1    2    0    0  0.14361466067E+01 -0.15750871043E+02 -0.10025021853E+02  0.18725744814E+02  0.00000000000E+00 0. -1.
         11    1    3    3    0    0 -0.27940986732E+02  0.28706055026E+02 -0.33006109599E+00  0.40060520158E+02  0.51100000000E-03 0. -1.
        -11    1    3    3    0    0  0.16780156693E+02 -0.49471103135E+01  0.28127124778E+01  0.17718885711E+02  0.51100000000E-03 0.  1.
         12    1    3    3    0    0  0.97246834326E+01 -0.80080736695E+01  0.75423704707E+01  0.14682849317E+02  0.00000000000E+00 0. -1.
</event>
<event>
 7    1  0.1339094E-013  0.7246163E+02  0.7816164E-02  0.1226708E+00
        -11   -1    0    0    0    0  0.00000000000E+00  0.00000000000E+00  0.45593999997E+02  0.45594000000E+02  0.51100000000E-03 0.  1.
         11   -1    0    0    0    0 -0.00000000000E+00 -0.00000000000E+00 -0.45593999997E+02  0.45594000000E+02  0.51100000000E-03 0. -1.
    9900012    2    1    2    0    0  0.11313340543E+02 -0.20551102604E+01  0.14780446336E+02  0.72461634995E+02  0.70000084284E+02 0.  0.
         12    1    1    2    0    0 -0.11313340543E+02  0.20551102604E+01 -0.14780446336E+02  0.18726365005E+02  0.00000000000E+00 0. -1.
         11    1    3    3    0    0 -0.95804370280E+01  0.27705177778E+02  0.18152995292E+02  0.34480326096E+02  0.51100000000E-03 0.  1.
        -11    1    3    3    0    0  0.20667857458E+02 -0.24210364763E+02 -0.75606449495E+00  0.31841383884E+02  0.51100000000E-03 0. -1.
         12    1    3    3    0    0  0.22592011375E+00 -0.55499232754E+01 -0.26164844611E+01  0.61399250155E+01  0.00000000000E+00 0. -1.
</event>
<event>
 7    1  0.1339094E-013  0.7246155E+02  0.7816164E-02  0.1226708E+00
        -11   -1    0    0    0    0  0.00000000000E+00  0.00000000000E+00  0.45593999997E+02  0.45594000000E+02  0.51100000000E-03 0.  1.
         11   -1    0    0    0    0 -0.00000000000E+00 -0.00000000000E+00 -0.45593999997E+02  0.45594000000E+02  0.51100000000E-03 0. -1.
    9900012    2    1    2    0    0  0.18943652444E+01  0.17139602359E+02  0.73024323350E+01  0.72461545271E+02  0.69999967403E+02 0.  0.
         12    1    1    2    0    0 -0.18943652444E+01 -0.17139602359E+02 -0.73024323350E+01  0.18726454729E+02  0.00000000000E+00 0. -1.
         11    1    3    3    0    0 -0.24898145230E+01  0.89417646770E+01 -0.36543707725E+01  0.99754076559E+01  0.51100000000E-03 0. -1.
        -11    1    3    3    0    0 -0.24048968057E+02 -0.10323401557E+02  0.11408668333E+02  0.28549661954E+02  0.51100000000E-03 0.  1.
        -12    1    3    3    0    0  0.28433147824E+02  0.18521239239E+02 -0.45186522541E+00  0.33936475661E+02  0.00000000000E+00 0.  1.
</event>
<event>
 8    1  0.1339094E-013  0.7246156E+02  0.7816164E-02  0.1226708E+00
        -11   -1    0    0    0    0  0.00000000000E+00  0.00000000000E+00  0.45593999997E+02  0.45594000000E+02  0.51100000000E-03 0. -1.
         11   -1    0    0    0    0 -0.00000000000E+00 -0.00000000000E+00 -0.45593999997E+02  0.45594000000E+02  0.51100000000E-03 0.  1.
    9900012    2    1    2    0    0  0.45748380993E+01 -0.15054575737E+02 -0.10154319147E+02  0.72461559025E+02  0.69999985320E+02 0.  0.
        -24    2    3    3    0    0 -0.11370571555E+02 -0.12183023379E+02 -0.12568716304E+02  0.56080740490E+02  0.52051521286E+02 0.  0.
         12    1    1    2    0    0 -0.45748380993E+01  0.15054575737E+02  0.10154319147E+02  0.18726440975E+02  0.00000000000E+00 0. -1.
         11    1    4    4    0    0 -0.23196199825E+02 -0.18398467044E+01  0.12561913286E+02  0.26443342978E+02  0.51100000000E-03 0. -1.
        -11    1    3    3    0    0  0.15945409655E+02 -0.28715523576E+01  0.24143971576E+01  0.16380818535E+02  0.51100000000E-03 0.  1.
        -12    1    4    4    0    0  0.11825628269E+02 -0.10343176675E+02 -0.25130629590E+02  0.29637397512E+02  0.00000000000E+00 0.  1.
</event>
<event>
 7    1  0.1339094E-013  0.7246162E+02  0.7816164E-02  0.1226708E+00
        -11   -1    0    0    0    0  0.00000000000E+00  0.00000000000E+00  0.45593999997E+02  0.45594000000E+02  0.51100000000E-03 0.  1.
         11   -1    0    0    0    0 -0.00000000000E+00 -0.00000000000E+00 -0.45593999997E+02  0.45594000000E+02  0.51100000000E-03 0. -1.
    9900012    2    1    2    0    0 -0.13191843843E+02  0.10325534148E+02 -0.83687546135E+01  0.72461616120E+02  0.70000059697E+02 0.  0.
         12    1    1    2    0    0  0.13191843843E+02 -0.10325534148E+02  0.83687546135E+01  0.18726383880E+02  0.00000000000E+00 0. -1.
         11    1    3    3    0    0  0.11209765108E+02  0.50361915442E+01  0.14606954576E+02  0.19088875852E+02  0.51100000000E-03 0. -1.
        -11    1    3    3    0    0 -0.30050624098E+02  0.17023817308E+02 -0.20350670293E+02  0.40087406327E+02  0.51100000000E-03 0.  1.
        -12    1    3    3    0    0  0.56490151465E+01 -0.11734474704E+02 -0.26250388967E+01  0.13285333941E+02  0.00000000000E+00 0.  1.
</event>
<event>
 7    1  0.1339094E-013  0.7246160E+02  0.7816164E-02  0.1226708E+00
        -11   -1    0    0    0    0  0.00000000000E+00  0.00000000000E+00  0.45593999997E+02  0.45594000000E+02  0.51100000000E-03 0. -1.
         11   -1    0    0    0    0 -0.00000000000E+00 -0.00000000000E+00 -0.45593999997E+02  0.45594000000E+02  0.51100000000E-03 0.  1.
    9900012    2    1    2    0    0  0.18360189835E+02 -0.21730352968E+01 -0.29764746927E+01  0.72461600059E+02  0.70000038774E+02 0.  0.
         12    1    1    2    0    0 -0.18360189835E+02  0.21730352968E+01  0.29764746927E+01  0.18726399941E+02  0.00000000000E+00 0. -1.
         11    1    3    3    0    0 -0.12346854654E+02  0.17180830536E+02 -0.13220115698E+02  0.24947890033E+02  0.51100000000E-03 0. -1.
        -11    1    3    3    0    0  0.19519863678E+02  0.80614690836E+00 -0.46284269976E+01  0.20077282874E+02  0.51100000000E-03 0.  1.
         12    1    3    3    0    0  0.11187180811E+02 -0.20160012741E+02  0.14872068003E+02  0.27436427152E+02  0.00000000000E+00 0. -1.
</event>
<event>
 7    1  0.1339094E-013  0.7246178E+02  0.7816164E-02  0.1226707E+00
        -11   -1    0    0    0    0  0.00000000000E+00  0.00000000000E+00  0.45593999997E+02  0.45594000000E+02  0.51100000000E-03 0.  1.
         11   -1    0    0    0    0 -0.00000000000E+00 -0.00000000000E+00 -0.45593999997E+02  0.45594000000E+02  0.51100000000E-03 0. -1.
    9900012    2    1    2    0    0 -0.46114432505E+01  0.61806697782E+01  0.17064741088E+02  0.72461775710E+02  0.70000267592E+02 0.  0.
         12    1    1    2    0    0  0.46114432505E+01 -0.61806697782E+01 -0.17064741088E+02  0.18726224290E+02  0.00000000000E+00 0. -1.
         11    1    3    3    0    0  0.24833561565E+01 -0.25517425048E+02  0.94747469758E+01  0.27332706953E+02  0.51100000000E-03 0. -1.
        -11    1    3    3    0    0 -0.66092295255E+01  0.11863221937E+02  0.18138187099E+02  0.22658591773E+02  0.51100000000E-03 0.  1.
         12    1    3    3    0    0 -0.48556988146E+00  0.19834872888E+02 -0.10548192987E+02  0.22470476984E+02  0.00000000000E+00 0. -1.
</event>
<event>
 7    1  0.1339094E-013  0.7246166E+02  0.7816164E-02  0.1226708E+00
        -11   -1    0    0    0    0  0.00000000000E+00  0.00000000000E+00  0.45593999997E+02  0.45594000000E+02  0.51100000000E-03 0.  1.
         11   -1    0    0    0    0 -0.00000000000E+00 -0.00000000000E+00 -0.45593999997E+02  0.45594000000E+02  0.51100000000E-03 0. -1.
    9900012    2    1    2    0    0  0.94900346451E+01  0.43937997870E+01  0.15534137641E+02  0.72461663829E+02  0.70000121846E+02 0.  0.
         12    1    1    2    0    0 -0.94900346451E+01 -0.43937997870E+01 -0.15534137641E+02  0.18726336171E+02  0.00000000000E+00 0. -1.
         11    1    3    3    0    0 -0.26391511395E+01 -0.26663882496E+02  0.11971848955E+02  0.29347110866E+02  0.51100000000E-03 0. -1.
        -11    1    3    3    0    0  0.15871727143E+02  0.23510761880E+02  0.12352564984E+02  0.30939513710E+02  0.51100000000E-03 0.  1.
         12    1    3    3    0    0 -0.37425413589E+01  0.75469204035E+01 -0.87902762983E+01  0.12175039253E+02  0.00000000000E+00 0. -1.
</event>
<event>
 7    1  0.1339094E-013  0.7246155E+02  0.7816164E-02  0.1226708E+00
        -11   -1    0    0    0    0  0.00000000000E+00  0.00000000000E+00  0.45593999997E+02  0.45594000000E+02  0.51100000000E-03 0.  1.
         11   -1    0    0    0    0 -0.00000000000E+00 -0.00000000000E+00 -0.45593999997E+02  0.45594000000E+02  0.51100000000E-03 0. -1.
    9900012    2    1    2    0    0  0.18523360315E+02  0.13991295073E+01  0.23679849833E+01  0.72461553630E+02  0.69999978292E+02 0.  0.
         12    1    1    2    0    0 -0.18523360315E+02 -0.13991295073E+01 -0.23679849833E+01  0.18726446370E+02  0.00000000000E+00 0. -1.
         11    1    3    3    0    0  0.17909263646E+02 -0.19246619606E+02 -0.18516791616E+02  0.32156580393E+02  0.51100000000E-03 0. -1.
        -11    1    3    3    0    0  0.23919677445E+01  0.62681793415E+01  0.24476468530E+02  0.25379304441E+02  0.51100000000E-03 0.  1.
         12    1    3    3    0    0 -0.17778710751E+01  0.14377569771E+02 -0.35916919309E+01  0.14925668796E+02  0.00000000000E+00 0. -1.
</event>
<event>
 7    1  0.1339094E-013  0.7246160E+02  0.7816164E-02  0.1226708E+00
        -11   -1    0    0    0    0  0.00000000000E+00  0.00000000000E+00  0.45593999997E+02  0.45594000000E+02  0.51100000000E-03 0. -1.
         11   -1    0    0    0    0 -0.00000000000E+00 -0.00000000000E+00 -0.45593999997E+02  0.45594000000E+02  0.51100000000E-03 0.  1.
    9900012    2    1    2    0    0 -0.68935948343E+01  0.17406955212E+02 -0.39303653419E+00  0.72461595721E+02  0.70000033123E+02 0.  0.
         12    1    1    2    0    0  0.68935948343E+01 -0.17406955212E+02  0.39303653419E+00  0.18726404279E+02  0.00000000000E+00 0. -1.
         11    1    3    3    0    0  0.12072968935E+02  0.27150256082E+02 -0.11742207023E+01  0.29736707597E+02  0.51100000000E-03 0. -1.
        -11    1    3    3    0    0 -0.27572686954E+02 -0.13805641804E+01  0.79721254139E+01  0.28735236334E+02  0.51100000000E-03 0.  1.
        -12    1    3    3    0    0  0.86061231848E+01 -0.83627366894E+01 -0.71909412458E+01  0.13989651790E+02  0.00000000000E+00 0.  1.
</event>
<event>
 7    1  0.1339094E-013  0.7246156E+02  0.7816164E-02  0.1226708E+00
        -11   -1    0    0    0    0  0.00000000000E+00  0.00000000000E+00  0.45593999997E+02  0.45594000000E+02  0.51100000000E-03 0. -1.
         11   -1    0    0    0    0 -0.00000000000E+00 -0.00000000000E+00 -0.45593999997E+02  0.45594000000E+02  0.51100000000E-03 0.  1.
    9900012    2    1    2    0    0  0.33641912165E+01  0.14354909042E+02  0.11545483459E+02  0.72461564555E+02  0.69999992524E+02 0.  0.
         12    1    1    2    0    0 -0.33641912165E+01 -0.14354909042E+02 -0.11545483459E+02  0.18726435445E+02  0.00000000000E+00 0. -1.
         11    1    3    3    0    0 -0.47136757384E+01 -0.19417875484E+02  0.72406976828E+01  0.21253242823E+02  0.51100000000E-03 0. -1.
        -11    1    3    3    0    0 -0.97950362838E+00  0.34915037697E+02 -0.80521612230E+01  0.35844896225E+02  0.51100000000E-03 0.  1.
         12    1    3    3    0    0  0.90573705833E+01 -0.11422531709E+01  0.12356946999E+02  0.15363425508E+02  0.00000000000E+00 0. -1.
</event>
<event>
 7    1  0.1339094E-013  0.7246157E+02  0.7816164E-02  0.1226708E+00
        -11   -1    0    0    0    0  0.00000000000E+00  0.00000000000E+00  0.45593999997E+02  0.45594000000E+02  0.51100000000E-03 0.  1.
         11   -1    0    0    0    0 -0.00000000000E+00 -0.00000000000E+00 -0.45593999997E+02  0.45594000000E+02  0.51100000000E-03 0. -1.
    9900012    2    1    2    0    0  0.14526671229E+02  0.11451670344E+02 -0.29179380037E+01  0.72461567001E+02  0.69999995710E+02 0.  0.
         12    1    1    2    0    0 -0.14526671229E+02 -0.11451670344E+02  0.29179380037E+01  0.18726432999E+02  0.00000000000E+00 0. -1.
         11    1    3    3    0    0  0.27821643016E+02  0.20044021688E+02 -0.18023962553E+02  0.38738480248E+02  0.51100000000E-03 0.  1.
        -11    1    3    3    0    0  0.43287481112E+01 -0.10767131913E+02  0.23018271009E+01  0.11830790257E+02  0.51100000000E-03 0. -1.
         12    1    3    3    0    0 -0.17623719898E+02  0.21747805694E+01  0.12804197449E+02  0.21892296496E+02  0.00000000000E+00 0. -1.
</event>
<event>
 7    1  0.1339094E-013  0.7246152E+02  0.7816164E-02  0.1226708E+00
        -11   -1    0    0    0    0  0.00000000000E+00  0.00000000000E+00  0.45593999997E+02  0.45594000000E+02  0.51100000000E-03 0.  1.
         11   -1    0    0    0    0 -0.00000000000E+00 -0.00000000000E+00 -0.45593999997E+02  0.45594000000E+02  0.51100000000E-03 0. -1.
    9900012    2    1    2    0    0 -0.18305469549E+02  0.38030871164E+01  0.10618222563E+01  0.72461517321E+02  0.69999930993E+02 0.  0.
         12    1    1    2    0    0  0.18305469549E+02 -0.38030871164E+01 -0.10618222563E+01  0.18726482679E+02  0.00000000000E+00 0. -1.
         11    1    3    3    0    0 -0.40893907699E+01 -0.20525053330E+02 -0.51736696142E+01  0.21558473708E+02  0.51100000000E-03 0. -1.
        -11    1    3    3    0    0 -0.27847067806E+02  0.10878554889E+02 -0.22015782052E+01  0.29977476357E+02  0.51100000000E-03 0.  1.
        -12    1    3    3    0    0  0.13630989027E+02  0.13449585558E+02  0.84370700757E+01  0.20925567256E+02  0.00000000000E+00 0.  1.
</event>
<event>
 7    1  0.1339094E-013  0.7246155E+02  0.7816164E-02  0.1226708E+00
        -11   -1    0    0    0    0  0.00000000000E+00  0.00000000000E+00  0.45593999997E+02  0.45594000000E+02  0.51100000000E-03 0.  1.
         11   -1    0    0    0    0 -0.00000000000E+00 -0.00000000000E+00 -0.45593999997E+02  0.45594000000E+02  0.51100000000E-03 0. -1.
    9900012    2    1    2    0    0  0.17165546225E+02 -0.74081017616E+01  0.10695809628E+01  0.72461549393E+02  0.69999972772E+02 0.  0.
         12    1    1    2    0    0 -0.17165546225E+02  0.74081017616E+01 -0.10695809628E+01  0.18726450607E+02  0.00000000000E+00 0. -1.
         11    1    3    3    0    0 -0.15773317440E+02 -0.18440286647E+02  0.10544078026E+02  0.26457877775E+02  0.51100000000E-03 0.  1.
        -11    1    3    3    0    0  0.36827256109E+02  0.93047479835E+01 -0.27990419464E+01  0.38087527665E+02  0.51100000000E-03 0. -1.
        -12    1    3    3    0    0 -0.38883924447E+01  0.17274369021E+01 -0.66754551169E+01  0.79161439523E+01  0.00000000000E+00 0.  1.
</event>
<event>
 7    1  0.1339094E-013  0.7246157E+02  0.7816164E-02  0.1226708E+00
        -11   -1    0    0    0    0  0.00000000000E+00  0.00000000000E+00  0.45593999997E+02  0.45594000000E+02  0.51100000000E-03 0.  1.
         11   -1    0    0    0    0 -0.00000000000E+00 -0.00000000000E+00 -0.45593999997E+02  0.45594000000E+02  0.51100000000E-03 0. -1.
    9900012    2    1    2    0    0  0.11388918914E+01  0.43109637812E+01  0.18187839689E+02  0.72461574927E+02  0.70000006035E+02 0.  0.
         12    1    1    2    0    0 -0.11388918914E+01 -0.43109637812E+01 -0.18187839689E+02  0.18726425073E+02  0.00000000000E+00 0. -1.
         11    1    3    3    0    0  0.13720761331E+01  0.15868293395E+02  0.31482366723E+02  0.35282073960E+02  0.51100000000E-03 0. -1.
        -11    1    3    3    0    0 -0.15522920117E+02 -0.55888239551E+01 -0.73963889842E+00  0.16514934699E+02  0.51100000000E-03 0.  1.
         12    1    3    3    0    0  0.15289735875E+02 -0.59685056591E+01 -0.12554888135E+02  0.20664566267E+02  0.00000000000E+00 0. -1.
</event>
<event>
 7    1  0.1339094E-013  0.7246195E+02  0.7816164E-02  0.1226707E+00
        -11   -1    0    0    0    0  0.00000000000E+00  0.00000000000E+00  0.45593999997E+02  0.45594000000E+02  0.51100000000E-03 0.  1.
         11   -1    0    0    0    0 -0.00000000000E+00 -0.00000000000E+00 -0.45593999997E+02  0.45594000000E+02  0.51100000000E-03 0. -1.
    9900012    2    1    2    0    0  0.98922702465E+01  0.14269963497E+02  0.70125627424E+01  0.72461951163E+02  0.70000496150E+02 0.  0.
         12    1    1    2    0    0 -0.98922702465E+01 -0.14269963497E+02 -0.70125627424E+01  0.18726048837E+02  0.00000000000E+00 0. -1.
         11    1    3    3    0    0  0.33876662518E+02  0.14705744262E+02  0.19113293458E+02  0.41583712734E+02  0.51100000000E-03 0.  1.
        -11    1    3    3    0    0 -0.87369862471E+01 -0.43140989709E+00 -0.12926842208E+02  0.15608468628E+02  0.51100000000E-03 0. -1.
         12    1    3    3    0    0 -0.15247406024E+02 -0.43708679867E-02  0.82611149242E+00  0.15269769801E+02  0.00000000000E+00 0. -1.
</event>
<event>
 7    1  0.1339094E-013  0.7246155E+02  0.7816164E-02  0.1226708E+00
        -11   -1    0    0    0    0  0.00000000000E+00  0.00000000000E+00  0.45593999997E+02  0.45594000000E+02  0.51100000000E-03 0. -1.
         11   -1    0    0    0    0 -0.00000000000E+00 -0.00000000000E+00 -0.45593999997E+02  0.45594000000E+02  0.51100000000E-03 0.  1.
    9900012    2    1    2    0    0  0.73797274683E+01  0.16426498837E+02 -0.51370923961E+01  0.72461549193E+02  0.69999972512E+02 0.  0.
         12    1    1    2    0    0 -0.73797274683E+01 -0.16426498837E+02  0.51370923961E+01  0.18726450807E+02  0.00000000000E+00 0. -1.
         11    1    3    3    0    0  0.24446250985E+02  0.70007573387E+01  0.94006625220E+01  0.27110924858E+02  0.51100000000E-03 0. -1.
        -11    1    3    3    0    0 -0.15912937689E+02 -0.12780008488E+02 -0.42362783379E+01  0.20844573809E+02  0.51100000000E-03 0.  1.
         12    1    3    3    0    0 -0.11535858277E+01  0.22205749986E+02 -0.10301476580E+02  0.24506050527E+02  0.00000000000E+00 0. -1.
</event>
<event>
 7    1  0.1339094E-013  0.7246157E+02  0.7816164E-02  0.1226708E+00
        -11   -1    0    0    0    0  0.00000000000E+00  0.00000000000E+00  0.45593999997E+02  0.45594000000E+02  0.51100000000E-03 0.  1.
         11   -1    0    0    0    0 -0.00000000000E+00 -0.00000000000E+00 -0.45593999997E+02  0.45594000000E+02  0.51100000000E-03 0. -1.
    9900012    2    1    2    0    0 -0.17319067196E+02 -0.40781863482E+00  0.71107476383E+01  0.72461571174E+02  0.70000001146E+02 0.  0.
         12    1    1    2    0    0  0.17319067196E+02  0.40781863482E+00 -0.71107476383E+01  0.18726428826E+02  0.00000000000E+00 0. -1.
         11    1    3    3    0    0 -0.18767579266E+02 -0.15317158810E+02  0.24133039613E+02  0.34194165975E+02  0.51100000000E-03 0. -1.
        -11    1    3    3    0    0  0.64962597384E+01  0.17662070944E+02  0.14948802331E+01  0.18878156896E+02  0.51100000000E-03 0.  1.
        -12    1    3    3    0    0 -0.50477476686E+01 -0.27527307686E+01 -0.18517172208E+02  0.19389248304E+02  0.00000000000E+00 0.  1.
</event>
<event>
 7    1  0.1339094E-013  0.7246158E+02  0.7816164E-02  0.1226708E+00
        -11   -1    0    0    0    0  0.00000000000E+00  0.00000000000E+00  0.45593999997E+02  0.45594000000E+02  0.51100000000E-03 0. -1.
         11   -1    0    0    0    0 -0.00000000000E+00 -0.00000000000E+00 -0.45593999997E+02  0.45594000000E+02  0.51100000000E-03 0.  1.
    9900012    2    1    2    0    0 -0.14920743682E+02 -0.11160490417E+02  0.18691579961E+01  0.72461577758E+02  0.70000009723E+02 0.  0.
         12    1    1    2    0    0  0.14920743682E+02  0.11160490417E+02 -0.18691579961E+01  0.18726422242E+02  0.00000000000E+00 0. -1.
         11    1    3    3    0    0 -0.23052857491E+02  0.23365779537E+02  0.11647450123E+02  0.34828967635E+02  0.51100000000E-03 0. -1.
        -11    1    3    3    0    0  0.38959903050E+01 -0.22351214512E+02 -0.24912682606E+01  0.22824590871E+02  0.51100000000E-03 0.  1.
         12    1    3    3    0    0  0.42361235040E+01 -0.12175055441E+02 -0.72870238665E+01  0.14808019252E+02  0.00000000000E+00 0. -1.
</event>
<event>
 7    1  0.1339094E-013  0.7246157E+02  0.7816164E-02  0.1226708E+00
        -11   -1    0    0    0    0  0.00000000000E+00  0.00000000000E+00  0.45593999997E+02  0.45594000000E+02  0.51100000000E-03 0. -1.
         11   -1    0    0    0    0 -0.00000000000E+00 -0.00000000000E+00 -0.45593999997E+02  0.45594000000E+02  0.51100000000E-03 0.  1.
    9900012    2    1    2    0    0 -0.14457361209E+02  0.11230998699E+02 -0.39406289892E+01  0.72461569968E+02  0.69999999575E+02 0.  0.
         12    1    1    2    0    0  0.14457361209E+02 -0.11230998699E+02  0.39406289892E+01  0.18726430032E+02  0.00000000000E+00 0. -1.
         11    1    3    3    0    0  0.85070519312E-01  0.50444732961E+01  0.22478221337E+02  0.23037456078E+02  0.51100000000E-03 0. -1.
        -11    1    3    3    0    0  0.27273721454E+01 -0.65860237020E+01 -0.27011310409E+02  0.27936090587E+02  0.51100000000E-03 0.  1.
         12    1    3    3    0    0 -0.17269803874E+02  0.12772549105E+02  0.59246008272E+00  0.21488023302E+02  0.00000000000E+00 0. -1.
</event>
<event>
 7    1  0.1339094E-013  0.7246191E+02  0.7816164E-02  0.1226707E+00
        -11   -1    0    0    0    0  0.00000000000E+00  0.00000000000E+00  0.45593999997E+02  0.45594000000E+02  0.51100000000E-03 0. -1.
         11   -1    0    0    0    0 -0.00000000000E+00 -0.00000000000E+00 -0.45593999997E+02  0.45594000000E+02  0.51100000000E-03 0.  1.
    9900012    2    1    2    0    0  0.16437252606E+02 -0.21782773653E+01 -0.87027735883E+01  0.72461910348E+02  0.70000442982E+02 0.  0.
         12    1    1    2    0    0 -0.16437252606E+02  0.21782773653E+01  0.87027735883E+01  0.18726089652E+02  0.00000000000E+00 0. -1.
         11    1    3    3    0    0 -0.72706107429E+01 -0.18818897350E+02 -0.22752836349E+02  0.30408950002E+02  0.51100000000E-03 0. -1.
        -11    1    3    3    0    0 -0.35562587984E+01  0.11032708904E+02  0.21903969256E+01  0.11796842008E+02  0.51100000000E-03 0.  1.
         12    1    3    3    0    0  0.27264122147E+02  0.56079110810E+01  0.11859665835E+02  0.30256118338E+02  0.00000000000E+00 0. -1.
</event>
<event>
 7    1  0.1339094E-013  0.7246157E+02  0.7816164E-02  0.1226708E+00
        -11   -1    0    0    0    0  0.00000000000E+00  0.00000000000E+00  0.45593999997E+02  0.45594000000E+02  0.51100000000E-03 0. -1.
         11   -1    0    0    0    0 -0.00000000000E+00 -0.00000000000E+00 -0.45593999997E+02  0.45594000000E+02  0.51100000000E-03 0.  1.
    9900012    2    1    2    0    0  0.14647792802E+02 -0.38689443663E+01 -0.11006928160E+02  0.72461573966E+02  0.70000004783E+02 0.  0.
         12    1    1    2    0    0 -0.14647792802E+02  0.38689443663E+01  0.11006928160E+02  0.18726426034E+02  0.00000000000E+00 0. -1.
         11    1    3    3    0    0  0.59471997404E+01 -0.15237709285E+02  0.17128262910E+02  0.23684052854E+02  0.51100000000E-03 0. -1.
        -11    1    3    3    0    0  0.11609433545E+02  0.21140418814E+02 -0.66850991096E+01  0.25027720736E+02  0.51100000000E-03 0.  1.
        -12    1    3    3    0    0 -0.29088404836E+01 -0.97716538949E+01 -0.21450091961E+02  0.23749800377E+02  0.00000000000E+00 0.  1.
</event>
<event>
 7    1  0.1339094E-013  0.7246162E+02  0.7816164E-02  0.1226708E+00
        -11   -1    0    0    0    0  0.00000000000E+00  0.00000000000E+00  0.45593999997E+02  0.45594000000E+02  0.51100000000E-03 0.  1.
         11   -1    0    0    0    0 -0.00000000000E+00 -0.00000000000E+00 -0.45593999997E+02  0.45594000000E+02  0.51100000000E-03 0. -1.
    9900012    2    1    2    0    0  0.56578767248E+01  0.14638399950E+02  0.10216801929E+02  0.72461618508E+02  0.70000062807E+02 0.  0.
         12    1    1    2    0    0 -0.56578767248E+01 -0.14638399950E+02 -0.10216801929E+02  0.18726381492E+02  0.00000000000E+00 0. -1.
         11    1    3    3    0    0 -0.18191675455E+02 -0.16755800233E+01  0.23467279641E+02  0.29739835882E+02  0.51100000000E-03 0. -1.
        -11    1    3    3    0    0  0.11364848088E+02  0.17669101252E+02  0.39985057234E+01  0.21385625065E+02  0.51100000000E-03 0.  1.
         12    1    3    3    0    0  0.12484704092E+02 -0.13551212795E+01 -0.17248983435E+02  0.21336157561E+02  0.00000000000E+00 0. -1.
</event>
<event>
 7    1  0.1339094E-013  0.7246153E+02  0.7816164E-02  0.1226708E+00
        -11   -1    0    0    0    0  0.00000000000E+00  0.00000000000E+00  0.45593999997E+02  0.45594000000E+02  0.51100000000E-03 0.  1.
         11   -1    0    0    0    0 -0.00000000000E+00 -0.00000000000E+00 -0.45593999997E+02  0.45594000000E+02  0.51100000000E-03 0. -1.
    9900012    2    1    2    0    0  0.13713520963E+02  0.67963981777E+01  0.10790231914E+02  0.72461527023E+02  0.69999943631E+02 0.  0.
         12    1    1    2    0    0 -0.13713520963E+02 -0.67963981777E+01 -0.10790231914E+02  0.18726472977E+02  0.00000000000E+00 0. -1.
         11    1    3    3    0    0  0.29672570625E+02  0.10654960464E+02  0.10711984708E+02  0.33297691311E+02  0.51100000000E-03 0. -1.
        -11    1    3    3    0    0 -0.80394325522E+01  0.55124735200E+01 -0.16123206491E+02  0.18840849978E+02  0.51100000000E-03 0.  1.
        -12    1    3    3    0    0 -0.79196171101E+01 -0.93710358062E+01  0.16201453697E+02  0.20322985734E+02  0.00000000000E+00 0.  1.
</event>
<event>
 7    1  0.1339094E-013  0.7246184E+02  0.7816164E-02  0.1226707E+00
        -11   -1    0    0    0    0  0.00000000000E+00  0.00000000000E+00  0.45593999997E+02  0.45594000000E+02  0.51100000000E-03 0. -1.
         11   -1    0    0    0    0 -0.00000000000E+00 -0.00000000000E+00 -0.45593999997E+02  0.45594000000E+02  0.51100000000E-03 0.  1.
    9900012    2    1    2    0    0 -0.42572615275E+01  0.15326787027E+02  0.98810032853E+01  0.72461844436E+02  0.70000357120E+02 0.  0.
         12    1    1    2    0    0  0.42572615275E+01 -0.15326787027E+02 -0.98810032853E+01  0.18726155564E+02  0.00000000000E+00 0. -1.
         11    1    3    3    0    0 -0.68957464750E+01  0.21923110599E+02  0.17541513673E+02  0.28911568618E+02  0.51100000000E-03 0. -1.
        -11    1    3    3    0    0  0.11413009974E+02 -0.99673361707E+01  0.13564383809E+02  0.20337086699E+02  0.51100000000E-03 0.  1.
        -12    1    3    3    0    0 -0.87745250265E+01  0.33710125988E+01 -0.21224894197E+02  0.23213189119E+02  0.00000000000E+00 0.  1.
</event>
<event>
 7    1  0.1339094E-013  0.7246157E+02  0.7816164E-02  0.1226708E+00
        -11   -1    0    0    0    0  0.00000000000E+00  0.00000000000E+00  0.45593999997E+02  0.45594000000E+02  0.51100000000E-03 0.  1.
         11   -1    0    0    0    0 -0.00000000000E+00 -0.00000000000E+00 -0.45593999997E+02  0.45594000000E+02  0.51100000000E-03 0. -1.
    9900012    2    1    2    0    0 -0.76150146856E+01  0.14762205817E+02  0.86468478704E+01  0.72461570886E+02  0.70000000771E+02 0.  0.
         12    1    1    2    0    0  0.76150146856E+01 -0.14762205817E+02 -0.86468478704E+01  0.18726429114E+02  0.00000000000E+00 0. -1.
         11    1    3    3    0    0  0.12703738206E+02  0.15460443280E+02 -0.69227168203E+01  0.21173905622E+02  0.51100000000E-03 0. -1.
        -11    1    3    3    0    0 -0.17402177942E+02 -0.29608869525E+01  0.30863261552E+02  0.35554796618E+02  0.51100000000E-03 0.  1.
         12    1    3    3    0    0 -0.29165749500E+01  0.22626494898E+01 -0.15293696862E+02  0.15732868646E+02  0.00000000000E+00 0. -1.
</event>
<event>
 7    1  0.1339094E-013  0.7246085E+02  0.7816164E-02  0.1226710E+00
        -11   -1    0    0    0    0  0.00000000000E+00  0.00000000000E+00  0.45593999997E+02  0.45594000000E+02  0.51100000000E-03 0.  1.
         11   -1    0    0    0    0 -0.00000000000E+00 -0.00000000000E+00 -0.45593999997E+02  0.45594000000E+02  0.51100000000E-03 0. -1.
    9900012    2    1    2    0    0  0.13498350828E+02 -0.46680125156E+01  0.12112399207E+02  0.72460853114E+02  0.69999065734E+02 0.  0.
         12    1    1    2    0    0 -0.13498350828E+02  0.46680125156E+01 -0.12112399207E+02  0.18727146886E+02  0.00000000000E+00 0. -1.
         11    1    3    3    0    0  0.39176617363E+01 -0.12609465028E+02 -0.22776948046E+02  0.26327476984E+02  0.51100000000E-03 0. -1.
        -11    1    3    3    0    0  0.12007210907E+01 -0.27889227803E+01  0.32090451361E+02  0.32233784919E+02  0.51100000000E-03 0.  1.
         12    1    3    3    0    0  0.83799680013E+01  0.10730375293E+02  0.27988958927E+01  0.13899591211E+02  0.00000000000E+00 0. -1.
</event>
<event>
 8    1  0.1339094E-013  0.7246165E+02  0.7816164E-02  0.1226708E+00
        -11   -1    0    0    0    0  0.00000000000E+00  0.00000000000E+00  0.45593999997E+02  0.45594000000E+02  0.51100000000E-03 0.  1.
         11   -1    0    0    0    0 -0.00000000000E+00 -0.00000000000E+00 -0.45593999997E+02  0.45594000000E+02  0.51100000000E-03 0. -1.
    9900012    2    1    2    0    0 -0.14669147813E+02 -0.76849881846E+01  0.87426081885E+01  0.72461651213E+02  0.70000105411E+02 0.  0.
        -24    2    3    3    0    0 -0.10097092372E+02  0.91235204386E+01  0.83504829061E+01  0.55038005911E+02  0.52671260004E+02 0.  0.
         12    1    1    2    0    0  0.14669147813E+02  0.76849881846E+01 -0.87426081885E+01  0.18726348787E+02  0.00000000000E+00 0. -1.
         11    1    4    4    0    0  0.19038277335E+02  0.15516600417E+02  0.32016539489E+01  0.24768356438E+02  0.51100000000E-03 0. -1.
        -11    1    3    3    0    0 -0.45720554409E+01 -0.16808508623E+02  0.39212528233E+00  0.17423645301E+02  0.51100000000E-03 0.  1.
        -12    1    4    4    0    0 -0.29135369707E+02 -0.63930799781E+01  0.51488289573E+01  0.30269649473E+02  0.00000000000E+00 0.  1.
</event>
<event>
 7    1  0.1339094E-013  0.7246158E+02  0.7816164E-02  0.1226708E+00
        -11   -1    0    0    0    0  0.00000000000E+00  0.00000000000E+00  0.45593999997E+02  0.45594000000E+02  0.51100000000E-03 0. -1.
         11   -1    0    0    0    0 -0.00000000000E+00 -0.00000000000E+00 -0.45593999997E+02  0.45594000000E+02  0.51100000000E-03 0.  1.
    9900012    2    1    2    0    0 -0.13236649840E+02 -0.52831431628E+01 -0.12147352973E+02  0.72461583234E+02  0.70000016856E+02 0.  0.
         12    1    1    2    0    0  0.13236649840E+02  0.52831431628E+01  0.12147352973E+02  0.18726416766E+02  0.00000000000E+00 0. -1.
         11    1    3    3    0    0 -0.12397497527E+02 -0.21812674361E+02  0.17198193581E+02  0.30418227601E+02  0.51100000000E-03 0. -1.
        -11    1    3    3    0    0 -0.75449345653E+01  0.46065119011E+01 -0.26680395166E+02  0.28106751430E+02  0.51100000000E-03 0.  1.
         12    1    3    3    0    0  0.67057822526E+01  0.11923019297E+02 -0.26651513882E+01  0.13936604202E+02  0.00000000000E+00 0. -1.
</event>
<event>
 7    1  0.1339094E-013  0.7246158E+02  0.7816164E-02  0.1226708E+00
        -11   -1    0    0    0    0  0.00000000000E+00  0.00000000000E+00  0.45593999997E+02  0.45594000000E+02  0.51100000000E-03 0.  1.
         11   -1    0    0    0    0 -0.00000000000E+00 -0.00000000000E+00 -0.45593999997E+02  0.45594000000E+02  0.51100000000E-03 0. -1.
    9900012    2    1    2    0    0 -0.56085645604E+01  0.16476747096E+02  0.69093912838E+01  0.72461578046E+02  0.70000010097E+02 0.  0.
         12    1    1    2    0    0  0.56085645604E+01 -0.16476747096E+02 -0.69093912838E+01  0.18726421954E+02  0.00000000000E+00 0. -1.
         11    1    3    3    0    0  0.17246075213E+02 -0.81221522757E+01  0.43371769335E+01  0.19550129714E+02  0.51100000000E-03 0. -1.
        -11    1    3    3    0    0 -0.29448009555E+02  0.33531864290E+01  0.64465641140E+01  0.30331292671E+02  0.51100000000E-03 0.  1.
         12    1    3    3    0    0  0.65933697818E+01  0.21245712943E+02 -0.38743497637E+01  0.22580155660E+02  0.00000000000E+00 0. -1.
</event>
<event>
 7    1  0.1339094E-013  0.7246159E+02  0.7816164E-02  0.1226708E+00
        -11   -1    0    0    0    0  0.00000000000E+00  0.00000000000E+00  0.45593999997E+02  0.45594000000E+02  0.51100000000E-03 0.  1.
         11   -1    0    0    0    0 -0.00000000000E+00 -0.00000000000E+00 -0.45593999997E+02  0.45594000000E+02  0.51100000000E-03 0. -1.
    9900012    2    1    2    0    0 -0.13478982099E+02  0.12327016046E+02  0.41279756945E+01  0.72461589069E+02  0.70000024458E+02 0.  0.
         12    1    1    2    0    0  0.13478982099E+02 -0.12327016046E+02 -0.41279756945E+01  0.18726410931E+02  0.00000000000E+00 0. -1.
         11    1    3    3    0    0 -0.31246322849E+02  0.98604195879E+01  0.41683250560E+01  0.33029312740E+02  0.51100000000E-03 0.  1.
        -11    1    3    3    0    0  0.47963809644E+01  0.65387308818E+01 -0.16319280905E+02  0.18223040400E+02  0.51100000000E-03 0. -1.
        -12    1    3    3    0    0  0.12970959786E+02 -0.40721344241E+01  0.16278931544E+02  0.21209235930E+02  0.00000000000E+00 0.  1.
</event>
<event>
 7    1  0.1339094E-013  0.7246151E+02  0.7816164E-02  0.1226708E+00
        -11   -1    0    0    0    0  0.00000000000E+00  0.00000000000E+00  0.45593999997E+02  0.45594000000E+02  0.51100000000E-03 0.  1.
         11   -1    0    0    0    0 -0.00000000000E+00 -0.00000000000E+00 -0.45593999997E+02  0.45594000000E+02  0.51100000000E-03 0. -1.
    9900012    2    1    2    0    0  0.18225413026E+02 -0.40430504721E+01  0.14729544302E+01  0.72461507220E+02  0.69999917834E+02 0.  0.
         12    1    1    2    0    0 -0.18225413026E+02  0.40430504721E+01 -0.14729544302E+01  0.18726492780E+02  0.00000000000E+00 0. -1.
         11    1    3    3    0    0 -0.24451504528E+02 -0.17901261055E+01 -0.69270940828E+01  0.25476759171E+02  0.51100000000E-03 0. -1.
        -11    1    3    3    0    0  0.30634485941E+02  0.56427663440E+01  0.94354271611E+01  0.32547501085E+02  0.51100000000E-03 0.  1.
         12    1    3    3    0    0  0.12042431613E+02 -0.78956907106E+01 -0.10353786482E+01  0.14437246964E+02  0.00000000000E+00 0. -1.
</event>
<event>
 7    1  0.1339094E-013  0.7246157E+02  0.7816164E-02  0.1226708E+00
        -11   -1    0    0    0    0  0.00000000000E+00  0.00000000000E+00  0.45593999997E+02  0.45594000000E+02  0.51100000000E-03 0.  1.
         11   -1    0    0    0    0 -0.00000000000E+00 -0.00000000000E+00 -0.45593999997E+02  0.45594000000E+02  0.51100000000E-03 0. -1.
    9900012    2    1    2    0    0  0.17829557317E+02  0.11314179177E+01  0.56130250048E+01  0.72461567603E+02  0.69999996494E+02 0.  0.
         12    1    1    2    0    0 -0.17829557317E+02 -0.11314179177E+01 -0.56130250048E+01  0.18726432397E+02  0.00000000000E+00 0. -1.
         11    1    3    3    0    0  0.10279951747E+02 -0.10721642167E+02 -0.11268844098E+02  0.18644513033E+02  0.51100000000E-03 0. -1.
        -11    1    3    3    0    0 -0.20616145993E+02  0.90723207258E+01  0.47268851190E+01  0.23014689269E+02  0.51100000000E-03 0.  1.
        -12    1    3    3    0    0  0.28165751563E+02  0.27807393587E+01  0.12154983984E+02  0.30802365301E+02  0.00000000000E+00 0.  1.
</event>
<event>
 7    1  0.1339094E-013  0.7246155E+02  0.7816164E-02  0.1226708E+00
        -11   -1    0    0    0    0  0.00000000000E+00  0.00000000000E+00  0.45593999997E+02  0.45594000000E+02  0.51100000000E-03 0.  1.
         11   -1    0    0    0    0 -0.00000000000E+00 -0.00000000000E+00 -0.45593999997E+02  0.45594000000E+02  0.51100000000E-03 0. -1.
    9900012    2    1    2    0    0  0.26342899711E+01 -0.11293229838E+02  0.14703857567E+02  0.72461549424E+02  0.69999972812E+02 0.  0.
         12    1    1    2    0    0 -0.26342899711E+01  0.11293229838E+02 -0.14703857567E+02  0.18726450576E+02  0.00000000000E+00 0. -1.
         11    1    3    3    0    0 -0.11524409300E+02  0.87551856110E+00  0.92435721276E+01  0.14799397569E+02  0.51100000000E-03 0. -1.
        -11    1    3    3    0    0  0.25198528184E+02  0.12080049443E+02 -0.61264499170E+01  0.28608159781E+02  0.51100000000E-03 0.  1.
        -12    1    3    3    0    0 -0.11039828913E+02 -0.24248797842E+02  0.11586735356E+02  0.29053992074E+02  0.00000000000E+00 0.  1.
</event>
<event>
 7    1  0.1517123E-013  0.7246139E+02  0.7816164E-02  0.1226708E+00
        -11   -1    0    0    0    0  0.00000000000E+00  0.00000000000E+00  0.45593999997E+02  0.45594000000E+02  0.51100000000E-03 0. -1.
         11   -1    0    0    0    0 -0.00000000000E+00 -0.00000000000E+00 -0.45593999997E+02  0.45594000000E+02  0.51100000000E-03 0.  1.
    9900012    2    1    2    0    0 -0.52742393951E+01 -0.10735802815E+02 -0.14408708060E+02  0.72461389755E+02  0.69999764814E+02 0.  0.
         12    1    1    2    0    0  0.52742393951E+01  0.10735802815E+02  0.14408708060E+02  0.18726610245E+02  0.00000000000E+00 0. -1.
         11    1    3    3    0    0  0.15316816807E+00 -0.11604491510E+02  0.24590811827E+02  0.27191831683E+02  0.51100000000E-03 0. -1.
        -11    1    3    3    0    0 -0.54147757926E+00 -0.10098402173E+02 -0.24091790145E+02  0.26128246728E+02  0.51100000000E-03 0.  1.
         12    1    3    3    0    0 -0.48859299839E+01  0.10967090868E+02 -0.14907729742E+02  0.19141311345E+02  0.00000000000E+00 0. -1.
</event>
<event>
 7    1  0.1339094E-013  0.7246156E+02  0.7816164E-02  0.1226708E+00
        -11   -1    0    0    0    0  0.00000000000E+00  0.00000000000E+00  0.45593999997E+02  0.45594000000E+02  0.51100000000E-03 0.  1.
         11   -1    0    0    0    0 -0.00000000000E+00 -0.00000000000E+00 -0.45593999997E+02  0.45594000000E+02  0.51100000000E-03 0. -1.
    9900012    2    1    2    0    0  0.14194690052E+02  0.11948123180E+02 -0.25362400540E+01  0.72461564493E+02  0.69999992442E+02 0.  0.
         12    1    1    2    0    0 -0.14194690052E+02 -0.11948123180E+02  0.25362400540E+01  0.18726435507E+02  0.00000000000E+00 0. -1.
         11    1    3    3    0    0 -0.10114924315E+02 -0.15624187193E+02  0.10737228286E+02  0.21487554324E+02  0.51100000000E-03 0. -1.
        -11    1    3    3    0    0  0.28687858663E+02  0.11448570556E+02 -0.14696343198E+02  0.34205927938E+02  0.51100000000E-03 0.  1.
         12    1    3    3    0    0 -0.43782442969E+01  0.16123739817E+02  0.14228748582E+01  0.16768082230E+02  0.00000000000E+00 0. -1.
</event>
<event>
 7    1  0.1339094E-013  0.7246161E+02  0.7816164E-02  0.1226708E+00
        -11   -1    0    0    0    0  0.00000000000E+00  0.00000000000E+00  0.45593999997E+02  0.45594000000E+02  0.51100000000E-03 0. -1.
         11   -1    0    0    0    0 -0.00000000000E+00 -0.00000000000E+00 -0.45593999997E+02  0.45594000000E+02  0.51100000000E-03 0.  1.
    9900012    2    1    2    0    0 -0.68956874342E+01 -0.14624157874E+02 -0.94478186088E+01  0.72461607524E+02  0.70000048498E+02 0.  0.
         12    1    1    2    0    0  0.68956874342E+01  0.14624157874E+02  0.94478186088E+01  0.18726392476E+02  0.00000000000E+00 0. -1.
         11    1    3    3    0    0  0.23834344330E+02 -0.28870492386E+01  0.92307802088E+01  0.25721942510E+02  0.51100000000E-03 0. -1.
        -11    1    3    3    0    0 -0.21411664158E+02 -0.20781914713E+02 -0.13672180799E+02  0.32821880952E+02  0.51100000000E-03 0.  1.
        -12    1    3    3    0    0 -0.93183676064E+01  0.90448060776E+01 -0.50064180183E+01  0.13917784062E+02  0.00000000000E+00 0.  1.
</event>
<event>
 7    1  0.1339094E-013  0.7246156E+02  0.7816164E-02  0.1226708E+00
        -11   -1    0    0    0    0  0.00000000000E+00  0.00000000000E+00  0.45593999997E+02  0.45594000000E+02  0.51100000000E-03 0.  1.
         11   -1    0    0    0    0 -0.00000000000E+00 -0.00000000000E+00 -0.45593999997E+02  0.45594000000E+02  0.51100000000E-03 0. -1.
    9900012    2    1    2    0    0  0.12114343733E+02 -0.79523579375E+01  0.11860946800E+02  0.72461564679E+02  0.69999992685E+02 0.  0.
         12    1    1    2    0    0 -0.12114343733E+02  0.79523579375E+01 -0.11860946800E+02  0.18726435321E+02  0.00000000000E+00 0. -1.
         11    1    3    3    0    0 -0.15202340480E+02  0.10996397837E+02  0.31244181414E+01  0.19020880906E+02  0.51100000000E-03 0. -1.
        -11    1    3    3    0    0  0.11089194496E+02 -0.16334416544E+02  0.23953750672E+02  0.31041352579E+02  0.51100000000E-03 0.  1.
         12    1    3    3    0    0  0.16227489717E+02 -0.26143392301E+01 -0.15217222013E+02  0.22399331194E+02  0.00000000000E+00 0. -1.
</event>
<event>
 7    1  0.1339094E-013  0.7246154E+02  0.7816164E-02  0.1226708E+00
        -11   -1    0    0    0    0  0.00000000000E+00  0.00000000000E+00  0.45593999997E+02  0.45594000000E+02  0.51100000000E-03 0.  1.
         11   -1    0    0    0    0 -0.00000000000E+00 -0.00000000000E+00 -0.45593999997E+02  0.45594000000E+02  0.51100000000E-03 0. -1.
    9900012    2    1    2    0    0  0.20696899134E+01  0.16041187967E+02  0.94380564329E+01  0.72461541794E+02  0.69999962873E+02 0.  0.
         12    1    1    2    0    0 -0.20696899134E+01 -0.16041187967E+02 -0.94380564329E+01  0.18726458206E+02  0.00000000000E+00 0. -1.
         11    1    3    3    0    0  0.27389914409E+02  0.23215451815E+02 -0.45815438186E+01  0.36196065509E+02  0.51100000000E-03 0. -1.
        -11    1    3    3    0    0 -0.26059341540E+02 -0.50195001602E+01  0.50544090879E+01  0.27015397736E+02  0.51100000000E-03 0.  1.
        -12    1    3    3    0    0  0.73911704474E+00 -0.21547636885E+01  0.89651911636E+01  0.92500785488E+01  0.00000000000E+00 0.  1.
</event>
<event>
 7    1  0.1339094E-013  0.7246159E+02  0.7816164E-02  0.1226708E+00
        -11   -1    0    0    0    0  0.00000000000E+00  0.00000000000E+00  0.45593999997E+02  0.45594000000E+02  0.51100000000E-03 0.  1.
         11   -1    0    0    0    0 -0.00000000000E+00 -0.00000000000E+00 -0.45593999997E+02  0.45594000000E+02  0.51100000000E-03 0. -1.
    9900012    2    1    2    0    0  0.13001537071E+02  0.62982157131E+01  0.11915153510E+02  0.72461591627E+02  0.70000027790E+02 0.  0.
         12    1    1    2    0    0 -0.13001537071E+02 -0.62982157131E+01 -0.11915153510E+02  0.18726408373E+02  0.00000000000E+00 0. -1.
         11    1    3    3    0    0 -0.27475077901E+02  0.43294064869E+01  0.12067800228E+02  0.30319226059E+02  0.51100000000E-03 0. -1.
        -11    1    3    3    0    0  0.17109115493E+02  0.64248821929E+01 -0.13352590944E+01  0.18324406164E+02  0.51100000000E-03 0.  1.
         12    1    3    3    0    0  0.23367499479E+02 -0.44560729667E+01  0.11826123758E+01  0.23817959405E+02  0.00000000000E+00 0. -1.
</event>
<event>
 7    1  0.1339094E-013  0.7246158E+02  0.7816164E-02  0.1226708E+00
        -11   -1    0    0    0    0  0.00000000000E+00  0.00000000000E+00  0.45593999997E+02  0.45594000000E+02  0.51100000000E-03 0. -1.
         11   -1    0    0    0    0 -0.00000000000E+00 -0.00000000000E+00 -0.45593999997E+02  0.45594000000E+02  0.51100000000E-03 0.  1.
    9900012    2    1    2    0    0  0.48316080610E+01 -0.12352047087E+02 -0.13219731391E+02  0.72461580114E+02  0.70000012792E+02 0.  0.
         12    1    1    2    0    0 -0.48316080610E+01  0.12352047087E+02  0.13219731391E+02  0.18726419886E+02  0.00000000000E+00 0. -1.
         11    1    3    3    0    0 -0.47627840741E+01 -0.39143703301E+01  0.14381248647E+02  0.15646939641E+02  0.51100000000E-03 0. -1.
        -11    1    3    3    0    0 -0.13291173823E+02  0.84768061385E+01 -0.23154567708E+02  0.28011525305E+02  0.51100000000E-03 0.  1.
        -12    1    3    3    0    0  0.22885565958E+02 -0.16914482895E+02 -0.44464123302E+01  0.28803115169E+02  0.00000000000E+00 0.  1.
</event>
<event>
 7    1  0.1339094E-013  0.7246161E+02  0.7816164E-02  0.1226708E+00
        -11   -1    0    0    0    0  0.00000000000E+00  0.00000000000E+00  0.45593999997E+02  0.45594000000E+02  0.51100000000E-03 0.  1.
         11   -1    0    0    0    0 -0.00000000000E+00 -0.00000000000E+00 -0.45593999997E+02  0.45594000000E+02  0.51100000000E-03 0. -1.
    9900012    2    1    2    0    0  0.11752242552E+02  0.15213992114E+00  0.14578734768E+02  0.72461605286E+02  0.70000045583E+02 0.  0.
         12    1    1    2    0    0 -0.11752242552E+02 -0.15213992114E+00 -0.14578734768E+02  0.18726394714E+02  0.00000000000E+00 0. -1.
         11    1    3    3    0    0 -0.16917201106E+02  0.40449025216E+00 -0.12117957783E+02  0.20813462151E+02  0.51100000000E-03 0. -1.
        -11    1    3    3    0    0  0.16467216721E+02 -0.14972403327E+02  0.23313063334E+02  0.32231056610E+02  0.51100000000E-03 0.  1.
         12    1    3    3    0    0  0.12202226937E+02  0.14720052996E+02  0.33836292167E+01  0.19417086524E+02  0.00000000000E+00 0. -1.
</event>
<event>
 7    1  0.1339094E-013  0.7246157E+02  0.7816164E-02  0.1226708E+00
        -11   -1    0    0    0    0  0.00000000000E+00  0.00000000000E+00  0.45593999997E+02  0.45594000000E+02  0.51100000000E-03 0. -1.
         11   -1    0    0    0    0 -0.00000000000E+00 -0.00000000000E+00 -0.45593999997E+02  0.45594000000E+02  0.51100000000E-03 0.  1.
    9900012    2    1    2    0    0 -0.14006427689E+02  0.20636336569E+01 -0.12257259797E+02  0.72461574334E+02  0.70000005263E+02 0.  0.
         12    1    1    2    0    0  0.14006427689E+02 -0.20636336569E+01  0.12257259797E+02  0.18726425666E+02  0.00000000000E+00 0. -1.
         11    1    3    3    0    0 -0.36268251849E+02 -0.16653729160E+02 -0.71596236509E+01  0.40546183522E+02  0.51100000000E-03 0. -1.
        -11    1    3    3    0    0  0.17359126586E+02  0.19045762147E+02 -0.14773838751E+01  0.25812070722E+02  0.51100000000E-03 0.  1.
         12    1    3    3    0    0  0.49026975737E+01 -0.32839933037E+00 -0.36202522713E+01  0.61033200905E+01  0.00000000000E+00 0. -1.
</event>
<event>
 7    1  0.1339094E-013  0.7246154E+02  0.7816164E-02  0.1226708E+00
        -11   -1    0    0    0    0  0.00000000000E+00  0.00000000000E+00  0.45593999997E+02  0.45594000000E+02  0.51100000000E-03 0.  1.
         11   -1    0    0    0    0 -0.00000000000E+00 -0.00000000000E+00 -0.45593999997E+02  0.45594000000E+02  0.51100000000E-03 0. -1.
    9900012    2    1    2    0    0  0.19536118412E+01  0.17333930016E+02  0.68116580934E+01  0.72461537040E+02  0.69999956680E+02 0.  0.
         12    1    1    2    0    0 -0.19536118412E+01 -0.17333930016E+02 -0.68116580934E+01  0.18726462960E+02  0.00000000000E+00 0. -1.
         11    1    3    3    0    0 -0.20088422796E+02 -0.94871070259E+01 -0.81858990614E+01  0.23676124553E+02  0.51100000000E-03 0. -1.
        -11    1    3    3    0    0  0.12945019893E+02  0.14118455293E+02  0.24036357656E+02  0.30735172189E+02  0.51100000000E-03 0.  1.
        -12    1    3    3    0    0  0.90970147436E+01  0.12702581748E+02 -0.90388005008E+01  0.18050240298E+02  0.00000000000E+00 0.  1.
</event>
<event>
 7    1  0.1339094E-013  0.7246159E+02  0.7816164E-02  0.1226708E+00
        -11   -1    0    0    0    0  0.00000000000E+00  0.00000000000E+00  0.45593999997E+02  0.45594000000E+02  0.51100000000E-03 0. -1.
         11   -1    0    0    0    0 -0.00000000000E+00 -0.00000000000E+00 -0.45593999997E+02  0.45594000000E+02  0.51100000000E-03 0.  1.
    9900012    2    1    2    0    0  0.48089787198E+01  0.84190861857E+01 -0.16020961761E+02  0.72461588056E+02  0.70000023138E+02 0.  0.
         12    1    1    2    0    0 -0.48089787198E+01 -0.84190861857E+01  0.16020961761E+02  0.18726411944E+02  0.00000000000E+00 0. -1.
         11    1    3    3    0    0  0.17102218788E+02 -0.11388466071E+02 -0.60951254290E+01  0.21432069456E+02  0.51100000000E-03 0. -1.
        -11    1    3    3    0    0  0.58847424023E+00  0.29715673297E+02  0.35301295735E+01  0.29930408559E+02  0.51100000000E-03 0.  1.
        -12    1    3    3    0    0 -0.12881714308E+02 -0.99081210402E+01 -0.13455965906E+02  0.21099110041E+02  0.00000000000E+00 0.  1.
</event>
<event>
 7    1  0.1339094E-013  0.7246180E+02  0.7816164E-02  0.1226707E+00
        -11   -1    0    0    0    0  0.00000000000E+00  0.00000000000E+00  0.45593999997E+02  0.45594000000E+02  0.51100000000E-03 0.  1.
         11   -1    0    0    0    0 -0.00000000000E+00 -0.00000000000E+00 -0.45593999997E+02  0.45594000000E+02  0.51100000000E-03 0. -1.
    9900012    2    1    2    0    0 -0.12092436535E+02 -0.77129480066E+01  0.12039678933E+02  0.72461802919E+02  0.70000303037E+02 0.  0.
         12    1    1    2    0    0  0.12092436535E+02  0.77129480066E+01 -0.12039678933E+02  0.18726197081E+02  0.00000000000E+00 0. -1.
         11    1    3    3    0    0 -0.34976096861E+02  0.96862774135E+01 -0.38322520924E+01  0.36494348578E+02  0.51100000000E-03 0.  1.
        -11    1    3    3    0    0  0.14518874243E+02 -0.32929543288E+01  0.31637794315E+01  0.15220077466E+02  0.51100000000E-03 0. -1.
         12    1    3    3    0    0  0.83647860829E+01 -0.14106271091E+02  0.12708151593E+02  0.20747376876E+02  0.00000000000E+00 0. -1.
</event>
<event>
 7    1  0.1339094E-013  0.7246159E+02  0.7816164E-02  0.1226708E+00
        -11   -1    0    0    0    0  0.00000000000E+00  0.00000000000E+00  0.45593999997E+02  0.45594000000E+02  0.51100000000E-03 0. -1.
         11   -1    0    0    0    0 -0.00000000000E+00 -0.00000000000E+00 -0.45593999997E+02  0.45594000000E+02  0.51100000000E-03 0.  1.
    9900012    2    1    2    0    0 -0.18369322436E+01  0.67401147840E+01 -0.17374546504E+02  0.72461592614E+02  0.70000029076E+02 0.  0.
         12    1    1    2    0    0  0.18369322436E+01 -0.67401147840E+01  0.17374546504E+02  0.18726407386E+02  0.00000000000E+00 0. -1.
         11    1    3    3    0    0  0.19679788845E+02  0.12716064446E+02  0.14422328590E+02  0.27513559316E+02  0.51100000000E-03 0.  1.
        -11    1    3    3    0    0 -0.13624145966E+02  0.42521815749E+01 -0.48665935061E+01  0.15079195405E+02  0.51100000000E-03 0. -1.
         12    1    3    3    0    0 -0.78925751225E+01 -0.10228131237E+02 -0.26930281588E+02  0.29868837893E+02  0.00000000000E+00 0. -1.
</event>
<event>
 7    1  0.1339094E-013  0.7246161E+02  0.7816164E-02  0.1226708E+00
        -11   -1    0    0    0    0  0.00000000000E+00  0.00000000000E+00  0.45593999997E+02  0.45594000000E+02  0.51100000000E-03 0.  1.
         11   -1    0    0    0    0 -0.00000000000E+00 -0.00000000000E+00 -0.45593999997E+02  0.45594000000E+02  0.51100000000E-03 0. -1.
    9900012    2    1    2    0    0  0.18478920377E+02 -0.11448384272E+01 -0.28100785685E+01  0.72461609667E+02  0.70000051291E+02 0.  0.
         12    1    1    2    0    0 -0.18478920377E+02  0.11448384272E+01  0.28100785685E+01  0.18726390333E+02  0.00000000000E+00 0. -1.
         11    1    3    3    0    0  0.37520121116E+02  0.37450600598E+01 -0.87663478075E+01  0.38712192105E+02  0.51100000000E-03 0. -1.
        -11    1    3    3    0    0 -0.42637958636E+01  0.10648485512E+02  0.42720574926E+01  0.12240125585E+02  0.51100000000E-03 0.  1.
         12    1    3    3    0    0 -0.14777404876E+02 -0.15538383999E+02  0.16842117464E+01  0.21509291977E+02  0.00000000000E+00 0. -1.
</event>
<event>
 7    1  0.1339094E-013  0.7246157E+02  0.7816164E-02  0.1226708E+00
        -11   -1    0    0    0    0  0.00000000000E+00  0.00000000000E+00  0.45593999997E+02  0.45594000000E+02  0.51100000000E-03 0.  1.
         11   -1    0    0    0    0 -0.00000000000E+00 -0.00000000000E+00 -0.45593999997E+02  0.45594000000E+02  0.51100000000E-03 0. -1.
    9900012    2    1    2    0    0  0.13280107124E+01 -0.36074986432E+01  0.18327617061E+02  0.72461569319E+02  0.69999998729E+02 0.  0.
         12    1    1    2    0    0 -0.13280107124E+01  0.36074986432E+01 -0.18327617061E+02  0.18726430681E+02  0.00000000000E+00 0. -1.
         11    1    3    3    0    0 -0.11346876056E+02 -0.19036908090E+02 -0.98774843883E+01  0.24263556292E+02  0.51100000000E-03 0. -1.
        -11    1    3    3    0    0  0.76811143888E+01 -0.36336860366E+01  0.27166430424E+02  0.28464330920E+02  0.51100000000E-03 0.  1.
         12    1    3    3    0    0  0.49937723792E+01  0.19063095483E+02  0.10386710251E+01  0.19733682107E+02  0.00000000000E+00 0. -1.
</event>
<event>
 7    1  0.1339094E-013  0.7246159E+02  0.7816164E-02  0.1226708E+00
        -11   -1    0    0    0    0  0.00000000000E+00  0.00000000000E+00  0.45593999997E+02  0.45594000000E+02  0.51100000000E-03 0. -1.
         11   -1    0    0    0    0 -0.00000000000E+00 -0.00000000000E+00 -0.45593999997E+02  0.45594000000E+02  0.51100000000E-03 0.  1.
    9900012    2    1    2    0    0 -0.18086084140E+02 -0.20707226299E+01  0.43913475805E+01  0.72461594438E+02  0.70000031451E+02 0.  0.
         12    1    1    2    0    0  0.18086084140E+02  0.20707226299E+01 -0.43913475805E+01  0.18726405562E+02  0.00000000000E+00 0. -1.
         11    1    3    3    0    0  0.23362529367E+02 -0.50045807651E+01 -0.99798470893E+01  0.25893067706E+02  0.51100000000E-03 0. -1.
        -11    1    3    3    0    0 -0.11551636605E+02 -0.35147388817E+01 -0.14030197861E+01  0.12155746067E+02  0.51100000000E-03 0.  1.
         12    1    3    3    0    0 -0.29896976902E+02  0.64485970169E+01  0.15774214456E+02  0.34412780665E+02  0.00000000000E+00 0. -1.
</event>
<event>
 7    1  0.1339094E-013  0.7246155E+02  0.7816164E-02  0.1226708E+00
        -11   -1    0    0    0    0  0.00000000000E+00  0.00000000000E+00  0.45593999997E+02  0.45594000000E+02  0.51100000000E-03 0. -1.
         11   -1    0    0    0    0 -0.00000000000E+00 -0.00000000000E+00 -0.45593999997E+02  0.45594000000E+02  0.51100000000E-03 0.  1.
    9900012    2    1    2    0    0  0.13005371847E+02  0.12720576317E+02 -0.44415201195E+01  0.72461551867E+02  0.69999975995E+02 0.  0.
         12    1    1    2    0    0 -0.13005371847E+02 -0.12720576317E+02  0.44415201195E+01  0.18726448133E+02  0.00000000000E+00 0. -1.
         11    1    3    3    0    0  0.20502910120E+02  0.24840910938E+02  0.84518868087E+01  0.33299768326E+02  0.51100000000E-03 0. -1.
        -11    1    3    3    0    0 -0.96634614557E+01 -0.20550869292E+02  0.10396781520E+01  0.22733271803E+02  0.51100000000E-03 0.  1.
        -12    1    3    3    0    0  0.21659231820E+01  0.84305346707E+01 -0.13933085080E+02  0.16428511738E+02  0.00000000000E+00 0.  1.
</event>
<event>
 7    1  0.1339094E-013  0.7246155E+02  0.7816164E-02  0.1226708E+00
        -11   -1    0    0    0    0  0.00000000000E+00  0.00000000000E+00  0.45593999997E+02  0.45594000000E+02  0.51100000000E-03 0. -1.
         11   -1    0    0    0    0 -0.00000000000E+00 -0.00000000000E+00 -0.45593999997E+02  0.45594000000E+02  0.51100000000E-03 0.  1.
    9900012    2    1    2    0    0 -0.28279397119E+01 -0.15775624284E+02 -0.96856795756E+01  0.72461549365E+02  0.69999972735E+02 0.  0.
         12    1    1    2    0    0  0.28279397119E+01  0.15775624284E+02  0.96856795756E+01  0.18726450635E+02  0.00000000000E+00 0. -1.
         11    1    3    3    0    0  0.23566547674E+02 -0.26234090457E+02 -0.52629191128E+01  0.35655406172E+02  0.51100000000E-03 0. -1.
        -11    1    3    3    0    0  0.21447921563E+01  0.75138642578E+01 -0.16070274030E+01  0.79775200917E+01  0.51100000000E-03 0.  1.
         12    1    3    3    0    0 -0.28539279543E+02  0.29446019161E+01 -0.28157330597E+01  0.28828623101E+02  0.00000000000E+00 0. -1.
</event>
<event>
 7    1  0.1339094E-013  0.7246178E+02  0.7816164E-02  0.1226707E+00
        -11   -1    0    0    0    0  0.00000000000E+00  0.00000000000E+00  0.45593999997E+02  0.45594000000E+02  0.51100000000E-03 0. -1.
         11   -1    0    0    0    0 -0.00000000000E+00 -0.00000000000E+00 -0.45593999997E+02  0.45594000000E+02  0.51100000000E-03 0.  1.
    9900012    2    1    2    0    0 -0.49662325349E+00  0.15561514999E+01 -0.18654836948E+02  0.72461783519E+02  0.70000277764E+02 0.  0.
         12    1    1    2    0    0  0.49662325349E+00 -0.15561514999E+01  0.18654836948E+02  0.18726216481E+02  0.00000000000E+00 0. -1.
         11    1    3    3    0    0  0.10632694712E+01 -0.66630371639E+01  0.17491165857E+02  0.18747466216E+02  0.51100000000E-03 0.  1.
        -11    1    3    3    0    0 -0.95667782305E+01  0.44642740771E+01 -0.41869653424E+02  0.43180098041E+02  0.51100000000E-03 0. -1.
         12    1    3    3    0    0  0.80068855058E+01  0.37549145868E+01  0.57236506186E+01  0.10534219262E+02  0.00000000000E+00 0. -1.
</event>
<event>
 7    1  0.1339094E-013  0.7246154E+02  0.7816164E-02  0.1226708E+00
        -11   -1    0    0    0    0  0.00000000000E+00  0.00000000000E+00  0.45593999997E+02  0.45594000000E+02  0.51100000000E-03 0. -1.
         11   -1    0    0    0    0 -0.00000000000E+00 -0.00000000000E+00 -0.45593999997E+02  0.45594000000E+02  0.51100000000E-03 0.  1.
    9900012    2    1    2    0    0 -0.86098313600E+01  0.14721515348E+02 -0.77348584449E+01  0.72461541569E+02  0.69999962580E+02 0.  0.
         12    1    1    2    0    0  0.86098313600E+01 -0.14721515348E+02  0.77348584449E+01  0.18726458431E+02  0.00000000000E+00 0. -1.
         11    1    3    3    0    0 -0.24794601804E+02 -0.12003719251E+02  0.15805676821E+02  0.31759738262E+02  0.51100000000E-03 0. -1.
        -11    1    3    3    0    0  0.66067962131E+01  0.16838339475E+02 -0.75451068764E+01  0.19598675224E+02  0.51100000000E-03 0.  1.
         12    1    3    3    0    0  0.95779742306E+01  0.98868951242E+01 -0.15995428389E+02  0.21103128084E+02  0.00000000000E+00 0. -1.
</event>
<event>
 7    1  0.1339094E-013  0.7246162E+02  0.7816164E-02  0.1226708E+00
        -11   -1    0    0    0    0  0.00000000000E+00  0.00000000000E+00  0.45593999997E+02  0.45594000000E+02  0.51100000000E-03 0. -1.
         11   -1    0    0    0    0 -0.00000000000E+00 -0.00000000000E+00 -0.45593999997E+02  0.45594000000E+02  0.51100000000E-03 0.  1.
    9900012    2    1    2    0    0 -0.18401948161E+01  0.27008357321E+01 -0.18438994600E+02  0.72461618810E+02  0.70000063201E+02 0.  0.
         12    1    1    2    0    0  0.18401948161E+01 -0.27008357321E+01  0.18438994600E+02  0.18726381190E+02  0.00000000000E+00 0. -1.
         11    1    3    3    0    0 -0.15061976884E+02  0.21997227854E+02 -0.13440856520E+02  0.29856285857E+02  0.51100000000E-03 0. -1.
        -11    1    3    3    0    0  0.24528337312E+02 -0.17664341874E+02 -0.69510011119E+01  0.31015878544E+02  0.51100000000E-03 0.  1.
        -12    1    3    3    0    0 -0.11306555243E+02 -0.16320502482E+01  0.19528630319E+01  0.11589454409E+02  0.00000000000E+00 0.  1.
</event>
<event>
 7    1  0.1339094E-013  0.7246153E+02  0.7816164E-02  0.1226708E+00
        -11   -1    0    0    0    0  0.00000000000E+00  0.00000000000E+00  0.45593999997E+02  0.45594000000E+02  0.51100000000E-03 0. -1.
         11   -1    0    0    0    0 -0.00000000000E+00 -0.00000000000E+00 -0.45593999997E+02  0.45594000000E+02  0.51100000000E-03 0.  1.
    9900012    2    1    2    0    0 -0.11831971411E+02  0.14316558253E+02  0.23918889568E+01  0.72461534224E+02  0.69999953012E+02 0.  0.
         12    1    1    2    0    0  0.11831971411E+02 -0.14316558253E+02 -0.23918889568E+01  0.18726465776E+02  0.00000000000E+00 0. -1.
         11    1    3    3    0    0 -0.42277814984E+01 -0.12592203282E+02  0.17463597519E+02  0.21941170399E+02  0.51100000000E-03 0. -1.
        -11    1    3    3    0    0 -0.11096623931E+02  0.21333363629E+02 -0.27455636060E+02  0.36497389196E+02  0.51100000000E-03 0.  1.
         12    1    3    3    0    0  0.34924340191E+01  0.55753979054E+01  0.12383927498E+02  0.14022974629E+02  0.00000000000E+00 0. -1.
</event>
<event>
 7    1  0.1339094E-013  0.7246152E+02  0.7816164E-02  0.1226708E+00
        -11   -1    0    0    0    0  0.00000000000E+00  0.00000000000E+00  0.45593999997E+02  0.45594000000E+02  0.51100000000E-03 0.  1.
         11   -1    0    0    0    0 -0.00000000000E+00 -0.00000000000E+00 -0.45593999997E+02  0.45594000000E+02  0.51100000000E-03 0. -1.
    9900012    2    1    2    0    0 -0.42356510497E+01 -0.68516248494E+00  0.18228294690E+02  0.72461523697E+02  0.69999939298E+02 0.  0.
         12    1    1    2    0    0  0.42356510497E+01  0.68516248494E+00 -0.18228294690E+02  0.18726476303E+02  0.00000000000E+00 0. -1.
         11    1    3    3    0    0  0.52594436320E+01  0.12594171591E+02  0.20633522643E+02  0.24738980623E+02  0.51100000000E-03 0. -1.
        -11    1    3    3    0    0 -0.21530304406E+02  0.77828541051E+01 -0.46478970904E+01  0.23360859861E+02  0.51100000000E-03 0.  1.
         12    1    3    3    0    0  0.12035209724E+02 -0.21062188181E+02  0.22426691376E+01  0.24361683212E+02  0.00000000000E+00 0. -1.
</event>
<event>
 7    1  0.1339094E-013  0.7246168E+02  0.7816164E-02  0.1226708E+00
        -11   -1    0    0    0    0  0.00000000000E+00  0.00000000000E+00  0.45593999997E+02  0.45594000000E+02  0.51100000000E-03 0.  1.
         11   -1    0    0    0    0 -0.00000000000E+00 -0.00000000000E+00 -0.45593999997E+02  0.45594000000E+02  0.51100000000E-03 0. -1.
    9900012    2    1    2    0    0 -0.37125689340E+01  0.37700223477E+01  0.17963265824E+02  0.72461677466E+02  0.70000139611E+02 0.  0.
         12    1    1    2    0    0  0.37125689340E+01 -0.37700223477E+01 -0.17963265824E+02  0.18726322534E+02  0.00000000000E+00 0. -1.
         11    1    3    3    0    0 -0.33148621590E+02 -0.46836553577E+01  0.10986708050E+02  0.35234578114E+02  0.51100000000E-03 0. -1.
        -11    1    3    3    0    0  0.16723713188E+02  0.42349211506E+01 -0.63019113820E+01  0.18366579085E+02  0.51100000000E-03 0.  1.
         12    1    3    3    0    0  0.12712339468E+02  0.42187565547E+01  0.13278469156E+02  0.18860520267E+02  0.00000000000E+00 0. -1.
</event>
<event>
 7    1  0.1339094E-013  0.7246155E+02  0.7816164E-02  0.1226708E+00
        -11   -1    0    0    0    0  0.00000000000E+00  0.00000000000E+00  0.45593999997E+02  0.45594000000E+02  0.51100000000E-03 0. -1.
         11   -1    0    0    0    0 -0.00000000000E+00 -0.00000000000E+00 -0.45593999997E+02  0.45594000000E+02  0.51100000000E-03 0.  1.
    9900012    2    1    2    0    0  0.83100873425E+01 -0.10697162945E+02 -0.12930310328E+02  0.72461554212E+02  0.69999979049E+02 0.  0.
         12    1    1    2    0    0 -0.83100873425E+01  0.10697162945E+02  0.12930310328E+02  0.18726445788E+02  0.00000000000E+00 0. -1.
         11    1    3    3    0    0  0.23795158252E+02  0.28263757666E+01 -0.14930555016E+02  0.28233303553E+02  0.51100000000E-03 0. -1.
        -11    1    3    3    0    0 -0.82498995376E+01  0.11735358739E+02  0.91292231743E+01  0.17003593830E+02  0.51100000000E-03 0.  1.
         12    1    3    3    0    0 -0.72351713714E+01 -0.25258897450E+02 -0.71289784863E+01  0.27224656828E+02  0.00000000000E+00 0. -1.
</event>
<event>
 7    1  0.1339094E-013  0.7246153E+02  0.7816164E-02  0.1226708E+00
        -11   -1    0    0    0    0  0.00000000000E+00  0.00000000000E+00  0.45593999997E+02  0.45594000000E+02  0.51100000000E-03 0.  1.
         11   -1    0    0    0    0 -0.00000000000E+00 -0.00000000000E+00 -0.45593999997E+02  0.45594000000E+02  0.51100000000E-03 0. -1.
    9900012    2    1    2    0    0  0.17093567275E+02 -0.67562253650E+01 -0.35838414529E+01  0.72461533624E+02  0.69999952230E+02 0.  0.
         12    1    1    2    0    0 -0.17093567275E+02  0.67562253650E+01  0.35838414529E+01  0.18726466376E+02  0.00000000000E+00 0. -1.
         11    1    3    3    0    0  0.16425365779E+02  0.27068267183E+01  0.18691093994E+01  0.16751511039E+02  0.51100000000E-03 0. -1.
        -11    1    3    3    0    0 -0.22004289663E+02 -0.71083853325E+01  0.12870004279E+02  0.26464219543E+02  0.51100000000E-03 0.  1.
        -12    1    3    3    0    0  0.22672491159E+02 -0.23546667507E+01 -0.18322955131E+02  0.29245803043E+02  0.00000000000E+00 0.  1.
</event>
<event>
 7    1  0.1339094E-013  0.7246156E+02  0.7816164E-02  0.1226708E+00
        -11   -1    0    0    0    0  0.00000000000E+00  0.00000000000E+00  0.45593999997E+02  0.45594000000E+02  0.51100000000E-03 0. -1.
         11   -1    0    0    0    0 -0.00000000000E+00 -0.00000000000E+00 -0.45593999997E+02  0.45594000000E+02  0.51100000000E-03 0.  1.
    9900012    2    1    2    0    0  0.17605334178E+02 -0.50608178794E+01 -0.38884336625E+01  0.72461559188E+02  0.69999985532E+02 0.  0.
         12    1    1    2    0    0 -0.17605334178E+02  0.50608178794E+01  0.38884336625E+01  0.18726440812E+02  0.00000000000E+00 0. -1.
         11    1    3    3    0    0  0.38491015550E+00  0.81929148189E+01  0.30197075336E+01  0.87401740776E+01  0.51100000000E-03 0. -1.
        -11    1    3    3    0    0  0.29083834075E+02 -0.24785192312E+02 -0.19528377828E+02  0.42913083125E+02  0.51100000000E-03 0.  1.
        -12    1    3    3    0    0 -0.11863410052E+02  0.11531459613E+02  0.12620236632E+02  0.20808301986E+02  0.00000000000E+00 0.  1.
</event>
<event>
 7    1  0.1339094E-013  0.7246154E+02  0.7816164E-02  0.1226708E+00
        -11   -1    0    0    0    0  0.00000000000E+00  0.00000000000E+00  0.45593999997E+02  0.45594000000E+02  0.51100000000E-03 0. -1.
         11   -1    0    0    0    0 -0.00000000000E+00 -0.00000000000E+00 -0.45593999997E+02  0.45594000000E+02  0.51100000000E-03 0.  1.
    9900012    2    1    2    0    0 -0.10505689051E+02 -0.95998837560E+01 -0.12171812541E+02  0.72461540348E+02  0.69999960989E+02 0.  0.
         12    1    1    2    0    0  0.10505689051E+02  0.95998837560E+01  0.12171812541E+02  0.18726459652E+02  0.00000000000E+00 0. -1.
         11    1    3    3    0    0 -0.83837828107E+01  0.20166770007E+02  0.79552859632E+01  0.23243773397E+02  0.51100000000E-03 0. -1.
        -11    1    3    3    0    0  0.11327469310E+02 -0.14832496219E+02 -0.22212498293E+02  0.29012231657E+02  0.51100000000E-03 0.  1.
         12    1    3    3    0    0 -0.13449375550E+02 -0.14934157543E+02  0.20853997886E+01  0.20205535294E+02  0.00000000000E+00 0. -1.
</event>
<event>
 7    1  0.1339094E-013  0.7246158E+02  0.7816164E-02  0.1226708E+00
        -11   -1    0    0    0    0  0.00000000000E+00  0.00000000000E+00  0.45593999997E+02  0.45594000000E+02  0.51100000000E-03 0.  1.
         11   -1    0    0    0    0 -0.00000000000E+00 -0.00000000000E+00 -0.45593999997E+02  0.45594000000E+02  0.51100000000E-03 0. -1.
    9900012    2    1    2    0    0  0.14497609257E+01  0.17559427958E+02 -0.63437804377E+01  0.72461578367E+02  0.70000010516E+02 0.  0.
         12    1    1    2    0    0 -0.14497609257E+01 -0.17559427958E+02  0.63437804377E+01  0.18726421633E+02  0.00000000000E+00 0. -1.
         11    1    3    3    0    0 -0.24307560094E+01 -0.15946447576E+02 -0.19804756396E+02  0.25542633796E+02  0.51100000000E-03 0. -1.
        -11    1    3    3    0    0 -0.60503089539E+01  0.24470477233E+02  0.19816985343E+02  0.32064363440E+02  0.51100000000E-03 0.  1.
         12    1    3    3    0    0  0.99308258890E+01  0.90353983007E+01 -0.63560093847E+01  0.14854581131E+02  0.00000000000E+00 0. -1.
</event>
<event>
 7    1  0.1339094E-013  0.7246158E+02  0.7816164E-02  0.1226708E+00
        -11   -1    0    0    0    0  0.00000000000E+00  0.00000000000E+00  0.45593999997E+02  0.45594000000E+02  0.51100000000E-03 0. -1.
         11   -1    0    0    0    0 -0.00000000000E+00 -0.00000000000E+00 -0.45593999997E+02  0.45594000000E+02  0.51100000000E-03 0.  1.
    9900012    2    1    2    0    0 -0.16605091398E+02 -0.25168720177E+01 -0.82834185470E+01  0.72461582085E+02  0.70000015360E+02 0.  0.
         12    1    1    2    0    0  0.16605091398E+02  0.25168720177E+01  0.82834185470E+01  0.18726417915E+02  0.00000000000E+00 0. -1.
         11    1    3    3    0    0 -0.17903100130E+01 -0.23655702497E+02  0.16313032640E+02  0.28790840640E+02  0.51100000000E-03 0.  1.
        -11    1    3    3    0    0 -0.21299708372E+02  0.16803430990E+02 -0.14047873912E+02  0.30551196891E+02  0.51100000000E-03 0. -1.
        -12    1    3    3    0    0  0.64849269869E+01  0.43353994900E+01 -0.10548577276E+02  0.13119544554E+02  0.00000000000E+00 0.  1.
</event>
<event>
 7    1  0.1339094E-013  0.7246135E+02  0.7816164E-02  0.1226709E+00
        -11   -1    0    0    0    0  0.00000000000E+00  0.00000000000E+00  0.45593999997E+02  0.45594000000E+02  0.51100000000E-03 0. -1.
         11   -1    0    0    0    0 -0.00000000000E+00 -0.00000000000E+00 -0.45593999997E+02  0.45594000000E+02  0.51100000000E-03 0.  1.
    9900012    2    1    2    0    0  0.14693915776E+02 -0.97210597059E+01  0.63464509174E+01  0.72461345149E+02  0.69999706706E+02 0.  0.
         12    1    1    2    0    0 -0.14693915776E+02  0.97210597059E+01 -0.63464509174E+01  0.18726654851E+02  0.00000000000E+00 0. -1.
         11    1    3    3    0    0  0.77236703435E+01 -0.36883503571E+01  0.29696460743E+02  0.30905319815E+02  0.51100000000E-03 0. -1.
        -11    1    3    3    0    0  0.43406001505E+01  0.12697313344E+02 -0.29538940979E+01  0.13740016973E+02  0.51100000000E-03 0.  1.
         12    1    3    3    0    0  0.26296452822E+01 -0.18730022692E+02 -0.20396115728E+02  0.27816008361E+02  0.00000000000E+00 0. -1.
</event>
<event>
 7    1  0.1339094E-013  0.7246160E+02  0.7816164E-02  0.1226708E+00
        -11   -1    0    0    0    0  0.00000000000E+00  0.00000000000E+00  0.45593999997E+02  0.45594000000E+02  0.51100000000E-03 0.  1.
         11   -1    0    0    0    0 -0.00000000000E+00 -0.00000000000E+00 -0.45593999997E+02  0.45594000000E+02  0.51100000000E-03 0. -1.
    9900012    2    1    2    0    0 -0.15712339463E+02 -0.96792713590E+01 -0.31799553218E+01  0.72461600952E+02  0.70000039938E+02 0.  0.
         12    1    1    2    0    0  0.15712339463E+02  0.96792713590E+01  0.31799553218E+01  0.18726399048E+02  0.00000000000E+00 0. -1.
         11    1    3    3    0    0  0.22069524233E+02 -0.92402183856E+01 -0.75628313001E+01  0.25092667320E+02  0.51100000000E-03 0. -1.
        -11    1    3    3    0    0 -0.22903363960E+02  0.12785415250E+02  0.73551985148E+01  0.27242060665E+02  0.51100000000E-03 0.  1.
         12    1    3    3    0    0 -0.14878499736E+02 -0.13224468223E+02 -0.29723225365E+01  0.20126872968E+02  0.00000000000E+00 0. -1.
</event>
<event>
 7    1  0.1339094E-013  0.7246161E+02  0.7816164E-02  0.1226708E+00
        -11   -1    0    0    0    0  0.00000000000E+00  0.00000000000E+00  0.45593999997E+02  0.45594000000E+02  0.51100000000E-03 0. -1.
         11   -1    0    0    0    0 -0.00000000000E+00 -0.00000000000E+00 -0.45593999997E+02  0.45594000000E+02  0.51100000000E-03 0.  1.
    9900012    2    1    2    0    0 -0.15892719505E+02 -0.89389110899E+01 -0.42655415769E+01  0.72461614613E+02  0.70000057733E+02 0.  0.
         12    1    1    2    0    0  0.15892719505E+02  0.89389110899E+01  0.42655415769E+01  0.18726385387E+02  0.00000000000E+00 0. -1.
         11    1    3    3    0    0 -0.11243482636E+01 -0.24212649820E+02 -0.54228166949E+01  0.24837944994E+02  0.51100000000E-03 0. -1.
        -11    1    3    3    0    0 -0.46182592954E+01  0.26269300601E+02 -0.10490058940E+02  0.28660875942E+02  0.51100000000E-03 0.  1.
         12    1    3    3    0    0 -0.10150111946E+02 -0.10995561870E+02  0.11647334058E+02  0.18962793676E+02  0.00000000000E+00 0. -1.
</event>
<event>
 7    1  0.1339094E-013  0.7246155E+02  0.7816164E-02  0.1226708E+00
        -11   -1    0    0    0    0  0.00000000000E+00  0.00000000000E+00  0.45593999997E+02  0.45594000000E+02  0.51100000000E-03 0.  1.
         11   -1    0    0    0    0 -0.00000000000E+00 -0.00000000000E+00 -0.45593999997E+02  0.45594000000E+02  0.51100000000E-03 0. -1.
    9900012    2    1    2    0    0  0.15771936785E+02  0.93933406055E+01  0.37001675490E+01  0.72461546049E+02  0.69999968416E+02 0.  0.
         12    1    1    2    0    0 -0.15771936785E+02 -0.93933406055E+01 -0.37001675490E+01  0.18726453951E+02  0.00000000000E+00 0. -1.
         11    1    3    3    0    0 -0.16015770109E+02 -0.31605511491E+01  0.19354187489E+02  0.25319529012E+02  0.51100000000E-03 0.  1.
        -11    1    3    3    0    0  0.21654331764E+02  0.20824677345E+02 -0.16038880167E+02  0.34056173419E+02  0.51100000000E-03 0. -1.
        -12    1    3    3    0    0  0.10133375130E+02 -0.82707855906E+01  0.38486022706E+00  0.13085843619E+02  0.00000000000E+00 0.  1.
</event>
<event>
 7    1  0.1339094E-013  0.7246159E+02  0.7816164E-02  0.1226708E+00
        -11   -1    0    0    0    0  0.00000000000E+00  0.00000000000E+00  0.45593999997E+02  0.45594000000E+02  0.51100000000E-03 0.  1.
         11   -1    0    0    0    0 -0.00000000000E+00 -0.00000000000E+00 -0.45593999997E+02  0.45594000000E+02  0.51100000000E-03 0. -1.
    9900012    2    1    2    0    0  0.16693760790E+01 -0.15020902004E+02 -0.11057313254E+02  0.72461588440E+02  0.70000023638E+02 0.  0.
         12    1    1    2    0    0 -0.16693760790E+01  0.15020902004E+02  0.11057313254E+02  0.18726411560E+02  0.00000000000E+00 0. -1.
         11    1    3    3    0    0 -0.21760769139E+02 -0.24407616470E+02 -0.14020589379E+02  0.35578641656E+02  0.51100000000E-03 0. -1.
        -11    1    3    3    0    0  0.27092082486E+02  0.39436783898E+01  0.81002445059E+01  0.28550787975E+02  0.51100000000E-03 0.  1.
         12    1    3    3    0    0 -0.36619372678E+01  0.54430360762E+01 -0.51369683813E+01  0.83321588097E+01  0.00000000000E+00 0. -1.
</event>
<event>
 7    1  0.1339094E-013  0.7246159E+02  0.7816164E-02  0.1226708E+00
        -11   -1    0    0    0    0  0.00000000000E+00  0.00000000000E+00  0.45593999997E+02  0.45594000000E+02  0.51100000000E-03 0. -1.
         11   -1    0    0    0    0 -0.00000000000E+00 -0.00000000000E+00 -0.45593999997E+02  0.45594000000E+02  0.51100000000E-03 0.  1.
    9900012    2    1    2    0    0  0.17731019947E+02 -0.54079451789E+01 -0.26539296096E+01  0.72461593997E+02  0.70000030877E+02 0.  0.
         12    1    1    2    0    0 -0.17731019947E+02  0.54079451789E+01  0.26539296096E+01  0.18726406003E+02  0.00000000000E+00 0. -1.
         11    1    3    3    0    0 -0.88275914574E+00  0.17670626318E+02  0.10647596736E+02  0.20649494296E+02  0.51100000000E-03 0. -1.
        -11    1    3    3    0    0  0.24106720461E+02 -0.29103386654E+02 -0.19564540802E+01  0.37841363598E+02  0.51100000000E-03 0.  1.
         12    1    3    3    0    0 -0.54929413675E+01  0.60248151576E+01 -0.11345072265E+02  0.13970736103E+02  0.00000000000E+00 0. -1.
</event>
<event>
 7    1  0.1339094E-013  0.7246154E+02  0.7816164E-02  0.1226708E+00
        -11   -1    0    0    0    0  0.00000000000E+00  0.00000000000E+00  0.45593999997E+02  0.45594000000E+02  0.51100000000E-03 0. -1.
         11   -1    0    0    0    0 -0.00000000000E+00 -0.00000000000E+00 -0.45593999997E+02  0.45594000000E+02  0.51100000000E-03 0.  1.
    9900012    2    1    2    0    0  0.16387003938E+02 -0.16972338063E+01 -0.89031387492E+01  0.72461537968E+02  0.69999957889E+02 0.  0.
         12    1    1    2    0    0 -0.16387003938E+02  0.16972338063E+01  0.89031387492E+01  0.18726462032E+02  0.00000000000E+00 0. -1.
         11    1    3    3    0    0 -0.53758815108E+01  0.27012750408E+02 -0.32652942170E+01  0.27735373320E+02  0.51100000000E-03 0.  1.
        -11    1    3    3    0    0  0.22031648999E+02 -0.30468687270E+02  0.12418355458E+01  0.37620162378E+02  0.51100000000E-03 0. -1.
         12    1    3    3    0    0 -0.26876355022E+00  0.17587030554E+01 -0.68796800780E+01  0.71060022698E+01  0.00000000000E+00 0. -1.
</event>
<event>
 7    1  0.1339094E-013  0.7246158E+02  0.7816164E-02  0.1226708E+00
        -11   -1    0    0    0    0  0.00000000000E+00  0.00000000000E+00  0.45593999997E+02  0.45594000000E+02  0.51100000000E-03 0.  1.
         11   -1    0    0    0    0 -0.00000000000E+00 -0.00000000000E+00 -0.45593999997E+02  0.45594000000E+02  0.51100000000E-03 0. -1.
    9900012    2    1    2    0    0 -0.86903648687E+01 -0.16338395716E+02  0.28658884673E+01  0.72461576614E+02  0.70000008232E+02 0.  0.
         12    1    1    2    0    0  0.86903648687E+01  0.16338395716E+02 -0.28658884673E+01  0.18726423386E+02  0.00000000000E+00 0. -1.
         11    1    3    3    0    0 -0.12579443995E+02 -0.11561100342E+02 -0.30298032019E+02  0.34783217172E+02  0.51100000000E-03 0. -1.
        -11    1    3    3    0    0 -0.64699999952E+01 -0.34532144152E+01  0.11697979409E+02  0.13806821222E+02  0.51100000000E-03 0.  1.
         12    1    3    3    0    0  0.10359079121E+02 -0.13240809592E+01  0.21465941078E+02  0.23871538220E+02  0.00000000000E+00 0. -1.
</event>
<event>
 7    1  0.1339094E-013  0.7246157E+02  0.7816164E-02  0.1226708E+00
        -11   -1    0    0    0    0  0.00000000000E+00  0.00000000000E+00  0.45593999997E+02  0.45594000000E+02  0.51100000000E-03 0.  1.
         11   -1    0    0    0    0 -0.00000000000E+00 -0.00000000000E+00 -0.45593999997E+02  0.45594000000E+02  0.51100000000E-03 0. -1.
    9900012    2    1    2    0    0  0.45952325122E+01 -0.12665663046E+02  0.13005534463E+02  0.72461571913E+02  0.70000002109E+02 0.  0.
         12    1    1    2    0    0 -0.45952325122E+01  0.12665663046E+02 -0.13005534463E+02  0.18726428087E+02  0.00000000000E+00 0. -1.
         11    1    3    3    0    0 -0.16491647195E+02 -0.17891762261E+02 -0.12035444060E+02  0.27146666425E+02  0.51100000000E-03 0. -1.
        -11    1    3    3    0    0 -0.48460350545E+01 -0.71593695687E+01  0.86540863351E+01  0.12232491117E+02  0.51100000000E-03 0.  1.
         12    1    3    3    0    0  0.25932914762E+02  0.12385468784E+02  0.16386892188E+02  0.33082414371E+02  0.00000000000E+00 0. -1.
</event>
<event>
 7    1  0.1339094E-013  0.7246169E+02  0.7816164E-02  0.1226708E+00
        -11   -1    0    0    0    0  0.00000000000E+00  0.00000000000E+00  0.45593999997E+02  0.45594000000E+02  0.51100000000E-03 0.  1.
         11   -1    0    0    0    0 -0.00000000000E+00 -0.00000000000E+00 -0.45593999997E+02  0.45594000000E+02  0.51100000000E-03 0. -1.
    9900012    2    1    2    0    0  0.80842687472E+01 -0.43541258013E+01  0.16320570857E+02  0.72461685740E+02  0.70000150389E+02 0.  0.
         12    1    1    2    0    0 -0.80842687472E+01  0.43541258013E+01 -0.16320570857E+02  0.18726314260E+02  0.00000000000E+00 0. -1.
         11    1    3    3    0    0  0.48490369461E+00 -0.63135081451E+01 -0.24459800681E+02  0.25266130814E+02  0.51100000000E-03 0. -1.
        -11    1    3    3    0    0  0.14401631502E+02  0.54919502462E+01  0.21556928052E+02  0.26500370841E+02  0.51100000000E-03 0.  1.
         12    1    3    3    0    0 -0.68022664496E+01 -0.35325679024E+01  0.19223443486E+02  0.20695184085E+02  0.00000000000E+00 0. -1.
</event>
<event>
 7    1  0.1339094E-013  0.7246153E+02  0.7816164E-02  0.1226708E+00
        -11   -1    0    0    0    0  0.00000000000E+00  0.00000000000E+00  0.45593999997E+02  0.45594000000E+02  0.51100000000E-03 0.  1.
         11   -1    0    0    0    0 -0.00000000000E+00 -0.00000000000E+00 -0.45593999997E+02  0.45594000000E+02  0.51100000000E-03 0. -1.
    9900012    2    1    2    0    0 -0.94408626611E+01  0.11693815518E+02  0.11171637139E+02  0.72461529817E+02  0.69999947271E+02 0.  0.
         12    1    1    2    0    0  0.94408626611E+01 -0.11693815518E+02 -0.11171637139E+02  0.18726470183E+02  0.00000000000E+00 0. -1.
         11    1    3    3    0    0  0.10355055696E+02  0.22302965377E+02  0.14525347599E+02  0.28559327132E+02  0.51100000000E-03 0.  1.
        -11    1    3    3    0    0 -0.31056362960E+02 -0.92998399629E+01 -0.30466159226E+01  0.32561734789E+02  0.51100000000E-03 0. -1.
         12    1    3    3    0    0  0.11260444602E+02 -0.13093098965E+01 -0.30709453796E+00  0.11340467896E+02  0.00000000000E+00 0. -1.
</event>
<event>
 7    1  0.1339094E-013  0.7246212E+02  0.7816164E-02  0.1226707E+00
        -11   -1    0    0    0    0  0.00000000000E+00  0.00000000000E+00  0.45593999997E+02  0.45594000000E+02  0.51100000000E-03 0.  1.
         11   -1    0    0    0    0 -0.00000000000E+00 -0.00000000000E+00 -0.45593999997E+02  0.45594000000E+02  0.51100000000E-03 0. -1.
    9900012    2    1    2    0    0  0.90416512819E+01  0.15281847907E+02  0.59474610642E+01  0.72462118807E+02  0.70000714536E+02 0.  0.
         12    1    1    2    0    0 -0.90416512819E+01 -0.15281847907E+02 -0.59474610642E+01  0.18725881193E+02  0.00000000000E+00 0. -1.
         11    1    3    3    0    0 -0.95072723458E+01 -0.16295849244E+02  0.10367346550E+02  0.21527303705E+02  0.51100000000E-03 0. -1.
        -11    1    3    3    0    0  0.27337215477E+02  0.23452002912E+02 -0.10489473241E+02  0.37514648336E+02  0.51100000000E-03 0.  1.
         12    1    3    3    0    0 -0.87882918497E+01  0.81256942392E+01  0.60695877554E+01  0.13420166766E+02  0.00000000000E+00 0. -1.
</event>
<event>
 7    1  0.1339094E-013  0.7246154E+02  0.7816164E-02  0.1226708E+00
        -11   -1    0    0    0    0  0.00000000000E+00  0.00000000000E+00  0.45593999997E+02  0.45594000000E+02  0.51100000000E-03 0.  1.
         11   -1    0    0    0    0 -0.00000000000E+00 -0.00000000000E+00 -0.45593999997E+02  0.45594000000E+02  0.51100000000E-03 0. -1.
    9900012    2    1    2    0    0  0.13688909711E+02  0.70023637335E+01  0.10689289607E+02  0.72461541199E+02  0.69999962098E+02 0.  0.
         12    1    1    2    0    0 -0.13688909711E+02 -0.70023637335E+01 -0.10689289607E+02  0.18726458801E+02  0.00000000000E+00 0. -1.
         11    1    3    3    0    0 -0.15551682706E+02 -0.86497895024E+01 -0.60897704826E+01  0.18808482082E+02  0.51100000000E-03 0. -1.
        -11    1    3    3    0    0  0.36840453539E+02  0.42998296092E+01  0.14391050519E+02  0.39784543317E+02  0.51100000000E-03 0.  1.
        -12    1    3    3    0    0 -0.75998611220E+01  0.11352323627E+02  0.23880095707E+01  0.13868515800E+02  0.00000000000E+00 0.  1.
</event>
<event>
 7    1  0.1339094E-013  0.7246161E+02  0.7816164E-02  0.1226708E+00
        -11   -1    0    0    0    0  0.00000000000E+00  0.00000000000E+00  0.45593999997E+02  0.45594000000E+02  0.51100000000E-03 0.  1.
         11   -1    0    0    0    0 -0.00000000000E+00 -0.00000000000E+00 -0.45593999997E+02  0.45594000000E+02  0.51100000000E-03 0. -1.
    9900012    2    1    2    0    0 -0.53020616588E+01 -0.14227754849E+02  0.10960694175E+02  0.72461609994E+02  0.70000051716E+02 0.  0.
         12    1    1    2    0    0  0.53020616588E+01  0.14227754849E+02 -0.10960694175E+02  0.18726390006E+02  0.00000000000E+00 0. -1.
         11    1    3    3    0    0  0.13059983804E+02  0.13088460033E+02 -0.14463943628E+02  0.23475021374E+02  0.51100000000E-03 0. -1.
        -11    1    3    3    0    0  0.17866274568E+01 -0.11348411469E+02  0.19455237630E+02  0.22593909623E+02  0.51100000000E-03 0.  1.
        -12    1    3    3    0    0 -0.20148672919E+02 -0.15967803412E+02  0.59694001727E+01  0.26392678997E+02  0.00000000000E+00 0.  1.
</event>
<event>
 7    1  0.1339094E-013  0.7246158E+02  0.7816164E-02  0.1226708E+00
        -11   -1    0    0    0    0  0.00000000000E+00  0.00000000000E+00  0.45593999997E+02  0.45594000000E+02  0.51100000000E-03 0.  1.
         11   -1    0    0    0    0 -0.00000000000E+00 -0.00000000000E+00 -0.45593999997E+02  0.45594000000E+02  0.51100000000E-03 0. -1.
    9900012    2    1    2    0    0 -0.34085997801E+01 -0.68169148033E+01 -0.17105259607E+02  0.72461580531E+02  0.70000013336E+02 0.  0.
         12    1    1    2    0    0  0.34085997801E+01  0.68169148033E+01  0.17105259607E+02  0.18726419469E+02  0.00000000000E+00 0. -1.
         11    1    3    3    0    0  0.30224770398E+02  0.26076823127E+01 -0.10452839820E+01  0.30355055123E+02  0.51100000000E-03 0. -1.
        -11    1    3    3    0    0 -0.56185287549E+01  0.46347345678E+01 -0.10693686934E+01  0.73615337768E+01  0.51100000000E-03 0.  1.
         12    1    3    3    0    0 -0.28014841423E+02 -0.14059331684E+02 -0.14990606931E+02  0.34744991632E+02  0.00000000000E+00 0. -1.
</event>
<event>
 7    1  0.1339094E-013  0.7246154E+02  0.7816164E-02  0.1226708E+00
        -11   -1    0    0    0    0  0.00000000000E+00  0.00000000000E+00  0.45593999997E+02  0.45594000000E+02  0.51100000000E-03 0.  1.
         11   -1    0    0    0    0 -0.00000000000E+00 -0.00000000000E+00 -0.45593999997E+02  0.45594000000E+02  0.51100000000E-03 0. -1.
    9900012    2    1    2    0    0 -0.81228714464E+01  0.15914373627E+01  0.16797811445E+02  0.72461543240E+02  0.69999964757E+02 0.  0.
         12    1    1    2    0    0  0.81228714464E+01 -0.15914373627E+01 -0.16797811445E+02  0.18726456760E+02  0.00000000000E+00 0. -1.
         11    1    3    3    0    0 -0.27524727818E+02  0.51281505695E+01 -0.11948510972E+02  0.30441344983E+02  0.51100000000E-03 0. -1.
        -11    1    3    3    0    0  0.15628350241E+02  0.72480131583E+01  0.24239317347E+02  0.29737577772E+02  0.51100000000E-03 0.  1.
         12    1    3    3    0    0  0.37735061300E+01 -0.10784726365E+02  0.45070050697E+01  0.12282620485E+02  0.00000000000E+00 0. -1.
</event>
<event>
 7    1  0.1339094E-013  0.7246160E+02  0.7816164E-02  0.1226708E+00
        -11   -1    0    0    0    0  0.00000000000E+00  0.00000000000E+00  0.45593999997E+02  0.45594000000E+02  0.51100000000E-03 0.  1.
         11   -1    0    0    0    0 -0.00000000000E+00 -0.00000000000E+00 -0.45593999997E+02  0.45594000000E+02  0.51100000000E-03 0. -1.
    9900012    2    1    2    0    0 -0.83804525318E+01  0.11435613481E+02  0.12234081267E+02  0.72461601927E+02  0.70000041208E+02 0.  0.
         12    1    1    2    0    0  0.83804525318E+01 -0.11435613481E+02 -0.12234081267E+02  0.18726398073E+02  0.00000000000E+00 0. -1.
         11    1    3    3    0    0  0.10373755938E+02 -0.29853969528E+01  0.17726102548E+01  0.10939358053E+02  0.51100000000E-03 0. -1.
        -11    1    3    3    0    0 -0.25642475815E+02  0.44969652453E+00  0.28063717211E+02  0.38017246308E+02  0.51100000000E-03 0.  1.
        -12    1    3    3    0    0  0.68882673453E+01  0.13971313909E+02 -0.17602246198E+02  0.23504997566E+02  0.00000000000E+00 0.  1.
</event>
<event>
 7    1  0.1339094E-013  0.7246157E+02  0.7816164E-02  0.1226708E+00
        -11   -1    0    0    0    0  0.00000000000E+00  0.00000000000E+00  0.45593999997E+02  0.45594000000E+02  0.51100000000E-03 0.  1.
         11   -1    0    0    0    0 -0.00000000000E+00 -0.00000000000E+00 -0.45593999997E+02  0.45594000000E+02  0.51100000000E-03 0. -1.
    9900012    2    1    2    0    0 -0.15411850349E+02  0.94777063459E+01 -0.48298090168E+01  0.72461572046E+02  0.70000002282E+02 0.  0.
         12    1    1    2    0    0  0.15411850349E+02 -0.94777063459E+01  0.48298090168E+01  0.18726427954E+02  0.00000000000E+00 0. -1.
         11    1    3    3    0    0 -0.27020558139E+02  0.85593758190E+01 -0.19380672068E+02  0.34336335370E+02  0.51100000000E-03 0. -1.
        -11    1    3    3    0    0  0.10050022385E+02 -0.15645431487E+02  0.72975182658E+01  0.19975891706E+02  0.51100000000E-03 0.  1.
        -12    1    3    3    0    0  0.15586854048E+01  0.16563762014E+02  0.72533447852E+01  0.18149344970E+02  0.00000000000E+00 0.  1.
</event>
<event>
 7    1  0.1339094E-013  0.7246161E+02  0.7816164E-02  0.1226708E+00
        -11   -1    0    0    0    0  0.00000000000E+00  0.00000000000E+00  0.45593999997E+02  0.45594000000E+02  0.51100000000E-03 0. -1.
         11   -1    0    0    0    0 -0.00000000000E+00 -0.00000000000E+00 -0.45593999997E+02  0.45594000000E+02  0.51100000000E-03 0.  1.
    9900012    2    1    2    0    0 -0.93535198256E+01  0.90777060308E+01 -0.13445621572E+02  0.72461606343E+02  0.70000046961E+02 0.  0.
         12    1    1    2    0    0  0.93535198256E+01 -0.90777060308E+01  0.13445621572E+02  0.18726393657E+02  0.00000000000E+00 0. -1.
         11    1    3    3    0    0  0.95626663650E+01 -0.20493090189E+02 -0.13712517102E+02  0.26447012290E+02  0.51100000000E-03 0. -1.
        -11    1    3    3    0    0 -0.19775970107E+02  0.87767255060E+01 -0.87434711275E+01  0.23335984913E+02  0.51100000000E-03 0.  1.
         12    1    3    3    0    0  0.85978391587E+00  0.20794070714E+02  0.90103666569E+01  0.22678609140E+02  0.00000000000E+00 0. -1.
</event>
<event>
 7    1  0.1339094E-013  0.7246167E+02  0.7816164E-02  0.1226708E+00
        -11   -1    0    0    0    0  0.00000000000E+00  0.00000000000E+00  0.45593999997E+02  0.45594000000E+02  0.51100000000E-03 0. -1.
         11   -1    0    0    0    0 -0.00000000000E+00 -0.00000000000E+00 -0.45593999997E+02  0.45594000000E+02  0.51100000000E-03 0.  1.
    9900012    2    1    2    0    0  0.94443487788E+01 -0.15938660803E+02 -0.27273950959E+01  0.72461673183E+02  0.70000134032E+02 0.  0.
         12    1    1    2    0    0 -0.94443487788E+01  0.15938660803E+02  0.27273950959E+01  0.18726326817E+02  0.00000000000E+00 0. -1.
         11    1    3    3    0    0 -0.10494962189E+02 -0.21070074423E+02 -0.13492211001E+02  0.27131753085E+02  0.51100000000E-03 0.  1.
        -11    1    3    3    0    0  0.84321518923E+01  0.74797360392E+01 -0.13969026673E+02  0.17949410664E+02  0.51100000000E-03 0. -1.
         12    1    3    3    0    0  0.11507159076E+02 -0.23483224193E+01  0.24733842578E+02  0.27380509433E+02  0.00000000000E+00 0. -1.
</event>
<event>
 7    1  0.1339094E-013  0.7246152E+02  0.7816164E-02  0.1226708E+00
        -11   -1    0    0    0    0  0.00000000000E+00  0.00000000000E+00  0.45593999997E+02  0.45594000000E+02  0.51100000000E-03 0.  1.
         11   -1    0    0    0    0 -0.00000000000E+00 -0.00000000000E+00 -0.45593999997E+02  0.45594000000E+02  0.51100000000E-03 0. -1.
    9900012    2    1    2    0    0  0.90970939066E+01  0.34114670473E+01  0.16008924105E+02  0.72461524732E+02  0.69999940647E+02 0.  0.
         12    1    1    2    0    0 -0.90970939066E+01 -0.34114670473E+01 -0.16008924105E+02  0.18726475268E+02  0.00000000000E+00 0. -1.
         11    1    3    3    0    0 -0.11936054911E+02  0.84724343823E+00 -0.79880300793E+01  0.14387350454E+02  0.51100000000E-03 0. -1.
        -11    1    3    3    0    0  0.22542580262E+02  0.22175203541E+02  0.21520964708E+02  0.38249960774E+02  0.51100000000E-03 0.  1.
        -12    1    3    3    0    0 -0.15094314440E+01 -0.19610979932E+02  0.24759894760E+01  0.19824213505E+02  0.00000000000E+00 0.  1.
</event>
<event>
 7    1  0.1339094E-013  0.7246158E+02  0.7816164E-02  0.1226708E+00
        -11   -1    0    0    0    0  0.00000000000E+00  0.00000000000E+00  0.45593999997E+02  0.45594000000E+02  0.51100000000E-03 0.  1.
         11   -1    0    0    0    0 -0.00000000000E+00 -0.00000000000E+00 -0.45593999997E+02  0.45594000000E+02  0.51100000000E-03 0. -1.
    9900012    2    1    2    0    0 -0.15563160257E+02 -0.39446110951E+00  0.10407263779E+02  0.72461582935E+02  0.70000016466E+02 0.  0.
         12    1    1    2    0    0  0.15563160257E+02  0.39446110951E+00 -0.10407263779E+02  0.18726417065E+02  0.00000000000E+00 0. -1.
         11    1    3    3    0    0 -0.29926552924E+02 -0.17013049476E+01 -0.18419227729E+01  0.30031411691E+02  0.51100000000E-03 0. -1.
        -11    1    3    3    0    0  0.25523929832E+02  0.62889242218E+01  0.14471932222E+02  0.30007638768E+02  0.51100000000E-03 0.  1.
        -12    1    3    3    0    0 -0.11160537165E+02 -0.49820803838E+01 -0.22227456699E+01  0.12422532475E+02  0.00000000000E+00 0.  1.
</event>
<event>
 7    1  0.1339094E-013  0.7246148E+02  0.7816164E-02  0.1226708E+00
        -11   -1    0    0    0    0  0.00000000000E+00  0.00000000000E+00  0.45593999997E+02  0.45594000000E+02  0.51100000000E-03 0.  1.
         11   -1    0    0    0    0 -0.00000000000E+00 -0.00000000000E+00 -0.45593999997E+02  0.45594000000E+02  0.51100000000E-03 0. -1.
    9900012    2    1    2    0    0 -0.15240272931E+02  0.84611271156E+01  0.68429375469E+01  0.72461484431E+02  0.69999888147E+02 0.  0.
         12    1    1    2    0    0  0.15240272931E+02 -0.84611271156E+01 -0.68429375469E+01  0.18726515569E+02  0.00000000000E+00 0. -1.
         11    1    3    3    0    0 -0.14362782567E+02 -0.33465164225E+01 -0.16384944914E+02  0.22044389656E+02  0.51100000000E-03 0. -1.
        -11    1    3    3    0    0 -0.21852430409E+02  0.87659077581E+01  0.11741787075E+02  0.26310443128E+02  0.51100000000E-03 0.  1.
        -12    1    3    3    0    0  0.20974940045E+02  0.30417357801E+01  0.11486095386E+02  0.24106651647E+02  0.00000000000E+00 0.  1.
</event>
<event>
 7    1  0.1339094E-013  0.7246158E+02  0.7816164E-02  0.1226708E+00
        -11   -1    0    0    0    0  0.00000000000E+00  0.00000000000E+00  0.45593999997E+02  0.45594000000E+02  0.51100000000E-03 0.  1.
         11   -1    0    0    0    0 -0.00000000000E+00 -0.00000000000E+00 -0.45593999997E+02  0.45594000000E+02  0.51100000000E-03 0. -1.
    9900012    2    1    2    0    0 -0.18177684638E+02 -0.44993842133E+01  0.77623005267E-01  0.72461582765E+02  0.70000016246E+02 0.  0.
         12    1    1    2    0    0  0.18177684638E+02  0.44993842133E+01 -0.77623005267E-01  0.18726417235E+02  0.00000000000E+00 0. -1.
         11    1    3    3    0    0 -0.48148169228E+01 -0.10647257901E+02 -0.23415339466E+01  0.11917606483E+02  0.51100000000E-03 0. -1.
        -11    1    3    3    0    0 -0.24032114938E+02  0.25650359894E+02 -0.79143940992E+01  0.36029448307E+02  0.51100000000E-03 0.  1.
        -12    1    3    3    0    0  0.10669247222E+02 -0.19502486207E+02  0.10333551051E+02  0.24514527975E+02  0.00000000000E+00 0.  1.
</event>
<event>
 7    1  0.1339094E-013  0.7246178E+02  0.7816164E-02  0.1226707E+00
        -11   -1    0    0    0    0  0.00000000000E+00  0.00000000000E+00  0.45593999997E+02  0.45594000000E+02  0.51100000000E-03 0.  1.
         11   -1    0    0    0    0 -0.00000000000E+00 -0.00000000000E+00 -0.45593999997E+02  0.45594000000E+02  0.51100000000E-03 0. -1.
    9900012    2    1    2    0    0  0.93082627784E+01  0.14222434096E+02 -0.78581206493E+01  0.72461776470E+02  0.70000268581E+02 0.  0.
         12    1    1    2    0    0 -0.93082627784E+01 -0.14222434096E+02  0.78581206493E+01  0.18726223530E+02  0.00000000000E+00 0. -1.
         11    1    3    3    0    0  0.24296532975E+01  0.42453890135E+01  0.27285625408E+02  0.27720604200E+02  0.51100000000E-03 0. -1.
        -11    1    3    3    0    0  0.11650057563E+02  0.12513976269E+02 -0.11785263547E+02  0.20765738137E+02  0.51100000000E-03 0.  1.
         12    1    3    3    0    0 -0.47714480819E+01 -0.25369311862E+01 -0.23358482511E+02  0.23975434133E+02  0.00000000000E+00 0. -1.
</event>
<event>
 7    1  0.1339094E-013  0.7246154E+02  0.7816164E-02  0.1226708E+00
        -11   -1    0    0    0    0  0.00000000000E+00  0.00000000000E+00  0.45593999997E+02  0.45594000000E+02  0.51100000000E-03 0.  1.
         11   -1    0    0    0    0 -0.00000000000E+00 -0.00000000000E+00 -0.45593999997E+02  0.45594000000E+02  0.51100000000E-03 0. -1.
    9900012    2    1    2    0    0  0.14953487319E+02  0.11253408789E+02  0.65911869282E+00  0.72461536644E+02  0.69999956164E+02 0.  0.
         12    1    1    2    0    0 -0.14953487319E+02 -0.11253408789E+02 -0.65911869282E+00  0.18726463356E+02  0.00000000000E+00 0. -1.
         11    1    3    3    0    0 -0.85074385716E+01  0.99528241142E+01 -0.26866709815E+02  0.29887377193E+02  0.51100000000E-03 0. -1.
        -11    1    3    3    0    0  0.40234870107E+01  0.10088039574E+02  0.66935426380E+01  0.12757762480E+02  0.51100000000E-03 0.  1.
         12    1    3    3    0    0  0.19437438880E+02 -0.87874548991E+01  0.20832285870E+02  0.29816396972E+02  0.00000000000E+00 0. -1.
</event>
<event>
 7    1  0.1339094E-013  0.7246158E+02  0.7816164E-02  0.1226708E+00
        -11   -1    0    0    0    0  0.00000000000E+00  0.00000000000E+00  0.45593999997E+02  0.45594000000E+02  0.51100000000E-03 0.  1.
         11   -1    0    0    0    0 -0.00000000000E+00 -0.00000000000E+00 -0.45593999997E+02  0.45594000000E+02  0.51100000000E-03 0. -1.
    9900012    2    1    2    0    0  0.61516162365E+00 -0.10659679048E+02  0.15384135626E+02  0.72461579888E+02  0.70000012498E+02 0.  0.
         12    1    1    2    0    0 -0.61516162365E+00  0.10659679048E+02 -0.15384135626E+02  0.18726420112E+02  0.00000000000E+00 0. -1.
         11    1    3    3    0    0  0.16260036966E+02 -0.29945768863E+02  0.55761094307E+01  0.34528696349E+02  0.51100000000E-03 0.  1.
        -11    1    3    3    0    0 -0.18466199212E+02  0.84403011177E+01 -0.34266542637E+01  0.20590802704E+02  0.51100000000E-03 0. -1.
        -12    1    3    3    0    0  0.28213238698E+01  0.10845788697E+02  0.13234680459E+02  0.17342080835E+02  0.00000000000E+00 0.  1.
</event>
<event>
 7    1  0.1339094E-013  0.7246156E+02  0.7816164E-02  0.1226708E+00
        -11   -1    0    0    0    0  0.00000000000E+00  0.00000000000E+00  0.45593999997E+02  0.45594000000E+02  0.51100000000E-03 0.  1.
         11   -1    0    0    0    0 -0.00000000000E+00 -0.00000000000E+00 -0.45593999997E+02  0.45594000000E+02  0.51100000000E-03 0. -1.
    9900012    2    1    2    0    0  0.88076281482E+01  0.96327809475E+01  0.13428134827E+02  0.72461559139E+02  0.69999985468E+02 0.  0.
         12    1    1    2    0    0 -0.88076281482E+01 -0.96327809475E+01 -0.13428134827E+02  0.18726440861E+02  0.00000000000E+00 0. -1.
         11    1    3    3    0    0 -0.90385788950E+00 -0.44309151314E+01 -0.17278886628E+02  0.17860848002E+02  0.51100000000E-03 0. -1.
        -11    1    3    3    0    0  0.21811947774E+02  0.25199268934E+01  0.30862717307E+02  0.37876356967E+02  0.51100000000E-03 0.  1.
         12    1    3    3    0    0 -0.12100461736E+02  0.11543769186E+02 -0.15569585220E+00  0.16724354171E+02  0.00000000000E+00 0. -1.
</event>
<event>
 7    1  0.1339094E-013  0.7246161E+02  0.7816164E-02  0.1226708E+00
        -11   -1    0    0    0    0  0.00000000000E+00  0.00000000000E+00  0.45593999997E+02  0.45594000000E+02  0.51100000000E-03 0.  1.
         11   -1    0    0    0    0 -0.00000000000E+00 -0.00000000000E+00 -0.45593999997E+02  0.45594000000E+02  0.51100000000E-03 0. -1.
    9900012    2    1    2    0    0  0.14796613219E+02  0.75760671427E+01  0.86221294543E+01  0.72461610267E+02  0.70000052071E+02 0.  0.
         12    1    1    2    0    0 -0.14796613219E+02 -0.75760671427E+01 -0.86221294543E+01  0.18726389733E+02  0.00000000000E+00 0. -1.
         11    1    3    3    0    0  0.13989339700E+01  0.34870390614E+02  0.59446754880E+01  0.35401134513E+02  0.51100000000E-03 0. -1.
        -11    1    3    3    0    0  0.92711598039E+01 -0.63733255702E+00  0.38535843442E+01  0.10060353347E+02  0.51100000000E-03 0.  1.
         12    1    3    3    0    0  0.41265194455E+01 -0.26656990915E+02 -0.11761303779E+01  0.27000122408E+02  0.00000000000E+00 0. -1.
</event>
<event>
 7    1  0.1339094E-013  0.7246160E+02  0.7816164E-02  0.1226708E+00
        -11   -1    0    0    0    0  0.00000000000E+00  0.00000000000E+00  0.45593999997E+02  0.45594000000E+02  0.51100000000E-03 0.  1.
         11   -1    0    0    0    0 -0.00000000000E+00 -0.00000000000E+00 -0.45593999997E+02  0.45594000000E+02  0.51100000000E-03 0. -1.
    9900012    2    1    2    0    0  0.10620798439E+02  0.13276785116E+02  0.78488057187E+01  0.72461597951E+02  0.70000036028E+02 0.  0.
         12    1    1    2    0    0 -0.10620798439E+02 -0.13276785116E+02 -0.78488057187E+01  0.18726402049E+02  0.00000000000E+00 0. -1.
         11    1    3    3    0    0  0.22354482411E+02 -0.74086218171E+01  0.31079939298E+02  0.38994527669E+02  0.51100000000E-03 0.  1.
        -11    1    3    3    0    0 -0.66229429696E+01  0.15251204061E+02 -0.16301514207E+02  0.23285230611E+02  0.51100000000E-03 0. -1.
        -12    1    3    3    0    0 -0.51107410022E+01  0.54342028715E+01 -0.69296193731E+01  0.10181839672E+02  0.00000000000E+00 0.  1.
</event>
<event>
 7    1  0.1339094E-013  0.7246162E+02  0.7816164E-02  0.1226708E+00
        -11   -1    0    0    0    0  0.00000000000E+00  0.00000000000E+00  0.45593999997E+02  0.45594000000E+02  0.51100000000E-03 0.  1.
         11   -1    0    0    0    0 -0.00000000000E+00 -0.00000000000E+00 -0.45593999997E+02  0.45594000000E+02  0.51100000000E-03 0. -1.
    9900012    2    1    2    0    0 -0.68961929310E+01 -0.15174378996E+02  0.85356875970E+01  0.72461622411E+02  0.70000067892E+02 0.  0.
         12    1    1    2    0    0  0.68961929310E+01  0.15174378996E+02 -0.85356875970E+01  0.18726377589E+02  0.00000000000E+00 0. -1.
         11    1    3    3    0    0 -0.85015980696E+01  0.44794921020E+01 -0.21275286612E+02  0.23344824692E+02  0.51100000000E-03 0. -1.
        -11    1    3    3    0    0 -0.99044268240E+01  0.46456877800E+00  0.22861677032E+02  0.24919265074E+02  0.51100000000E-03 0.  1.
         12    1    3    3    0    0  0.11509831963E+02 -0.20118439876E+02  0.69492971769E+01  0.24197532645E+02  0.00000000000E+00 0. -1.
</event>
<event>
 7    1  0.1339094E-013  0.7246167E+02  0.7816164E-02  0.1226708E+00
        -11   -1    0    0    0    0  0.00000000000E+00  0.00000000000E+00  0.45593999997E+02  0.45594000000E+02  0.51100000000E-03 0.  1.
         11   -1    0    0    0    0 -0.00000000000E+00 -0.00000000000E+00 -0.45593999997E+02  0.45594000000E+02  0.51100000000E-03 0. -1.
    9900012    2    1    2    0    0  0.42146765626E+01 -0.12784648950E+02 -0.13017864145E+02  0.72461667358E+02  0.70000126444E+02 0.  0.
         12    1    1    2    0    0 -0.42146765626E+01  0.12784648950E+02  0.13017864145E+02  0.18726332642E+02  0.00000000000E+00 0. -1.
         11    1    3    3    0    0  0.18541142716E+01  0.31860267847E+01 -0.13824018677E+02  0.14307061161E+02  0.51100000000E-03 0. -1.
        -11    1    3    3    0    0 -0.33795525039E+01 -0.35721592712E+02  0.72388696124E+01  0.36604027027E+02  0.51100000000E-03 0.  1.
        -12    1    3    3    0    0  0.57401147948E+01  0.19750916977E+02 -0.64327150803E+01  0.21550579171E+02  0.00000000000E+00 0.  1.
</event>
<event>
 7    1  0.1339094E-013  0.7246159E+02  0.7816164E-02  0.1226708E+00
        -11   -1    0    0    0    0  0.00000000000E+00  0.00000000000E+00  0.45593999997E+02  0.45594000000E+02  0.51100000000E-03 0.  1.
         11   -1    0    0    0    0 -0.00000000000E+00 -0.00000000000E+00 -0.45593999997E+02  0.45594000000E+02  0.51100000000E-03 0. -1.
    9900012    2    1    2    0    0  0.16623788612E+01 -0.18644869147E+02  0.53255822771E+00  0.72461594385E+02  0.70000031383E+02 0.  0.
         12    1    1    2    0    0 -0.16623788612E+01  0.18644869147E+02 -0.53255822771E+00  0.18726405615E+02  0.00000000000E+00 0. -1.
         11    1    3    3    0    0  0.21262210852E+02 -0.20955572822E+02 -0.17044532278E+02  0.34376354132E+02  0.51100000000E-03 0. -1.
        -11    1    3    3    0    0 -0.22262695940E+02 -0.58225875126E+01  0.61693282427E+01  0.23824163513E+02  0.51100000000E-03 0.  1.
         12    1    3    3    0    0  0.26628639487E+01  0.81332911870E+01  0.11407762263E+02  0.14261076740E+02  0.00000000000E+00 0. -1.
</event>
<event>
 7    1  0.1339094E-013  0.7246152E+02  0.7816164E-02  0.1226708E+00
        -11   -1    0    0    0    0  0.00000000000E+00  0.00000000000E+00  0.45593999997E+02  0.45594000000E+02  0.51100000000E-03 0.  1.
         11   -1    0    0    0    0 -0.00000000000E+00 -0.00000000000E+00 -0.45593999997E+02  0.45594000000E+02  0.51100000000E-03 0. -1.
    9900012    2    1    2    0    0 -0.13955047155E+02 -0.34138157249E+01  0.12011805101E+02  0.72461523004E+02  0.69999938396E+02 0.  0.
         12    1    1    2    0    0  0.13955047155E+02  0.34138157249E+01 -0.12011805101E+02  0.18726476996E+02  0.00000000000E+00 0. -1.
         11    1    3    3    0    0 -0.43006759528E+01  0.31454712442E+01 -0.22322752714E+02  0.22949838605E+02  0.51100000000E-03 0. -1.
        -11    1    3    3    0    0 -0.19246058156E+02 -0.92488754765E+01  0.33216045968E+02  0.39487443095E+02  0.51100000000E-03 0.  1.
         12    1    3    3    0    0  0.95916869545E+01  0.26895885074E+01  0.11185118469E+01  0.10024241304E+02  0.00000000000E+00 0. -1.
</event>
<event>
 7    1  0.1339094E-013  0.7246160E+02  0.7816164E-02  0.1226708E+00
        -11   -1    0    0    0    0  0.00000000000E+00  0.00000000000E+00  0.45593999997E+02  0.45594000000E+02  0.51100000000E-03 0.  1.
         11   -1    0    0    0    0 -0.00000000000E+00 -0.00000000000E+00 -0.45593999997E+02  0.45594000000E+02  0.51100000000E-03 0. -1.
    9900012    2    1    2    0    0  0.71976997829E+00  0.86258795825E+01  0.16605849748E+02  0.72461598498E+02  0.70000036740E+02 0.  0.
         12    1    1    2    0    0 -0.71976997829E+00 -0.86258795825E+01 -0.16605849748E+02  0.18726401502E+02  0.00000000000E+00 0. -1.
         11    1    3    3    0    0 -0.10522571330E+01  0.92293663584E+01 -0.20059563266E+02  0.22105983967E+02  0.51100000000E-03 0. -1.
        -11    1    3    3    0    0  0.12301434531E+02  0.12203448406E+02  0.23428130836E+02  0.29139779670E+02  0.51100000000E-03 0.  1.
         12    1    3    3    0    0 -0.10529407420E+02 -0.12806935182E+02  0.13237282178E+02  0.21215834860E+02  0.00000000000E+00 0. -1.
</event>
<event>
 7    1  0.1339094E-013  0.7246126E+02  0.7816164E-02  0.1226709E+00
        -11   -1    0    0    0    0  0.00000000000E+00  0.00000000000E+00  0.45593999997E+02  0.45594000000E+02  0.51100000000E-03 0. -1.
         11   -1    0    0    0    0 -0.00000000000E+00 -0.00000000000E+00 -0.45593999997E+02  0.45594000000E+02  0.51100000000E-03 0.  1.
    9900012    2    1    2    0    0  0.10879813599E+02 -0.23327081266E+01  0.15062506511E+02  0.72461255127E+02  0.69999589435E+02 0.  0.
         12    1    1    2    0    0 -0.10879813599E+02  0.23327081266E+01 -0.15062506511E+02  0.18726744873E+02  0.00000000000E+00 0. -1.
         11    1    3    3    0    0  0.12675411219E+02 -0.25723957915E+02 -0.18119220552E+01  0.28734493595E+02  0.51100000000E-03 0.  1.
        -11    1    3    3    0    0 -0.68668463682E+01  0.26260152481E+02  0.22776456957E+02  0.35433263738E+02  0.51100000000E-03 0. -1.
         12    1    3    3    0    0  0.50712487481E+01 -0.28689026933E+01 -0.59020283911E+01  0.82934977939E+01  0.00000000000E+00 0. -1.
</event>
<event>
 7    1  0.1454558E-013  0.7246163E+02  0.7816164E-02  0.1226708E+00
        -11   -1    0    0    0    0  0.00000000000E+00  0.00000000000E+00  0.45593999997E+02  0.45594000000E+02  0.51100000000E-03 0. -1.
         11   -1    0    0    0    0 -0.00000000000E+00 -0.00000000000E+00 -0.45593999997E+02  0.45594000000E+02  0.51100000000E-03 0.  1.
    9900012    2    1    2    0    0  0.73189496105E+01 -0.26250042751E+01 -0.17035820229E+02  0.72461632447E+02  0.70000080965E+02 0.  0.
         12    1    1    2    0    0 -0.73189496105E+01  0.26250042751E+01  0.17035820229E+02  0.18726367553E+02  0.00000000000E+00 0. -1.
         11    1    3    3    0    0 -0.15264192418E+02  0.36424384437E+01 -0.12181859642E+02  0.19866067366E+02  0.51100000000E-03 0.  1.
        -11    1    3    3    0    0  0.28032029399E+02  0.13684670156E+02 -0.64408853459E+01  0.31851999526E+02  0.51100000000E-03 0. -1.
         12    1    3    3    0    0 -0.54488873711E+01 -0.19952112875E+02  0.15869247580E+01  0.20743565555E+02  0.00000000000E+00 0. -1.
</event>
<event>
 7    1  0.1339094E-013  0.7246155E+02  0.7816164E-02  0.1226708E+00
        -11   -1    0    0    0    0  0.00000000000E+00  0.00000000000E+00  0.45593999997E+02  0.45594000000E+02  0.51100000000E-03 0. -1.
         11   -1    0    0    0    0 -0.00000000000E+00 -0.00000000000E+00 -0.45593999997E+02  0.45594000000E+02  0.51100000000E-03 0.  1.
    9900012    2    1    2    0    0 -0.98208883731E+01  0.60575922860E+01 -0.14749092805E+02  0.72461547819E+02  0.69999970721E+02 0.  0.
         12    1    1    2    0    0  0.98208883731E+01 -0.60575922860E+01  0.14749092805E+02  0.18726452181E+02  0.00000000000E+00 0. -1.
         11    1    3    3    0    0  0.31142564536E+01 -0.23079354031E+02  0.76214541358E+01  0.24503912732E+02  0.51100000000E-03 0. -1.
        -11    1    3    3    0    0 -0.71037350363E+01  0.21019650127E+02  0.13385715052E+01  0.22227922009E+02  0.51100000000E-03 0.  1.
        -12    1    3    3    0    0 -0.58314097905E+01  0.81172961903E+01 -0.23709118446E+02  0.25729713078E+02  0.00000000000E+00 0.  1.
</event>
<event>
 7    1  0.1339094E-013  0.7246155E+02  0.7816164E-02  0.1226708E+00
        -11   -1    0    0    0    0  0.00000000000E+00  0.00000000000E+00  0.45593999997E+02  0.45594000000E+02  0.51100000000E-03 0. -1.
         11   -1    0    0    0    0 -0.00000000000E+00 -0.00000000000E+00 -0.45593999997E+02  0.45594000000E+02  0.51100000000E-03 0.  1.
    9900012    2    1    2    0    0 -0.76445521789E+01  0.91245040669E+01  0.14456288318E+02  0.72461547469E+02  0.69999970265E+02 0.  0.
         12    1    1    2    0    0  0.76445521789E+01 -0.91245040669E+01 -0.14456288318E+02  0.18726452531E+02  0.00000000000E+00 0. -1.
         11    1    3    3    0    0 -0.14855703173E+02 -0.15377547540E+02  0.59789636396E+01  0.22201551558E+02  0.51100000000E-03 0. -1.
        -11    1    3    3    0    0 -0.28156116752E+01  0.23429983956E+02 -0.12703993421E+02  0.26800807197E+02  0.51100000000E-03 0.  1.
        -12    1    3    3    0    0  0.10026762669E+02  0.10720676509E+01  0.21181318099E+02  0.23459188714E+02  0.00000000000E+00 0.  1.
</event>
<event>
 7    1  0.1339094E-013  0.7246160E+02  0.7816164E-02  0.1226708E+00
        -11   -1    0    0    0    0  0.00000000000E+00  0.00000000000E+00  0.45593999997E+02  0.45594000000E+02  0.51100000000E-03 0.  1.
         11   -1    0    0    0    0 -0.00000000000E+00 -0.00000000000E+00 -0.45593999997E+02  0.45594000000E+02  0.51100000000E-03 0. -1.
    9900012    2    1    2    0    0 -0.28400656851E+00 -0.90229231097E+01  0.16406836778E+02  0.72461599004E+02  0.70000037400E+02 0.  0.
         12    1    1    2    0    0  0.28400656851E+00  0.90229231097E+01 -0.16406836778E+02  0.18726400996E+02  0.00000000000E+00 0. -1.
         11    1    3    3    0    0 -0.12298032481E+02 -0.21557093371E+02 -0.15059817497E+01  0.24863987187E+02  0.51100000000E-03 0. -1.
        -11    1    3    3    0    0  0.22820279364E+02  0.19955519398E+02  0.85800956120E+01  0.31505649424E+02  0.51100000000E-03 0.  1.
        -12    1    3    3    0    0 -0.10806253451E+02 -0.74213491363E+01  0.93327229162E+01  0.16091962394E+02  0.00000000000E+00 0.  1.
</event>
<event>
 7    1  0.1339094E-013  0.7246143E+02  0.7816164E-02  0.1226708E+00
        -11   -1    0    0    0    0  0.00000000000E+00  0.00000000000E+00  0.45593999997E+02  0.45594000000E+02  0.51100000000E-03 0.  1.
         11   -1    0    0    0    0 -0.00000000000E+00 -0.00000000000E+00 -0.45593999997E+02  0.45594000000E+02  0.51100000000E-03 0. -1.
    9900012    2    1    2    0    0  0.16261468316E+01 -0.17162402215E+01  0.18576723994E+02  0.72461427747E+02  0.69999814305E+02 0.  0.
         12    1    1    2    0    0 -0.16261468316E+01  0.17162402215E+01 -0.18576723994E+02  0.18726572253E+02  0.00000000000E+00 0. -1.
         11    1    3    3    0    0  0.83606306989E+01  0.50965855640E+01  0.40613459033E+02  0.41777127534E+02  0.51100000000E-03 0.  1.
        -11    1    3    3    0    0 -0.34245221062E+01 -0.12418021691E+02 -0.20134413454E+02  0.23902494007E+02  0.51100000000E-03 0. -1.
        -12    1    3    3    0    0 -0.33099617611E+01  0.56051959058E+01 -0.19023215857E+01  0.67818062061E+01  0.00000000000E+00 0.  1.
</event>
<event>
 7    1  0.1339094E-013  0.7246161E+02  0.7816164E-02  0.1226708E+00
        -11   -1    0    0    0    0  0.00000000000E+00  0.00000000000E+00  0.45593999997E+02  0.45594000000E+02  0.51100000000E-03 0.  1.
         11   -1    0    0    0    0 -0.00000000000E+00 -0.00000000000E+00 -0.45593999997E+02  0.45594000000E+02  0.51100000000E-03 0. -1.
    9900012    2    1    2    0    0  0.67338203838E+01  0.11425546744E+02  0.13220821940E+02  0.72461612518E+02  0.70000055005E+02 0.  0.
         12    1    1    2    0    0 -0.67338203838E+01 -0.11425546744E+02 -0.13220821940E+02  0.18726387482E+02  0.00000000000E+00 0. -1.
         11    1    3    3    0    0  0.20555441413E+02  0.31381774893E+02 -0.76742702069E+01  0.38291466289E+02  0.51100000000E-03 0. -1.
        -11    1    3    3    0    0 -0.10334540949E+02 -0.46629233439E+01  0.92968290117E+01  0.14662081048E+02  0.51100000000E-03 0.  1.
         12    1    3    3    0    0 -0.34870800801E+01 -0.15293304806E+02  0.11598263135E+02  0.19508065181E+02  0.00000000000E+00 0. -1.
</event>
<event>
 7    1  0.1339094E-013  0.7246159E+02  0.7816164E-02  0.1226708E+00
        -11   -1    0    0    0    0  0.00000000000E+00  0.00000000000E+00  0.45593999997E+02  0.45594000000E+02  0.51100000000E-03 0. -1.
         11   -1    0    0    0    0 -0.00000000000E+00 -0.00000000000E+00 -0.45593999997E+02  0.45594000000E+02  0.51100000000E-03 0.  1.
    9900012    2    1    2    0    0  0.52000515381E+01  0.11619741061E+02 -0.13733887196E+02  0.72461586146E+02  0.70000020650E+02 0.  0.
         12    1    1    2    0    0 -0.52000515381E+01 -0.11619741061E+02  0.13733887196E+02  0.18726413854E+02  0.00000000000E+00 0. -1.
         11    1    3    3    0    0 -0.78989814958E+00 -0.75477369524E+01  0.69390139538E+01  0.10283102017E+02  0.51100000000E-03 0. -1.
        -11    1    3    3    0    0 -0.12630100169E+01 -0.28174956633E+01 -0.34879914803E+02  0.35016309529E+02  0.51100000000E-03 0.  1.
        -12    1    3    3    0    0  0.72529597046E+01  0.21984973677E+02  0.14207013653E+02  0.27162174600E+02  0.00000000000E+00 0.  1.
</event>
<event>
 7    1  0.1339094E-013  0.7246145E+02  0.7816164E-02  0.1226708E+00
        -11   -1    0    0    0    0  0.00000000000E+00  0.00000000000E+00  0.45593999997E+02  0.45594000000E+02  0.51100000000E-03 0. -1.
         11   -1    0    0    0    0 -0.00000000000E+00 -0.00000000000E+00 -0.45593999997E+02  0.45594000000E+02  0.51100000000E-03 0.  1.
    9900012    2    1    2    0    0  0.18474515981E+01 -0.13623042847E+02 -0.12715474174E+02  0.72461450470E+02  0.69999843906E+02 0.  0.
         12    1    1    2    0    0 -0.18474515981E+01  0.13623042847E+02  0.12715474174E+02  0.18726549530E+02  0.00000000000E+00 0. -1.
         11    1    3    3    0    0  0.80111001405E+01  0.70818273477E+01  0.13016800044E+01  0.10771461142E+02  0.51100000000E-03 0. -1.
        -11    1    3    3    0    0 -0.18274733644E+02 -0.22185157283E+02  0.13375748889E+02  0.31702645820E+02  0.51100000000E-03 0.  1.
        -12    1    3    3    0    0  0.12111085101E+02  0.14802870877E+01 -0.27392903067E+02  0.29987343508E+02  0.00000000000E+00 0.  1.
</event>
<event>
 7    1  0.1339094E-013  0.7246165E+02  0.7816164E-02  0.1226708E+00
        -11   -1    0    0    0    0  0.00000000000E+00  0.00000000000E+00  0.45593999997E+02  0.45594000000E+02  0.51100000000E-03 0.  1.
         11   -1    0    0    0    0 -0.00000000000E+00 -0.00000000000E+00 -0.45593999997E+02  0.45594000000E+02  0.51100000000E-03 0. -1.
    9900012    2    1    2    0    0  0.72412496904E+01  0.16405663831E+02  0.53939384418E+01  0.72461652926E+02  0.70000107643E+02 0.  0.
         12    1    1    2    0    0 -0.72412496904E+01 -0.16405663831E+02 -0.53939384418E+01  0.18726347074E+02  0.00000000000E+00 0. -1.
         11    1    3    3    0    0  0.15955802823E+02 -0.15544403070E+02  0.74113434601E+01  0.23476458904E+02  0.51100000000E-03 0. -1.
        -11    1    3    3    0    0 -0.18385929030E+02  0.11993488431E+02 -0.11598256645E+02  0.24827519178E+02  0.51100000000E-03 0.  1.
        -12    1    3    3    0    0  0.96713758979E+01  0.19956578470E+02  0.95808516270E+01  0.24157674845E+02  0.00000000000E+00 0.  1.
</event>
<event>
 7    1  0.1339094E-013  0.7246158E+02  0.7816164E-02  0.1226708E+00
        -11   -1    0    0    0    0  0.00000000000E+00  0.00000000000E+00  0.45593999997E+02  0.45594000000E+02  0.51100000000E-03 0. -1.
         11   -1    0    0    0    0 -0.00000000000E+00 -0.00000000000E+00 -0.45593999997E+02  0.45594000000E+02  0.51100000000E-03 0.  1.
    9900012    2    1    2    0    0 -0.98002734116E+01 -0.15438746090E+02 -0.40346694220E+01  0.72461580237E+02  0.70000012953E+02 0.  0.
         12    1    1    2    0    0  0.98002734116E+01  0.15438746090E+02  0.40346694220E+01  0.18726419763E+02  0.00000000000E+00 0. -1.
         11    1    3    3    0    0  0.18912418661E+02  0.89164269429E+01 -0.44409603025E+01  0.21375321699E+02  0.51100000000E-03 0.  1.
        -11    1    3    3    0    0 -0.18455028677E+02  0.56917099654E+01 -0.57814151816E+00  0.19321436118E+02  0.51100000000E-03 0. -1.
         12    1    3    3    0    0 -0.10257663397E+02 -0.30046882998E+02  0.98443239866E+00  0.31764822421E+02  0.00000000000E+00 0. -1.
</event>
<event>
 7    1  0.1339094E-013  0.7246153E+02  0.7816164E-02  0.1226708E+00
        -11   -1    0    0    0    0  0.00000000000E+00  0.00000000000E+00  0.45593999997E+02  0.45594000000E+02  0.51100000000E-03 0.  1.
         11   -1    0    0    0    0 -0.00000000000E+00 -0.00000000000E+00 -0.45593999997E+02  0.45594000000E+02  0.51100000000E-03 0. -1.
    9900012    2    1    2    0    0 -0.41513265704E+01  0.16525918733E+01  0.18185602420E+02  0.72461529228E+02  0.69999946504E+02 0.  0.
         12    1    1    2    0    0  0.41513265704E+01 -0.16525918733E+01 -0.18185602420E+02  0.18726470772E+02  0.00000000000E+00 0. -1.
         11    1    3    3    0    0 -0.24806754756E+02 -0.10140160598E+02 -0.18861480516E+01  0.26865507500E+02  0.51100000000E-03 0. -1.
        -11    1    3    3    0    0  0.15127792727E+01  0.16735115572E+02  0.19604225954E+02  0.25820113669E+02  0.51100000000E-03 0.  1.
        -12    1    3    3    0    0  0.19142648913E+02 -0.49423631006E+01  0.46752451689E+00  0.19775908060E+02  0.00000000000E+00 0.  1.
</event>
<event>
 7    1  0.1339094E-013  0.7246163E+02  0.7816164E-02  0.1226708E+00
        -11   -1    0    0    0    0  0.00000000000E+00  0.00000000000E+00  0.45593999997E+02  0.45594000000E+02  0.51100000000E-03 0. -1.
         11   -1    0    0    0    0 -0.00000000000E+00 -0.00000000000E+00 -0.45593999997E+02  0.45594000000E+02  0.51100000000E-03 0.  1.
    9900012    2    1    2    0    0 -0.16472313187E+02 -0.97857974585E+00 -0.88533809287E+01  0.72461626247E+02  0.70000072889E+02 0.  0.
         12    1    1    2    0    0  0.16472313187E+02  0.97857974585E+00  0.88533809287E+01  0.18726373753E+02  0.00000000000E+00 0. -1.
         11    1    3    3    0    0  0.87264330787E+00 -0.17055901504E+02  0.24358399412E+02  0.29748897536E+02  0.51100000000E-03 0. -1.
        -11    1    3    3    0    0 -0.14024973989E+02  0.16053774800E+02 -0.33125051906E+02  0.39391530115E+02  0.51100000000E-03 0.  1.
         12    1    3    3    0    0 -0.33199825060E+01  0.23546957927E-01 -0.86728434094E-01  0.33211985970E+01  0.00000000000E+00 0. -1.
</event>
<event>
 7    1  0.1339094E-013  0.7246155E+02  0.7816164E-02  0.1226708E+00
        -11   -1    0    0    0    0  0.00000000000E+00  0.00000000000E+00  0.45593999997E+02  0.45594000000E+02  0.51100000000E-03 0.  1.
         11   -1    0    0    0    0 -0.00000000000E+00 -0.00000000000E+00 -0.45593999997E+02  0.45594000000E+02  0.51100000000E-03 0. -1.
    9900012    2    1    2    0    0 -0.16641746843E+02 -0.41523863328E+01  0.75159863054E+01  0.72461545440E+02  0.69999967623E+02 0.  0.
         12    1    1    2    0    0  0.16641746843E+02  0.41523863328E+01 -0.75159863054E+01  0.18726454560E+02  0.00000000000E+00 0. -1.
         11    1    3    3    0    0 -0.22258285867E+02  0.80998509737E+01 -0.18114774489E+02  0.29819187290E+02  0.51100000000E-03 0. -1.
        -11    1    3    3    0    0  0.16419186989E+02 -0.40796344575E+00  0.19460847382E+02  0.25465284539E+02  0.51100000000E-03 0.  1.
         12    1    3    3    0    0 -0.10802647965E+02 -0.11844273861E+02  0.61699134124E+01  0.17177073611E+02  0.00000000000E+00 0. -1.
</event>
<event>
 7    1  0.1339094E-013  0.7246158E+02  0.7816164E-02  0.1226708E+00
        -11   -1    0    0    0    0  0.00000000000E+00  0.00000000000E+00  0.45593999997E+02  0.45594000000E+02  0.51100000000E-03 0.  1.
         11   -1    0    0    0    0 -0.00000000000E+00 -0.00000000000E+00 -0.45593999997E+02  0.45594000000E+02  0.51100000000E-03 0. -1.
    9900012    2    1    2    0    0 -0.42208229812E+01 -0.11176064815E+02  0.14420778772E+02  0.72461584652E+02  0.70000018703E+02 0.  0.
         12    1    1    2    0    0  0.42208229812E+01  0.11176064815E+02 -0.14420778772E+02  0.18726415348E+02  0.00000000000E+00 0. -1.
         11    1    3    3    0    0 -0.14346943202E+02  0.70319883978E+01 -0.17561148002E+02  0.23741894606E+02  0.51100000000E-03 0. -1.
        -11    1    3    3    0    0  0.16325480962E+02  0.13819738700E+00  0.20498669507E+02  0.26205645937E+02  0.51100000000E-03 0.  1.
         12    1    3    3    0    0 -0.61993607416E+01 -0.18346250600E+02  0.11483257267E+02  0.22514044109E+02  0.00000000000E+00 0. -1.
</event>
<event>
 7    1  0.1339094E-013  0.7246165E+02  0.7816164E-02  0.1226708E+00
        -11   -1    0    0    0    0  0.00000000000E+00  0.00000000000E+00  0.45593999997E+02  0.45594000000E+02  0.51100000000E-03 0.  1.
         11   -1    0    0    0    0 -0.00000000000E+00 -0.00000000000E+00 -0.45593999997E+02  0.45594000000E+02  0.51100000000E-03 0. -1.
    9900012    2    1    2    0    0  0.15063770322E+02 -0.29366316894E+01  0.10730109214E+02  0.72461648895E+02  0.70000102391E+02 0.  0.
         12    1    1    2    0    0 -0.15063770322E+02  0.29366316894E+01 -0.10730109214E+02  0.18726351105E+02  0.00000000000E+00 0. -1.
         11    1    3    3    0    0 -0.34116851941E+01 -0.13176923672E+02 -0.70272155527E+01  0.15318376938E+02  0.51100000000E-03 0. -1.
        -11    1    3    3    0    0 -0.47563820045E+01  0.87950298076E+01  0.29445449725E+02  0.31096788079E+02  0.51100000000E-03 0.  1.
        -12    1    3    3    0    0  0.23231837520E+02  0.14452621750E+01 -0.11688124959E+02  0.26046483877E+02  0.00000000000E+00 0.  1.
</event>
<event>
 7    1  0.1339094E-013  0.7246157E+02  0.7816164E-02  0.1226708E+00
        -11   -1    0    0    0    0  0.00000000000E+00  0.00000000000E+00  0.45593999997E+02  0.45594000000E+02  0.51100000000E-03 0.  1.
         11   -1    0    0    0    0 -0.00000000000E+00 -0.00000000000E+00 -0.45593999997E+02  0.45594000000E+02  0.51100000000E-03 0. -1.
    9900012    2    1    2    0    0  0.47976513612E+01  0.17017835120E+02  0.61688830149E+01  0.72461567120E+02  0.69999995865E+02 0.  0.
         12    1    1    2    0    0 -0.47976513612E+01 -0.17017835120E+02 -0.61688830149E+01  0.18726432880E+02  0.00000000000E+00 0. -1.
         11    1    3    3    0    0  0.15709670800E+02  0.13828568432E+02  0.24511868508E+02  0.32231269902E+02  0.51100000000E-03 0.  1.
        -11    1    3    3    0    0  0.17773947626E+01 -0.12458913264E+02 -0.15370685753E+02  0.19865589159E+02  0.51100000000E-03 0. -1.
        -12    1    3    3    0    0 -0.12689414201E+02  0.15648179952E+02 -0.29722997394E+01  0.20364708059E+02  0.00000000000E+00 0.  1.
</event>
<event>
 7    1  0.1339094E-013  0.7246157E+02  0.7816164E-02  0.1226708E+00
        -11   -1    0    0    0    0  0.00000000000E+00  0.00000000000E+00  0.45593999997E+02  0.45594000000E+02  0.51100000000E-03 0. -1.
         11   -1    0    0    0    0 -0.00000000000E+00 -0.00000000000E+00 -0.45593999997E+02  0.45594000000E+02  0.51100000000E-03 0.  1.
    9900012    2    1    2    0    0  0.62198778142E+01 -0.14544572974E+02 -0.10022350731E+02  0.72461574896E+02  0.70000005994E+02 0.  0.
         12    1    1    2    0    0 -0.62198778142E+01  0.14544572974E+02  0.10022350731E+02  0.18726425104E+02  0.00000000000E+00 0. -1.
         11    1    3    3    0    0  0.19555631195E+02 -0.28199313527E-01  0.17596549730E+02  0.26307072610E+02  0.51100000000E-03 0. -1.
        -11    1    3    3    0    0  0.88200530727E+01 -0.10982486507E+02 -0.72054089689E+01  0.15821702335E+02  0.51100000000E-03 0.  1.
         12    1    3    3    0    0 -0.22155806454E+02 -0.35338871529E+01 -0.20413491492E+02  0.30332799951E+02  0.00000000000E+00 0. -1.
</event>
<event>
 7    1  0.1339094E-013  0.7246154E+02  0.7816164E-02  0.1226708E+00
        -11   -1    0    0    0    0  0.00000000000E+00  0.00000000000E+00  0.45593999997E+02  0.45594000000E+02  0.51100000000E-03 0. -1.
         11   -1    0    0    0    0 -0.00000000000E+00 -0.00000000000E+00 -0.45593999997E+02  0.45594000000E+02  0.51100000000E-03 0.  1.
    9900012    2    1    2    0    0  0.55677919353E+01  0.16833737638E+02  0.60253954229E+01  0.72461536909E+02  0.69999956509E+02 0.  0.
         12    1    1    2    0    0 -0.55677919353E+01 -0.16833737638E+02 -0.60253954229E+01  0.18726463091E+02  0.00000000000E+00 0. -1.
         11    1    3    3    0    0 -0.57781811164E+01 -0.16790063224E+02  0.13111429275E+02  0.22072679447E+02  0.51100000000E-03 0. -1.
        -11    1    3    3    0    0 -0.75801079253E+01  0.29566926152E+02 -0.48023484634E+01  0.30898603678E+02  0.51100000000E-03 0.  1.
         12    1    3    3    0    0  0.18926080977E+02  0.40568747103E+01 -0.22836853887E+01  0.19490253783E+02  0.00000000000E+00 0. -1.
</event>
<event>
 8    1  0.1339094E-013  0.7246158E+02  0.7816164E-02  0.1226708E+00
        -11   -1    0    0    0    0  0.00000000000E+00  0.00000000000E+00  0.45593999997E+02  0.45594000000E+02  0.51100000000E-03 0.  1.
         11   -1    0    0    0    0 -0.00000000000E+00 -0.00000000000E+00 -0.45593999997E+02  0.45594000000E+02  0.51100000000E-03 0. -1.
    9900012    2    1    2    0    0  0.93498817371E+01 -0.93528957460E-01  0.16224971674E+02  0.72461581710E+02  0.70000014871E+02 0.  0.
        -24    2    3    3    0    0  0.67068135946E+01 -0.51441195736E+01  0.91877957765E+00  0.56128370405E+02  0.55480685771E+02 0.  0.
         12    1    1    2    0    0 -0.93498817371E+01  0.93528957460E-01 -0.16224971674E+02  0.18726418290E+02  0.00000000000E+00 0. -1.
         11    1    4    4    0    0  0.96456169418E+01  0.50059980772E+00 -0.26382637532E+02  0.28095054543E+02  0.51100000000E-03 0. -1.
        -11    1    3    3    0    0  0.26430681425E+01  0.50505906162E+01  0.15306192096E+02  0.16333211305E+02  0.51100000000E-03 0.  1.
        -12    1    4    4    0    0 -0.29388033472E+01 -0.56447193814E+01  0.27301417110E+02  0.28033315862E+02  0.00000000000E+00 0.  1.
</event>
<event>
 7    1  0.1339094E-013  0.7246184E+02  0.7816164E-02  0.1226707E+00
        -11   -1    0    0    0    0  0.00000000000E+00  0.00000000000E+00  0.45593999997E+02  0.45594000000E+02  0.51100000000E-03 0. -1.
         11   -1    0    0    0    0 -0.00000000000E+00 -0.00000000000E+00 -0.45593999997E+02  0.45594000000E+02  0.51100000000E-03 0.  1.
    9900012    2    1    2    0    0 -0.11672097987E+02  0.80283696060E+01 -0.12246481921E+02  0.72461844244E+02  0.70000356870E+02 0.  0.
         12    1    1    2    0    0  0.11672097987E+02 -0.80283696060E+01  0.12246481921E+02  0.18726155756E+02  0.00000000000E+00 0. -1.
         11    1    3    3    0    0 -0.14344853066E+01 -0.16698250133E+02  0.10258238802E+02  0.19649955959E+02  0.51100000000E-03 0. -1.
        -11    1    3    3    0    0 -0.71792523053E+01  0.25206849192E+02  0.36609244158E+01  0.26463735142E+02  0.51100000000E-03 0.  1.
         12    1    3    3    0    0 -0.30583603749E+01 -0.48022945261E+00 -0.26165645139E+02  0.26348153143E+02  0.00000000000E+00 0. -1.
</event>
<event>
 7    1  0.1339094E-013  0.7246144E+02  0.7816164E-02  0.1226708E+00
        -11   -1    0    0    0    0  0.00000000000E+00  0.00000000000E+00  0.45593999997E+02  0.45594000000E+02  0.51100000000E-03 0. -1.
         11   -1    0    0    0    0 -0.00000000000E+00 -0.00000000000E+00 -0.45593999997E+02  0.45594000000E+02  0.51100000000E-03 0.  1.
    9900012    2    1    2    0    0 -0.24968808348E+00  0.13031030564E+02 -0.13446711038E+02  0.72461437597E+02  0.69999827137E+02 0.  0.
         12    1    1    2    0    0  0.24968808348E+00 -0.13031030564E+02  0.13446711038E+02  0.18726562403E+02  0.00000000000E+00 0. -1.
         11    1    3    3    0    0  0.21632234143E+02  0.25753107932E+01  0.72206522115E+01  0.22950459654E+02  0.51100000000E-03 0. -1.
        -11    1    3    3    0    0 -0.46788646330E+01  0.12241710131E+01 -0.28179947049E+02  0.28591953149E+02  0.51100000000E-03 0.  1.
         12    1    3    3    0    0 -0.17203057593E+02  0.92315487578E+01  0.75125837997E+01  0.20919024795E+02  0.00000000000E+00 0. -1.
</event>
<event>
 7    1  0.1339094E-013  0.7246159E+02  0.7816164E-02  0.1226708E+00
        -11   -1    0    0    0    0  0.00000000000E+00  0.00000000000E+00  0.45593999997E+02  0.45594000000E+02  0.51100000000E-03 0.  1.
         11   -1    0    0    0    0 -0.00000000000E+00 -0.00000000000E+00 -0.45593999997E+02  0.45594000000E+02  0.51100000000E-03 0. -1.
    9900012    2    1    2    0    0 -0.46171351438E+01  0.17829627699E+02  0.33859665326E+01  0.72461592705E+02  0.70000029195E+02 0.  0.
         12    1    1    2    0    0  0.46171351438E+01 -0.17829627699E+02 -0.33859665326E+01  0.18726407295E+02  0.00000000000E+00 0. -1.
         11    1    3    3    0    0  0.49022141917E+01 -0.17089519654E+02  0.73938510933E+01  0.19254932361E+02  0.51100000000E-03 0. -1.
        -11    1    3    3    0    0 -0.23614045728E+02  0.29787756531E+02 -0.19020493581E+01  0.38059839553E+02  0.51100000000E-03 0.  1.
        -12    1    3    3    0    0  0.14094696393E+02  0.51313908213E+01 -0.21058352026E+01  0.15146820791E+02  0.00000000000E+00 0.  1.
</event>
<event>
 7    1  0.1339094E-013  0.7246155E+02  0.7816164E-02  0.1226708E+00
        -11   -1    0    0    0    0  0.00000000000E+00  0.00000000000E+00  0.45593999997E+02  0.45594000000E+02  0.51100000000E-03 0. -1.
         11   -1    0    0    0    0 -0.00000000000E+00 -0.00000000000E+00 -0.45593999997E+02  0.45594000000E+02  0.51100000000E-03 0.  1.
    9900012    2    1    2    0    0  0.11084497392E+02  0.12943607065E+02 -0.77638204200E+01  0.72461549353E+02  0.69999972721E+02 0.  0.
         12    1    1    2    0    0 -0.11084497392E+02 -0.12943607065E+02  0.77638204200E+01  0.18726450647E+02  0.00000000000E+00 0. -1.
         11    1    3    3    0    0 -0.62154296075E+01  0.13509180695E+02  0.11367769742E+02  0.18717791468E+02  0.51100000000E-03 0. -1.
        -11    1    3    3    0    0  0.27585820815E+02 -0.10855167119E+02  0.79887295142E-01  0.29644873848E+02  0.51100000000E-03 0.  1.
        -12    1    3    3    0    0 -0.10285893816E+02  0.10289593489E+02 -0.19211477457E+02  0.24098884038E+02  0.00000000000E+00 0.  1.
</event>
<event>
 7    1  0.1339094E-013  0.7246157E+02  0.7816164E-02  0.1226708E+00
        -11   -1    0    0    0    0  0.00000000000E+00  0.00000000000E+00  0.45593999997E+02  0.45594000000E+02  0.51100000000E-03 0.  1.
         11   -1    0    0    0    0 -0.00000000000E+00 -0.00000000000E+00 -0.45593999997E+02  0.45594000000E+02  0.51100000000E-03 0. -1.
    9900012    2    1    2    0    0 -0.14824602607E+02  0.12293177545E+01  0.11375366794E+02  0.72461573905E+02  0.70000004704E+02 0.  0.
         12    1    1    2    0    0  0.14824602607E+02 -0.12293177545E+01 -0.11375366794E+02  0.18726426095E+02  0.00000000000E+00 0. -1.
         11    1    3    3    0    0  0.54079778456E+00  0.12900700667E+01 -0.21557191285E+02  0.21602528541E+02  0.51100000000E-03 0. -1.
        -11    1    3    3    0    0 -0.20277952303E+02  0.11964971505E+02  0.12528187867E+02  0.26670421523E+02  0.51100000000E-03 0.  1.
        -12    1    3    3    0    0  0.49125519120E+01 -0.12025723817E+02  0.20404370211E+02  0.24188623841E+02  0.00000000000E+00 0.  1.
</event>
<event>
 7    1  0.1339094E-013  0.7246146E+02  0.7816164E-02  0.1226708E+00
        -11   -1    0    0    0    0  0.00000000000E+00  0.00000000000E+00  0.45593999997E+02  0.45594000000E+02  0.51100000000E-03 0.  1.
         11   -1    0    0    0    0 -0.00000000000E+00 -0.00000000000E+00 -0.45593999997E+02  0.45594000000E+02  0.51100000000E-03 0. -1.
    9900012    2    1    2    0    0 -0.32700088586E+01  0.17888189756E+02  0.44724521167E+01  0.72461464852E+02  0.69999862642E+02 0.  0.
         12    1    1    2    0    0  0.32700088586E+01 -0.17888189756E+02 -0.44724521167E+01  0.18726535148E+02  0.00000000000E+00 0. -1.
         11    1    3    3    0    0  0.86818003270E+01  0.14574306062E+02 -0.15702924032E+01  0.17036721299E+02  0.51100000000E-03 0.  1.
        -11    1    3    3    0    0 -0.17696800490E+02 -0.11870916238E+02 -0.16984164446E+02  0.27249903525E+02  0.51100000000E-03 0. -1.
        -12    1    3    3    0    0  0.57449913049E+01  0.15184799932E+02  0.23026908966E+02  0.28174840028E+02  0.00000000000E+00 0.  1.
</event>
<event>
 7    1  0.1339094E-013  0.7246174E+02  0.7816164E-02  0.1226708E+00
        -11   -1    0    0    0    0  0.00000000000E+00  0.00000000000E+00  0.45593999997E+02  0.45594000000E+02  0.51100000000E-03 0.  1.
         11   -1    0    0    0    0 -0.00000000000E+00 -0.00000000000E+00 -0.45593999997E+02  0.45594000000E+02  0.51100000000E-03 0. -1.
    9900012    2    1    2    0    0  0.10026630499E+02 -0.58884723264E+01 -0.14678745153E+02  0.72461735429E+02  0.70000215119E+02 0.  0.
         12    1    1    2    0    0 -0.10026630499E+02  0.58884723264E+01  0.14678745153E+02  0.18726264571E+02  0.00000000000E+00 0. -1.
         11    1    3    3    0    0  0.17148502114E+02  0.25510007527E+02 -0.34989984460E+01  0.30936622298E+02  0.51100000000E-03 0.  1.
        -11    1    3    3    0    0 -0.32425531188E+01 -0.32370633634E+02 -0.15152237033E+02  0.35888192487E+02  0.51100000000E-03 0. -1.
         12    1    3    3    0    0 -0.38793184964E+01  0.97215378055E+00  0.39724903255E+01  0.56369206448E+01  0.00000000000E+00 0. -1.
</event>
<event>
 7    1  0.1339094E-013  0.7246121E+02  0.7816164E-02  0.1226709E+00
        -11   -1    0    0    0    0  0.00000000000E+00  0.00000000000E+00  0.45593999997E+02  0.45594000000E+02  0.51100000000E-03 0. -1.
         11   -1    0    0    0    0 -0.00000000000E+00 -0.00000000000E+00 -0.45593999997E+02  0.45594000000E+02  0.51100000000E-03 0.  1.
    9900012    2    1    2    0    0 -0.11101466469E+02  0.14976648151E+02  0.17748578233E+01  0.72461209888E+02  0.69999530503E+02 0.  0.
         12    1    1    2    0    0  0.11101466469E+02 -0.14976648151E+02 -0.17748578233E+01  0.18726790112E+02  0.00000000000E+00 0. -1.
         11    1    3    3    0    0 -0.90547766517E+01 -0.36872910454E+01  0.30344989978E+02  0.31881083929E+02  0.51100000000E-03 0. -1.
        -11    1    3    3    0    0 -0.81007774494E+01  0.18347162710E+02 -0.28067785585E+02  0.34496979037E+02  0.51100000000E-03 0.  1.
        -12    1    3    3    0    0  0.60540876321E+01  0.31677648623E+00 -0.50234656918E+00  0.60831469220E+01  0.00000000000E+00 0.  1.
</event>
<event>
 7    1  0.1339094E-013  0.7246154E+02  0.7816164E-02  0.1226708E+00
        -11   -1    0    0    0    0  0.00000000000E+00  0.00000000000E+00  0.45593999997E+02  0.45594000000E+02  0.51100000000E-03 0.  1.
         11   -1    0    0    0    0 -0.00000000000E+00 -0.00000000000E+00 -0.45593999997E+02  0.45594000000E+02  0.51100000000E-03 0. -1.
    9900012    2    1    2    0    0  0.15675440471E+02  0.90604907928E+01 -0.47820976149E+01  0.72461537842E+02  0.69999957725E+02 0.  0.
         12    1    1    2    0    0 -0.15675440471E+02 -0.90604907928E+01  0.47820976149E+01  0.18726462158E+02  0.00000000000E+00 0. -1.
         11    1    3    3    0    0 -0.14542185437E+02  0.81728892146E+01 -0.21078508817E+02  0.26880751656E+02  0.51100000000E-03 0. -1.
        -11    1    3    3    0    0  0.27251011237E+02  0.79293833237E+01  0.90343082994E+00  0.28395579249E+02  0.51100000000E-03 0.  1.
         12    1    3    3    0    0  0.29666146708E+01 -0.70417817455E+01  0.15392980372E+02  0.17185206937E+02  0.00000000000E+00 0. -1.
</event>
<event>
 7    1  0.1339094E-013  0.7246164E+02  0.7816164E-02  0.1226708E+00
        -11   -1    0    0    0    0  0.00000000000E+00  0.00000000000E+00  0.45593999997E+02  0.45594000000E+02  0.51100000000E-03 0.  1.
         11   -1    0    0    0    0 -0.00000000000E+00 -0.00000000000E+00 -0.45593999997E+02  0.45594000000E+02  0.51100000000E-03 0. -1.
    9900012    2    1    2    0    0  0.10643901781E+02  0.15397727345E+02  0.54196669853E+00  0.72461644764E+02  0.70000097010E+02 0.  0.
         12    1    1    2    0    0 -0.10643901781E+02 -0.15397727345E+02 -0.54196669853E+00  0.18726355236E+02  0.00000000000E+00 0. -1.
         11    1    3    3    0    0  0.18886232263E+01 -0.26801929093E+01 -0.58839268590E+01  0.67357944791E+01  0.51100000000E-03 0. -1.
        -11    1    3    3    0    0 -0.74507036999E+00  0.37918471849E+02  0.16708762378E+02  0.41443315235E+02  0.51100000000E-03 0.  1.
        -12    1    3    3    0    0  0.95003489246E+01 -0.19840551594E+02 -0.10282868821E+02  0.24282535050E+02  0.00000000000E+00 0.  1.
</event>
<event>
 7    1  0.1339094E-013  0.7246156E+02  0.7816164E-02  0.1226708E+00
        -11   -1    0    0    0    0  0.00000000000E+00  0.00000000000E+00  0.45593999997E+02  0.45594000000E+02  0.51100000000E-03 0. -1.
         11   -1    0    0    0    0 -0.00000000000E+00 -0.00000000000E+00 -0.45593999997E+02  0.45594000000E+02  0.51100000000E-03 0.  1.
    9900012    2    1    2    0    0  0.25731146309E+01  0.17522934868E+02 -0.60831909999E+01  0.72461564727E+02  0.69999992747E+02 0.  0.
         12    1    1    2    0    0 -0.25731146309E+01 -0.17522934868E+02  0.60831909999E+01  0.18726435273E+02  0.00000000000E+00 0. -1.
         11    1    3    3    0    0 -0.18433816251E+01  0.12811839401E+02  0.26750077830E+02  0.29717132245E+02  0.51100000000E-03 0. -1.
        -11    1    3    3    0    0 -0.31140391275E+01  0.14007989409E+02 -0.11938441999E+02  0.18666745956E+02  0.51100000000E-03 0.  1.
         12    1    3    3    0    0  0.75305353835E+01 -0.92968939419E+01 -0.20894826831E+02  0.24077686526E+02  0.00000000000E+00 0. -1.
</event>
<event>
 7    1  0.1339094E-013  0.7246158E+02  0.7816164E-02  0.1226708E+00
        -11   -1    0    0    0    0  0.00000000000E+00  0.00000000000E+00  0.45593999997E+02  0.45594000000E+02  0.51100000000E-03 0.  1.
         11   -1    0    0    0    0 -0.00000000000E+00 -0.00000000000E+00 -0.45593999997E+02  0.45594000000E+02  0.51100000000E-03 0. -1.
    9900012    2    1    2    0    0 -0.46353215889E+00  0.10337792471E+02  0.15607500579E+02  0.72461577769E+02  0.70000009737E+02 0.  0.
         12    1    1    2    0    0  0.46353215889E+00 -0.10337792471E+02 -0.15607500579E+02  0.18726422231E+02  0.00000000000E+00 0. -1.
         11    1    3    3    0    0  0.69749601317E+01  0.12087699348E+02 -0.75124657989E+01  0.15849280331E+02  0.51100000000E-03 0. -1.
        -11    1    3    3    0    0 -0.39282639112E+01  0.12172656999E+02  0.35449651335E+02  0.37686637099E+02  0.51100000000E-03 0.  1.
        -12    1    3    3    0    0 -0.35102283794E+01 -0.13922563876E+02 -0.12329684957E+02  0.18925660340E+02  0.00000000000E+00 0.  1.
</event>
<event>
 7    1  0.1339094E-013  0.7246154E+02  0.7816164E-02  0.1226708E+00
        -11   -1    0    0    0    0  0.00000000000E+00  0.00000000000E+00  0.45593999997E+02  0.45594000000E+02  0.51100000000E-03 0.  1.
         11   -1    0    0    0    0 -0.00000000000E+00 -0.00000000000E+00 -0.45593999997E+02  0.45594000000E+02  0.51100000000E-03 0. -1.
    9900012    2    1    2    0    0  0.67150503088E+01  0.48911150830E+01  0.16782886887E+02  0.72461542789E+02  0.69999964169E+02 0.  0.
         12    1    1    2    0    0 -0.67150503088E+01 -0.48911150830E+01 -0.16782886887E+02  0.18726457211E+02  0.00000000000E+00 0. -1.
         11    1    3    3    0    0  0.45720959245E+01  0.58714053715E+01 -0.25932958113E+02  0.26979543713E+02  0.51100000000E-03 0. -1.
        -11    1    3    3    0    0 -0.30859370695E+01  0.21592931840E+01  0.36776391539E+02  0.36968750717E+02  0.51100000000E-03 0.  1.
         12    1    3    3    0    0  0.52288914537E+01 -0.31395834725E+01  0.59394534611E+01  0.85132483596E+01  0.00000000000E+00 0. -1.
</event>
<event>
 7    1  0.1339094E-013  0.7246148E+02  0.7816164E-02  0.1226708E+00
        -11   -1    0    0    0    0  0.00000000000E+00  0.00000000000E+00  0.45593999997E+02  0.45594000000E+02  0.51100000000E-03 0.  1.
         11   -1    0    0    0    0 -0.00000000000E+00 -0.00000000000E+00 -0.45593999997E+02  0.45594000000E+02  0.51100000000E-03 0. -1.
    9900012    2    1    2    0    0  0.84369668399E+01 -0.72414873648E+00  0.16702565401E+02  0.72461481589E+02  0.69999884444E+02 0.  0.
         12    1    1    2    0    0 -0.84369668399E+01  0.72414873648E+00 -0.16702565401E+02  0.18726518411E+02  0.00000000000E+00 0. -1.
         11    1    3    3    0    0 -0.16060852485E+02  0.18578209533E+02 -0.49059447054E+01  0.25043345338E+02  0.51100000000E-03 0. -1.
        -11    1    3    3    0    0  0.79609737449E+01 -0.41394935201E+01  0.23250662368E+02  0.24921994511E+02  0.51100000000E-03 0.  1.
         12    1    3    3    0    0  0.16536845580E+02 -0.15162864750E+02 -0.16421522621E+01  0.22496141740E+02  0.00000000000E+00 0. -1.
</event>
<event>
 7    1  0.1339094E-013  0.7246152E+02  0.7816164E-02  0.1226708E+00
        -11   -1    0    0    0    0  0.00000000000E+00  0.00000000000E+00  0.45593999997E+02  0.45594000000E+02  0.51100000000E-03 0.  1.
         11   -1    0    0    0    0 -0.00000000000E+00 -0.00000000000E+00 -0.45593999997E+02  0.45594000000E+02  0.51100000000E-03 0. -1.
    9900012    2    1    2    0    0  0.63831286547E+01 -0.71217371699E+01  0.16100230437E+02  0.72461524307E+02  0.69999940093E+02 0.  0.
         12    1    1    2    0    0 -0.63831286547E+01  0.71217371699E+01 -0.16100230437E+02  0.18726475693E+02  0.00000000000E+00 0. -1.
         11    1    3    3    0    0  0.28115626010E+01  0.14418701332E+02  0.82280786121E+01  0.16837609993E+02  0.51100000000E-03 0. -1.
        -11    1    3    3    0    0  0.25874751913E+02 -0.17140134215E+02 -0.14098442562E+01  0.31068869445E+02  0.51100000000E-03 0.  1.
        -12    1    3    3    0    0 -0.22303185860E+02 -0.44003042874E+01  0.92819960811E+01  0.24555044870E+02  0.00000000000E+00 0.  1.
</event>
<event>
 7    1  0.1339094E-013  0.7246155E+02  0.7816164E-02  0.1226708E+00
        -11   -1    0    0    0    0  0.00000000000E+00  0.00000000000E+00  0.45593999997E+02  0.45594000000E+02  0.51100000000E-03 0. -1.
         11   -1    0    0    0    0 -0.00000000000E+00 -0.00000000000E+00 -0.45593999997E+02  0.45594000000E+02  0.51100000000E-03 0.  1.
    9900012    2    1    2    0    0 -0.11788079582E+02  0.83205562538E+01 -0.11936888990E+02  0.72461553584E+02  0.69999978232E+02 0.  0.
         12    1    1    2    0    0  0.11788079582E+02 -0.83205562538E+01  0.11936888990E+02  0.18726446416E+02  0.00000000000E+00 0. -1.
         11    1    3    3    0    0  0.21682928928E+02 -0.29005142172E+01 -0.24384369046E+01  0.22011550704E+02  0.51100000000E-03 0. -1.
        -11    1    3    3    0    0 -0.18638624130E+02  0.20421716266E+02 -0.15857696723E+02  0.31873364277E+02  0.51100000000E-03 0.  1.
         12    1    3    3    0    0 -0.14832384379E+02 -0.92006457948E+01  0.63592446375E+01  0.18576638603E+02  0.00000000000E+00 0. -1.
</event>
<event>
 7    1  0.1339094E-013  0.7246209E+02  0.7816164E-02  0.1226707E+00
        -11   -1    0    0    0    0  0.00000000000E+00  0.00000000000E+00  0.45593999997E+02  0.45594000000E+02  0.51100000000E-03 0. -1.
         11   -1    0    0    0    0 -0.00000000000E+00 -0.00000000000E+00 -0.45593999997E+02  0.45594000000E+02  0.51100000000E-03 0.  1.
    9900012    2    1    2    0    0  0.47191061578E+01 -0.59526102954E+01 -0.17115966967E+02  0.72462085938E+02  0.70000671718E+02 0.  0.
         12    1    1    2    0    0 -0.47191061578E+01  0.59526102954E+01  0.17115966967E+02  0.18725914062E+02  0.00000000000E+00 0. -1.
         11    1    3    3    0    0 -0.79790168159E+01  0.10757284855E+02 -0.30696968064E+02  0.33491606939E+02  0.51100000000E-03 0. -1.
        -11    1    3    3    0    0  0.14001846088E+02 -0.13839477049E+02 -0.48467851349E+01  0.20274963508E+02  0.51100000000E-03 0.  1.
         12    1    3    3    0    0 -0.13037231140E+01 -0.28704181017E+01  0.18427786232E+02  0.18695515491E+02  0.00000000000E+00 0. -1.
</event>
<event>
 7    1  0.1339094E-013  0.7246158E+02  0.7816164E-02  0.1226708E+00
        -11   -1    0    0    0    0  0.00000000000E+00  0.00000000000E+00  0.45593999997E+02  0.45594000000E+02  0.51100000000E-03 0. -1.
         11   -1    0    0    0    0 -0.00000000000E+00 -0.00000000000E+00 -0.45593999997E+02  0.45594000000E+02  0.51100000000E-03 0.  1.
    9900012    2    1    2    0    0  0.34883686928E+00  0.14451685727E+02 -0.11904033786E+02  0.72461576746E+02  0.70000008405E+02 0.  0.
         12    1    1    2    0    0 -0.34883686928E+00 -0.14451685727E+02  0.11904033786E+02  0.18726423254E+02  0.00000000000E+00 0. -1.
         11    1    3    3    0    0  0.17405483451E+02  0.70718242145E+01  0.24421109518E+02  0.30811558581E+02  0.51100000000E-03 0. -1.
        -11    1    3    3    0    0 -0.89991583458E+01  0.15945035059E+01 -0.10149685866E+02  0.13658089756E+02  0.51100000000E-03 0.  1.
         12    1    3    3    0    0 -0.80574882355E+01  0.57853580065E+01 -0.26175457438E+02  0.27991928408E+02  0.00000000000E+00 0. -1.
</event>
<event>
 7    1  0.1339094E-013  0.7246158E+02  0.7816164E-02  0.1226708E+00
        -11   -1    0    0    0    0  0.00000000000E+00  0.00000000000E+00  0.45593999997E+02  0.45594000000E+02  0.51100000000E-03 0.  1.
         11   -1    0    0    0    0 -0.00000000000E+00 -0.00000000000E+00 -0.45593999997E+02  0.45594000000E+02  0.51100000000E-03 0. -1.
    9900012    2    1    2    0    0  0.26307131967E+01  0.18474242696E+02  0.15685453425E+01  0.72461584710E+02  0.70000018779E+02 0.  0.
         12    1    1    2    0    0 -0.26307131967E+01 -0.18474242696E+02 -0.15685453425E+01  0.18726415290E+02  0.00000000000E+00 0. -1.
         11    1    3    3    0    0 -0.81103444720E+01  0.31772435209E+02  0.12263249603E+02  0.35009321868E+02  0.51100000000E-03 0.  1.
        -11    1    3    3    0    0  0.17255008124E+02  0.83817854461E+00  0.19679522725E+01  0.17387083857E+02  0.51100000000E-03 0. -1.
         12    1    3    3    0    0 -0.65139504557E+01 -0.14136371057E+02 -0.12662656533E+02  0.20065178985E+02  0.00000000000E+00 0. -1.
</event>
<event>
 7    1  0.1339094E-013  0.7246184E+02  0.7816164E-02  0.1226707E+00
        -11   -1    0    0    0    0  0.00000000000E+00  0.00000000000E+00  0.45593999997E+02  0.45594000000E+02  0.51100000000E-03 0. -1.
         11   -1    0    0    0    0 -0.00000000000E+00 -0.00000000000E+00 -0.45593999997E+02  0.45594000000E+02  0.51100000000E-03 0.  1.
    9900012    2    1    2    0    0  0.13982683436E+02  0.10777856996E+02  0.62442989492E+01  0.72461844312E+02  0.70000356958E+02 0.  0.
         12    1    1    2    0    0 -0.13982683436E+02 -0.10777856996E+02 -0.62442989492E+01  0.18726155688E+02  0.00000000000E+00 0. -1.
         11    1    3    3    0    0 -0.40724727954E+01  0.30459622493E+02 -0.12286254028E+02  0.33095704788E+02  0.51100000000E-03 0. -1.
        -11    1    3    3    0    0  0.39205352061E+01 -0.47074286947E+01 -0.51367729108E+01  0.79948056522E+01  0.51100000000E-03 0.  1.
         12    1    3    3    0    0  0.14134621025E+02 -0.14974336803E+02  0.23667325888E+02  0.31371333872E+02  0.00000000000E+00 0. -1.
</event>
<event>
 7    1  0.1339094E-013  0.7246160E+02  0.7816164E-02  0.1226708E+00
        -11   -1    0    0    0    0  0.00000000000E+00  0.00000000000E+00  0.45593999997E+02  0.45594000000E+02  0.51100000000E-03 0.  1.
         11   -1    0    0    0    0 -0.00000000000E+00 -0.00000000000E+00 -0.45593999997E+02  0.45594000000E+02  0.51100000000E-03 0. -1.
    9900012    2    1    2    0    0 -0.23090007723E+01 -0.17909169919E+02 -0.49606498292E+01  0.72461604232E+02  0.70000044209E+02 0.  0.
         12    1    1    2    0    0  0.23090007723E+01  0.17909169919E+02  0.49606498292E+01  0.18726395768E+02  0.00000000000E+00 0. -1.
         11    1    3    3    0    0  0.11842084979E+02  0.12117907910E+02  0.61087338180E+01  0.18010977149E+02  0.51100000000E-03 0. -1.
        -11    1    3    3    0    0 -0.14627526245E+02 -0.96748199603E+00 -0.19307509021E+02  0.24242121407E+02  0.51100000000E-03 0.  1.
         12    1    3    3    0    0  0.47644049382E+00 -0.29059595832E+02  0.82381253734E+01  0.30208505676E+02  0.00000000000E+00 0. -1.
</event>
<event>
 7    1  0.1339094E-013  0.7246159E+02  0.7816164E-02  0.1226708E+00
        -11   -1    0    0    0    0  0.00000000000E+00  0.00000000000E+00  0.45593999997E+02  0.45594000000E+02  0.51100000000E-03 0.  1.
         11   -1    0    0    0    0 -0.00000000000E+00 -0.00000000000E+00 -0.45593999997E+02  0.45594000000E+02  0.51100000000E-03 0. -1.
    9900012    2    1    2    0    0 -0.16582010089E+01 -0.18078097212E+02  0.45946817099E+01  0.72461592726E+02  0.70000029221E+02 0.  0.
         12    1    1    2    0    0  0.16582010089E+01  0.18078097212E+02 -0.45946817099E+01  0.18726407274E+02  0.00000000000E+00 0. -1.
         11    1    3    3    0    0 -0.92355459882E+01  0.17487945784E+02 -0.98771971909E+01  0.22106166155E+02  0.51100000000E-03 0. -1.
        -11    1    3    3    0    0  0.19394290913E+02 -0.27544377360E+02  0.12527845878E+02  0.35941315596E+02  0.51100000000E-03 0.  1.
         12    1    3    3    0    0 -0.11816945934E+02 -0.80216656361E+01  0.19440330232E+01  0.14414110974E+02  0.00000000000E+00 0. -1.
</event>
<event>
 7    1  0.1339094E-013  0.7246158E+02  0.7816164E-02  0.1226708E+00
        -11   -1    0    0    0    0  0.00000000000E+00  0.00000000000E+00  0.45593999997E+02  0.45594000000E+02  0.51100000000E-03 0.  1.
         11   -1    0    0    0    0 -0.00000000000E+00 -0.00000000000E+00 -0.45593999997E+02  0.45594000000E+02  0.51100000000E-03 0. -1.
    9900012    2    1    2    0    0  0.13803962698E+02  0.47417275630E+01  0.11732237861E+02  0.72461580917E+02  0.70000013838E+02 0.  0.
         12    1    1    2    0    0 -0.13803962698E+02 -0.47417275630E+01 -0.11732237861E+02  0.18726419083E+02  0.00000000000E+00 0. -1.
         11    1    3    3    0    0 -0.11417524464E+02  0.16525207096E+02  0.28769912818E+02  0.35087750260E+02  0.51100000000E-03 0.  1.
        -11    1    3    3    0    0  0.19276328742E+02 -0.15630781724E+02 -0.83910431140E+01  0.26197476823E+02  0.51100000000E-03 0. -1.
        -12    1    3    3    0    0  0.59451584197E+01  0.38473021917E+01 -0.86466318437E+01  0.11176353834E+02  0.00000000000E+00 0.  1.
</event>
<event>
 7    1  0.1339094E-013  0.7246159E+02  0.7816164E-02  0.1226708E+00
        -11   -1    0    0    0    0  0.00000000000E+00  0.00000000000E+00  0.45593999997E+02  0.45594000000E+02  0.51100000000E-03 0.  1.
         11   -1    0    0    0    0 -0.00000000000E+00 -0.00000000000E+00 -0.45593999997E+02  0.45594000000E+02  0.51100000000E-03 0. -1.
    9900012    2    1    2    0    0  0.16015927743E+02 -0.31246374738E-01  0.97039910612E+01  0.72461591900E+02  0.70000028146E+02 0.  0.
         12    1    1    2    0    0 -0.16015927743E+02  0.31246374738E-01 -0.97039910612E+01  0.18726408100E+02  0.00000000000E+00 0. -1.
         11    1    3    3    0    0  0.94213368511E+01 -0.33066484569E+01 -0.38855225613E+01  0.10714140092E+02  0.51100000000E-03 0. -1.
        -11    1    3    3    0    0 -0.49201770336E+01  0.18055945374E+02  0.30973754912E+02  0.36188379337E+02  0.51100000000E-03 0.  1.
        -12    1    3    3    0    0  0.11514767925E+02 -0.14780543292E+02 -0.17384241290E+02  0.25559072471E+02  0.00000000000E+00 0.  1.
</event>
<event>
 7    1  0.1339094E-013  0.7246103E+02  0.7816164E-02  0.1226709E+00
        -11   -1    0    0    0    0  0.00000000000E+00  0.00000000000E+00  0.45593999997E+02  0.45594000000E+02  0.51100000000E-03 0. -1.
         11   -1    0    0    0    0 -0.00000000000E+00 -0.00000000000E+00 -0.45593999997E+02  0.45594000000E+02  0.51100000000E-03 0.  1.
    9900012    2    1    2    0    0  0.85487461878E+00 -0.62885522991E+01 -0.17618819926E+02  0.72461027041E+02  0.69999292308E+02 0.  0.
         12    1    1    2    0    0 -0.85487461878E+00  0.62885522991E+01  0.17618819926E+02  0.18726972959E+02  0.00000000000E+00 0. -1.
         11    1    3    3    0    0  0.35168146463E+01  0.19579978307E+02  0.24005172219E+01  0.20037615102E+02  0.51100000000E-03 0. -1.
        -11    1    3    3    0    0  0.13287296756E+02 -0.28077151344E+02 -0.18725360215E+02  0.36270067523E+02  0.51100000000E-03 0.  1.
         12    1    3    3    0    0 -0.15949236783E+02  0.22086207377E+01 -0.12939769329E+01  0.16153344417E+02  0.00000000000E+00 0. -1.
</event>
<event>
 7    1  0.1339094E-013  0.7246157E+02  0.7816164E-02  0.1226708E+00
        -11   -1    0    0    0    0  0.00000000000E+00  0.00000000000E+00  0.45593999997E+02  0.45594000000E+02  0.51100000000E-03 0.  1.
         11   -1    0    0    0    0 -0.00000000000E+00 -0.00000000000E+00 -0.45593999997E+02  0.45594000000E+02  0.51100000000E-03 0. -1.
    9900012    2    1    2    0    0 -0.12960525827E+02  0.12701271384E+01 -0.13457000007E+02  0.72461566761E+02  0.69999995397E+02 0.  0.
         12    1    1    2    0    0  0.12960525827E+02 -0.12701271384E+01  0.13457000007E+02  0.18726433239E+02  0.00000000000E+00 0. -1.
         11    1    3    3    0    0  0.22247968523E+02 -0.75145092277E+01 -0.17981320698E+01  0.23551501684E+02  0.51100000000E-03 0. -1.
        -11    1    3    3    0    0 -0.31385254610E+02  0.16274856506E+01 -0.20017215195E+02  0.37260861785E+02  0.51100000000E-03 0.  1.
        -12    1    3    3    0    0 -0.38232397401E+01  0.71571507156E+01  0.83583472578E+01  0.11649203293E+02  0.00000000000E+00 0.  1.
</event>
<event>
 7    1  0.1339094E-013  0.7246149E+02  0.7816164E-02  0.1226708E+00
        -11   -1    0    0    0    0  0.00000000000E+00  0.00000000000E+00  0.45593999997E+02  0.45594000000E+02  0.51100000000E-03 0.  1.
         11   -1    0    0    0    0 -0.00000000000E+00 -0.00000000000E+00 -0.45593999997E+02  0.45594000000E+02  0.51100000000E-03 0. -1.
    9900012    2    1    2    0    0  0.98781404072E+00  0.11091861744E+02  0.15055796374E+02  0.72461489968E+02  0.69999895360E+02 0.  0.
         12    1    1    2    0    0 -0.98781404072E+00 -0.11091861744E+02 -0.15055796374E+02  0.18726510032E+02  0.00000000000E+00 0. -1.
         11    1    3    3    0    0 -0.15041749207E+02 -0.45838662976E+01  0.23710032344E+02  0.28450512886E+02  0.51100000000E-03 0. -1.
        -11    1    3    3    0    0 -0.33167548059E+01  0.17533311072E+02  0.68858409480E+01  0.19126752611E+02  0.51100000000E-03 0.  1.
         12    1    3    3    0    0  0.19346318054E+02 -0.18575830311E+01 -0.15540076918E+02  0.24884224472E+02  0.00000000000E+00 0. -1.
</event>
<event>
 7    1  0.1339094E-013  0.7246150E+02  0.7816164E-02  0.1226708E+00
        -11   -1    0    0    0    0  0.00000000000E+00  0.00000000000E+00  0.45593999997E+02  0.45594000000E+02  0.51100000000E-03 0.  1.
         11   -1    0    0    0    0 -0.00000000000E+00 -0.00000000000E+00 -0.45593999997E+02  0.45594000000E+02  0.51100000000E-03 0. -1.
    9900012    2    1    2    0    0  0.14199394593E+02  0.98982577670E+01  0.71472645863E+01  0.72461502605E+02  0.69999911822E+02 0.  0.
         12    1    1    2    0    0 -0.14199394593E+02 -0.98982577670E+01 -0.71472645863E+01  0.18726497395E+02  0.00000000000E+00 0. -1.
         11    1    3    3    0    0  0.12241001113E+02  0.17002770332E+01 -0.24886933953E+02  0.27786553081E+02  0.51100000000E-03 0. -1.
        -11    1    3    3    0    0 -0.40077690088E+01 -0.77988376542E+01  0.24484169098E+02  0.26006895583E+02  0.51100000000E-03 0.  1.
         12    1    3    3    0    0  0.59661624885E+01  0.15996818388E+02  0.75500294417E+01  0.18668053941E+02  0.00000000000E+00 0. -1.
</event>
<event>
 7    1  0.1502158E-013  0.7246136E+02  0.7816164E-02  0.1226709E+00
        -11   -1    0    0    0    0  0.00000000000E+00  0.00000000000E+00  0.45593999997E+02  0.45594000000E+02  0.51100000000E-03 0. -1.
         11   -1    0    0    0    0 -0.00000000000E+00 -0.00000000000E+00 -0.45593999997E+02  0.45594000000E+02  0.51100000000E-03 0.  1.
    9900012    2    1    2    0    0  0.30287391736E+01 -0.13236504787E+02 -0.12896078390E+02  0.72461357007E+02  0.69999722153E+02 0.  0.
         12    1    1    2    0    0 -0.30287391736E+01  0.13236504787E+02  0.12896078390E+02  0.18726642993E+02  0.00000000000E+00 0. -1.
         11    1    3    3    0    0  0.43581092523E+01  0.19228701380E+02  0.89991073919E+01  0.21673024873E+02  0.51100000000E-03 0. -1.
        -11    1    3    3    0    0  0.11187289656E+02 -0.17630264382E+02 -0.23349828212E+02  0.31324050660E+02  0.51100000000E-03 0.  1.
         12    1    3    3    0    0 -0.12516659734E+02 -0.14834941786E+02  0.14546424297E+01  0.19464281474E+02  0.00000000000E+00 0. -1.
</event>
<event>
 7    1  0.1339094E-013  0.7246152E+02  0.7816164E-02  0.1226708E+00
        -11   -1    0    0    0    0  0.00000000000E+00  0.00000000000E+00  0.45593999997E+02  0.45594000000E+02  0.51100000000E-03 0.  1.
         11   -1    0    0    0    0 -0.00000000000E+00 -0.00000000000E+00 -0.45593999997E+02  0.45594000000E+02  0.51100000000E-03 0. -1.
    9900012    2    1    2    0    0  0.25579019146E+01  0.13016196898E+02  0.13218050961E+02  0.72461518347E+02  0.69999932329E+02 0.  0.
         12    1    1    2    0    0 -0.25579019146E+01 -0.13016196898E+02 -0.13218050961E+02  0.18726481653E+02  0.00000000000E+00 0. -1.
         11    1    3    3    0    0 -0.15274866833E+02 -0.19574694137E+02  0.35512594529E+01  0.25081898877E+02  0.51100000000E-03 0. -1.
        -11    1    3    3    0    0  0.24734316332E+02  0.19218544202E+02  0.60336366413E+01  0.31898959498E+02  0.51100000000E-03 0.  1.
        -12    1    3    3    0    0 -0.69015475848E+01  0.13372346833E+02  0.36331548667E+01  0.15480659972E+02  0.00000000000E+00 0.  1.
</event>
<event>
 7    1  0.1339094E-013  0.7246153E+02  0.7816164E-02  0.1226708E+00
        -11   -1    0    0    0    0  0.00000000000E+00  0.00000000000E+00  0.45593999997E+02  0.45594000000E+02  0.51100000000E-03 0.  1.
         11   -1    0    0    0    0 -0.00000000000E+00 -0.00000000000E+00 -0.45593999997E+02  0.45594000000E+02  0.51100000000E-03 0. -1.
    9900012    2    1    2    0    0  0.18197644654E+02 -0.42171404860E+01  0.13198666978E+01  0.72461532289E+02  0.69999950492E+02 0.  0.
         12    1    1    2    0    0 -0.18197644654E+02  0.42171404860E+01 -0.13198666978E+01  0.18726467711E+02  0.00000000000E+00 0. -1.
         11    1    3    3    0    0 -0.16463282798E+02  0.55077101076E+01 -0.11347054502E+02  0.20739580450E+02  0.51100000000E-03 0. -1.
        -11    1    3    3    0    0  0.23437148478E+02 -0.13226936770E+02  0.23504865257E+02  0.35731365439E+02  0.51100000000E-03 0.  1.
        -12    1    3    3    0    0  0.11223778974E+02  0.35020861760E+01 -0.10837944058E+02  0.15990586401E+02  0.00000000000E+00 0.  1.
</event>
<event>
 7    1  0.1339094E-013  0.7246158E+02  0.7816164E-02  0.1226708E+00
        -11   -1    0    0    0    0  0.00000000000E+00  0.00000000000E+00  0.45593999997E+02  0.45594000000E+02  0.51100000000E-03 0.  1.
         11   -1    0    0    0    0 -0.00000000000E+00 -0.00000000000E+00 -0.45593999997E+02  0.45594000000E+02  0.51100000000E-03 0. -1.
    9900012    2    1    2    0    0  0.16134646753E+02  0.29383407904E+01 -0.90398021533E+01  0.72461582953E+02  0.70000016490E+02 0.  0.
         12    1    1    2    0    0 -0.16134646753E+02 -0.29383407904E+01  0.90398021533E+01  0.18726417047E+02  0.00000000000E+00 0. -1.
         11    1    3    3    0    0  0.12822544478E+02 -0.13239423961E+02  0.15383795253E+02  0.24007522787E+02  0.51100000000E-03 0.  1.
        -11    1    3    3    0    0  0.20545586564E+02  0.11312869526E+02 -0.10158555119E+02  0.25559702395E+02  0.51100000000E-03 0. -1.
         12    1    3    3    0    0 -0.17233484289E+02  0.48648952258E+01 -0.14265042287E+02  0.22894357771E+02  0.00000000000E+00 0. -1.
</event>
<event>
 7    1  0.1339094E-013  0.7246145E+02  0.7816164E-02  0.1226708E+00
        -11   -1    0    0    0    0  0.00000000000E+00  0.00000000000E+00  0.45593999997E+02  0.45594000000E+02  0.51100000000E-03 0. -1.
         11   -1    0    0    0    0 -0.00000000000E+00 -0.00000000000E+00 -0.45593999997E+02  0.45594000000E+02  0.51100000000E-03 0.  1.
    9900012    2    1    2    0    0 -0.14707595601E+02  0.65669734878E+01 -0.95522260999E+01  0.72461453799E+02  0.69999848243E+02 0.  0.
         12    1    1    2    0    0  0.14707595601E+02 -0.65669734878E+01  0.95522260999E+01  0.18726546201E+02  0.00000000000E+00 0. -1.
         11    1    3    3    0    0 -0.46188131858E+01  0.24420289994E+02  0.46328235974E+01  0.25281357823E+02  0.51100000000E-03 0. -1.
        -11    1    3    3    0    0 -0.43325951317E+01 -0.25804827660E+02 -0.22349959096E+02  0.34411933729E+02  0.51100000000E-03 0.  1.
        -12    1    3    3    0    0 -0.57561872835E+01  0.79515111537E+01  0.81649093983E+01  0.12768162247E+02  0.00000000000E+00 0.  1.
</event>
<event>
 7    1  0.1339094E-013  0.7246151E+02  0.7816164E-02  0.1226708E+00
        -11   -1    0    0    0    0  0.00000000000E+00  0.00000000000E+00  0.45593999997E+02  0.45594000000E+02  0.51100000000E-03 0.  1.
         11   -1    0    0    0    0 -0.00000000000E+00 -0.00000000000E+00 -0.45593999997E+02  0.45594000000E+02  0.51100000000E-03 0. -1.
    9900012    2    1    2    0    0 -0.92529308607E+01 -0.15748828552E+02 -0.41278480492E+01  0.72461509144E+02  0.69999920340E+02 0.  0.
         12    1    1    2    0    0  0.92529308607E+01  0.15748828552E+02  0.41278480492E+01  0.18726490856E+02  0.00000000000E+00 0. -1.
         11    1    3    3    0    0 -0.21235788992E+02 -0.27676602005E+02  0.20557439018E+02  0.40491497032E+02  0.51100000000E-03 0. -1.
        -11    1    3    3    0    0  0.21955006567E+01  0.89426478390E+01 -0.16381493569E+02  0.18792139456E+02  0.51100000000E-03 0.  1.
        -12    1    3    3    0    0  0.97873574747E+01  0.29851256137E+01 -0.83037934982E+01  0.13177872656E+02  0.00000000000E+00 0.  1.
</event>
<event>
 7    1  0.1339094E-013  0.7246156E+02  0.7816164E-02  0.1226708E+00
        -11   -1    0    0    0    0  0.00000000000E+00  0.00000000000E+00  0.45593999997E+02  0.45594000000E+02  0.51100000000E-03 0.  1.
         11   -1    0    0    0    0 -0.00000000000E+00 -0.00000000000E+00 -0.45593999997E+02  0.45594000000E+02  0.51100000000E-03 0. -1.
    9900012    2    1    2    0    0 -0.34249701437E+01 -0.50690933971E+01  0.17698962359E+02  0.72461564222E+02  0.69999992090E+02 0.  0.
         12    1    1    2    0    0  0.34249701437E+01  0.50690933971E+01 -0.17698962359E+02  0.18726435778E+02  0.00000000000E+00 0. -1.
         11    1    3    3    0    0 -0.22308970347E+01  0.10117598041E+02 -0.22902466882E+02  0.25136938581E+02  0.51100000000E-03 0. -1.
        -11    1    3    3    0    0 -0.21756453939E+01 -0.93017050048E+01  0.41962215489E+01  0.10433763675E+02  0.51100000000E-03 0.  1.
         12    1    3    3    0    0  0.98157228487E+00 -0.58849864332E+01  0.36405207692E+02  0.36890861966E+02  0.00000000000E+00 0. -1.
</event>
<event>
 7    1  0.1339094E-013  0.7246153E+02  0.7816164E-02  0.1226708E+00
        -11   -1    0    0    0    0  0.00000000000E+00  0.00000000000E+00  0.45593999997E+02  0.45594000000E+02  0.51100000000E-03 0. -1.
         11   -1    0    0    0    0 -0.00000000000E+00 -0.00000000000E+00 -0.45593999997E+02  0.45594000000E+02  0.51100000000E-03 0.  1.
    9900012    2    1    2    0    0 -0.17339850504E+02  0.70713832240E+01 -0.75813610052E-01  0.72461531462E+02  0.69999949413E+02 0.  0.
         12    1    1    2    0    0  0.17339850504E+02 -0.70713832240E+01  0.75813610052E-01  0.18726468538E+02  0.00000000000E+00 0. -1.
         11    1    3    3    0    0 -0.23991361117E+02  0.11247945659E+02 -0.43438829328E+01  0.26850903318E+02  0.51100000000E-03 0. -1.
        -11    1    3    3    0    0  0.18841072428E+02  0.14002493376E+02  0.11565756040E+01  0.23503052958E+02  0.51100000000E-03 0.  1.
        -12    1    3    3    0    0 -0.12189561815E+02 -0.18179055811E+02  0.31114937187E+01  0.22107575186E+02  0.00000000000E+00 0.  1.
</event>
<event>
 7    1  0.1339094E-013  0.7246150E+02  0.7816164E-02  0.1226708E+00
        -11   -1    0    0    0    0  0.00000000000E+00  0.00000000000E+00  0.45593999997E+02  0.45594000000E+02  0.51100000000E-03 0. -1.
         11   -1    0    0    0    0 -0.00000000000E+00 -0.00000000000E+00 -0.45593999997E+02  0.45594000000E+02  0.51100000000E-03 0.  1.
    9900012    2    1    2    0    0 -0.10520167196E+02  0.10907753393E+02 -0.11001301391E+02  0.72461504487E+02  0.69999914274E+02 0.  0.
         12    1    1    2    0    0  0.10520167196E+02 -0.10907753393E+02  0.11001301391E+02  0.18726495513E+02  0.00000000000E+00 0. -1.
         11    1    3    3    0    0  0.90920647138E+01 -0.95477242813E+01  0.29191446157E+01  0.13503558244E+02  0.51100000000E-03 0. -1.
        -11    1    3    3    0    0 -0.26567569694E+02  0.16687041242E+02 -0.28490276799E+02  0.42379110151E+02  0.51100000000E-03 0.  1.
        -12    1    3    3    0    0  0.69553377842E+01  0.37684364325E+01  0.14569830792E+02  0.16578836092E+02  0.00000000000E+00 0.  1.
</event>
<event>
 7    1  0.1339094E-013  0.7246161E+02  0.7816164E-02  0.1226708E+00
        -11   -1    0    0    0    0  0.00000000000E+00  0.00000000000E+00  0.45593999997E+02  0.45594000000E+02  0.51100000000E-03 0.  1.
         11   -1    0    0    0    0 -0.00000000000E+00 -0.00000000000E+00 -0.45593999997E+02  0.45594000000E+02  0.51100000000E-03 0. -1.
    9900012    2    1    2    0    0 -0.80907161051E+00  0.41683100517E+00  0.18704256236E+02  0.72461613634E+02  0.70000056458E+02 0.  0.
         12    1    1    2    0    0  0.80907161051E+00 -0.41683100517E+00 -0.18704256236E+02  0.18726386366E+02  0.00000000000E+00 0. -1.
         11    1    3    3    0    0  0.21051262743E+02  0.75878911646E+00 -0.58699846132E+01  0.21867513431E+02  0.51100000000E-03 0. -1.
        -11    1    3    3    0    0 -0.23691937048E+02  0.15460701996E+02  0.14885142756E+02  0.31967306149E+02  0.51100000000E-03 0.  1.
        -12    1    3    3    0    0  0.18316026938E+01 -0.15802660107E+02  0.96890980941E+01  0.18626794055E+02  0.00000000000E+00 0.  1.
</event>
<event>
 7    1  0.1339094E-013  0.7246152E+02  0.7816164E-02  0.1226708E+00
        -11   -1    0    0    0    0  0.00000000000E+00  0.00000000000E+00  0.45593999997E+02  0.45594000000E+02  0.51100000000E-03 0.  1.
         11   -1    0    0    0    0 -0.00000000000E+00 -0.00000000000E+00 -0.45593999997E+02  0.45594000000E+02  0.51100000000E-03 0. -1.
    9900012    2    1    2    0    0  0.13593601713E+02 -0.10953378761E+02  0.67763156075E+01  0.72461522301E+02  0.69999937479E+02 0.  0.
         12    1    1    2    0    0 -0.13593601713E+02  0.10953378761E+02 -0.67763156075E+01  0.18726477699E+02  0.00000000000E+00 0. -1.
         11    1    3    3    0    0  0.58323513885E+00 -0.18699629511E+02 -0.18979593480E+02  0.26650352268E+02  0.51100000000E-03 0. -1.
        -11    1    3    3    0    0  0.18431726092E+02  0.18064538459E+02  0.20795398176E+02  0.33143697169E+02  0.51100000000E-03 0.  1.
        -12    1    3    3    0    0 -0.54213595181E+01 -0.10318287709E+02  0.49605109111E+01  0.12667472864E+02  0.00000000000E+00 0.  1.
</event>
<event>
 7    1  0.1339094E-013  0.7246154E+02  0.7816164E-02  0.1226708E+00
        -11   -1    0    0    0    0  0.00000000000E+00  0.00000000000E+00  0.45593999997E+02  0.45594000000E+02  0.51100000000E-03 0.  1.
         11   -1    0    0    0    0 -0.00000000000E+00 -0.00000000000E+00 -0.45593999997E+02  0.45594000000E+02  0.51100000000E-03 0. -1.
    9900012    2    1    2    0    0 -0.12860995469E+02 -0.19219743895E+01 -0.13475201428E+02  0.72461541618E+02  0.69999962644E+02 0.  0.
         12    1    1    2    0    0  0.12860995469E+02  0.19219743895E+01  0.13475201428E+02  0.18726458382E+02  0.00000000000E+00 0. -1.
         11    1    3    3    0    0 -0.11643282849E+02 -0.17049013245E+02 -0.28397426625E+02  0.35109097500E+02  0.51100000000E-03 0. -1.
        -11    1    3    3    0    0  0.14237531759E+02  0.10841566991E+02  0.53647493093E+01  0.18682275579E+02  0.51100000000E-03 0.  1.
         12    1    3    3    0    0 -0.15455244379E+02  0.42854718648E+01  0.95574758873E+01  0.18670168538E+02  0.00000000000E+00 0. -1.
</event>
<event>
 7    1  0.1339094E-013  0.7246103E+02  0.7816164E-02  0.1226709E+00
        -11   -1    0    0    0    0  0.00000000000E+00  0.00000000000E+00  0.45593999997E+02  0.45594000000E+02  0.51100000000E-03 0. -1.
         11   -1    0    0    0    0 -0.00000000000E+00 -0.00000000000E+00 -0.45593999997E+02  0.45594000000E+02  0.51100000000E-03 0.  1.
    9900012    2    1    2    0    0  0.11717708677E+02 -0.14562729691E+02  0.11496728179E+01  0.72461026399E+02  0.69999291471E+02 0.  0.
         12    1    1    2    0    0 -0.11717708677E+02  0.14562729691E+02 -0.11496728179E+01  0.18726973601E+02  0.00000000000E+00 0. -1.
         11    1    3    3    0    0  0.18817208309E+02  0.17671807591E+02  0.12595300744E+01  0.25845048430E+02  0.51100000000E-03 0. -1.
        -11    1    3    3    0    0  0.23522566444E+01 -0.31465711374E+02 -0.98172013546E+01  0.33045446680E+02  0.51100000000E-03 0.  1.
         12    1    3    3    0    0 -0.94517562772E+01 -0.76882590809E+00  0.97073440981E+01  0.13570531288E+02  0.00000000000E+00 0. -1.
</event>
<event>
 7    1  0.1339094E-013  0.7246170E+02  0.7816164E-02  0.1226708E+00
        -11   -1    0    0    0    0  0.00000000000E+00  0.00000000000E+00  0.45593999997E+02  0.45594000000E+02  0.51100000000E-03 0.  1.
         11   -1    0    0    0    0 -0.00000000000E+00 -0.00000000000E+00 -0.45593999997E+02  0.45594000000E+02  0.51100000000E-03 0. -1.
    9900012    2    1    2    0    0  0.80641773378E+01 -0.11709018126E+02  0.12187785167E+02  0.72461703813E+02  0.70000173933E+02 0.  0.
         12    1    1    2    0    0 -0.80641773378E+01  0.11709018126E+02 -0.12187785167E+02  0.18726296187E+02  0.00000000000E+00 0. -1.
         11    1    3    3    0    0  0.94224528939E+01 -0.83548257288E+01 -0.16449569229E+02  0.20716516589E+02  0.51100000000E-03 0. -1.
        -11    1    3    3    0    0  0.16222834266E+02  0.57263297228E+01  0.26834302214E+02  0.31875554572E+02  0.51100000000E-03 0.  1.
         12    1    3    3    0    0 -0.17581109822E+02 -0.90805221198E+01  0.18030521822E+01  0.19869632652E+02  0.00000000000E+00 0. -1.
</event>
<event>
 7    1  0.1339094E-013  0.7246156E+02  0.7816164E-02  0.1226708E+00
        -11   -1    0    0    0    0  0.00000000000E+00  0.00000000000E+00  0.45593999997E+02  0.45594000000E+02  0.51100000000E-03 0. -1.
         11   -1    0    0    0    0 -0.00000000000E+00 -0.00000000000E+00 -0.45593999997E+02  0.45594000000E+02  0.51100000000E-03 0.  1.
    9900012    2    1    2    0    0  0.12039753027E+02  0.80835734218E+01 -0.11848195154E+02  0.72461560386E+02  0.69999987093E+02 0.  0.
         12    1    1    2    0    0 -0.12039753027E+02 -0.80835734218E+01  0.11848195154E+02  0.18726439614E+02  0.00000000000E+00 0. -1.
         11    1    3    3    0    0 -0.35161488987E+01 -0.13558453772E+02 -0.39545561780E+01  0.14554500561E+02  0.51100000000E-03 0. -1.
        -11    1    3    3    0    0 -0.60668911673E+01  0.25683438825E+02  0.11305285116E+02  0.28709853189E+02  0.51100000000E-03 0.  1.
        -12    1    3    3    0    0  0.21622793092E+02 -0.40414116309E+01 -0.19198924092E+02  0.29197206636E+02  0.00000000000E+00 0.  1.
</event>
<event>
 7    1  0.1339094E-013  0.7246137E+02  0.7816164E-02  0.1226709E+00
        -11   -1    0    0    0    0  0.00000000000E+00  0.00000000000E+00  0.45593999997E+02  0.45594000000E+02  0.51100000000E-03 0. -1.
         11   -1    0    0    0    0 -0.00000000000E+00 -0.00000000000E+00 -0.45593999997E+02  0.45594000000E+02  0.51100000000E-03 0.  1.
    9900012    2    1    2    0    0  0.75724013398E+01 -0.19028967051E+01 -0.17021296060E+02  0.72461366627E+02  0.69999734685E+02 0.  0.
         12    1    1    2    0    0 -0.75724013398E+01  0.19028967051E+01  0.17021296060E+02  0.18726633373E+02  0.00000000000E+00 0. -1.
         11    1    3    3    0    0 -0.17659539661E+02 -0.47489337323E+01 -0.29366118274E+02  0.34594517128E+02  0.51100000000E-03 0. -1.
        -11    1    3    3    0    0  0.25692160375E+02 -0.60260723165E+01  0.11963654486E+02  0.28974638586E+02  0.51100000000E-03 0.  1.
         12    1    3    3    0    0 -0.46021937442E+00  0.88721093437E+01  0.38116772820E+00  0.88922109127E+01  0.00000000000E+00 0. -1.
</event>
<event>
 7    1  0.1339094E-013  0.7246155E+02  0.7816164E-02  0.1226708E+00
        -11   -1    0    0    0    0  0.00000000000E+00  0.00000000000E+00  0.45593999997E+02  0.45594000000E+02  0.51100000000E-03 0. -1.
         11   -1    0    0    0    0 -0.00000000000E+00 -0.00000000000E+00 -0.45593999997E+02  0.45594000000E+02  0.51100000000E-03 0.  1.
    9900012    2    1    2    0    0 -0.16676590974E+02  0.49145548929E+01 -0.69583244259E+01  0.72461553057E+02  0.69999977545E+02 0.  0.
         12    1    1    2    0    0  0.16676590974E+02 -0.49145548929E+01  0.69583244259E+01  0.18726446943E+02  0.00000000000E+00 0. -1.
         11    1    3    3    0    0  0.18836203894E+02  0.20908636338E+02 -0.12581088726E+02  0.30826246033E+02  0.51100000000E-03 0.  1.
        -11    1    3    3    0    0 -0.30435532522E+02 -0.15405326191E+02  0.10290919555E+00  0.34112406914E+02  0.51100000000E-03 0. -1.
         12    1    3    3    0    0 -0.50772623465E+01 -0.58875525446E+00  0.55198551049E+01  0.75229001099E+01  0.00000000000E+00 0. -1.
</event>
<event>
 7    1  0.1339094E-013  0.7246156E+02  0.7816164E-02  0.1226708E+00
        -11   -1    0    0    0    0  0.00000000000E+00  0.00000000000E+00  0.45593999997E+02  0.45594000000E+02  0.51100000000E-03 0. -1.
         11   -1    0    0    0    0 -0.00000000000E+00 -0.00000000000E+00 -0.45593999997E+02  0.45594000000E+02  0.51100000000E-03 0.  1.
    9900012    2    1    2    0    0 -0.10439744904E+02  0.17838786261E+01 -0.15443736657E+02  0.72461561509E+02  0.69999988556E+02 0.  0.
         12    1    1    2    0    0  0.10439744904E+02 -0.17838786261E+01  0.15443736657E+02  0.18726438491E+02  0.00000000000E+00 0. -1.
         11    1    3    3    0    0 -0.18650650955E+02  0.87282213369E+01  0.20299983359E+02  0.28915704269E+02  0.51100000000E-03 0. -1.
        -11    1    3    3    0    0 -0.13282330334E+01  0.10160543869E+01 -0.29668811437E+02  0.29715903854E+02  0.51100000000E-03 0.  1.
         12    1    3    3    0    0  0.95391390840E+01 -0.79603970977E+01 -0.60749085787E+01  0.13829953386E+02  0.00000000000E+00 0. -1.
</event>
<event>
 7    1  0.1339094E-013  0.7246157E+02  0.7816164E-02  0.1226708E+00
        -11   -1    0    0    0    0  0.00000000000E+00  0.00000000000E+00  0.45593999997E+02  0.45594000000E+02  0.51100000000E-03 0.  1.
         11   -1    0    0    0    0 -0.00000000000E+00 -0.00000000000E+00 -0.45593999997E+02  0.45594000000E+02  0.51100000000E-03 0. -1.
    9900012    2    1    2    0    0  0.16845843155E+02  0.22200344791E+01  0.78719841862E+01  0.72461571624E+02  0.70000001732E+02 0.  0.
         12    1    1    2    0    0 -0.16845843155E+02 -0.22200344791E+01 -0.78719841862E+01  0.18726428376E+02  0.00000000000E+00 0. -1.
         11    1    3    3    0    0  0.33860691822E+02 -0.19232635165E+02  0.17194812212E+02  0.42568794595E+02  0.51100000000E-03 0. -1.
        -11    1    3    3    0    0 -0.10280798947E+02  0.78530782427E+01 -0.21764871642E+01  0.13118794210E+02  0.51100000000E-03 0.  1.
         12    1    3    3    0    0 -0.67340497193E+01  0.13599591401E+02 -0.71463408613E+01  0.16773982819E+02  0.00000000000E+00 0. -1.
</event>
<event>
 7    1  0.1339094E-013  0.7246165E+02  0.7816164E-02  0.1226708E+00
        -11   -1    0    0    0    0  0.00000000000E+00  0.00000000000E+00  0.45593999997E+02  0.45594000000E+02  0.51100000000E-03 0.  1.
         11   -1    0    0    0    0 -0.00000000000E+00 -0.00000000000E+00 -0.45593999997E+02  0.45594000000E+02  0.51100000000E-03 0. -1.
    9900012    2    1    2    0    0 -0.66386875165E+00  0.18525594927E+02 -0.26528861804E+01  0.72461649736E+02  0.70000103487E+02 0.  0.
         12    1    1    2    0    0  0.66386875165E+00 -0.18525594927E+02  0.26528861804E+01  0.18726350264E+02  0.00000000000E+00 0. -1.
         11    1    3    3    0    0  0.12280042476E+02 -0.23724048863E+02 -0.62778436038E+01  0.27441597225E+02  0.51100000000E-03 0. -1.
        -11    1    3    3    0    0 -0.67970318726E+01  0.11980157716E+02  0.31474228830E+01  0.14129051357E+02  0.51100000000E-03 0.  1.
         12    1    3    3    0    0 -0.61468793551E+01  0.30269486075E+02  0.47753454038E+00  0.30891001153E+02  0.00000000000E+00 0. -1.
</event>
<event>
 7    1  0.1339094E-013  0.7246158E+02  0.7816164E-02  0.1226708E+00
        -11   -1    0    0    0    0  0.00000000000E+00  0.00000000000E+00  0.45593999997E+02  0.45594000000E+02  0.51100000000E-03 0.  1.
         11   -1    0    0    0    0 -0.00000000000E+00 -0.00000000000E+00 -0.45593999997E+02  0.45594000000E+02  0.51100000000E-03 0. -1.
    9900012    2    1    2    0    0  0.16307955839E+02  0.87228415952E+01 -0.29396170769E+01  0.72461581824E+02  0.70000015020E+02 0.  0.
         12    1    1    2    0    0 -0.16307955839E+02 -0.87228415952E+01  0.29396170769E+01  0.18726418176E+02  0.00000000000E+00 0. -1.
         11    1    3    3    0    0 -0.15188130928E+02  0.90069764148E+01 -0.17882040619E+02  0.25131102686E+02  0.51100000000E-03 0. -1.
        -11    1    3    3    0    0  0.15402115592E+02  0.18013813562E+01 -0.93560615204E+01  0.18110936666E+02  0.51100000000E-03 0.  1.
         12    1    3    3    0    0  0.16093971175E+02 -0.20855161758E+01  0.24298485063E+02  0.29219542472E+02  0.00000000000E+00 0. -1.
</event>
<event>
 7    1  0.1339094E-013  0.7246157E+02  0.7816164E-02  0.1226708E+00
        -11   -1    0    0    0    0  0.00000000000E+00  0.00000000000E+00  0.45593999997E+02  0.45594000000E+02  0.51100000000E-03 0.  1.
         11   -1    0    0    0    0 -0.00000000000E+00 -0.00000000000E+00 -0.45593999997E+02  0.45594000000E+02  0.51100000000E-03 0. -1.
    9900012    2    1    2    0    0 -0.16190138326E+02  0.76822078862E+01  0.54352931274E+01  0.72461566586E+02  0.69999995169E+02 0.  0.
         12    1    1    2    0    0  0.16190138326E+02 -0.76822078862E+01 -0.54352931274E+01  0.18726433414E+02  0.00000000000E+00 0. -1.
         11    1    3    3    0    0  0.54844448898E+01 -0.21993078935E+02  0.17991901475E+02  0.28939301577E+02  0.51100000000E-03 0.  1.
        -11    1    3    3    0    0 -0.21313495474E+02  0.27972045600E+02 -0.47052019236E+01  0.35480126124E+02  0.51100000000E-03 0. -1.
        -12    1    3    3    0    0 -0.36108774152E+00  0.17032412218E+01 -0.78514064240E+01  0.80421388854E+01  0.00000000000E+00 0.  1.
</event>
<event>
 7    1  0.1339094E-013  0.7246157E+02  0.7816164E-02  0.1226708E+00
        -11   -1    0    0    0    0  0.00000000000E+00  0.00000000000E+00  0.45593999997E+02  0.45594000000E+02  0.51100000000E-03 0.  1.
         11   -1    0    0    0    0 -0.00000000000E+00 -0.00000000000E+00 -0.45593999997E+02  0.45594000000E+02  0.51100000000E-03 0. -1.
    9900012    2    1    2    0    0  0.10190823640E+02 -0.12898957946E+02  0.89690045803E+01  0.72461573600E+02  0.70000004306E+02 0.  0.
         12    1    1    2    0    0 -0.10190823640E+02  0.12898957946E+02 -0.89690045803E+01  0.18726426400E+02  0.00000000000E+00 0. -1.
         11    1    3    3    0    0 -0.11305161887E+02 -0.30254178747E+02  0.60141465928E+01  0.32852579449E+02  0.51100000000E-03 0. -1.
        -11    1    3    3    0    0  0.22498623898E+02  0.40518143838E+01  0.94913882614E+01  0.24752610539E+02  0.51100000000E-03 0.  1.
        -12    1    3    3    0    0 -0.10026383712E+01  0.13303406417E+02 -0.65365302738E+01  0.14856383612E+02  0.00000000000E+00 0.  1.
</event>
<event>
 7    1  0.1339094E-013  0.7246160E+02  0.7816164E-02  0.1226708E+00
        -11   -1    0    0    0    0  0.00000000000E+00  0.00000000000E+00  0.45593999997E+02  0.45594000000E+02  0.51100000000E-03 0.  1.
         11   -1    0    0    0    0 -0.00000000000E+00 -0.00000000000E+00 -0.45593999997E+02  0.45594000000E+02  0.51100000000E-03 0. -1.
    9900012    2    1    2    0    0 -0.10168022528E+02  0.11481539503E+02  0.10745405103E+02  0.72461597187E+02  0.70000035033E+02 0.  0.
         12    1    1    2    0    0  0.10168022528E+02 -0.11481539503E+02 -0.10745405103E+02  0.18726402813E+02  0.00000000000E+00 0. -1.
         11    1    3    3    0    0  0.10942098806E+02  0.80236254749E+01 -0.13025645679E+02  0.18808921757E+02  0.51100000000E-03 0. -1.
        -11    1    3    3    0    0 -0.21038349393E+02  0.17549373872E+02  0.27764709507E+02  0.39006047772E+02  0.51100000000E-03 0.  1.
        -12    1    3    3    0    0 -0.71771940416E-01 -0.14091459844E+02 -0.39936587252E+01  0.14646627659E+02  0.00000000000E+00 0.  1.
</event>
<event>
 7    1  0.1339094E-013  0.7246148E+02  0.7816164E-02  0.1226708E+00
        -11   -1    0    0    0    0  0.00000000000E+00  0.00000000000E+00  0.45593999997E+02  0.45594000000E+02  0.51100000000E-03 0.  1.
         11   -1    0    0    0    0 -0.00000000000E+00 -0.00000000000E+00 -0.45593999997E+02  0.45594000000E+02  0.51100000000E-03 0. -1.
    9900012    2    1    2    0    0 -0.10905627258E+02  0.13290580412E+02 -0.74236322747E+01  0.72461480042E+02  0.69999882430E+02 0.  0.
         12    1    1    2    0    0  0.10905627258E+02 -0.13290580412E+02  0.74236322747E+01  0.18726519958E+02  0.00000000000E+00 0. -1.
         11    1    3    3    0    0 -0.21669102492E+02  0.25846555873E+02 -0.18001350590E+02  0.38231440944E+02  0.51100000000E-03 0. -1.
        -11    1    3    3    0    0  0.20284827051E+02 -0.85530822592E+01  0.89942810332E+01  0.23780801420E+02  0.51100000000E-03 0.  1.
        -12    1    3    3    0    0 -0.95213518174E+01 -0.40028932022E+01  0.15834372818E+01  0.10449237678E+02  0.00000000000E+00 0.  1.
</event>
<event>
 7    1  0.1339094E-013  0.7246157E+02  0.7816164E-02  0.1226708E+00
        -11   -1    0    0    0    0  0.00000000000E+00  0.00000000000E+00  0.45593999997E+02  0.45594000000E+02  0.51100000000E-03 0.  1.
         11   -1    0    0    0    0 -0.00000000000E+00 -0.00000000000E+00 -0.45593999997E+02  0.45594000000E+02  0.51100000000E-03 0. -1.
    9900012    2    1    2    0    0  0.16202031799E+02 -0.93860771654E+01 -0.27372268052E+00  0.72461569399E+02  0.69999998833E+02 0.  0.
         12    1    1    2    0    0 -0.16202031799E+02  0.93860771654E+01  0.27372268052E+00  0.18726430601E+02  0.00000000000E+00 0. -1.
         11    1    3    3    0    0  0.21776313063E+02 -0.12295936804E+02  0.18864858258E+02  0.31325401033E+02  0.51100000000E-03 0.  1.
        -11    1    3    3    0    0  0.58512812274E+01 -0.11704120526E+02 -0.18390736658E+02  0.22570846781E+02  0.51100000000E-03 0. -1.
         12    1    3    3    0    0 -0.11425562492E+02  0.14613980164E+02 -0.74784428014E+00  0.18565321585E+02  0.00000000000E+00 0. -1.
</event>
<event>
 7    1  0.1339094E-013  0.7246159E+02  0.7816164E-02  0.1226708E+00
        -11   -1    0    0    0    0  0.00000000000E+00  0.00000000000E+00  0.45593999997E+02  0.45594000000E+02  0.51100000000E-03 0. -1.
         11   -1    0    0    0    0 -0.00000000000E+00 -0.00000000000E+00 -0.45593999997E+02  0.45594000000E+02  0.51100000000E-03 0.  1.
    9900012    2    1    2    0    0  0.94122441055E+01 -0.71901190495E+01  0.14504835355E+02  0.72461590848E+02  0.70000026776E+02 0.  0.
         12    1    1    2    0    0 -0.94122441055E+01  0.71901190495E+01 -0.14504835355E+02  0.18726409152E+02  0.00000000000E+00 0. -1.
         11    1    3    3    0    0  0.16188452346E+02  0.25261302416E+02  0.23165438678E+02  0.37905632016E+02  0.51100000000E-03 0. -1.
        -11    1    3    3    0    0 -0.24572994574E+01 -0.43079903377E+01 -0.85691415264E+00  0.50330312436E+01  0.51100000000E-03 0.  1.
         12    1    3    3    0    0 -0.43189087833E+01 -0.28143431128E+02 -0.78036891708E+01  0.29522927589E+02  0.00000000000E+00 0. -1.
</event>
<event>
 7    1  0.1339094E-013  0.7246149E+02  0.7816164E-02  0.1226708E+00
        -11   -1    0    0    0    0  0.00000000000E+00  0.00000000000E+00  0.45593999997E+02  0.45594000000E+02  0.51100000000E-03 0.  1.
         11   -1    0    0    0    0 -0.00000000000E+00 -0.00000000000E+00 -0.45593999997E+02  0.45594000000E+02  0.51100000000E-03 0. -1.
    9900012    2    1    2    0    0  0.71613111656E-01  0.75597557898E+01  0.17132635431E+02  0.72461488503E+02  0.69999893452E+02 0.  0.
         12    1    1    2    0    0 -0.71613111656E-01 -0.75597557898E+01 -0.17132635431E+02  0.18726511497E+02  0.00000000000E+00 0. -1.
         11    1    3    3    0    0 -0.16935565554E+01 -0.73878575312E+01 -0.23274581953E+02  0.24477637509E+02  0.51100000000E-03 0. -1.
        -11    1    3    3    0    0 -0.36604848090E+01  0.18832212218E+02  0.30811718763E+02  0.36296189599E+02  0.51100000000E-03 0.  1.
        -12    1    3    3    0    0  0.54256544761E+01 -0.38845988968E+01  0.95954986211E+01  0.11687661394E+02  0.00000000000E+00 0.  1.
</event>
<event>
 7    1  0.1339094E-013  0.7246161E+02  0.7816164E-02  0.1226708E+00
        -11   -1    0    0    0    0  0.00000000000E+00  0.00000000000E+00  0.45593999997E+02  0.45594000000E+02  0.51100000000E-03 0. -1.
         11   -1    0    0    0    0 -0.00000000000E+00 -0.00000000000E+00 -0.45593999997E+02  0.45594000000E+02  0.51100000000E-03 0.  1.
    9900012    2    1    2    0    0 -0.15973065558E+01 -0.15483389673E+02 -0.10411092398E+02  0.72461612496E+02  0.70000054976E+02 0.  0.
         12    1    1    2    0    0  0.15973065558E+01  0.15483389673E+02  0.10411092398E+02  0.18726387504E+02  0.00000000000E+00 0. -1.
         11    1    3    3    0    0 -0.37897583695E+01  0.11812918790E+02  0.12567873666E+02  0.17659523424E+02  0.51100000000E-03 0. -1.
        -11    1    3    3    0    0  0.20768087680E+02 -0.21975254813E+02 -0.16351632660E+02  0.34374426263E+02  0.51100000000E-03 0.  1.
        -12    1    3    3    0    0 -0.18575635867E+02 -0.53210536499E+01 -0.66273334038E+01  0.20427662809E+02  0.00000000000E+00 0.  1.
</event>
<event>
 7    1  0.1339094E-013  0.7246171E+02  0.7816164E-02  0.1226708E+00
        -11   -1    0    0    0    0  0.00000000000E+00  0.00000000000E+00  0.45593999997E+02  0.45594000000E+02  0.51100000000E-03 0. -1.
         11   -1    0    0    0    0 -0.00000000000E+00 -0.00000000000E+00 -0.45593999997E+02  0.45594000000E+02  0.51100000000E-03 0.  1.
    9900012    2    1    2    0    0  0.15556440162E+02  0.59218371841E+01 -0.85792237846E+01  0.72461706536E+02  0.70000177480E+02 0.  0.
         12    1    1    2    0    0 -0.15556440162E+02 -0.59218371841E+01  0.85792237846E+01  0.18726293464E+02  0.00000000000E+00 0. -1.
         11    1    3    3    0    0 -0.81308239553E+01  0.11811088884E+02  0.78708302369E+01  0.16357325200E+02  0.51100000000E-03 0. -1.
        -11    1    3    3    0    0  0.25076941874E+02 -0.24154680568E+02 -0.14375593089E+02  0.37669075964E+02  0.51100000000E-03 0.  1.
         12    1    3    3    0    0 -0.13896777570E+01  0.18265428868E+02 -0.20744609328E+01  0.18435305372E+02  0.00000000000E+00 0. -1.
</event>
<event>
 7    1  0.1339094E-013  0.7246158E+02  0.7816164E-02  0.1226708E+00
        -11   -1    0    0    0    0  0.00000000000E+00  0.00000000000E+00  0.45593999997E+02  0.45594000000E+02  0.51100000000E-03 0.  1.
         11   -1    0    0    0    0 -0.00000000000E+00 -0.00000000000E+00 -0.45593999997E+02  0.45594000000E+02  0.51100000000E-03 0. -1.
    9900012    2    1    2    0    0 -0.23163772453E+00  0.18173017531E+02  0.45129266073E+01  0.72461582062E+02  0.70000015330E+02 0.  0.
         12    1    1    2    0    0  0.23163772453E+00 -0.18173017531E+02 -0.45129266073E+01  0.18726417938E+02  0.00000000000E+00 0. -1.
         11    1    3    3    0    0  0.67600730304E+01 -0.15008173094E+02  0.14263526656E+02  0.21780542691E+02  0.51100000000E-03 0.  1.
        -11    1    3    3    0    0 -0.18795616209E+02  0.32930272073E+02 -0.69820483278E+01  0.38554208675E+02  0.51100000000E-03 0. -1.
         12    1    3    3    0    0  0.11803905454E+02  0.25091855209E+00 -0.27685517209E+01  0.12126830695E+02  0.00000000000E+00 0. -1.
</event>
<event>
 7    1  0.1339094E-013  0.7246154E+02  0.7816164E-02  0.1226708E+00
        -11   -1    0    0    0    0  0.00000000000E+00  0.00000000000E+00  0.45593999997E+02  0.45594000000E+02  0.51100000000E-03 0.  1.
         11   -1    0    0    0    0 -0.00000000000E+00 -0.00000000000E+00 -0.45593999997E+02  0.45594000000E+02  0.51100000000E-03 0. -1.
    9900012    2    1    2    0    0  0.77342875241E+01  0.61968377748E+01  0.15888997196E+02  0.72461541878E+02  0.69999962982E+02 0.  0.
         12    1    1    2    0    0 -0.77342875241E+01 -0.61968377748E+01 -0.15888997196E+02  0.18726458122E+02  0.00000000000E+00 0. -1.
         11    1    3    3    0    0  0.19540219807E+02 -0.16462415555E+02  0.47303103996E+01  0.25984748464E+02  0.51100000000E-03 0. -1.
        -11    1    3    3    0    0 -0.14790871765E+02  0.76893340189E+01  0.22109923495E+02  0.27690151001E+02  0.51100000000E-03 0.  1.
         12    1    3    3    0    0  0.29849394825E+01  0.14969919311E+02 -0.10951236699E+02  0.18786642412E+02  0.00000000000E+00 0. -1.
</event>
<event>
 7    1  0.1339094E-013  0.7246158E+02  0.7816164E-02  0.1226708E+00
        -11   -1    0    0    0    0  0.00000000000E+00  0.00000000000E+00  0.45593999997E+02  0.45594000000E+02  0.51100000000E-03 0. -1.
         11   -1    0    0    0    0 -0.00000000000E+00 -0.00000000000E+00 -0.45593999997E+02  0.45594000000E+02  0.51100000000E-03 0.  1.
    9900012    2    1    2    0    0 -0.36918771277E+01 -0.19742700722E+01 -0.18252425749E+02  0.72461581635E+02  0.70000014773E+02 0.  0.
         12    1    1    2    0    0  0.36918771277E+01  0.19742700722E+01  0.18252425749E+02  0.18726418365E+02  0.00000000000E+00 0. -1.
         11    1    3    3    0    0  0.90658600101E+00  0.74727952975E+00  0.21620684786E+02  0.21652582658E+02  0.51100000000E-03 0. -1.
        -11    1    3    3    0    0 -0.16101444453E+02  0.42876680264E+01 -0.14527749340E+02  0.22106472168E+02  0.51100000000E-03 0.  1.
         12    1    3    3    0    0  0.11502981324E+02 -0.70092176283E+01 -0.25345361196E+02  0.28702526809E+02  0.00000000000E+00 0. -1.
</event>
<event>
 7    1  0.1339094E-013  0.7246157E+02  0.7816164E-02  0.1226708E+00
        -11   -1    0    0    0    0  0.00000000000E+00  0.00000000000E+00  0.45593999997E+02  0.45594000000E+02  0.51100000000E-03 0.  1.
         11   -1    0    0    0    0 -0.00000000000E+00 -0.00000000000E+00 -0.45593999997E+02  0.45594000000E+02  0.51100000000E-03 0. -1.
    9900012    2    1    2    0    0  0.71648755033E+01 -0.12572562808E+02  0.11885888330E+02  0.72461571672E+02  0.70000001795E+02 0.  0.
         12    1    1    2    0    0 -0.71648755033E+01  0.12572562808E+02 -0.11885888330E+02  0.18726428328E+02  0.00000000000E+00 0. -1.
         11    1    3    3    0    0  0.14998314852E+02 -0.21692663812E+02 -0.13454447094E+02  0.29606473254E+02  0.51100000000E-03 0. -1.
        -11    1    3    3    0    0 -0.12891679879E+02  0.17628909474E+02  0.87321118752E+01  0.23520706567E+02  0.51100000000E-03 0.  1.
        -12    1    3    3    0    0  0.50582405300E+01 -0.85088084694E+01  0.16608223548E+02  0.19334391851E+02  0.00000000000E+00 0.  1.
</event>
<event>
 7    1  0.1339094E-013  0.7246156E+02  0.7816164E-02  0.1226708E+00
        -11   -1    0    0    0    0  0.00000000000E+00  0.00000000000E+00  0.45593999997E+02  0.45594000000E+02  0.51100000000E-03 0.  1.
         11   -1    0    0    0    0 -0.00000000000E+00 -0.00000000000E+00 -0.45593999997E+02  0.45594000000E+02  0.51100000000E-03 0. -1.
    9900012    2    1    2    0    0 -0.21576058066E+01  0.18371752182E+02  0.29159629357E+01  0.72461564650E+02  0.69999992648E+02 0.  0.
         12    1    1    2    0    0  0.21576058066E+01 -0.18371752182E+02 -0.29159629357E+01  0.18726435350E+02  0.00000000000E+00 0. -1.
         11    1    3    3    0    0  0.12446030065E+02 -0.15168543795E+01 -0.44219101881E+01  0.13295029205E+02  0.51100000000E-03 0. -1.
        -11    1    3    3    0    0 -0.16281002130E+02  0.31317027181E+02  0.21160268979E+02  0.41153179772E+02  0.51100000000E-03 0.  1.
        -12    1    3    3    0    0  0.16773662583E+01 -0.11428420620E+02 -0.13822395855E+02  0.18013355673E+02  0.00000000000E+00 0.  1.
</event>
<event>
 7    1  0.1339094E-013  0.7246161E+02  0.7816164E-02  0.1226708E+00
        -11   -1    0    0    0    0  0.00000000000E+00  0.00000000000E+00  0.45593999997E+02  0.45594000000E+02  0.51100000000E-03 0. -1.
         11   -1    0    0    0    0 -0.00000000000E+00 -0.00000000000E+00 -0.45593999997E+02  0.45594000000E+02  0.51100000000E-03 0.  1.
    9900012    2    1    2    0    0  0.12214392934E+02 -0.74020527085E+01 -0.12111807091E+02  0.72461610865E+02  0.70000052850E+02 0.  0.
         12    1    1    2    0    0 -0.12214392934E+02  0.74020527085E+01  0.12111807091E+02  0.18726389135E+02  0.00000000000E+00 0. -1.
         11    1    3    3    0    0 -0.42480955278E+01  0.12311512165E+02  0.15153148776E+02  0.19980930046E+02  0.51100000000E-03 0. -1.
        -11    1    3    3    0    0 -0.85614522538E+01 -0.11670859215E+02 -0.20923130656E+02  0.25441792708E+02  0.51100000000E-03 0.  1.
         12    1    3    3    0    0  0.25023940716E+02 -0.80427056584E+01 -0.63418252111E+01  0.27038888111E+02  0.00000000000E+00 0. -1.
</event>
<event>
 7    1  0.1339094E-013  0.7246155E+02  0.7816164E-02  0.1226708E+00
        -11   -1    0    0    0    0  0.00000000000E+00  0.00000000000E+00  0.45593999997E+02  0.45594000000E+02  0.51100000000E-03 0.  1.
         11   -1    0    0    0    0 -0.00000000000E+00 -0.00000000000E+00 -0.45593999997E+02  0.45594000000E+02  0.51100000000E-03 0. -1.
    9900012    2    1    2    0    0 -0.14383965727E+02 -0.11132354784E+02 -0.44555562140E+01  0.72461554148E+02  0.69999978966E+02 0.  0.
         12    1    1    2    0    0  0.14383965727E+02  0.11132354784E+02  0.44555562140E+01  0.18726445852E+02  0.00000000000E+00 0. -1.
         11    1    3    3    0    0  0.22357757370E+02 -0.14426839772E+02  0.68609726001E+01  0.27478645631E+02  0.51100000000E-03 0. -1.
        -11    1    3    3    0    0 -0.13260634661E+02 -0.42370499464E+01  0.56781165663E+01  0.15034561247E+02  0.51100000000E-03 0.  1.
         12    1    3    3    0    0 -0.23481088436E+02  0.75315349346E+01 -0.16994645380E+02  0.29948347270E+02  0.00000000000E+00 0. -1.
</event>
<event>
 7    1  0.1339094E-013  0.7246155E+02  0.7816164E-02  0.1226708E+00
        -11   -1    0    0    0    0  0.00000000000E+00  0.00000000000E+00  0.45593999997E+02  0.45594000000E+02  0.51100000000E-03 0.  1.
         11   -1    0    0    0    0 -0.00000000000E+00 -0.00000000000E+00 -0.45593999997E+02  0.45594000000E+02  0.51100000000E-03 0. -1.
    9900012    2    1    2    0    0 -0.11900517773E+02 -0.60303422570E+00  0.14446248701E+02  0.72461546116E+02  0.69999968503E+02 0.  0.
         12    1    1    2    0    0  0.11900517773E+02  0.60303422570E+00 -0.14446248701E+02  0.18726453884E+02  0.00000000000E+00 0. -1.
         11    1    3    3    0    0  0.35636080099E+01  0.17915892678E+02  0.16360142316E+02  0.24522087378E+02  0.51100000000E-03 0. -1.
        -11    1    3    3    0    0 -0.25340785351E+01 -0.18945631049E+02  0.16625055561E+02  0.25332804080E+02  0.51100000000E-03 0.  1.
         12    1    3    3    0    0 -0.12930047248E+02  0.42670414526E+00 -0.18538949176E+02  0.22606654658E+02  0.00000000000E+00 0. -1.
</event>
<event>
 7    1  0.1339094E-013  0.7246152E+02  0.7816164E-02  0.1226708E+00
        -11   -1    0    0    0    0  0.00000000000E+00  0.00000000000E+00  0.45593999997E+02  0.45594000000E+02  0.51100000000E-03 0. -1.
         11   -1    0    0    0    0 -0.00000000000E+00 -0.00000000000E+00 -0.45593999997E+02  0.45594000000E+02  0.51100000000E-03 0.  1.
    9900012    2    1    2    0    0  0.16482753859E+02  0.88875517209E+01  0.10548676011E+00  0.72461524682E+02  0.69999940581E+02 0.  0.
         12    1    1    2    0    0 -0.16482753859E+02 -0.88875517209E+01 -0.10548676011E+00  0.18726475318E+02  0.00000000000E+00 0. -1.
         11    1    3    3    0    0  0.99236806667E+01 -0.19857482840E+02  0.81407932205E+01  0.23644694484E+02  0.51100000000E-03 0. -1.
        -11    1    3    3    0    0  0.45063841127E+01  0.36959856230E+02 -0.12459949820E+02  0.39263071965E+02  0.51100000000E-03 0.  1.
        -12    1    3    3    0    0  0.20526890801E+01 -0.82148216693E+01  0.44246433592E+01  0.95537582330E+01  0.00000000000E+00 0.  1.
</event>
<event>
 7    1  0.1339094E-013  0.7246158E+02  0.7816164E-02  0.1226708E+00
        -11   -1    0    0    0    0  0.00000000000E+00  0.00000000000E+00  0.45593999997E+02  0.45594000000E+02  0.51100000000E-03 0. -1.
         11   -1    0    0    0    0 -0.00000000000E+00 -0.00000000000E+00 -0.45593999997E+02  0.45594000000E+02  0.51100000000E-03 0.  1.
    9900012    2    1    2    0    0 -0.10431968250E+02  0.15256346123E+02  0.30160715294E+01  0.72461581601E+02  0.70000014729E+02 0.  0.
         12    1    1    2    0    0  0.10431968250E+02 -0.15256346123E+02 -0.30160715294E+01  0.18726418399E+02  0.00000000000E+00 0. -1.
         11    1    3    3    0    0 -0.17506779104E+01 -0.19249815323E+02 -0.11524705836E+02  0.22504202007E+02  0.51100000000E-03 0.  1.
        -11    1    3    3    0    0  0.88142241877E+01  0.23839413223E+02  0.10777794507E+01  0.25439531829E+02  0.51100000000E-03 0. -1.
         12    1    3    3    0    0 -0.17495514527E+02  0.10666748222E+02  0.13462997914E+02  0.24517847765E+02  0.00000000000E+00 0. -1.
</event>
<event>
 7    1  0.1339094E-013  0.7246156E+02  0.7816164E-02  0.1226708E+00
        -11   -1    0    0    0    0  0.00000000000E+00  0.00000000000E+00  0.45593999997E+02  0.45594000000E+02  0.51100000000E-03 0. -1.
         11   -1    0    0    0    0 -0.00000000000E+00 -0.00000000000E+00 -0.45593999997E+02  0.45594000000E+02  0.51100000000E-03 0.  1.
    9900012    2    1    2    0    0  0.89148704897E+01 -0.19516527440E+01 -0.16352236483E+02  0.72461561409E+02  0.69999988426E+02 0.  0.
         12    1    1    2    0    0 -0.89148704897E+01  0.19516527440E+01  0.16352236483E+02  0.18726438591E+02  0.00000000000E+00 0. -1.
         11    1    3    3    0    0  0.10119953503E+02 -0.26418588449E+02 -0.33808599167E+01  0.28491849511E+02  0.51100000000E-03 0.  1.
        -11    1    3    3    0    0 -0.22263686335E+01  0.21586345802E+02  0.77356237993E+01  0.23038379244E+02  0.51100000000E-03 0. -1.
        -12    1    3    3    0    0  0.10212856201E+01  0.28805899034E+01 -0.20707000366E+02  0.20931332654E+02  0.00000000000E+00 0.  1.
</event>
<event>
 7    1  0.1339094E-013  0.7246162E+02  0.7816164E-02  0.1226708E+00
        -11   -1    0    0    0    0  0.00000000000E+00  0.00000000000E+00  0.45593999997E+02  0.45594000000E+02  0.51100000000E-03 0. -1.
         11   -1    0    0    0    0 -0.00000000000E+00 -0.00000000000E+00 -0.45593999997E+02  0.45594000000E+02  0.51100000000E-03 0.  1.
    9900012    2    1    2    0    0 -0.91910736412E+01  0.35367488206E+01 -0.15927742837E+02  0.72461617039E+02  0.70000060894E+02 0.  0.
         12    1    1    2    0    0  0.91910736412E+01 -0.35367488206E+01  0.15927742837E+02  0.18726382961E+02  0.00000000000E+00 0. -1.
         11    1    3    3    0    0  0.22819109609E+02 -0.11964404144E+02  0.63797364799E+00  0.25773353303E+02  0.51100000000E-03 0. -1.
        -11    1    3    3    0    0 -0.54492731877E+01  0.16022671382E+02 -0.84109655644E+01  0.18898807329E+02  0.51100000000E-03 0.  1.
         12    1    3    3    0    0 -0.26560910062E+02 -0.52151841707E+00 -0.81547509209E+01  0.27789456407E+02  0.00000000000E+00 0. -1.
</event>
<event>
 7    1  0.1339094E-013  0.7246159E+02  0.7816164E-02  0.1226708E+00
        -11   -1    0    0    0    0  0.00000000000E+00  0.00000000000E+00  0.45593999997E+02  0.45594000000E+02  0.51100000000E-03 0.  1.
         11   -1    0    0    0    0 -0.00000000000E+00 -0.00000000000E+00 -0.45593999997E+02  0.45594000000E+02  0.51100000000E-03 0. -1.
    9900012    2    1    2    0    0  0.12598238167E+02 -0.13784346326E+02  0.13980138798E+01  0.72461594809E+02  0.70000031935E+02 0.  0.
         12    1    1    2    0    0 -0.12598238167E+02  0.13784346326E+02 -0.13980138798E+01  0.18726405191E+02  0.00000000000E+00 0. -1.
         11    1    3    3    0    0 -0.66402807742E+01 -0.22802072663E+02 -0.12235033713E+01  0.23780765489E+02  0.51100000000E-03 0. -1.
        -11    1    3    3    0    0  0.68220472884E+01  0.26369460831E+02  0.23985744586E+01  0.27343042139E+02  0.51100000000E-03 0.  1.
         12    1    3    3    0    0  0.12416471653E+02 -0.17351734495E+02  0.22294279246E+00  0.21337787181E+02  0.00000000000E+00 0. -1.
</event>
<event>
 7    1  0.1339094E-013  0.7246153E+02  0.7816164E-02  0.1226708E+00
        -11   -1    0    0    0    0  0.00000000000E+00  0.00000000000E+00  0.45593999997E+02  0.45594000000E+02  0.51100000000E-03 0.  1.
         11   -1    0    0    0    0 -0.00000000000E+00 -0.00000000000E+00 -0.45593999997E+02  0.45594000000E+02  0.51100000000E-03 0. -1.
    9900012    2    1    2    0    0 -0.35411477064E+01  0.14601900490E+02  0.11176998295E+02  0.72461534346E+02  0.69999953171E+02 0.  0.
         12    1    1    2    0    0  0.35411477064E+01 -0.14601900490E+02 -0.11176998295E+02  0.18726465654E+02  0.00000000000E+00 0. -1.
         11    1    3    3    0    0  0.16209132614E+02 -0.80879462166E+01  0.11699092206E+02  0.21564313409E+02  0.51100000000E-03 0. -1.
        -11    1    3    3    0    0 -0.23330671568E+02  0.25038490574E+02 -0.13833864147E+02  0.36913710780E+02  0.51100000000E-03 0.  1.
         12    1    3    3    0    0  0.35803912467E+01 -0.23486438672E+01  0.13311770236E+02  0.13983510157E+02  0.00000000000E+00 0. -1.
</event>
<event>
 7    1  0.1339094E-013  0.7246153E+02  0.7816164E-02  0.1226708E+00
        -11   -1    0    0    0    0  0.00000000000E+00  0.00000000000E+00  0.45593999997E+02  0.45594000000E+02  0.51100000000E-03 0.  1.
         11   -1    0    0    0    0 -0.00000000000E+00 -0.00000000000E+00 -0.45593999997E+02  0.45594000000E+02  0.51100000000E-03 0. -1.
    9900012    2    1    2    0    0 -0.10282642309E+02  0.10401282721E+02  0.11694492411E+02  0.72461532959E+02  0.69999951363E+02 0.  0.
         12    1    1    2    0    0  0.10282642309E+02 -0.10401282721E+02 -0.11694492411E+02  0.18726467041E+02  0.00000000000E+00 0. -1.
         11    1    3    3    0    0  0.12849650209E+02  0.23973601208E+02  0.81612071888E+01  0.28398105015E+02  0.51100000000E-03 0.  1.
        -11    1    3    3    0    0 -0.31474510758E+02 -0.53146171368E+01  0.43365426857E+00  0.31923001724E+02  0.51100000000E-03 0. -1.
        -12    1    3    3    0    0  0.83422182397E+01 -0.82577013505E+01  0.30996309537E+01  0.12140426220E+02  0.00000000000E+00 0.  1.
</event>
<event>
 7    1  0.1339094E-013  0.7246149E+02  0.7816164E-02  0.1226708E+00
        -11   -1    0    0    0    0  0.00000000000E+00  0.00000000000E+00  0.45593999997E+02  0.45594000000E+02  0.51100000000E-03 0. -1.
         11   -1    0    0    0    0 -0.00000000000E+00 -0.00000000000E+00 -0.45593999997E+02  0.45594000000E+02  0.51100000000E-03 0.  1.
    9900012    2    1    2    0    0 -0.16170657254E+02  0.39571105786E+01  0.85751479499E+01  0.72461493585E+02  0.69999900072E+02 0.  0.
         12    1    1    2    0    0  0.16170657254E+02 -0.39571105786E+01 -0.85751479499E+01  0.18726506415E+02  0.00000000000E+00 0. -1.
         11    1    3    3    0    0 -0.93694317152E+01 -0.18301920941E+02 -0.18874432081E+02  0.27910405720E+02  0.51100000000E-03 0. -1.
        -11    1    3    3    0    0  0.48153135855E+01  0.20736165555E+02  0.99666745106E+01  0.23505539941E+02  0.51100000000E-03 0.  1.
         12    1    3    3    0    0 -0.11616539124E+02  0.15228659643E+01  0.17482905521E+02  0.21045547924E+02  0.00000000000E+00 0. -1.
</event>
<event>
 7    1  0.1339094E-013  0.7246165E+02  0.7816164E-02  0.1226708E+00
        -11   -1    0    0    0    0  0.00000000000E+00  0.00000000000E+00  0.45593999997E+02  0.45594000000E+02  0.51100000000E-03 0.  1.
         11   -1    0    0    0    0 -0.00000000000E+00 -0.00000000000E+00 -0.45593999997E+02  0.45594000000E+02  0.51100000000E-03 0. -1.
    9900012    2    1    2    0    0  0.15343779988E+02 -0.48141349679E+01  0.95952449012E+01  0.72461649460E+02  0.70000103128E+02 0.  0.
         12    1    1    2    0    0 -0.15343779988E+02  0.48141349679E+01 -0.95952449012E+01  0.18726350540E+02  0.00000000000E+00 0. -1.
         11    1    3    3    0    0 -0.40223732468E+01  0.37018887174E+01 -0.74940322294E+01  0.92759897548E+01  0.51100000000E-03 0. -1.
        -11    1    3    3    0    0  0.35051184567E+02  0.92598438636E+01  0.15492966632E+02  0.39425401243E+02  0.51100000000E-03 0.  1.
        -12    1    3    3    0    0 -0.15685031331E+02 -0.17775867549E+02  0.15963104990E+01  0.23760258462E+02  0.00000000000E+00 0.  1.
</event>
<event>
 7    1  0.1339094E-013  0.7246171E+02  0.7816164E-02  0.1226708E+00
        -11   -1    0    0    0    0  0.00000000000E+00  0.00000000000E+00  0.45593999997E+02  0.45594000000E+02  0.51100000000E-03 0.  1.
         11   -1    0    0    0    0 -0.00000000000E+00 -0.00000000000E+00 -0.45593999997E+02  0.45594000000E+02  0.51100000000E-03 0. -1.
    9900012    2    1    2    0    0  0.15356977510E+02 -0.25839995149E+01  0.10400012305E+02  0.72461706515E+02  0.70000177452E+02 0.  0.
         12    1    1    2    0    0 -0.15356977510E+02  0.25839995149E+01 -0.10400012305E+02  0.18726293485E+02  0.00000000000E+00 0. -1.
         11    1    3    3    0    0  0.13670293793E+02  0.84509371665E+01 -0.42360010531E+01  0.16620438519E+02  0.51100000000E-03 0. -1.
        -11    1    3    3    0    0 -0.15164586086E+02 -0.14190323137E+02  0.27461554578E+02  0.34430610247E+02  0.51100000000E-03 0.  1.
        -12    1    3    3    0    0  0.16851269803E+02  0.31553864556E+01 -0.12825541220E+02  0.21410657749E+02  0.00000000000E+00 0.  1.
</event>
<event>
 7    1  0.1339094E-013  0.7246185E+02  0.7816164E-02  0.1226707E+00
        -11   -1    0    0    0    0  0.00000000000E+00  0.00000000000E+00  0.45593999997E+02  0.45594000000E+02  0.51100000000E-03 0. -1.
         11   -1    0    0    0    0 -0.00000000000E+00 -0.00000000000E+00 -0.45593999997E+02  0.45594000000E+02  0.51100000000E-03 0.  1.
    9900012    2    1    2    0    0 -0.11127772471E+02  0.50311278183E+01 -0.14196090851E+02  0.72461853500E+02  0.70000368926E+02 0.  0.
         12    1    1    2    0    0  0.11127772471E+02 -0.50311278183E+01  0.14196090851E+02  0.18726146500E+02  0.00000000000E+00 0. -1.
         11    1    3    3    0    0  0.38942575913E+01 -0.13977877415E+02  0.16507611360E+02  0.21978342346E+02  0.51100000000E-03 0. -1.
        -11    1    3    3    0    0  0.29024174749E+01  0.18325307361E+02 -0.25997056610E+02  0.31938814469E+02  0.51100000000E-03 0.  1.
         12    1    3    3    0    0 -0.17924447538E+02  0.68369787248E+00 -0.47066456017E+01  0.18544696685E+02  0.00000000000E+00 0. -1.
</event>
<event>
 7    1  0.1339094E-013  0.7246152E+02  0.7816164E-02  0.1226708E+00
        -11   -1    0    0    0    0  0.00000000000E+00  0.00000000000E+00  0.45593999997E+02  0.45594000000E+02  0.51100000000E-03 0.  1.
         11   -1    0    0    0    0 -0.00000000000E+00 -0.00000000000E+00 -0.45593999997E+02  0.45594000000E+02  0.51100000000E-03 0. -1.
    9900012    2    1    2    0    0  0.44582459269E+01  0.17393716734E+02 -0.53163714928E+01  0.72461517564E+02  0.69999931309E+02 0.  0.
         12    1    1    2    0    0 -0.44582459269E+01 -0.17393716734E+02  0.53163714928E+01  0.18726482436E+02  0.00000000000E+00 0. -1.
         11    1    3    3    0    0  0.20019217450E+00  0.65488404043E+01 -0.79322380177E+01  0.10288235406E+02  0.51100000000E-03 0. -1.
        -11    1    3    3    0    0  0.14445640281E+02 -0.15300098038E+02  0.20110352068E+02  0.29106627830E+02  0.51100000000E-03 0.  1.
        -12    1    3    3    0    0 -0.10187586528E+02  0.26144974368E+02 -0.17494485543E+02  0.33066654327E+02  0.00000000000E+00 0.  1.
</event>
<event>
 7    1  0.1339094E-013  0.7246152E+02  0.7816164E-02  0.1226708E+00
        -11   -1    0    0    0    0  0.00000000000E+00  0.00000000000E+00  0.45593999997E+02  0.45594000000E+02  0.51100000000E-03 0. -1.
         11   -1    0    0    0    0 -0.00000000000E+00 -0.00000000000E+00 -0.45593999997E+02  0.45594000000E+02  0.51100000000E-03 0.  1.
    9900012    2    1    2    0    0  0.86057649974E+01  0.26389488338E+01 -0.16421263726E+02  0.72461517562E+02  0.69999931307E+02 0.  0.
         12    1    1    2    0    0 -0.86057649974E+01 -0.26389488338E+01  0.16421263726E+02  0.18726482438E+02  0.00000000000E+00 0. -1.
         11    1    3    3    0    0  0.37836781100E+02 -0.19409509768E+01 -0.18728271385E+02  0.42262719317E+02  0.51100000000E-03 0. -1.
        -11    1    3    3    0    0 -0.12163243726E+02 -0.13990887735E+00 -0.92013932092E+00  0.12198800312E+02  0.51100000000E-03 0.  1.
         12    1    3    3    0    0 -0.17067772377E+02  0.47198086879E+01  0.32271469803E+01  0.17999997933E+02  0.00000000000E+00 0. -1.
</event>
<event>
 7    1  0.1339094E-013  0.7246156E+02  0.7816164E-02  0.1226708E+00
        -11   -1    0    0    0    0  0.00000000000E+00  0.00000000000E+00  0.45593999997E+02  0.45594000000E+02  0.51100000000E-03 0.  1.
         11   -1    0    0    0    0 -0.00000000000E+00 -0.00000000000E+00 -0.45593999997E+02  0.45594000000E+02  0.51100000000E-03 0. -1.
    9900012    2    1    2    0    0  0.19063067326E+01  0.10109546655E+02  0.15647442975E+02  0.72461563858E+02  0.69999991615E+02 0.  0.
         12    1    1    2    0    0 -0.19063067326E+01 -0.10109546655E+02 -0.15647442975E+02  0.18726436142E+02  0.00000000000E+00 0. -1.
         11    1    3    3    0    0 -0.14697638920E+02  0.26741954084E+02  0.11000106426E+02  0.32436939431E+02  0.51100000000E-03 0.  1.
        -11    1    3    3    0    0  0.20892404300E+02 -0.23292966824E+02  0.10058810298E+01  0.31306016319E+02  0.51100000000E-03 0. -1.
         12    1    3    3    0    0 -0.42884586479E+01  0.66605593944E+01  0.36414555197E+01  0.87186081070E+01  0.00000000000E+00 0. -1.
</event>
<event>
 7    1  0.1339094E-013  0.7246147E+02  0.7816164E-02  0.1226708E+00
        -11   -1    0    0    0    0  0.00000000000E+00  0.00000000000E+00  0.45593999997E+02  0.45594000000E+02  0.51100000000E-03 0. -1.
         11   -1    0    0    0    0 -0.00000000000E+00 -0.00000000000E+00 -0.45593999997E+02  0.45594000000E+02  0.51100000000E-03 0.  1.
    9900012    2    1    2    0    0 -0.14830528210E+02  0.54338226674E+01 -0.10060407453E+02  0.72461473523E+02  0.69999873937E+02 0.  0.
         12    1    1    2    0    0  0.14830528210E+02 -0.54338226674E+01  0.10060407453E+02  0.18726526477E+02  0.00000000000E+00 0. -1.
         11    1    3    3    0    0  0.63913596033E+01 -0.63469579281E+01 -0.31146220610E+02  0.32422529375E+02  0.51100000000E-03 0.  1.
        -11    1    3    3    0    0  0.51027596759E-01  0.12554776516E+02  0.99216388581E+01  0.16001997847E+02  0.51100000000E-03 0. -1.
         12    1    3    3    0    0 -0.21272915410E+02 -0.77399592083E+00  0.11164174298E+02  0.24036946302E+02  0.00000000000E+00 0. -1.
</event>
<event>
 7    1  0.1339094E-013  0.7246159E+02  0.7816164E-02  0.1226708E+00
        -11   -1    0    0    0    0  0.00000000000E+00  0.00000000000E+00  0.45593999997E+02  0.45594000000E+02  0.51100000000E-03 0. -1.
         11   -1    0    0    0    0 -0.00000000000E+00 -0.00000000000E+00 -0.45593999997E+02  0.45594000000E+02  0.51100000000E-03 0.  1.
    9900012    2    1    2    0    0 -0.32999457956E+01 -0.59907561289E+01 -0.17432716675E+02  0.72461590522E+02  0.70000026351E+02 0.  0.
         12    1    1    2    0    0  0.32999457956E+01  0.59907561289E+01  0.17432716675E+02  0.18726409478E+02  0.00000000000E+00 0. -1.
         11    1    3    3    0    0  0.52973798779E+01 -0.18695603830E+02  0.60130258161E+00  0.19440920791E+02  0.51100000000E-03 0. -1.
        -11    1    3    3    0    0 -0.41329833691E+01  0.29209731866E+02 -0.19800263453E+01  0.29567050780E+02  0.51100000000E-03 0.  1.
        -12    1    3    3    0    0 -0.44643423044E+01 -0.16504884166E+02 -0.16053992912E+02  0.23453618952E+02  0.00000000000E+00 0.  1.
</event>
<event>
 7    1  0.1339094E-013  0.7246160E+02  0.7816164E-02  0.1226708E+00
        -11   -1    0    0    0    0  0.00000000000E+00  0.00000000000E+00  0.45593999997E+02  0.45594000000E+02  0.51100000000E-03 0. -1.
         11   -1    0    0    0    0 -0.00000000000E+00 -0.00000000000E+00 -0.45593999997E+02  0.45594000000E+02  0.51100000000E-03 0.  1.
    9900012    2    1    2    0    0 -0.81005199963E+01 -0.15689526227E+02 -0.62368556992E+01  0.72461600815E+02  0.70000039758E+02 0.  0.
         12    1    1    2    0    0  0.81005199963E+01  0.15689526227E+02  0.62368556992E+01  0.18726399185E+02  0.00000000000E+00 0. -1.
         11    1    3    3    0    0  0.13716385544E+02  0.95672169661E+00  0.11221045352E+02  0.17747292973E+02  0.51100000000E-03 0. -1.
        -11    1    3    3    0    0 -0.34670850385E+02 -0.60483165478E+01 -0.11749761072E+02  0.37104000930E+02  0.51100000000E-03 0.  1.
        -12    1    3    3    0    0  0.12853944845E+02 -0.10597931376E+02 -0.57081399792E+01  0.17610306912E+02  0.00000000000E+00 0.  1.
</event>
<event>
 7    1  0.1339094E-013  0.7246157E+02  0.7816164E-02  0.1226708E+00
        -11   -1    0    0    0    0  0.00000000000E+00  0.00000000000E+00  0.45593999997E+02  0.45594000000E+02  0.51100000000E-03 0.  1.
         11   -1    0    0    0    0 -0.00000000000E+00 -0.00000000000E+00 -0.45593999997E+02  0.45594000000E+02  0.51100000000E-03 0. -1.
    9900012    2    1    2    0    0 -0.14056924457E+02 -0.48187743294E+01  0.11395671368E+02  0.72461573829E+02  0.70000004605E+02 0.  0.
         12    1    1    2    0    0  0.14056924457E+02  0.48187743294E+01 -0.11395671368E+02  0.18726426171E+02  0.00000000000E+00 0. -1.
         11    1    3    3    0    0  0.11160057720E+02  0.66797697663E+01 -0.19923885499E+02  0.23793432415E+02  0.51100000000E-03 0. -1.
        -11    1    3    3    0    0 -0.13279589021E+02  0.10546567940E+00  0.28952334053E+02  0.31852727591E+02  0.51100000000E-03 0.  1.
         12    1    3    3    0    0 -0.11937393155E+02 -0.11604009775E+02  0.23672228131E+01  0.16815413823E+02  0.00000000000E+00 0. -1.
</event>
<event>
 7    1  0.1339094E-013  0.7246186E+02  0.7816164E-02  0.1226707E+00
        -11   -1    0    0    0    0  0.00000000000E+00  0.00000000000E+00  0.45593999997E+02  0.45594000000E+02  0.51100000000E-03 0. -1.
         11   -1    0    0    0    0 -0.00000000000E+00 -0.00000000000E+00 -0.45593999997E+02  0.45594000000E+02  0.51100000000E-03 0.  1.
    9900012    2    1    2    0    0 -0.56492794546E+01  0.17088730811E+02 -0.51700380478E+01  0.72461858579E+02  0.70000375543E+02 0.  0.
         12    1    1    2    0    0  0.56492794546E+01 -0.17088730811E+02  0.51700380478E+01  0.18726141421E+02  0.00000000000E+00 0. -1.
         11    1    3    3    0    0  0.20579545038E+02  0.17516128573E+02  0.10373510952E+02  0.28947230677E+02  0.51100000000E-03 0. -1.
        -11    1    3    3    0    0 -0.30617154651E+02 -0.60933971131E+01 -0.63485255859E+01  0.31856607237E+02  0.51100000000E-03 0.  1.
         12    1    3    3    0    0  0.43883301585E+01  0.56659993515E+01 -0.91950234137E+01  0.11658020664E+02  0.00000000000E+00 0. -1.
</event>
<event>
 7    1  0.1339094E-013  0.7246158E+02  0.7816164E-02  0.1226708E+00
        -11   -1    0    0    0    0  0.00000000000E+00  0.00000000000E+00  0.45593999997E+02  0.45594000000E+02  0.51100000000E-03 0.  1.
         11   -1    0    0    0    0 -0.00000000000E+00 -0.00000000000E+00 -0.45593999997E+02  0.45594000000E+02  0.51100000000E-03 0. -1.
    9900012    2    1    2    0    0 -0.45881581729E+00  0.60039594897E+01 -0.17731918171E+02  0.72461575794E+02  0.70000007165E+02 0.  0.
         12    1    1    2    0    0  0.45881581729E+00 -0.60039594897E+01  0.17731918171E+02  0.18726424206E+02  0.00000000000E+00 0. -1.
         11    1    3    3    0    0  0.14162832324E+02  0.12821905128E+01 -0.61918099322E+01  0.15510265712E+02  0.51100000000E-03 0. -1.
        -11    1    3    3    0    0 -0.26769938025E+02  0.20579749603E+02  0.22670722349E+00  0.33766952365E+02  0.51100000000E-03 0.  1.
        -12    1    3    3    0    0  0.12148289883E+02 -0.15857980626E+02 -0.11766815462E+02  0.23184357717E+02  0.00000000000E+00 0.  1.
</event>
<event>
 7    1  0.1339094E-013  0.7246156E+02  0.7816164E-02  0.1226708E+00
        -11   -1    0    0    0    0  0.00000000000E+00  0.00000000000E+00  0.45593999997E+02  0.45594000000E+02  0.51100000000E-03 0.  1.
         11   -1    0    0    0    0 -0.00000000000E+00 -0.00000000000E+00 -0.45593999997E+02  0.45594000000E+02  0.51100000000E-03 0. -1.
    9900012    2    1    2    0    0  0.28486564827E+01  0.11064552192E+02  0.14837124103E+02  0.72461563857E+02  0.69999991614E+02 0.  0.
         12    1    1    2    0    0 -0.28486564827E+01 -0.11064552192E+02 -0.14837124103E+02  0.18726436143E+02  0.00000000000E+00 0. -1.
         11    1    3    3    0    0  0.58981555335E+01  0.15565459275E+02 -0.84970096231E+01  0.18688791666E+02  0.51100000000E-03 0. -1.
        -11    1    3    3    0    0 -0.21240999921E+02  0.10296221270E+02  0.18101166497E+02  0.29746335554E+02  0.51100000000E-03 0.  1.
        -12    1    3    3    0    0  0.18191500870E+02 -0.14797128353E+02  0.52329672287E+01  0.24026436636E+02  0.00000000000E+00 0.  1.
</event>
<event>
 7    1  0.1339094E-013  0.7246155E+02  0.7816164E-02  0.1226708E+00
        -11   -1    0    0    0    0  0.00000000000E+00  0.00000000000E+00  0.45593999997E+02  0.45594000000E+02  0.51100000000E-03 0. -1.
         11   -1    0    0    0    0 -0.00000000000E+00 -0.00000000000E+00 -0.45593999997E+02  0.45594000000E+02  0.51100000000E-03 0.  1.
    9900012    2    1    2    0    0  0.28865066773E+01  0.18366998644E+02 -0.22363698362E+01  0.72461550523E+02  0.69999974244E+02 0.  0.
         12    1    1    2    0    0 -0.28865066773E+01 -0.18366998644E+02  0.22363698362E+01  0.18726449477E+02  0.00000000000E+00 0. -1.
         11    1    3    3    0    0  0.11254995159E+02  0.17202037692E+02  0.22512827759E+02  0.30486266264E+02  0.51100000000E-03 0. -1.
        -11    1    3    3    0    0 -0.32439586680E+01  0.16137872676E+02 -0.18997736887E+02  0.25136988870E+02  0.51100000000E-03 0.  1.
        -12    1    3    3    0    0 -0.51245298142E+01 -0.14972911724E+02 -0.57514607080E+01  0.16838295389E+02  0.00000000000E+00 0.  1.
</event>
<event>
 7    1  0.1339094E-013  0.7246164E+02  0.7816164E-02  0.1226708E+00
        -11   -1    0    0    0    0  0.00000000000E+00  0.00000000000E+00  0.45593999997E+02  0.45594000000E+02  0.51100000000E-03 0.  1.
         11   -1    0    0    0    0 -0.00000000000E+00 -0.00000000000E+00 -0.45593999997E+02  0.45594000000E+02  0.51100000000E-03 0. -1.
    9900012    2    1    2    0    0  0.28622816784E+01  0.11642342232E+02  0.14385397241E+02  0.72461643098E+02  0.70000094840E+02 0.  0.
         12    1    1    2    0    0 -0.28622816784E+01 -0.11642342232E+02 -0.14385397241E+02  0.18726356902E+02  0.00000000000E+00 0. -1.
         11    1    3    3    0    0 -0.30462560282E+00  0.23552453327E+01 -0.84262122562E+01  0.87544863118E+01  0.51100000000E-03 0. -1.
        -11    1    3    3    0    0  0.21913986910E+02  0.18882631591E+02  0.29787355395E+02  0.41521839311E+02  0.51100000000E-03 0.  1.
        -12    1    3    3    0    0 -0.18747079629E+02 -0.95955346914E+01 -0.69757458984E+01  0.22185317475E+02  0.00000000000E+00 0.  1.
</event>
<event>
 7    1  0.1339094E-013  0.7246166E+02  0.7816164E-02  0.1226708E+00
        -11   -1    0    0    0    0  0.00000000000E+00  0.00000000000E+00  0.45593999997E+02  0.45594000000E+02  0.51100000000E-03 0. -1.
         11   -1    0    0    0    0 -0.00000000000E+00 -0.00000000000E+00 -0.45593999997E+02  0.45594000000E+02  0.51100000000E-03 0.  1.
    9900012    2    1    2    0    0  0.97832531283E+01  0.28077095633E+01 -0.15718797142E+02  0.72461658704E+02  0.70000115169E+02 0.  0.
         12    1    1    2    0    0 -0.97832531283E+01 -0.28077095633E+01  0.15718797142E+02  0.18726341296E+02  0.00000000000E+00 0. -1.
         11    1    3    3    0    0  0.10741995865E+02 -0.10360414776E+02  0.12459424821E+02  0.19441346060E+02  0.51100000000E-03 0. -1.
        -11    1    3    3    0    0  0.91330776815E+01 -0.56862465725E+01 -0.29692443715E+02  0.31581445851E+02  0.51100000000E-03 0.  1.
         12    1    3    3    0    0 -0.10091820419E+02  0.18854370911E+02  0.15142217517E+01  0.21438866792E+02  0.00000000000E+00 0. -1.
</event>
<event>
 7    1  0.1339094E-013  0.7246156E+02  0.7816164E-02  0.1226708E+00
        -11   -1    0    0    0    0  0.00000000000E+00  0.00000000000E+00  0.45593999997E+02  0.45594000000E+02  0.51100000000E-03 0. -1.
         11   -1    0    0    0    0 -0.00000000000E+00 -0.00000000000E+00 -0.45593999997E+02  0.45594000000E+02  0.51100000000E-03 0.  1.
    9900012    2    1    2    0    0 -0.96376595791E+01 -0.16055972920E+02 -0.28374401939E-01  0.72461560038E+02  0.69999986639E+02 0.  0.
         12    1    1    2    0    0  0.96376595791E+01  0.16055972920E+02  0.28374401939E-01  0.18726439962E+02  0.00000000000E+00 0. -1.
         11    1    3    3    0    0  0.75483182964E+01 -0.21510372706E+01  0.17026026260E+02  0.18748056990E+02  0.51100000000E-03 0. -1.
        -11    1    3    3    0    0 -0.79935119547E+01  0.16377155478E+02 -0.11594075305E+02  0.21599306409E+02  0.51100000000E-03 0.  1.
        -12    1    3    3    0    0 -0.91924659208E+01 -0.30282091127E+02 -0.54603253566E+01  0.32114196638E+02  0.00000000000E+00 0.  1.
</event>
<event>
 7    1  0.1339094E-013  0.7246158E+02  0.7816164E-02  0.1226708E+00
        -11   -1    0    0    0    0  0.00000000000E+00  0.00000000000E+00  0.45593999997E+02  0.45594000000E+02  0.51100000000E-03 0. -1.
         11   -1    0    0    0    0 -0.00000000000E+00 -0.00000000000E+00 -0.45593999997E+02  0.45594000000E+02  0.51100000000E-03 0.  1.
    9900012    2    1    2    0    0 -0.89228225607E+01  0.42536649215E+01 -0.15904983465E+02  0.72461576777E+02  0.70000008445E+02 0.  0.
         12    1    1    2    0    0  0.89228225607E+01 -0.42536649215E+01  0.15904983465E+02  0.18726423223E+02  0.00000000000E+00 0. -1.
         11    1    3    3    0    0  0.13452932865E+02  0.27809603124E+02 -0.13342750574E+02  0.33650920072E+02  0.51100000000E-03 0. -1.
        -11    1    3    3    0    0 -0.18962209648E+02 -0.72593329070E+01 -0.71725361443E+01  0.21533893842E+02  0.51100000000E-03 0.  1.
         12    1    3    3    0    0 -0.34135457771E+01 -0.16296605295E+02  0.46103032539E+01  0.17276762863E+02  0.00000000000E+00 0. -1.
</event>
<event>
 7    1  0.1339094E-013  0.7246160E+02  0.7816164E-02  0.1226708E+00
        -11   -1    0    0    0    0  0.00000000000E+00  0.00000000000E+00  0.45593999997E+02  0.45594000000E+02  0.51100000000E-03 0.  1.
         11   -1    0    0    0    0 -0.00000000000E+00 -0.00000000000E+00 -0.45593999997E+02  0.45594000000E+02  0.51100000000E-03 0. -1.
    9900012    2    1    2    0    0  0.16490578965E+02  0.17000600669E+01  0.87091151631E+01  0.72461599231E+02  0.70000037695E+02 0.  0.
         12    1    1    2    0    0 -0.16490578965E+02 -0.17000600669E+01 -0.87091151631E+01  0.18726400769E+02  0.00000000000E+00 0. -1.
         11    1    3    3    0    0  0.79799452373E+01  0.12678061246E+02 -0.14582645553E+02  0.20906131027E+02  0.51100000000E-03 0. -1.
        -11    1    3    3    0    0 -0.40104942949E+01 -0.23705928379E+02  0.23611759435E+02  0.33698223821E+02  0.51100000000E-03 0.  1.
         12    1    3    3    0    0  0.12521128023E+02  0.12727927200E+02 -0.31999871879E+00  0.17857244383E+02  0.00000000000E+00 0. -1.
</event>
<event>
 7    1  0.1339094E-013  0.7246158E+02  0.7816164E-02  0.1226708E+00
        -11   -1    0    0    0    0  0.00000000000E+00  0.00000000000E+00  0.45593999997E+02  0.45594000000E+02  0.51100000000E-03 0. -1.
         11   -1    0    0    0    0 -0.00000000000E+00 -0.00000000000E+00 -0.45593999997E+02  0.45594000000E+02  0.51100000000E-03 0.  1.
    9900012    2    1    2    0    0 -0.10183439433E+02 -0.70952815438E+00 -0.15699456307E+02  0.72461580235E+02  0.70000012949E+02 0.  0.
         12    1    1    2    0    0  0.10183439433E+02  0.70952815438E+00  0.15699456307E+02  0.18726419765E+02  0.00000000000E+00 0. -1.
         11    1    3    3    0    0 -0.12117837008E+02  0.30108557801E+02 -0.81231639839E+01  0.33456733552E+02  0.51100000000E-03 0. -1.
        -11    1    3    3    0    0  0.94255935503E+01 -0.14287693608E+02  0.38692797406E+01  0.17548542059E+02  0.51100000000E-03 0.  1.
        -12    1    3    3    0    0 -0.74911959748E+01 -0.16530392347E+02 -0.11445572064E+02  0.21456304625E+02  0.00000000000E+00 0.  1.
</event>
<event>
 7    1  0.1339094E-013  0.7246172E+02  0.7816164E-02  0.1226708E+00
        -11   -1    0    0    0    0  0.00000000000E+00  0.00000000000E+00  0.45593999997E+02  0.45594000000E+02  0.51100000000E-03 0.  1.
         11   -1    0    0    0    0 -0.00000000000E+00 -0.00000000000E+00 -0.45593999997E+02  0.45594000000E+02  0.51100000000E-03 0. -1.
    9900012    2    1    2    0    0 -0.11478778139E+02 -0.39458631607E+01  0.14259786695E+02  0.72461716326E+02  0.70000190233E+02 0.  0.
         12    1    1    2    0    0  0.11478778139E+02  0.39458631607E+01 -0.14259786695E+02  0.18726283674E+02  0.00000000000E+00 0. -1.
         11    1    3    3    0    0 -0.29430402252E+00  0.17783557360E+01 -0.17249293070E+02  0.17343219876E+02  0.51100000000E-03 0. -1.
        -11    1    3    3    0    0 -0.13230159331E+02 -0.19889995673E+01  0.41849185337E+02  0.43935720647E+02  0.51100000000E-03 0.  1.
        -12    1    3    3    0    0  0.20456852146E+01 -0.37352193294E+01 -0.10340105571E+02  0.11182775803E+02  0.00000000000E+00 0.  1.
</event>
<event>
 7    1  0.1339094E-013  0.7246106E+02  0.7816164E-02  0.1226709E+00
        -11   -1    0    0    0    0  0.00000000000E+00  0.00000000000E+00  0.45593999997E+02  0.45594000000E+02  0.51100000000E-03 0. -1.
         11   -1    0    0    0    0 -0.00000000000E+00 -0.00000000000E+00 -0.45593999997E+02  0.45594000000E+02  0.51100000000E-03 0.  1.
    9900012    2    1    2    0    0 -0.17949246749E+01 -0.11229353726E+02 -0.14878786929E+02  0.72461055771E+02  0.69999329734E+02 0.  0.
         12    1    1    2    0    0  0.17949246749E+01  0.11229353726E+02  0.14878786929E+02  0.18726944229E+02  0.00000000000E+00 0. -1.
         11    1    3    3    0    0 -0.89341573829E+01  0.52261583975E+01 -0.17200335534E+02  0.20074447501E+02  0.51100000000E-03 0.  1.
        -11    1    3    3    0    0  0.88982996816E+00 -0.18403748496E+02  0.23705016888E+02  0.30023617071E+02  0.51100000000E-03 0. -1.
        -12    1    3    3    0    0  0.62494027398E+01  0.19482363726E+01 -0.21383468282E+02  0.22362991199E+02  0.00000000000E+00 0.  1.
</event>
<event>
 7    1  0.1339094E-013  0.7246154E+02  0.7816164E-02  0.1226708E+00
        -11   -1    0    0    0    0  0.00000000000E+00  0.00000000000E+00  0.45593999997E+02  0.45594000000E+02  0.51100000000E-03 0.  1.
         11   -1    0    0    0    0 -0.00000000000E+00 -0.00000000000E+00 -0.45593999997E+02  0.45594000000E+02  0.51100000000E-03 0. -1.
    9900012    2    1    2    0    0  0.47080833835E+00  0.64821625973E+01  0.17562466789E+02  0.72461539252E+02  0.69999959562E+02 0.  0.
         12    1    1    2    0    0 -0.47080833835E+00 -0.64821625973E+01 -0.17562466789E+02  0.18726460748E+02  0.00000000000E+00 0. -1.
         11    1    3    3    0    0  0.24385790449E+02  0.11485095881E+02 -0.32251756700E+01  0.27147301184E+02  0.51100000000E-03 0. -1.
        -11    1    3    3    0    0 -0.14310217349E+02 -0.90890510850E+00 -0.67612576017E+01  0.15853171092E+02  0.51100000000E-03 0.  1.
         12    1    3    3    0    0 -0.96047647618E+01 -0.40940281756E+01  0.27548900060E+02  0.29461066976E+02  0.00000000000E+00 0. -1.
</event>
<event>
 7    1  0.1339094E-013  0.7246167E+02  0.7816164E-02  0.1226708E+00
        -11   -1    0    0    0    0  0.00000000000E+00  0.00000000000E+00  0.45593999997E+02  0.45594000000E+02  0.51100000000E-03 0.  1.
         11   -1    0    0    0    0 -0.00000000000E+00 -0.00000000000E+00 -0.45593999997E+02  0.45594000000E+02  0.51100000000E-03 0. -1.
    9900012    2    1    2    0    0 -0.84610626710E+01  0.16122607347E+02 -0.43757679345E+01  0.72461671097E+02  0.70000131314E+02 0.  0.
         12    1    1    2    0    0  0.84610626710E+01 -0.16122607347E+02  0.43757679345E+01  0.18726328903E+02  0.00000000000E+00 0. -1.
         11    1    3    3    0    0  0.17146763688E+02  0.18787936387E+02  0.98901732500E+01  0.27291273071E+02  0.51100000000E-03 0. -1.
        -11    1    3    3    0    0 -0.11334967650E+02  0.15428110112E+02 -0.25361857429E+01  0.19311662580E+02  0.51100000000E-03 0.  1.
         12    1    3    3    0    0 -0.14272858710E+02 -0.18093439152E+02 -0.11729755442E+02  0.25858735445E+02  0.00000000000E+00 0. -1.
</event>
<event>
 7    1  0.1339094E-013  0.7246156E+02  0.7816164E-02  0.1226708E+00
        -11   -1    0    0    0    0  0.00000000000E+00  0.00000000000E+00  0.45593999997E+02  0.45594000000E+02  0.51100000000E-03 0.  1.
         11   -1    0    0    0    0 -0.00000000000E+00 -0.00000000000E+00 -0.45593999997E+02  0.45594000000E+02  0.51100000000E-03 0. -1.
    9900012    2    1    2    0    0 -0.20190253634E+01 -0.85744795341E-01  0.18617085430E+02  0.72461556518E+02  0.69999982053E+02 0.  0.
         12    1    1    2    0    0  0.20190253634E+01  0.85744795341E-01 -0.18617085430E+02  0.18726443482E+02  0.00000000000E+00 0. -1.
         11    1    3    3    0    0  0.27718153285E+02 -0.14375159186E+02 -0.40696234888E+01  0.31488141557E+02  0.51100000000E-03 0. -1.
        -11    1    3    3    0    0 -0.11815197859E+02  0.63372064689E+01  0.14434393837E+02  0.19700528216E+02  0.51100000000E-03 0.  1.
         12    1    3    3    0    0 -0.17921980789E+02  0.79522079219E+01  0.82523150823E+01  0.21272886745E+02  0.00000000000E+00 0. -1.
</event>
<event>
 7    1  0.1339094E-013  0.7246156E+02  0.7816164E-02  0.1226708E+00
        -11   -1    0    0    0    0  0.00000000000E+00  0.00000000000E+00  0.45593999997E+02  0.45594000000E+02  0.51100000000E-03 0.  1.
         11   -1    0    0    0    0 -0.00000000000E+00 -0.00000000000E+00 -0.45593999997E+02  0.45594000000E+02  0.51100000000E-03 0. -1.
    9900012    2    1    2    0    0 -0.13505982078E+02  0.10816671005E+00  0.12971361415E+02  0.72461562302E+02  0.69999989588E+02 0.  0.
         12    1    1    2    0    0  0.13505982078E+02 -0.10816671005E+00 -0.12971361415E+02  0.18726437698E+02  0.00000000000E+00 0. -1.
         11    1    3    3    0    0 -0.10546556313E+02  0.98699688274E+01 -0.89378081571E+01  0.16986187025E+02  0.51100000000E-03 0.  1.
        -11    1    3    3    0    0  0.18156421783E+02 -0.18346635906E+02  0.32457005484E+01  0.26015173906E+02  0.51100000000E-03 0. -1.
        -12    1    3    3    0    0 -0.21115847548E+02  0.85848337882E+01  0.18663469023E+02  0.29460201371E+02  0.00000000000E+00 0.  1.
</event>
<event>
 7    1  0.1339094E-013  0.7246151E+02  0.7816164E-02  0.1226708E+00
        -11   -1    0    0    0    0  0.00000000000E+00  0.00000000000E+00  0.45593999997E+02  0.45594000000E+02  0.51100000000E-03 0.  1.
         11   -1    0    0    0    0 -0.00000000000E+00 -0.00000000000E+00 -0.45593999997E+02  0.45594000000E+02  0.51100000000E-03 0. -1.
    9900012    2    1    2    0    0  0.17713475309E+02  0.16541856763E+01 -0.58462006106E+01  0.72461505417E+02  0.69999915485E+02 0.  0.
         12    1    1    2    0    0 -0.17713475309E+02 -0.16541856763E+01  0.58462006106E+01  0.18726494583E+02  0.00000000000E+00 0. -1.
         11    1    3    3    0    0 -0.40957278286E+01  0.21485830910E+01 -0.10212069773E+02  0.11210609486E+02  0.51100000000E-03 0. -1.
        -11    1    3    3    0    0  0.17922899513E+02 -0.12814124689E+02  0.27207273543E+02  0.35009539448E+02  0.51100000000E-03 0.  1.
        -12    1    3    3    0    0  0.38863036251E+01  0.12319727274E+02 -0.22841404380E+02  0.26241356482E+02  0.00000000000E+00 0.  1.
</event>
<event>
 7    1  0.1339094E-013  0.7246128E+02  0.7816164E-02  0.1226709E+00
        -11   -1    0    0    0    0  0.00000000000E+00  0.00000000000E+00  0.45593999997E+02  0.45594000000E+02  0.51100000000E-03 0.  1.
         11   -1    0    0    0    0 -0.00000000000E+00 -0.00000000000E+00 -0.45593999997E+02  0.45594000000E+02  0.51100000000E-03 0. -1.
    9900012    2    1    2    0    0 -0.35065853903E+01  0.16577864281E+02  0.79729650402E+01  0.72461283877E+02  0.69999626887E+02 0.  0.
         12    1    1    2    0    0  0.35065853903E+01 -0.16577864281E+02 -0.79729650402E+01  0.18726716123E+02  0.00000000000E+00 0. -1.
         11    1    3    3    0    0  0.18731847203E+02  0.15314706274E+02 -0.36485989339E+01  0.24469053973E+02  0.51100000000E-03 0. -1.
        -11    1    3    3    0    0 -0.10974545290E+02 -0.83312216632E+01  0.24674785672E+02  0.28261191534E+02  0.51100000000E-03 0.  1.
         12    1    3    3    0    0 -0.11263887303E+02  0.95943796703E+01 -0.13053221698E+02  0.19731038370E+02  0.00000000000E+00 0. -1.
</event>
<event>
 7    1  0.1339094E-013  0.7246156E+02  0.7816164E-02  0.1226708E+00
        -11   -1    0    0    0    0  0.00000000000E+00  0.00000000000E+00  0.45593999997E+02  0.45594000000E+02  0.51100000000E-03 0.  1.
         11   -1    0    0    0    0 -0.00000000000E+00 -0.00000000000E+00 -0.45593999997E+02  0.45594000000E+02  0.51100000000E-03 0. -1.
    9900012    2    1    2    0    0  0.30976391761E+00 -0.16862100519E+02  0.81396119459E+01  0.72461556925E+02  0.69999982585E+02 0.  0.
         12    1    1    2    0    0 -0.30976391761E+00  0.16862100519E+02 -0.81396119459E+01  0.18726443075E+02  0.00000000000E+00 0. -1.
         11    1    3    3    0    0 -0.12084168658E+02  0.14484063707E+02 -0.57660449753E+00  0.18871876076E+02  0.51100000000E-03 0. -1.
        -11    1    3    3    0    0  0.22894132092E+01 -0.36771484570E+02 -0.32858576212E+01  0.36988922002E+02  0.51100000000E-03 0.  1.
        -12    1    3    3    0    0  0.10104519366E+02  0.54253203440E+01  0.12002074065E+02  0.16600758847E+02  0.00000000000E+00 0.  1.
</event>
<event>
 7    1  0.1339094E-013  0.7246154E+02  0.7816164E-02  0.1226708E+00
        -11   -1    0    0    0    0  0.00000000000E+00  0.00000000000E+00  0.45593999997E+02  0.45594000000E+02  0.51100000000E-03 0.  1.
         11   -1    0    0    0    0 -0.00000000000E+00 -0.00000000000E+00 -0.45593999997E+02  0.45594000000E+02  0.51100000000E-03 0. -1.
    9900012    2    1    2    0    0  0.10068902842E+02  0.15787098462E+02  0.25492231747E+00  0.72461540973E+02  0.69999961804E+02 0.  0.
         12    1    1    2    0    0 -0.10068902842E+02 -0.15787098462E+02 -0.25492231747E+00  0.18726459027E+02  0.00000000000E+00 0. -1.
         11    1    3    3    0    0  0.96779238674E+01  0.29233813257E+02 -0.70837405758E+01  0.31598376995E+02  0.51100000000E-03 0. -1.
        -11    1    3    3    0    0 -0.81591407839E+01 -0.15201373469E+02  0.19408457357E+02  0.25968087163E+02  0.51100000000E-03 0.  1.
         12    1    3    3    0    0  0.85501197581E+01  0.17546586738E+01 -0.12069794463E+02  0.14895076815E+02  0.00000000000E+00 0. -1.
</event>
<event>
 7    1  0.1339094E-013  0.7246155E+02  0.7816164E-02  0.1226708E+00
        -11   -1    0    0    0    0  0.00000000000E+00  0.00000000000E+00  0.45593999997E+02  0.45594000000E+02  0.51100000000E-03 0.  1.
         11   -1    0    0    0    0 -0.00000000000E+00 -0.00000000000E+00 -0.45593999997E+02  0.45594000000E+02  0.51100000000E-03 0. -1.
    9900012    2    1    2    0    0  0.40468934503E+01 -0.42429152765E+01  0.17784831031E+02  0.72461551019E+02  0.69999974890E+02 0.  0.
         12    1    1    2    0    0 -0.40468934503E+01  0.42429152765E+01 -0.17784831031E+02  0.18726448981E+02  0.00000000000E+00 0. -1.
         11    1    3    3    0    0  0.12543954967E+02  0.17260510210E+02  0.28633938712E+00  0.21339119228E+02  0.51100000000E-03 0. -1.
        -11    1    3    3    0    0  0.81634030991E+01 -0.17369269949E+02  0.25718481699E+02  0.32090076190E+02  0.51100000000E-03 0.  1.
         12    1    3    3    0    0 -0.16660464616E+02 -0.41341555373E+01 -0.82199900552E+01  0.19032355601E+02  0.00000000000E+00 0. -1.
</event>
<event>
 7    1  0.1339094E-013  0.7246170E+02  0.7816164E-02  0.1226708E+00
        -11   -1    0    0    0    0  0.00000000000E+00  0.00000000000E+00  0.45593999997E+02  0.45594000000E+02  0.51100000000E-03 0. -1.
         11   -1    0    0    0    0 -0.00000000000E+00 -0.00000000000E+00 -0.45593999997E+02  0.45594000000E+02  0.51100000000E-03 0.  1.
    9900012    2    1    2    0    0 -0.13979115935E+02  0.11303175522E+02  0.52437413382E+01  0.72461700781E+02  0.70000169983E+02 0.  0.
         12    1    1    2    0    0  0.13979115935E+02 -0.11303175522E+02 -0.52437413382E+01  0.18726299219E+02  0.00000000000E+00 0. -1.
         11    1    3    3    0    0  0.20842533312E+01 -0.19164247576E+02 -0.12844635367E+02  0.23164566801E+02  0.51100000000E-03 0. -1.
        -11    1    3    3    0    0 -0.16573947418E+02  0.31116136283E+01  0.69870050050E+00  0.16877975443E+02  0.51100000000E-03 0.  1.
         12    1    3    3    0    0  0.51057815167E+00  0.27355809470E+02  0.17389676205E+02  0.32419158538E+02  0.00000000000E+00 0. -1.
</event>
<event>
 7    1  0.1339094E-013  0.7246157E+02  0.7816164E-02  0.1226708E+00
        -11   -1    0    0    0    0  0.00000000000E+00  0.00000000000E+00  0.45593999997E+02  0.45594000000E+02  0.51100000000E-03 0.  1.
         11   -1    0    0    0    0 -0.00000000000E+00 -0.00000000000E+00 -0.45593999997E+02  0.45594000000E+02  0.51100000000E-03 0. -1.
    9900012    2    1    2    0    0 -0.16061440560E+02  0.35155832330E+01  0.89638253229E+01  0.72461565135E+02  0.69999993279E+02 0.  0.
         12    1    1    2    0    0  0.16061440560E+02 -0.35155832330E+01 -0.89638253229E+01  0.18726434865E+02  0.00000000000E+00 0. -1.
         11    1    3    3    0    0  0.10979969007E+02 -0.10133422287E+02  0.11364671403E+02  0.18772365940E+02  0.51100000000E-03 0. -1.
        -11    1    3    3    0    0 -0.23166524478E+02  0.26443628311E+02 -0.12091972672E+02  0.37177535395E+02  0.51100000000E-03 0.  1.
         12    1    3    3    0    0 -0.38748850884E+01 -0.12794622792E+02  0.96911265928E+01  0.16511663801E+02  0.00000000000E+00 0. -1.
</event>
<event>
 7    1  0.1339094E-013  0.7246158E+02  0.7816164E-02  0.1226708E+00
        -11   -1    0    0    0    0  0.00000000000E+00  0.00000000000E+00  0.45593999997E+02  0.45594000000E+02  0.51100000000E-03 0. -1.
         11   -1    0    0    0    0 -0.00000000000E+00 -0.00000000000E+00 -0.45593999997E+02  0.45594000000E+02  0.51100000000E-03 0.  1.
    9900012    2    1    2    0    0  0.41864368335E+01  0.99245816985E+01 -0.15318459912E+02  0.72461580445E+02  0.70000013224E+02 0.  0.
         12    1    1    2    0    0 -0.41864368335E+01 -0.99245816985E+01  0.15318459912E+02  0.18726419555E+02  0.00000000000E+00 0. -1.
         11    1    3    3    0    0  0.18914509215E+02  0.40255748559E+01  0.20595293369E+01  0.19447508147E+02  0.51100000000E-03 0. -1.
        -11    1    3    3    0    0 -0.20834399812E+02 -0.12002832129E+02  0.41033996644E+01  0.24392172590E+02  0.51100000000E-03 0.  1.
        -12    1    3    3    0    0  0.61063274296E+01  0.17901838971E+02 -0.21481388914E+02  0.28621899708E+02  0.00000000000E+00 0.  1.
</event>
<event>
 7    1  0.1339094E-013  0.7246171E+02  0.7816164E-02  0.1226708E+00
        -11   -1    0    0    0    0  0.00000000000E+00  0.00000000000E+00  0.45593999997E+02  0.45594000000E+02  0.51100000000E-03 0. -1.
         11   -1    0    0    0    0 -0.00000000000E+00 -0.00000000000E+00 -0.45593999997E+02  0.45594000000E+02  0.51100000000E-03 0.  1.
    9900012    2    1    2    0    0 -0.17045412771E+02  0.74200984739E+01  0.22516246993E+01  0.72461714418E+02  0.70000187748E+02 0.  0.
         12    1    1    2    0    0  0.17045412771E+02 -0.74200984739E+01 -0.22516246993E+01  0.18726285582E+02  0.00000000000E+00 0. -1.
         11    1    3    3    0    0 -0.24494068162E+02  0.19786359545E+02  0.15955829718E+01  0.31527849346E+02  0.51100000000E-03 0. -1.
        -11    1    3    3    0    0  0.19161864345E+02  0.33773371622E+01  0.64080097821E+01  0.20485263999E+02  0.51100000000E-03 0.  1.
        -12    1    3    3    0    0 -0.11713208955E+02 -0.15743598233E+02 -0.57519680546E+01  0.20448601073E+02  0.00000000000E+00 0.  1.
</event>
<event>
 7    1  0.1339094E-013  0.7246154E+02  0.7816164E-02  0.1226708E+00
        -11   -1    0    0    0    0  0.00000000000E+00  0.00000000000E+00  0.45593999997E+02  0.45594000000E+02  0.51100000000E-03 0.  1.
         11   -1    0    0    0    0 -0.00000000000E+00 -0.00000000000E+00 -0.45593999997E+02  0.45594000000E+02  0.51100000000E-03 0. -1.
    9900012    2    1    2    0    0 -0.39312334387E+01 -0.15327989623E+02  0.10013907383E+02  0.72461542692E+02  0.69999964043E+02 0.  0.
         12    1    1    2    0    0  0.39312334387E+01  0.15327989623E+02 -0.10013907383E+02  0.18726457308E+02  0.00000000000E+00 0. -1.
         11    1    3    3    0    0  0.85417147492E+01  0.12270964697E+02  0.23100371810E+00  0.14952953837E+02  0.51100000000E-03 0. -1.
        -11    1    3    3    0    0  0.17298149851E+01 -0.38626345803E+02  0.74578387931E+01  0.39377737488E+02  0.51100000000E-03 0.  1.
        -12    1    3    3    0    0 -0.14202763173E+02  0.11027391482E+02  0.23250648720E+01  0.18130851368E+02  0.00000000000E+00 0.  1.
</event>
<event>
 7    1  0.1339094E-013  0.7246156E+02  0.7816164E-02  0.1226708E+00
        -11   -1    0    0    0    0  0.00000000000E+00  0.00000000000E+00  0.45593999997E+02  0.45594000000E+02  0.51100000000E-03 0.  1.
         11   -1    0    0    0    0 -0.00000000000E+00 -0.00000000000E+00 -0.45593999997E+02  0.45594000000E+02  0.51100000000E-03 0. -1.
    9900012    2    1    2    0    0 -0.10615113230E+02 -0.14486389185E+01  0.15359047647E+02  0.72461560717E+02  0.69999987524E+02 0.  0.
         12    1    1    2    0    0  0.10615113230E+02  0.14486389185E+01 -0.15359047647E+02  0.18726439283E+02  0.00000000000E+00 0. -1.
         11    1    3    3    0    0 -0.10949503079E+02  0.16733310372E+02 -0.14138972566E+01  0.20047304043E+02  0.51100000000E-03 0. -1.
        -11    1    3    3    0    0 -0.84737822364E+01  0.99890446864E+00  0.27460820852E+02  0.28755859884E+02  0.51100000000E-03 0.  1.
        -12    1    3    3    0    0  0.88081720858E+01 -0.19180853759E+02 -0.10687875948E+02  0.23658396790E+02  0.00000000000E+00 0.  1.
</event>
<event>
 7    1  0.1339094E-013  0.7246154E+02  0.7816164E-02  0.1226708E+00
        -11   -1    0    0    0    0  0.00000000000E+00  0.00000000000E+00  0.45593999997E+02  0.45594000000E+02  0.51100000000E-03 0. -1.
         11   -1    0    0    0    0 -0.00000000000E+00 -0.00000000000E+00 -0.45593999997E+02  0.45594000000E+02  0.51100000000E-03 0.  1.
    9900012    2    1    2    0    0 -0.19681579922E+01 -0.88415884697E+01 -0.16390026295E+02  0.72461540257E+02  0.69999960871E+02 0.  0.
         12    1    1    2    0    0  0.19681579922E+01  0.88415884697E+01  0.16390026295E+02  0.18726459743E+02  0.00000000000E+00 0. -1.
         11    1    3    3    0    0  0.25476485175E+02  0.12241047273E+02 -0.10042292006E+02  0.29995702429E+02  0.51100000000E-03 0. -1.
        -11    1    3    3    0    0 -0.20177566895E+02 -0.69466792675E+01 -0.13270028536E+02  0.25129349699E+02  0.51100000000E-03 0.  1.
         12    1    3    3    0    0 -0.72670762715E+01 -0.14135956476E+02  0.69222942475E+01  0.17336488130E+02  0.00000000000E+00 0. -1.
</event>
<event>
 7    1  0.1339094E-013  0.7246162E+02  0.7816164E-02  0.1226708E+00
        -11   -1    0    0    0    0  0.00000000000E+00  0.00000000000E+00  0.45593999997E+02  0.45594000000E+02  0.51100000000E-03 0. -1.
         11   -1    0    0    0    0 -0.00000000000E+00 -0.00000000000E+00 -0.45593999997E+02  0.45594000000E+02  0.51100000000E-03 0.  1.
    9900012    2    1    2    0    0 -0.16345294758E+02  0.90220121445E+01 -0.14532398245E+01  0.72461621016E+02  0.70000066075E+02 0.  0.
         12    1    1    2    0    0  0.16345294758E+02 -0.90220121445E+01  0.14532398245E+01  0.18726378984E+02  0.00000000000E+00 0. -1.
         11    1    3    3    0    0  0.21773020380E+02 -0.64169681321E+01  0.11944535064E+02  0.25649830695E+02  0.51100000000E-03 0. -1.
        -11    1    3    3    0    0 -0.97106097063E+01 -0.15574989009E+00 -0.10458057128E+02  0.14272041131E+02  0.51100000000E-03 0.  1.
         12    1    3    3    0    0 -0.28407705432E+02  0.15594730167E+02 -0.29397177612E+01  0.32539749191E+02  0.00000000000E+00 0. -1.
</event>
<event>
 7    1  0.1339094E-013  0.7246158E+02  0.7816164E-02  0.1226708E+00
        -11   -1    0    0    0    0  0.00000000000E+00  0.00000000000E+00  0.45593999997E+02  0.45594000000E+02  0.51100000000E-03 0.  1.
         11   -1    0    0    0    0 -0.00000000000E+00 -0.00000000000E+00 -0.45593999997E+02  0.45594000000E+02  0.51100000000E-03 0. -1.
    9900012    2    1    2    0    0 -0.17355103645E+02 -0.55086107329E+01  0.43742807739E+01  0.72461581575E+02  0.70000014695E+02 0.  0.
         12    1    1    2    0    0  0.17355103645E+02  0.55086107329E+01 -0.43742807739E+01  0.18726418425E+02  0.00000000000E+00 0. -1.
         11    1    3    3    0    0 -0.45174190981E+01 -0.23171864304E+02 -0.19533267979E+02  0.30641327139E+02  0.51100000000E-03 0. -1.
        -11    1    3    3    0    0 -0.13801110938E+02  0.13144440725E+02  0.16972514955E+01  0.19134462313E+02  0.51100000000E-03 0.  1.
         12    1    3    3    0    0  0.96342639149E+00  0.45188128458E+01  0.22210297258E+02  0.22685792123E+02  0.00000000000E+00 0. -1.
</event>
<event>
 7    1  0.1339094E-013  0.7246149E+02  0.7816164E-02  0.1226708E+00
        -11   -1    0    0    0    0  0.00000000000E+00  0.00000000000E+00  0.45593999997E+02  0.45594000000E+02  0.51100000000E-03 0.  1.
         11   -1    0    0    0    0 -0.00000000000E+00 -0.00000000000E+00 -0.45593999997E+02  0.45594000000E+02  0.51100000000E-03 0. -1.
    9900012    2    1    2    0    0  0.78729514156E+01 -0.47944551943E+01  0.16300676738E+02  0.72461488666E+02  0.69999893664E+02 0.  0.
         12    1    1    2    0    0 -0.78729514156E+01  0.47944551943E+01 -0.16300676738E+02  0.18726511334E+02  0.00000000000E+00 0. -1.
         11    1    3    3    0    0 -0.92357955116E+01 -0.12881087812E+02  0.32785377592E+02  0.36415701642E+02  0.51100000000E-03 0.  1.
        -11    1    3    3    0    0 -0.11533508905E+01  0.45883666655E+00 -0.16205248933E+02  0.16252718006E+02  0.51100000000E-03 0. -1.
         12    1    3    3    0    0  0.18262097818E+02  0.76277959510E+01 -0.27945192115E+00  0.19793069018E+02  0.00000000000E+00 0. -1.
</event>
<event>
 7    1  0.1339094E-013  0.7246155E+02  0.7816164E-02  0.1226708E+00
        -11   -1    0    0    0    0  0.00000000000E+00  0.00000000000E+00  0.45593999997E+02  0.45594000000E+02  0.51100000000E-03 0. -1.
         11   -1    0    0    0    0 -0.00000000000E+00 -0.00000000000E+00 -0.45593999997E+02  0.45594000000E+02  0.51100000000E-03 0.  1.
    9900012    2    1    2    0    0 -0.18173798979E+02  0.43854769839E+01 -0.10773330676E+01  0.72461547473E+02  0.69999970271E+02 0.  0.
         12    1    1    2    0    0  0.18173798979E+02 -0.43854769839E+01  0.10773330676E+01  0.18726452527E+02  0.00000000000E+00 0. -1.
         11    1    3    3    0    0  0.12542393735E+02 -0.90648460444E+01  0.50456159849E+01  0.16277018012E+02  0.51100000000E-03 0.  1.
        -11    1    3    3    0    0 -0.37371085290E+02  0.21192190999E+02  0.21923434483E+01  0.43017593438E+02  0.51100000000E-03 0. -1.
        -12    1    3    3    0    0  0.66548925759E+01 -0.77418679707E+01 -0.83152925008E+01  0.13166936024E+02  0.00000000000E+00 0.  1.
</event>
<event>
 7    1  0.1339094E-013  0.7246157E+02  0.7816164E-02  0.1226708E+00
        -11   -1    0    0    0    0  0.00000000000E+00  0.00000000000E+00  0.45593999997E+02  0.45594000000E+02  0.51100000000E-03 0.  1.
         11   -1    0    0    0    0 -0.00000000000E+00 -0.00000000000E+00 -0.45593999997E+02  0.45594000000E+02  0.51100000000E-03 0. -1.
    9900012    2    1    2    0    0 -0.13900385380E+02  0.50503886052E+01  0.11487042797E+02  0.72461567051E+02  0.69999995774E+02 0.  0.
         12    1    1    2    0    0  0.13900385380E+02 -0.50503886052E+01 -0.11487042797E+02  0.18726432949E+02  0.00000000000E+00 0. -1.
         11    1    3    3    0    0 -0.46300000146E+01  0.24779283990E+00 -0.14678264584E+02  0.15393172281E+02  0.51100000000E-03 0. -1.
        -11    1    3    3    0    0  0.16785747348E+02  0.14841261099E+02  0.81698175150E+01  0.23848904870E+02  0.51100000000E-03 0.  1.
        -12    1    3    3    0    0 -0.26056132713E+02 -0.10038665334E+02  0.17995489866E+02  0.33219489899E+02  0.00000000000E+00 0.  1.
</event>
<event>
 7    1  0.1339094E-013  0.7246153E+02  0.7816164E-02  0.1226708E+00
        -11   -1    0    0    0    0  0.00000000000E+00  0.00000000000E+00  0.45593999997E+02  0.45594000000E+02  0.51100000000E-03 0.  1.
         11   -1    0    0    0    0 -0.00000000000E+00 -0.00000000000E+00 -0.45593999997E+02  0.45594000000E+02  0.51100000000E-03 0. -1.
    9900012    2    1    2    0    0 -0.10212319836E+02 -0.12282277574E+02 -0.97741850668E+01  0.72461534435E+02  0.69999953286E+02 0.  0.
         12    1    1    2    0    0  0.10212319836E+02  0.12282277574E+02  0.97741850668E+01  0.18726465565E+02  0.00000000000E+00 0. -1.
         11    1    3    3    0    0 -0.12482151853E+01  0.84475498253E+01 -0.75323993279E+01  0.11386666725E+02  0.51100000000E-03 0. -1.
        -11    1    3    3    0    0  0.75302527153E+01 -0.28195077247E+02  0.17707049273E+02  0.34135123863E+02  0.51100000000E-03 0.  1.
        -12    1    3    3    0    0 -0.16494357366E+02  0.74652498472E+01 -0.19948835012E+02  0.26939743847E+02  0.00000000000E+00 0.  1.
</event>
<event>
 7    1  0.1339094E-013  0.7246158E+02  0.7816164E-02  0.1226708E+00
        -11   -1    0    0    0    0  0.00000000000E+00  0.00000000000E+00  0.45593999997E+02  0.45594000000E+02  0.51100000000E-03 0. -1.
         11   -1    0    0    0    0 -0.00000000000E+00 -0.00000000000E+00 -0.45593999997E+02  0.45594000000E+02  0.51100000000E-03 0.  1.
    9900012    2    1    2    0    0 -0.11060376089E+02  0.59633987996E+01 -0.13884692431E+02  0.72461582073E+02  0.70000015344E+02 0.  0.
         12    1    1    2    0    0  0.11060376089E+02 -0.59633987996E+01  0.13884692431E+02  0.18726417927E+02  0.00000000000E+00 0. -1.
         11    1    3    3    0    0 -0.10743326736E+02  0.20896151391E+02  0.19277619696E+02  0.30392348276E+02  0.51100000000E-03 0. -1.
        -11    1    3    3    0    0  0.31213206446E+01  0.45400847123E+01 -0.11421122396E+02  0.12680577621E+02  0.51100000000E-03 0.  1.
         12    1    3    3    0    0 -0.34383699972E+01 -0.19472837304E+02 -0.21741189731E+02  0.29388656176E+02  0.00000000000E+00 0. -1.
</event>
<event>
 7    1  0.1339094E-013  0.7246172E+02  0.7816164E-02  0.1226708E+00
        -11   -1    0    0    0    0  0.00000000000E+00  0.00000000000E+00  0.45593999997E+02  0.45594000000E+02  0.51100000000E-03 0. -1.
         11   -1    0    0    0    0 -0.00000000000E+00 -0.00000000000E+00 -0.45593999997E+02  0.45594000000E+02  0.51100000000E-03 0.  1.
    9900012    2    1    2    0    0  0.17526468080E+02 -0.49826631502E+01 -0.43208137857E+01  0.72461723083E+02  0.70000199035E+02 0.  0.
         12    1    1    2    0    0 -0.17526468080E+02  0.49826631502E+01  0.43208137857E+01  0.18726276917E+02  0.00000000000E+00 0. -1.
         11    1    3    3    0    0  0.16858064365E+02  0.12116249661E+02 -0.65066679411E+01  0.21756253536E+02  0.51100000000E-03 0. -1.
        -11    1    3    3    0    0 -0.18803925134E+02 -0.18567100109E+02  0.11798531660E+02  0.28940113277E+02  0.51100000000E-03 0.  1.
        -12    1    3    3    0    0  0.19472328849E+02  0.14681872978E+01 -0.96126775050E+01  0.21765356270E+02  0.00000000000E+00 0.  1.
</event>
<event>
 7    1  0.1339094E-013  0.7246158E+02  0.7816164E-02  0.1226708E+00
        -11   -1    0    0    0    0  0.00000000000E+00  0.00000000000E+00  0.45593999997E+02  0.45594000000E+02  0.51100000000E-03 0.  1.
         11   -1    0    0    0    0 -0.00000000000E+00 -0.00000000000E+00 -0.45593999997E+02  0.45594000000E+02  0.51100000000E-03 0. -1.
    9900012    2    1    2    0    0 -0.17320114370E+02 -0.71321216205E+00 -0.70840635846E+01  0.72461575081E+02  0.70000006236E+02 0.  0.
         12    1    1    2    0    0  0.17320114370E+02  0.71321216205E+00  0.70840635846E+01  0.18726424919E+02  0.00000000000E+00 0. -1.
         11    1    3    3    0    0 -0.77280388490E+01  0.87054954141E+01 -0.23821281710E+02  0.26513424853E+02  0.51100000000E-03 0. -1.
        -11    1    3    3    0    0 -0.11866819124E+02 -0.21259040170E+01  0.29053256388E+02  0.31455247114E+02  0.51100000000E-03 0.  1.
        -12    1    3    3    0    0  0.22747436030E+01 -0.72928035591E+01 -0.12316038262E+02  0.14492903114E+02  0.00000000000E+00 0.  1.
</event>
<event>
 7    1  0.1339094E-013  0.7246156E+02  0.7816164E-02  0.1226708E+00
        -11   -1    0    0    0    0  0.00000000000E+00  0.00000000000E+00  0.45593999997E+02  0.45594000000E+02  0.51100000000E-03 0.  1.
         11   -1    0    0    0    0 -0.00000000000E+00 -0.00000000000E+00 -0.45593999997E+02  0.45594000000E+02  0.51100000000E-03 0. -1.
    9900012    2    1    2    0    0 -0.64779210611E+01 -0.25436129349E+01  0.17385230078E+02  0.72461557388E+02  0.69999983188E+02 0.  0.
         12    1    1    2    0    0  0.64779210611E+01  0.25436129349E+01 -0.17385230078E+02  0.18726442612E+02  0.00000000000E+00 0. -1.
         11    1    3    3    0    0  0.73258165292E+01  0.11453188937E+02 -0.49509641065E+01  0.14469110908E+02  0.51100000000E-03 0. -1.
        -11    1    3    3    0    0 -0.37785275664E+01 -0.24334018716E+02 -0.67524202092E+01  0.25534621916E+02  0.51100000000E-03 0.  1.
        -12    1    3    3    0    0 -0.10025210024E+02  0.10337216844E+02  0.29088614393E+02  0.32457824564E+02  0.00000000000E+00 0.  1.
</event>
<event>
 7    1  0.1339094E-013  0.7246154E+02  0.7816164E-02  0.1226708E+00
        -11   -1    0    0    0    0  0.00000000000E+00  0.00000000000E+00  0.45593999997E+02  0.45594000000E+02  0.51100000000E-03 0.  1.
         11   -1    0    0    0    0 -0.00000000000E+00 -0.00000000000E+00 -0.45593999997E+02  0.45594000000E+02  0.51100000000E-03 0. -1.
    9900012    2    1    2    0    0  0.10288962588E+02  0.85698270615E+01  0.13091046536E+02  0.72461543143E+02  0.69999964630E+02 0.  0.
         12    1    1    2    0    0 -0.10288962588E+02 -0.85698270615E+01 -0.13091046536E+02  0.18726456857E+02  0.00000000000E+00 0. -1.
         11    1    3    3    0    0  0.22009797925E+02 -0.18883530203E+02 -0.75026228245E+01  0.29955104191E+02  0.51100000000E-03 0. -1.
        -11    1    3    3    0    0 -0.13783100008E+02  0.57612076816E+01  0.11684218901E+02  0.18965398266E+02  0.51100000000E-03 0.  1.
        -12    1    3    3    0    0  0.20622646719E+01  0.21692149582E+02  0.89094504592E+01  0.23541040686E+02  0.00000000000E+00 0.  1.
</event>
<event>
 7    1  0.1339094E-013  0.7246155E+02  0.7816164E-02  0.1226708E+00
        -11   -1    0    0    0    0  0.00000000000E+00  0.00000000000E+00  0.45593999997E+02  0.45594000000E+02  0.51100000000E-03 0. -1.
         11   -1    0    0    0    0 -0.00000000000E+00 -0.00000000000E+00 -0.45593999997E+02  0.45594000000E+02  0.51100000000E-03 0.  1.
    9900012    2    1    2    0    0  0.12129631590E+02  0.14213324830E+02 -0.12382253673E+01  0.72461554334E+02  0.69999979208E+02 0.  0.
         12    1    1    2    0    0 -0.12129631590E+02 -0.14213324830E+02  0.12382253673E+01  0.18726445666E+02  0.00000000000E+00 0. -1.
         11    1    3    3    0    0 -0.11344373767E+02  0.11618133312E+02  0.20166874697E+02  0.25891671888E+02  0.51100000000E-03 0. -1.
        -11    1    3    3    0    0 -0.15043378809E+01 -0.10623600973E+02 -0.13461129398E+02  0.17214120222E+02  0.51100000000E-03 0.  1.
         12    1    3    3    0    0  0.24978343238E+02  0.13218792490E+02 -0.79439706668E+01  0.29355762224E+02  0.00000000000E+00 0. -1.
</event>
<event>
 7    1  0.1339094E-013  0.7246156E+02  0.7816164E-02  0.1226708E+00
        -11   -1    0    0    0    0  0.00000000000E+00  0.00000000000E+00  0.45593999997E+02  0.45594000000E+02  0.51100000000E-03 0. -1.
         11   -1    0    0    0    0 -0.00000000000E+00 -0.00000000000E+00 -0.45593999997E+02  0.45594000000E+02  0.51100000000E-03 0.  1.
    9900012    2    1    2    0    0  0.11108526934E+02 -0.15045705349E+02 -0.95231730961E+00  0.72461560714E+02  0.69999987520E+02 0.  0.
         12    1    1    2    0    0 -0.11108526934E+02  0.15045705349E+02  0.95231730961E+00  0.18726439286E+02  0.00000000000E+00 0. -1.
         11    1    3    3    0    0  0.29208072309E+01  0.47296212353E+01 -0.16327210233E+02  0.17247557107E+02  0.51100000000E-03 0. -1.
        -11    1    3    3    0    0  0.20321657986E+02 -0.30520380762E+02  0.12594093438E+02  0.38769506251E+02  0.51100000000E-03 0.  1.
        -12    1    3    3    0    0 -0.12133938282E+02  0.10745054178E+02  0.27807994845E+01  0.16444497356E+02  0.00000000000E+00 0.  1.
</event>
<event>
 7    1  0.1367318E-013  0.7246162E+02  0.7816164E-02  0.1226708E+00
        -11   -1    0    0    0    0  0.00000000000E+00  0.00000000000E+00  0.45593999997E+02  0.45594000000E+02  0.51100000000E-03 0. -1.
         11   -1    0    0    0    0 -0.00000000000E+00 -0.00000000000E+00 -0.45593999997E+02  0.45594000000E+02  0.51100000000E-03 0.  1.
    9900012    2    1    2    0    0 -0.14838478732E+02  0.13199252576E+01 -0.11347014139E+02  0.72461617978E+02  0.70000062117E+02 0.  0.
         12    1    1    2    0    0  0.14838478732E+02 -0.13199252576E+01  0.11347014139E+02  0.18726382022E+02  0.00000000000E+00 0. -1.
         11    1    3    3    0    0 -0.16618313545E+02  0.25996485181E+01  0.20839435246E+02  0.26780750160E+02  0.51100000000E-03 0. -1.
        -11    1    3    3    0    0 -0.10409166830E+02 -0.10606096830E+02 -0.24151014921E+02  0.28356861005E+02  0.51100000000E-03 0.  1.
         12    1    3    3    0    0  0.12189001644E+02  0.93263735691E+01 -0.80354344643E+01  0.17324006813E+02  0.00000000000E+00 0. -1.
</event>
<event>
 7    1  0.1339094E-013  0.7246156E+02  0.7816164E-02  0.1226708E+00
        -11   -1    0    0    0    0  0.00000000000E+00  0.00000000000E+00  0.45593999997E+02  0.45594000000E+02  0.51100000000E-03 0.  1.
         11   -1    0    0    0    0 -0.00000000000E+00 -0.00000000000E+00 -0.45593999997E+02  0.45594000000E+02  0.51100000000E-03 0. -1.
    9900012    2    1    2    0    0 -0.71526742043E+01 -0.15484769941E+02  0.77292132396E+01  0.72461559182E+02  0.69999985524E+02 0.  0.
         12    1    1    2    0    0  0.71526742043E+01  0.15484769941E+02 -0.77292132396E+01  0.18726440818E+02  0.00000000000E+00 0. -1.
         11    1    3    3    0    0 -0.10282068079E+02 -0.14170535700E+02 -0.30245307998E+00  0.17510467845E+02  0.51100000000E-03 0. -1.
        -11    1    3    3    0    0 -0.64995094962E+01  0.24657870903E+02 -0.17874192921E+01  0.25562650276E+02  0.51100000000E-03 0.  1.
        -12    1    3    3    0    0  0.96289033714E+01 -0.25972105144E+02  0.98190856117E+01  0.29388441061E+02  0.00000000000E+00 0.  1.
</event>
<event>
 7    1  0.1339094E-013  0.7246152E+02  0.7816164E-02  0.1226708E+00
        -11   -1    0    0    0    0  0.00000000000E+00  0.00000000000E+00  0.45593999997E+02  0.45594000000E+02  0.51100000000E-03 0.  1.
         11   -1    0    0    0    0 -0.00000000000E+00 -0.00000000000E+00 -0.45593999997E+02  0.45594000000E+02  0.51100000000E-03 0. -1.
    9900012    2    1    2    0    0  0.13980657167E+02  0.33195787429E+01 -0.12008441815E+02  0.72461520014E+02  0.69999934501E+02 0.  0.
         12    1    1    2    0    0 -0.13980657167E+02 -0.33195787429E+01  0.12008441815E+02  0.18726479986E+02  0.00000000000E+00 0. -1.
         11    1    3    3    0    0 -0.18353955485E+02 -0.19747757501E+02  0.38379136724E+01  0.27231804749E+02  0.51100000000E-03 0. -1.
        -11    1    3    3    0    0  0.93603633779E+01  0.64125037325E+00  0.98991409326E-01  0.93828249567E+01  0.51100000000E-03 0.  1.
         12    1    3    3    0    0  0.22974249274E+02  0.22426085870E+02 -0.15945346896E+02  0.35846890309E+02  0.00000000000E+00 0. -1.
</event>
<event>
 7    1  0.1339094E-013  0.7246113E+02  0.7816164E-02  0.1226709E+00
        -11   -1    0    0    0    0  0.00000000000E+00  0.00000000000E+00  0.45593999997E+02  0.45594000000E+02  0.51100000000E-03 0. -1.
         11   -1    0    0    0    0 -0.00000000000E+00 -0.00000000000E+00 -0.45593999997E+02  0.45594000000E+02  0.51100000000E-03 0.  1.
    9900012    2    1    2    0    0  0.18146390411E+02  0.37704199145E+01  0.26810767375E+01  0.72461128297E+02  0.69999424215E+02 0.  0.
         12    1    1    2    0    0 -0.18146390411E+02 -0.37704199145E+01 -0.26810767375E+01  0.18726871703E+02  0.00000000000E+00 0. -1.
         11    1    3    3    0    0  0.11663308119E+02 -0.15615888110E+02  0.85306826541E+01  0.21275837576E+02  0.51100000000E-03 0. -1.
        -11    1    3    3    0    0 -0.10419516005E+02  0.13971465690E+02 -0.21392020761E+02  0.27593236849E+02  0.51100000000E-03 0.  1.
        -12    1    3    3    0    0  0.16902598297E+02  0.54148423349E+01  0.15542414845E+02  0.23592053872E+02  0.00000000000E+00 0.  1.
</event>
<event>
 7    1  0.1339094E-013  0.7246156E+02  0.7816164E-02  0.1226708E+00
        -11   -1    0    0    0    0  0.00000000000E+00  0.00000000000E+00  0.45593999997E+02  0.45594000000E+02  0.51100000000E-03 0. -1.
         11   -1    0    0    0    0 -0.00000000000E+00 -0.00000000000E+00 -0.45593999997E+02  0.45594000000E+02  0.51100000000E-03 0.  1.
    9900012    2    1    2    0    0 -0.80294276889E+00 -0.13583896411E+02 -0.12865166110E+02  0.72461562596E+02  0.69999989972E+02 0.  0.
         12    1    1    2    0    0  0.80294276889E+00  0.13583896411E+02  0.12865166110E+02  0.18726437404E+02  0.00000000000E+00 0. -1.
         11    1    3    3    0    0  0.38708430597E+00 -0.10205637807E+02  0.98138285289E+01  0.14163901580E+02  0.51100000000E-03 0. -1.
        -11    1    3    3    0    0  0.63775904137E+01  0.21867328830E+02 -0.22390891153E+02  0.31940659613E+02  0.51100000000E-03 0.  1.
        -12    1    3    3    0    0 -0.75676174886E+01 -0.25245587434E+02 -0.28810348495E+00  0.26357001403E+02  0.00000000000E+00 0.  1.
</event>
<event>
 7    1  0.1339094E-013  0.7246156E+02  0.7816164E-02  0.1226708E+00
        -11   -1    0    0    0    0  0.00000000000E+00  0.00000000000E+00  0.45593999997E+02  0.45594000000E+02  0.51100000000E-03 0. -1.
         11   -1    0    0    0    0 -0.00000000000E+00 -0.00000000000E+00 -0.45593999997E+02  0.45594000000E+02  0.51100000000E-03 0.  1.
    9900012    2    1    2    0    0 -0.17914116221E+02  0.13091489074E+01 -0.52962289588E+01  0.72461562218E+02  0.69999989478E+02 0.  0.
         12    1    1    2    0    0  0.17914116221E+02 -0.13091489074E+01  0.52962289588E+01  0.18726437782E+02  0.00000000000E+00 0. -1.
         11    1    3    3    0    0  0.61189657835E+01 -0.49329886334E+01  0.16484684048E+02  0.18262555339E+02  0.51100000000E-03 0. -1.
        -11    1    3    3    0    0 -0.25385177596E+02 -0.95277128149E+01 -0.26263698184E+02  0.37748727073E+02  0.51100000000E-03 0.  1.
         12    1    3    3    0    0  0.13520955918E+01  0.15769850356E+02  0.44827851772E+01  0.16450279805E+02  0.00000000000E+00 0. -1.
</event>
<event>
 7    1  0.1339094E-013  0.7246157E+02  0.7816164E-02  0.1226708E+00
        -11   -1    0    0    0    0  0.00000000000E+00  0.00000000000E+00  0.45593999997E+02  0.45594000000E+02  0.51100000000E-03 0.  1.
         11   -1    0    0    0    0 -0.00000000000E+00 -0.00000000000E+00 -0.45593999997E+02  0.45594000000E+02  0.51100000000E-03 0. -1.
    9900012    2    1    2    0    0 -0.12060919504E+02 -0.12236344777E+02 -0.74488525354E+01  0.72461566360E+02  0.69999994875E+02 0.  0.
         12    1    1    2    0    0  0.12060919504E+02  0.12236344777E+02  0.74488525354E+01  0.18726433640E+02  0.00000000000E+00 0. -1.
         11    1    3    3    0    0 -0.28392833525E+02  0.69877432073E+00 -0.16726888444E+02  0.32961038794E+02  0.51100000000E-03 0. -1.
        -11    1    3    3    0    0  0.23513579400E+02 -0.10338159657E+02 -0.21280760493E+01  0.25773914511E+02  0.51100000000E-03 0.  1.
        -12    1    3    3    0    0 -0.71816653790E+01 -0.25969594407E+01  0.11406111958E+02  0.13726613054E+02  0.00000000000E+00 0.  1.
</event>
<event>
 8    1  0.1339094E-013  0.7246147E+02  0.7816164E-02  0.1226708E+00
        -11   -1    0    0    0    0  0.00000000000E+00  0.00000000000E+00  0.45593999997E+02  0.45594000000E+02  0.51100000000E-03 0.  1.
         11   -1    0    0    0    0 -0.00000000000E+00 -0.00000000000E+00 -0.45593999997E+02  0.45594000000E+02  0.51100000000E-03 0. -1.
    9900012    2    1    2    0    0  0.54415934295E+01 -0.53777529440E+01  0.17092446819E+02  0.72461470582E+02  0.69999870106E+02 0.  0.
        -24    2    3    3    0    0 -0.69286142301E+01 -0.15970658566E+02  0.46930102281E+01  0.51992525443E+02  0.48766081724E+02 0.  0.
         12    1    1    2    0    0 -0.54415934295E+01  0.53777529440E+01 -0.17092446819E+02  0.18726529418E+02  0.00000000000E+00 0. -1.
         11    1    4    4    0    0 -0.27762197234E+02 -0.12251090639E+02  0.14099703989E+00  0.30345488916E+02  0.51100000000E-03 0. -1.
        -11    1    3    3    0    0  0.12370207660E+02  0.10592905622E+02  0.12399436591E+02  0.20468945139E+02  0.51100000000E-03 0.  1.
        -12    1    4    4    0    0  0.20833583004E+02 -0.37195679267E+01  0.45520131882E+01  0.21647036527E+02  0.00000000000E+00 0.  1.
</event>
<event>
 7    1  0.1339094E-013  0.7246144E+02  0.7816164E-02  0.1226708E+00
        -11   -1    0    0    0    0  0.00000000000E+00  0.00000000000E+00  0.45593999997E+02  0.45594000000E+02  0.51100000000E-03 0.  1.
         11   -1    0    0    0    0 -0.00000000000E+00 -0.00000000000E+00 -0.45593999997E+02  0.45594000000E+02  0.51100000000E-03 0. -1.
    9900012    2    1    2    0    0 -0.15306633614E+01 -0.11826927272E+02  0.14438313111E+02  0.72461440666E+02  0.69999831134E+02 0.  0.
         12    1    1    2    0    0  0.15306633614E+01  0.11826927272E+02 -0.14438313111E+02  0.18726559334E+02  0.00000000000E+00 0. -1.
         11    1    3    3    0    0 -0.87560203041E+01 -0.87114869904E+01 -0.25064865742E+02  0.27942895199E+02  0.51100000000E-03 0. -1.
        -11    1    3    3    0    0  0.60811654523E+01  0.75313618240E+01  0.21360479175E+02  0.23451483003E+02  0.51100000000E-03 0.  1.
         12    1    3    3    0    0  0.11441914903E+01 -0.10646802105E+02  0.18142699678E+02  0.21067062463E+02  0.00000000000E+00 0. -1.
</event>
<event>
 7    1  0.1339094E-013  0.7246149E+02  0.7816164E-02  0.1226708E+00
        -11   -1    0    0    0    0  0.00000000000E+00  0.00000000000E+00  0.45593999997E+02  0.45594000000E+02  0.51100000000E-03 0. -1.
         11   -1    0    0    0    0 -0.00000000000E+00 -0.00000000000E+00 -0.45593999997E+02  0.45594000000E+02  0.51100000000E-03 0.  1.
    9900012    2    1    2    0    0  0.14191229667E+00 -0.52223679647E+01 -0.17983016782E+02  0.72461490479E+02  0.69999896026E+02 0.  0.
         12    1    1    2    0    0 -0.14191229667E+00  0.52223679647E+01  0.17983016782E+02  0.18726509521E+02  0.00000000000E+00 0. -1.
         11    1    3    3    0    0  0.78820521353E+01  0.53557112296E+01  0.27978131403E+01  0.99316739409E+01  0.51100000000E-03 0. -1.
        -11    1    3    3    0    0 -0.14277174450E+02 -0.30243681467E+02 -0.24522226470E+02  0.41471165528E+02  0.51100000000E-03 0.  1.
        -12    1    3    3    0    0  0.65370346117E+01  0.19665602272E+02  0.37413965480E+01  0.21058651010E+02  0.00000000000E+00 0.  1.
</event>
<event>
 7    1  0.1339094E-013  0.7246156E+02  0.7816164E-02  0.1226708E+00
        -11   -1    0    0    0    0  0.00000000000E+00  0.00000000000E+00  0.45593999997E+02  0.45594000000E+02  0.51100000000E-03 0. -1.
         11   -1    0    0    0    0 -0.00000000000E+00 -0.00000000000E+00 -0.45593999997E+02  0.45594000000E+02  0.51100000000E-03 0.  1.
    9900012    2    1    2    0    0 -0.15998613587E+02 -0.23453748196E+01 -0.94457926419E+01  0.72461563649E+02  0.69999991343E+02 0.  0.
         12    1    1    2    0    0  0.15998613587E+02  0.23453748196E+01  0.94457926419E+01  0.18726436351E+02  0.00000000000E+00 0. -1.
         11    1    3    3    0    0  0.12467723666E+02 -0.14143458060E+01  0.87813754168E+01  0.15315255856E+02  0.51100000000E-03 0. -1.
        -11    1    3    3    0    0 -0.24024699168E+02  0.14640278494E+02  0.52569117550E+01  0.28620954665E+02  0.51100000000E-03 0.  1.
        -12    1    3    3    0    0 -0.44416380853E+01 -0.15571307508E+02 -0.23484079814E+02  0.28525353128E+02  0.00000000000E+00 0.  1.
</event>
<event>
 7    1  0.1339094E-013  0.7246155E+02  0.7816164E-02  0.1226708E+00
        -11   -1    0    0    0    0  0.00000000000E+00  0.00000000000E+00  0.45593999997E+02  0.45594000000E+02  0.51100000000E-03 0. -1.
         11   -1    0    0    0    0 -0.00000000000E+00 -0.00000000000E+00 -0.45593999997E+02  0.45594000000E+02  0.51100000000E-03 0.  1.
    9900012    2    1    2    0    0  0.39845951724E+01  0.16557655129E+02  0.77876269653E+01  0.72461546096E+02  0.69999968477E+02 0.  0.
         12    1    1    2    0    0 -0.39845951724E+01 -0.16557655129E+02 -0.77876269653E+01  0.18726453904E+02  0.00000000000E+00 0. -1.
         11    1    3    3    0    0 -0.14547411505E+02 -0.13610574487E+02  0.85007432634E+01  0.21659583460E+02  0.51100000000E-03 0.  1.
        -11    1    3    3    0    0  0.47089853241E+01  0.19355837484E+02  0.16763061625E+02  0.26035038368E+02  0.51100000000E-03 0. -1.
         12    1    3    3    0    0  0.13823021353E+02  0.10812392132E+02 -0.17476177923E+02  0.24766924269E+02  0.00000000000E+00 0. -1.
</event>
<event>
 7    1  0.1339094E-013  0.7246151E+02  0.7816164E-02  0.1226708E+00
        -11   -1    0    0    0    0  0.00000000000E+00  0.00000000000E+00  0.45593999997E+02  0.45594000000E+02  0.51100000000E-03 0. -1.
         11   -1    0    0    0    0 -0.00000000000E+00 -0.00000000000E+00 -0.45593999997E+02  0.45594000000E+02  0.51100000000E-03 0.  1.
    9900012    2    1    2    0    0 -0.93147898181E+01  0.15079801397E+02 -0.60428158227E+01  0.72461512273E+02  0.69999924416E+02 0.  0.
         12    1    1    2    0    0  0.93147898181E+01 -0.15079801397E+02  0.60428158227E+01  0.18726487727E+02  0.00000000000E+00 0. -1.
         11    1    3    3    0    0 -0.14312695377E+02 -0.23042125874E+02 -0.76612141412E+01  0.28186646060E+02  0.51100000000E-03 0. -1.
        -11    1    3    3    0    0  0.31017667487E+01  0.27112625509E+02  0.11257027308E+02  0.29520096257E+02  0.51100000000E-03 0.  1.
        -12    1    3    3    0    0  0.18961388103E+01  0.11009301762E+02 -0.96386289891E+01  0.14754769956E+02  0.00000000000E+00 0.  1.
</event>
<event>
 7    1  0.1339094E-013  0.7246162E+02  0.7816164E-02  0.1226708E+00
        -11   -1    0    0    0    0  0.00000000000E+00  0.00000000000E+00  0.45593999997E+02  0.45594000000E+02  0.51100000000E-03 0.  1.
         11   -1    0    0    0    0 -0.00000000000E+00 -0.00000000000E+00 -0.45593999997E+02  0.45594000000E+02  0.51100000000E-03 0. -1.
    9900012    2    1    2    0    0 -0.21193840065E+01 -0.54234074655E+01  0.17798099741E+02  0.72461615098E+02  0.70000058366E+02 0.  0.
         12    1    1    2    0    0  0.21193840065E+01  0.54234074655E+01 -0.17798099741E+02  0.18726384902E+02  0.00000000000E+00 0. -1.
         11    1    3    3    0    0 -0.19164231622E+02  0.95094232375E+01 -0.98444963308E+01  0.23550180726E+02  0.51100000000E-03 0. -1.
        -11    1    3    3    0    0  0.25219372747E+02 -0.35839688571E+01  0.12766591447E+02  0.28492936878E+02  0.51100000000E-03 0.  1.
         12    1    3    3    0    0 -0.81745251314E+01 -0.11348861846E+02  0.14876004624E+02  0.20418497494E+02  0.00000000000E+00 0. -1.
</event>
<event>
 7    1  0.1356044E-013  0.7246157E+02  0.7816164E-02  0.1226708E+00
        -11   -1    0    0    0    0  0.00000000000E+00  0.00000000000E+00  0.45593999997E+02  0.45594000000E+02  0.51100000000E-03 0. -1.
         11   -1    0    0    0    0 -0.00000000000E+00 -0.00000000000E+00 -0.45593999997E+02  0.45594000000E+02  0.51100000000E-03 0.  1.
    9900012    2    1    2    0    0  0.55431532118E+01 -0.14545113798E+02 -0.10411154653E+02  0.72461574176E+02  0.70000005057E+02 0.  0.
         12    1    1    2    0    0 -0.55431532118E+01  0.14545113798E+02  0.10411154653E+02  0.18726425824E+02  0.00000000000E+00 0. -1.
         11    1    3    3    0    0  0.16753480511E+02 -0.23659012597E+00  0.14166290364E+02  0.21941259469E+02  0.51100000000E-03 0. -1.
        -11    1    3    3    0    0 -0.21518250743E+02  0.51073762987E+01 -0.13406794218E+02  0.25862376905E+02  0.51100000000E-03 0.  1.
        -12    1    3    3    0    0  0.10307923444E+02 -0.19415899971E+02 -0.11170650799E+02  0.24657937803E+02  0.00000000000E+00 0.  1.
</event>
<event>
 7    1  0.1339094E-013  0.7246143E+02  0.7816164E-02  0.1226708E+00
        -11   -1    0    0    0    0  0.00000000000E+00  0.00000000000E+00  0.45593999997E+02  0.45594000000E+02  0.51100000000E-03 0.  1.
         11   -1    0    0    0    0 -0.00000000000E+00 -0.00000000000E+00 -0.45593999997E+02  0.45594000000E+02  0.51100000000E-03 0. -1.
    9900012    2    1    2    0    0  0.16267192378E+02  0.63054044116E+01  0.68047685839E+01  0.72461426685E+02  0.69999812922E+02 0.  0.
         12    1    1    2    0    0 -0.16267192378E+02 -0.63054044116E+01 -0.68047685839E+01  0.18726573315E+02  0.00000000000E+00 0. -1.
         11    1    3    3    0    0  0.14349536186E+02  0.17788289336E+01 -0.75015136730E+01  0.16289448388E+02  0.51100000000E-03 0. -1.
        -11    1    3    3    0    0  0.13119861948E+02 -0.51326242037E+01  0.30889525103E+02  0.33950513547E+02  0.51100000000E-03 0.  1.
        -12    1    3    3    0    0 -0.11202205757E+02  0.96591996817E+01 -0.16583242847E+02  0.22221464749E+02  0.00000000000E+00 0.  1.
</event>
<event>
 7    1  0.1339094E-013  0.7246156E+02  0.7816164E-02  0.1226708E+00
        -11   -1    0    0    0    0  0.00000000000E+00  0.00000000000E+00  0.45593999997E+02  0.45594000000E+02  0.51100000000E-03 0. -1.
         11   -1    0    0    0    0 -0.00000000000E+00 -0.00000000000E+00 -0.45593999997E+02  0.45594000000E+02  0.51100000000E-03 0.  1.
    9900012    2    1    2    0    0 -0.13529291804E+02 -0.10916490334E+02 -0.69619116232E+01  0.72461555827E+02  0.69999981153E+02 0.  0.
         12    1    1    2    0    0  0.13529291804E+02  0.10916490334E+02  0.69619116232E+01  0.18726444173E+02  0.00000000000E+00 0. -1.
         11    1    3    3    0    0 -0.15472379133E+02 -0.23983230626E+02  0.13918567768E+02  0.31753998115E+02  0.51100000000E-03 0. -1.
        -11    1    3    3    0    0 -0.21359072249E+01  0.20447605812E+02 -0.27890018604E+01  0.20747173657E+02  0.51100000000E-03 0.  1.
         12    1    3    3    0    0  0.40789945539E+01 -0.73808655197E+01 -0.18091477531E+02  0.19960384055E+02  0.00000000000E+00 0. -1.
</event>
<event>
 7    1  0.1339094E-013  0.7246157E+02  0.7816164E-02  0.1226708E+00
        -11   -1    0    0    0    0  0.00000000000E+00  0.00000000000E+00  0.45593999997E+02  0.45594000000E+02  0.51100000000E-03 0.  1.
         11   -1    0    0    0    0 -0.00000000000E+00 -0.00000000000E+00 -0.45593999997E+02  0.45594000000E+02  0.51100000000E-03 0. -1.
    9900012    2    1    2    0    0  0.25500661260E+01  0.10773574922E+02  0.15103193936E+02  0.72461568922E+02  0.69999998212E+02 0.  0.
         12    1    1    2    0    0 -0.25500661260E+01 -0.10773574922E+02 -0.15103193936E+02  0.18726431078E+02  0.00000000000E+00 0. -1.
         11    1    3    3    0    0 -0.18697936133E+02  0.19016381395E+02  0.12975189974E+02  0.29657901681E+02  0.51100000000E-03 0. -1.
        -11    1    3    3    0    0  0.96131052378E+00 -0.17248074171E+02  0.91178699341E+01  0.19533451639E+02  0.51100000000E-03 0.  1.
        -12    1    3    3    0    0  0.20286691735E+02  0.90052676979E+01 -0.69898659722E+01  0.23270215602E+02  0.00000000000E+00 0.  1.
</event>
<event>
 7    1  0.1339094E-013  0.7246155E+02  0.7816164E-02  0.1226708E+00
        -11   -1    0    0    0    0  0.00000000000E+00  0.00000000000E+00  0.45593999997E+02  0.45594000000E+02  0.51100000000E-03 0.  1.
         11   -1    0    0    0    0 -0.00000000000E+00 -0.00000000000E+00 -0.45593999997E+02  0.45594000000E+02  0.51100000000E-03 0. -1.
    9900012    2    1    2    0    0 -0.13649090062E+02  0.12604348604E+02 -0.23478946802E+01  0.72461551520E+02  0.69999975543E+02 0.  0.
         12    1    1    2    0    0  0.13649090062E+02 -0.12604348604E+02  0.23478946802E+01  0.18726448480E+02  0.00000000000E+00 0. -1.
         11    1    3    3    0    0 -0.25470841410E+01 -0.50239402425E+01 -0.34027548780E+02  0.34490602915E+02  0.51100000000E-03 0. -1.
        -11    1    3    3    0    0 -0.21160546037E+01  0.41429702227E+01  0.57818118648E+01  0.74209998015E+01  0.51100000000E-03 0.  1.
         12    1    3    3    0    0 -0.89859513175E+01  0.13485318623E+02  0.25897842235E+02  0.30549948804E+02  0.00000000000E+00 0. -1.
</event>
<event>
 7    1  0.1339094E-013  0.7246155E+02  0.7816164E-02  0.1226708E+00
        -11   -1    0    0    0    0  0.00000000000E+00  0.00000000000E+00  0.45593999997E+02  0.45594000000E+02  0.51100000000E-03 0. -1.
         11   -1    0    0    0    0 -0.00000000000E+00 -0.00000000000E+00 -0.45593999997E+02  0.45594000000E+02  0.51100000000E-03 0.  1.
    9900012    2    1    2    0    0  0.21466102956E+01  0.12978266426E+02 -0.13328036467E+02  0.72461551024E+02  0.69999974897E+02 0.  0.
         12    1    1    2    0    0 -0.21466102956E+01 -0.12978266426E+02  0.13328036467E+02  0.18726448976E+02  0.00000000000E+00 0. -1.
         11    1    3    3    0    0  0.64796193885E+01  0.37763532627E+01  0.43149586959E+01  0.86524667115E+01  0.51100000000E-03 0. -1.
        -11    1    3    3    0    0 -0.25285745617E+02  0.23068586077E+01 -0.29372984989E+02  0.38826057944E+02  0.51100000000E-03 0.  1.
        -12    1    3    3    0    0  0.20952736524E+02  0.68950545556E+01  0.11729989826E+02  0.24983026368E+02  0.00000000000E+00 0.  1.
</event>
<event>
 7    1  0.1339094E-013  0.7246154E+02  0.7816164E-02  0.1226708E+00
        -11   -1    0    0    0    0  0.00000000000E+00  0.00000000000E+00  0.45593999997E+02  0.45594000000E+02  0.51100000000E-03 0.  1.
         11   -1    0    0    0    0 -0.00000000000E+00 -0.00000000000E+00 -0.45593999997E+02  0.45594000000E+02  0.51100000000E-03 0. -1.
    9900012    2    1    2    0    0 -0.23105341006E+01 -0.55391160769E+00  0.18575117025E+02  0.72461538552E+02  0.69999958649E+02 0.  0.
         12    1    1    2    0    0  0.23105341006E+01  0.55391160769E+00 -0.18575117025E+02  0.18726461448E+02  0.00000000000E+00 0. -1.
         11    1    3    3    0    0 -0.74273378239E+01  0.20133192274E+02  0.22070381155E+02  0.30783315333E+02  0.51100000000E-03 0.  1.
        -11    1    3    3    0    0 -0.38944764146E+01 -0.21137720254E+02 -0.15616401822E+02  0.26567690344E+02  0.51100000000E-03 0. -1.
         12    1    3    3    0    0  0.90112801379E+01  0.45061637300E+00  0.12121137691E+02  0.15110532875E+02  0.00000000000E+00 0. -1.
</event>
<event>
 7    1  0.1339094E-013  0.7246157E+02  0.7816164E-02  0.1226708E+00
        -11   -1    0    0    0    0  0.00000000000E+00  0.00000000000E+00  0.45593999997E+02  0.45594000000E+02  0.51100000000E-03 0.  1.
         11   -1    0    0    0    0 -0.00000000000E+00 -0.00000000000E+00 -0.45593999997E+02  0.45594000000E+02  0.51100000000E-03 0. -1.
    9900012    2    1    2    0    0 -0.93660687767E+01 -0.88615027480E+01 -0.13580495546E+02  0.72461565888E+02  0.69999994260E+02 0.  0.
         12    1    1    2    0    0  0.93660687767E+01  0.88615027480E+01  0.13580495546E+02  0.18726434112E+02  0.00000000000E+00 0. -1.
         11    1    3    3    0    0 -0.16067619940E+02  0.13636927256E+02 -0.27174279039E+02  0.34388597486E+02  0.51100000000E-03 0. -1.
        -11    1    3    3    0    0 -0.26391786417E+01 -0.76312178831E+01  0.18208561798E+02  0.19918646372E+02  0.51100000000E-03 0.  1.
         12    1    3    3    0    0  0.93407298054E+01 -0.14867212121E+02 -0.46147783051E+01  0.18154322030E+02  0.00000000000E+00 0. -1.
</event>
<event>
 7    1  0.1339094E-013  0.7246174E+02  0.7816164E-02  0.1226708E+00
        -11   -1    0    0    0    0  0.00000000000E+00  0.00000000000E+00  0.45593999997E+02  0.45594000000E+02  0.51100000000E-03 0.  1.
         11   -1    0    0    0    0 -0.00000000000E+00 -0.00000000000E+00 -0.45593999997E+02  0.45594000000E+02  0.51100000000E-03 0. -1.
    9900012    2    1    2    0    0 -0.12228895234E+02 -0.63668635529E+01  0.12672413961E+02  0.72461737539E+02  0.70000217867E+02 0.  0.
         12    1    1    2    0    0  0.12228895234E+02  0.63668635529E+01 -0.12672413961E+02  0.18726262461E+02  0.00000000000E+00 0. -1.
         11    1    3    3    0    0  0.57882332981E+01 -0.10558191795E+02 -0.12080277290E+02  0.17056147231E+02  0.51100000000E-03 0. -1.
        -11    1    3    3    0    0  0.13388787394E+01 -0.40605160880E+01  0.32651535591E+02  0.32930277312E+02  0.51100000000E-03 0.  1.
        -12    1    3    3    0    0 -0.19356007272E+02  0.82518443305E+01 -0.78988443395E+01  0.22475312996E+02  0.00000000000E+00 0.  1.
</event>
<event>
 7    1  0.1339094E-013  0.7246156E+02  0.7816164E-02  0.1226708E+00
        -11   -1    0    0    0    0  0.00000000000E+00  0.00000000000E+00  0.45593999997E+02  0.45594000000E+02  0.51100000000E-03 0.  1.
         11   -1    0    0    0    0 -0.00000000000E+00 -0.00000000000E+00 -0.45593999997E+02  0.45594000000E+02  0.51100000000E-03 0. -1.
    9900012    2    1    2    0    0 -0.13567180066E+02  0.62356237059E+01  0.11301689619E+02  0.72461559703E+02  0.69999986203E+02 0.  0.
         12    1    1    2    0    0  0.13567180066E+02 -0.62356237059E+01 -0.11301689619E+02  0.18726440297E+02  0.00000000000E+00 0. -1.
         11    1    3    3    0    0 -0.81291647781E+01  0.32149646793E+01 -0.23852521765E+02  0.25403978285E+02  0.51100000000E-03 0. -1.
        -11    1    3    3    0    0  0.32004937872E+01 -0.12818119271E+02  0.13855868433E+02  0.19145036757E+02  0.51100000000E-03 0.  1.
         12    1    3    3    0    0 -0.86385090749E+01  0.15838778297E+02  0.21298342952E+02  0.27912544662E+02  0.00000000000E+00 0. -1.
</event>
<event>
 7    1  0.1339094E-013  0.7246158E+02  0.7816164E-02  0.1226708E+00
        -11   -1    0    0    0    0  0.00000000000E+00  0.00000000000E+00  0.45593999997E+02  0.45594000000E+02  0.51100000000E-03 0. -1.
         11   -1    0    0    0    0 -0.00000000000E+00 -0.00000000000E+00 -0.45593999997E+02  0.45594000000E+02  0.51100000000E-03 0.  1.
    9900012    2    1    2    0    0  0.12645371263E+02  0.13798305902E+02  0.61647066428E+00  0.72461582931E+02  0.70000016461E+02 0.  0.
         12    1    1    2    0    0 -0.12645371263E+02 -0.13798305902E+02 -0.61647066428E+00  0.18726417069E+02  0.00000000000E+00 0. -1.
         11    1    3    3    0    0 -0.13863670370E+02  0.12168075142E+02  0.21888207557E+02  0.28624413341E+02  0.51100000000E-03 0. -1.
        -11    1    3    3    0    0  0.18815429035E+01 -0.45761078690E+01 -0.17469478477E+02  0.18156641910E+02  0.51100000000E-03 0.  1.
         12    1    3    3    0    0  0.24627498730E+02  0.62063386297E+01 -0.38022584153E+01  0.25680527680E+02  0.00000000000E+00 0. -1.
</event>
<event>
 7    1  0.1339094E-013  0.7246166E+02  0.7816164E-02  0.1226708E+00
        -11   -1    0    0    0    0  0.00000000000E+00  0.00000000000E+00  0.45593999997E+02  0.45594000000E+02  0.51100000000E-03 0. -1.
         11   -1    0    0    0    0 -0.00000000000E+00 -0.00000000000E+00 -0.45593999997E+02  0.45594000000E+02  0.51100000000E-03 0.  1.
    9900012    2    1    2    0    0  0.29926399348E+00  0.18399201448E+02 -0.34721011359E+01  0.72461664022E+02  0.70000122098E+02 0.  0.
         12    1    1    2    0    0 -0.29926399348E+00 -0.18399201448E+02  0.34721011359E+01  0.18726335978E+02  0.00000000000E+00 0. -1.
         11    1    3    3    0    0 -0.13111434744E+01  0.85353389192E+01 -0.10343432132E+02  0.13474334723E+02  0.51100000000E-03 0. -1.
        -11    1    3    3    0    0  0.11615410512E+02 -0.18294847021E+02  0.16883571649E+02  0.27471333800E+02  0.51100000000E-03 0.  1.
        -12    1    3    3    0    0 -0.10005003044E+02  0.28158709550E+02 -0.10012240653E+02  0.31515995499E+02  0.00000000000E+00 0.  1.
</event>
<event>
 7    1  0.1339094E-013  0.7246161E+02  0.7816164E-02  0.1226708E+00
        -11   -1    0    0    0    0  0.00000000000E+00  0.00000000000E+00  0.45593999997E+02  0.45594000000E+02  0.51100000000E-03 0.  1.
         11   -1    0    0    0    0 -0.00000000000E+00 -0.00000000000E+00 -0.45593999997E+02  0.45594000000E+02  0.51100000000E-03 0. -1.
    9900012    2    1    2    0    0  0.26995122070E+00  0.17557691756E+02  0.65063380097E+01  0.72461605586E+02  0.70000045973E+02 0.  0.
         12    1    1    2    0    0 -0.26995122070E+00 -0.17557691756E+02 -0.65063380097E+01  0.18726394414E+02  0.00000000000E+00 0. -1.
         11    1    3    3    0    0  0.48932227745E+01  0.43543269339E+01 -0.23137232408E+02  0.24046523988E+02  0.51100000000E-03 0. -1.
        -11    1    3    3    0    0 -0.16566379038E+02  0.11533484269E+01  0.26328754658E+02  0.31128418674E+02  0.51100000000E-03 0.  1.
        -12    1    3    3    0    0  0.11943107484E+02  0.12050016395E+02  0.33148157596E+01  0.17286662924E+02  0.00000000000E+00 0.  1.
</event>
<event>
 7    1  0.1339094E-013  0.7246159E+02  0.7816164E-02  0.1226708E+00
        -11   -1    0    0    0    0  0.00000000000E+00  0.00000000000E+00  0.45593999997E+02  0.45594000000E+02  0.51100000000E-03 0. -1.
         11   -1    0    0    0    0 -0.00000000000E+00 -0.00000000000E+00 -0.45593999997E+02  0.45594000000E+02  0.51100000000E-03 0.  1.
    9900012    2    1    2    0    0 -0.44212898657E+00  0.58884473587E+01 -0.17771020391E+02  0.72461589344E+02  0.70000024815E+02 0.  0.
         12    1    1    2    0    0  0.44212898657E+00 -0.58884473587E+01  0.17771020391E+02  0.18726410656E+02  0.00000000000E+00 0. -1.
         11    1    3    3    0    0  0.81660636681E+00  0.18539674521E+02 -0.63220037168E+00  0.18568415519E+02  0.51100000000E-03 0. -1.
        -11    1    3    3    0    0  0.15795658987E+02 -0.21120802107E+02 -0.21881898560E+02  0.34269645597E+02  0.51100000000E-03 0.  1.
        -12    1    3    3    0    0 -0.17054394341E+02  0.84695749449E+01  0.47430785404E+01  0.19623528228E+02  0.00000000000E+00 0.  1.
</event>
<event>
 7    1  0.1339094E-013  0.7246161E+02  0.7816164E-02  0.1226708E+00
        -11   -1    0    0    0    0  0.00000000000E+00  0.00000000000E+00  0.45593999997E+02  0.45594000000E+02  0.51100000000E-03 0.  1.
         11   -1    0    0    0    0 -0.00000000000E+00 -0.00000000000E+00 -0.45593999997E+02  0.45594000000E+02  0.51100000000E-03 0. -1.
    9900012    2    1    2    0    0 -0.15976722544E+02 -0.57901739400E+01  0.78674037803E+01  0.72461606334E+02  0.70000046948E+02 0.  0.
         12    1    1    2    0    0  0.15976722544E+02  0.57901739400E+01 -0.78674037803E+01  0.18726393666E+02  0.00000000000E+00 0. -1.
         11    1    3    3    0    0  0.12571859624E+01  0.16589212914E+01 -0.20741322112E+02  0.20845502623E+02  0.51100000000E-03 0. -1.
        -11    1    3    3    0    0 -0.14910922609E+02  0.14513920865E+02  0.12424517028E+02  0.24235472671E+02  0.51100000000E-03 0.  1.
         12    1    3    3    0    0 -0.23229858972E+01 -0.21963016097E+02  0.16184208865E+02  0.27380631040E+02  0.00000000000E+00 0. -1.
</event>
<event>
 7    1  0.1339094E-013  0.7246100E+02  0.7816164E-02  0.1226710E+00
        -11   -1    0    0    0    0  0.00000000000E+00  0.00000000000E+00  0.45593999997E+02  0.45594000000E+02  0.51100000000E-03 0. -1.
         11   -1    0    0    0    0 -0.00000000000E+00 -0.00000000000E+00 -0.45593999997E+02  0.45594000000E+02  0.51100000000E-03 0.  1.
    9900012    2    1    2    0    0  0.63246021502E+01 -0.16201851272E+02 -0.69426125629E+01  0.72461002210E+02  0.69999259961E+02 0.  0.
         12    1    1    2    0    0 -0.63246021502E+01  0.16201851272E+02  0.69426125629E+01  0.18726997790E+02  0.00000000000E+00 0. -1.
         11    1    3    3    0    0 -0.25605276029E+02 -0.24034626786E+02  0.58451843999E+01  0.35601399217E+02  0.51100000000E-03 0. -1.
        -11    1    3    3    0    0  0.99937796864E+01 -0.19450425768E+00 -0.84774800505E+01  0.13106530151E+02  0.51100000000E-03 0.  1.
         12    1    3    3    0    0  0.21936098493E+02  0.80272797711E+01 -0.43103169123E+01  0.23753072843E+02  0.00000000000E+00 0. -1.
</event>
<event>
 7    1  0.1339094E-013  0.7246153E+02  0.7816164E-02  0.1226708E+00
        -11   -1    0    0    0    0  0.00000000000E+00  0.00000000000E+00  0.45593999997E+02  0.45594000000E+02  0.51100000000E-03 0. -1.
         11   -1    0    0    0    0 -0.00000000000E+00 -0.00000000000E+00 -0.45593999997E+02  0.45594000000E+02  0.51100000000E-03 0.  1.
    9900012    2    1    2    0    0  0.15705780935E+01  0.53416630555E+01 -0.17879611440E+02  0.72461532501E+02  0.69999950768E+02 0.  0.
         12    1    1    2    0    0 -0.15705780935E+01 -0.53416630555E+01  0.17879611440E+02  0.18726467499E+02  0.00000000000E+00 0. -1.
         11    1    3    3    0    0  0.58508786710E+01  0.33329793768E+01  0.25224574807E+02  0.26107866769E+02  0.51100000000E-03 0. -1.
        -11    1    3    3    0    0  0.10938174169E+01  0.67745758096E+01 -0.34354871527E+02  0.35033534104E+02  0.51100000000E-03 0.  1.
         12    1    3    3    0    0 -0.53741179943E+01 -0.47658921310E+01 -0.87493147201E+01  0.11320131629E+02  0.00000000000E+00 0. -1.
</event>
<event>
 7    1  0.1339094E-013  0.7246156E+02  0.7816164E-02  0.1226708E+00
        -11   -1    0    0    0    0  0.00000000000E+00  0.00000000000E+00  0.45593999997E+02  0.45594000000E+02  0.51100000000E-03 0. -1.
         11   -1    0    0    0    0 -0.00000000000E+00 -0.00000000000E+00 -0.45593999997E+02  0.45594000000E+02  0.51100000000E-03 0.  1.
    9900012    2    1    2    0    0  0.18110585426E+02  0.46723583368E+01 -0.92480196888E+00  0.72461561588E+02  0.69999988659E+02 0.  0.
         12    1    1    2    0    0 -0.18110585426E+02 -0.46723583368E+01  0.92480196888E+00  0.18726438412E+02  0.00000000000E+00 0. -1.
         11    1    3    3    0    0  0.14734044456E+02  0.62365482039E+01  0.16088114045E+02  0.22689513290E+02  0.51100000000E-03 0. -1.
        -11    1    3    3    0    0 -0.56031590552E+01  0.33030906439E+01 -0.31434197221E+02  0.32100070940E+02  0.51100000000E-03 0.  1.
        -12    1    3    3    0    0  0.89797000250E+01 -0.48672805111E+01  0.14421281206E+02  0.17671977358E+02  0.00000000000E+00 0.  1.
</event>
<event>
 7    1  0.1339094E-013  0.7246153E+02  0.7816164E-02  0.1226708E+00
        -11   -1    0    0    0    0  0.00000000000E+00  0.00000000000E+00  0.45593999997E+02  0.45594000000E+02  0.51100000000E-03 0. -1.
         11   -1    0    0    0    0 -0.00000000000E+00 -0.00000000000E+00 -0.45593999997E+02  0.45594000000E+02  0.51100000000E-03 0.  1.
    9900012    2    1    2    0    0 -0.31132011672E+01 -0.61727614913E+01 -0.17403607799E+02  0.72461532892E+02  0.69999951276E+02 0.  0.
         12    1    1    2    0    0  0.31132011672E+01  0.61727614913E+01  0.17403607799E+02  0.18726467108E+02  0.00000000000E+00 0. -1.
         11    1    3    3    0    0 -0.12198651372E+02 -0.14208650280E+02 -0.70025293239E+01  0.19993205227E+02  0.51100000000E-03 0. -1.
        -11    1    3    3    0    0  0.88232047193E+01  0.27921607690E+02 -0.13666333501E+02  0.32314606437E+02  0.51100000000E-03 0.  1.
        -12    1    3    3    0    0  0.26224548521E+00 -0.19885718902E+02  0.32652550261E+01  0.20153721228E+02  0.00000000000E+00 0.  1.
</event>
<event>
 7    1  0.1339094E-013  0.7246159E+02  0.7816164E-02  0.1226708E+00
        -11   -1    0    0    0    0  0.00000000000E+00  0.00000000000E+00  0.45593999997E+02  0.45594000000E+02  0.51100000000E-03 0. -1.
         11   -1    0    0    0    0 -0.00000000000E+00 -0.00000000000E+00 -0.45593999997E+02  0.45594000000E+02  0.51100000000E-03 0.  1.
    9900012    2    1    2    0    0 -0.32145965425E+01 -0.19167076238E+01 -0.18348597180E+02  0.72461590373E+02  0.70000026156E+02 0.  0.
         12    1    1    2    0    0  0.32145965425E+01  0.19167076238E+01  0.18348597180E+02  0.18726409627E+02  0.00000000000E+00 0. -1.
         11    1    3    3    0    0 -0.98956453853E+01  0.10915946452E+02 -0.80166523022E+00  0.14755485486E+02  0.51100000000E-03 0. -1.
        -11    1    3    3    0    0  0.28049529122E+02  0.30655971255E+01 -0.70961471002E+01  0.29095176123E+02  0.51100000000E-03 0.  1.
        -12    1    3    3    0    0 -0.21368480279E+02 -0.15898251201E+02 -0.10450784850E+02  0.28610928763E+02  0.00000000000E+00 0.  1.
</event>
<event>
 7    1  0.1339094E-013  0.7246142E+02  0.7816164E-02  0.1226708E+00
        -11   -1    0    0    0    0  0.00000000000E+00  0.00000000000E+00  0.45593999997E+02  0.45594000000E+02  0.51100000000E-03 0. -1.
         11   -1    0    0    0    0 -0.00000000000E+00 -0.00000000000E+00 -0.45593999997E+02  0.45594000000E+02  0.51100000000E-03 0.  1.
    9900012    2    1    2    0    0 -0.18139577524E+02  0.14296312958E+01  0.44268210743E+01  0.72461418272E+02  0.69999801963E+02 0.  0.
         12    1    1    2    0    0  0.18139577524E+02 -0.14296312958E+01 -0.44268210743E+01  0.18726581728E+02  0.00000000000E+00 0. -1.
         11    1    3    3    0    0 -0.10229674236E+02 -0.15093085250E+02 -0.45368974451E+01  0.18789116425E+02  0.51100000000E-03 0. -1.
        -11    1    3    3    0    0  0.11986598596E+02  0.63767636657E+01  0.23417798227E+02  0.27069077095E+02  0.51100000000E-03 0.  1.
        -12    1    3    3    0    0 -0.19896501883E+02  0.10145952880E+02 -0.14454079707E+02  0.26603224752E+02  0.00000000000E+00 0.  1.
</event>
<event>
 7    1  0.1339094E-013  0.7246157E+02  0.7816164E-02  0.1226708E+00
        -11   -1    0    0    0    0  0.00000000000E+00  0.00000000000E+00  0.45593999997E+02  0.45594000000E+02  0.51100000000E-03 0.  1.
         11   -1    0    0    0    0 -0.00000000000E+00 -0.00000000000E+00 -0.45593999997E+02  0.45594000000E+02  0.51100000000E-03 0. -1.
    9900012    2    1    2    0    0  0.14735940124E+02  0.11429507512E+02  0.17022376263E+01  0.72461569848E+02  0.69999999419E+02 0.  0.
         12    1    1    2    0    0 -0.14735940124E+02 -0.11429507512E+02 -0.17022376263E+01  0.18726430152E+02  0.00000000000E+00 0. -1.
         11    1    3    3    0    0 -0.45160676541E+01 -0.14841516132E+02 -0.12800030213E+02  0.20112340537E+02  0.51100000000E-03 0. -1.
        -11    1    3    3    0    0  0.10040260940E+02  0.48444452690E+01  0.24543562958E+02  0.26956668426E+02  0.51100000000E-03 0.  1.
        -12    1    3    3    0    0  0.92117468380E+01  0.21426578375E+02 -0.10041295119E+02  0.25392560886E+02  0.00000000000E+00 0.  1.
</event>
<event>
 7    1  0.1339094E-013  0.7246155E+02  0.7816164E-02  0.1226708E+00
        -11   -1    0    0    0    0  0.00000000000E+00  0.00000000000E+00  0.45593999997E+02  0.45594000000E+02  0.51100000000E-03 0.  1.
         11   -1    0    0    0    0 -0.00000000000E+00 -0.00000000000E+00 -0.45593999997E+02  0.45594000000E+02  0.51100000000E-03 0. -1.
    9900012    2    1    2    0    0  0.15317448485E+02 -0.53991880914E+01  0.93222479847E+01  0.72461554324E+02  0.69999979196E+02 0.  0.
         12    1    1    2    0    0 -0.15317448485E+02  0.53991880914E+01 -0.93222479847E+01  0.18726445676E+02  0.00000000000E+00 0. -1.
         11    1    3    3    0    0  0.31015654853E+02 -0.16106603366E+02  0.26821814678E+00  0.34949470084E+02  0.51100000000E-03 0. -1.
        -11    1    3    3    0    0  0.45796692895E+01  0.13966273797E+02  0.84740195552E+01  0.16965823949E+02  0.51100000000E-03 0.  1.
         12    1    3    3    0    0 -0.20277875657E+02 -0.32588585226E+01  0.58001028271E+00  0.20546260291E+02  0.00000000000E+00 0. -1.
</event>
<event>
 7    1  0.1339094E-013  0.7246160E+02  0.7816164E-02  0.1226708E+00
        -11   -1    0    0    0    0  0.00000000000E+00  0.00000000000E+00  0.45593999997E+02  0.45594000000E+02  0.51100000000E-03 0.  1.
         11   -1    0    0    0    0 -0.00000000000E+00 -0.00000000000E+00 -0.45593999997E+02  0.45594000000E+02  0.51100000000E-03 0. -1.
    9900012    2    1    2    0    0 -0.10989527723E+02  0.14996732647E+02 -0.22375243695E+01  0.72461595514E+02  0.70000032854E+02 0.  0.
         12    1    1    2    0    0  0.10989527723E+02 -0.14996732647E+02  0.22375243695E+01  0.18726404486E+02  0.00000000000E+00 0. -1.
         11    1    3    3    0    0  0.49316346932E+00  0.16857326431E+02 -0.29323519638E+02  0.33827229695E+02  0.51100000000E-03 0. -1.
        -11    1    3    3    0    0 -0.78596395712E+01  0.82211880077E+01  0.22607898171E+01  0.11596251002E+02  0.51100000000E-03 0.  1.
         12    1    3    3    0    0 -0.36230516215E+01 -0.10081781792E+02  0.24825205452E+02  0.27038114817E+02  0.00000000000E+00 0. -1.
</event>
<event>
 7    1  0.1339094E-013  0.7246168E+02  0.7816164E-02  0.1226708E+00
        -11   -1    0    0    0    0  0.00000000000E+00  0.00000000000E+00  0.45593999997E+02  0.45594000000E+02  0.51100000000E-03 0.  1.
         11   -1    0    0    0    0 -0.00000000000E+00 -0.00000000000E+00 -0.45593999997E+02  0.45594000000E+02  0.51100000000E-03 0. -1.
    9900012    2    1    2    0    0 -0.17242762255E+02 -0.33592112495E+01  0.64867472744E+01  0.72461680538E+02  0.70000143613E+02 0.  0.
         12    1    1    2    0    0  0.17242762255E+02  0.33592112495E+01 -0.64867472744E+01  0.18726319462E+02  0.00000000000E+00 0. -1.
         11    1    3    3    0    0  0.17454930351E+02 -0.12836159366E+02  0.81344000977E+01  0.23143250550E+02  0.51100000000E-03 0. -1.
        -11    1    3    3    0    0 -0.26273904377E+02  0.84913870665E+01  0.14419388732E+02  0.31150288557E+02  0.51100000000E-03 0.  1.
        -12    1    3    3    0    0 -0.84237882285E+01  0.98556105021E+00 -0.16067041555E+02  0.18168141431E+02  0.00000000000E+00 0.  1.
</event>
<event>
 7    1  0.1339094E-013  0.7246157E+02  0.7816164E-02  0.1226708E+00
        -11   -1    0    0    0    0  0.00000000000E+00  0.00000000000E+00  0.45593999997E+02  0.45594000000E+02  0.51100000000E-03 0.  1.
         11   -1    0    0    0    0 -0.00000000000E+00 -0.00000000000E+00 -0.45593999997E+02  0.45594000000E+02  0.51100000000E-03 0. -1.
    9900012    2    1    2    0    0  0.45208863765E+01 -0.18143051910E+02  0.10346548348E+01  0.72461567962E+02  0.69999996962E+02 0.  0.
         12    1    1    2    0    0 -0.45208863765E+01  0.18143051910E+02 -0.10346548348E+01  0.18726432038E+02  0.00000000000E+00 0. -1.
         11    1    3    3    0    0 -0.27071284187E+02 -0.49973388503E+01  0.87072766772E+01  0.28872902357E+02  0.51100000000E-03 0.  1.
        -11    1    3    3    0    0  0.30420897013E+02 -0.12816966715E+02 -0.14930046215E+02  0.36229986076E+02  0.51100000000E-03 0. -1.
         12    1    3    3    0    0  0.11712735502E+01 -0.32874634516E+00  0.72574243724E+01  0.73586795290E+01  0.00000000000E+00 0. -1.
</event>
<event>
 7    1  0.1339094E-013  0.7246163E+02  0.7816164E-02  0.1226708E+00
        -11   -1    0    0    0    0  0.00000000000E+00  0.00000000000E+00  0.45593999997E+02  0.45594000000E+02  0.51100000000E-03 0. -1.
         11   -1    0    0    0    0 -0.00000000000E+00 -0.00000000000E+00 -0.45593999997E+02  0.45594000000E+02  0.51100000000E-03 0.  1.
    9900012    2    1    2    0    0 -0.15607814261E+02  0.10330518458E+02 -0.59453259976E+00  0.72461629646E+02  0.70000077317E+02 0.  0.
         12    1    1    2    0    0  0.15607814261E+02 -0.10330518458E+02  0.59453259976E+00  0.18726370354E+02  0.00000000000E+00 0. -1.
         11    1    3    3    0    0  0.10443094881E+02 -0.20348094617E+01 -0.19796736255E+02  0.22474640083E+02  0.51100000000E-03 0. -1.
        -11    1    3    3    0    0 -0.24298223624E+02  0.14444877108E+02 -0.22556543788E+01  0.28357470319E+02  0.51100000000E-03 0.  1.
         12    1    3    3    0    0 -0.17526855183E+01 -0.20795491886E+01  0.21457858034E+02  0.21629519244E+02  0.00000000000E+00 0. -1.
</event>
<event>
 7    1  0.1339094E-013  0.7246147E+02  0.7816164E-02  0.1226708E+00
        -11   -1    0    0    0    0  0.00000000000E+00  0.00000000000E+00  0.45593999997E+02  0.45594000000E+02  0.51100000000E-03 0. -1.
         11   -1    0    0    0    0 -0.00000000000E+00 -0.00000000000E+00 -0.45593999997E+02  0.45594000000E+02  0.51100000000E-03 0.  1.
    9900012    2    1    2    0    0 -0.17323369634E+02 -0.44397844847E+01 -0.55562734369E+01  0.72461468120E+02  0.69999866899E+02 0.  0.
         12    1    1    2    0    0  0.17323369634E+02  0.44397844847E+01  0.55562734369E+01  0.18726531880E+02  0.00000000000E+00 0. -1.
         11    1    3    3    0    0 -0.16613240839E+02 -0.28389593662E+02  0.17434017739E+02  0.37227862875E+02  0.51100000000E-03 0. -1.
        -11    1    3    3    0    0 -0.61720621818E+01  0.11520929467E+02 -0.12389006113E+02  0.18008710117E+02  0.51100000000E-03 0.  1.
         12    1    3    3    0    0  0.54619333865E+01  0.12428879711E+02 -0.10601285062E+02  0.17224895128E+02  0.00000000000E+00 0. -1.
</event>
<event>
 7    1  0.1339094E-013  0.7246155E+02  0.7816164E-02  0.1226708E+00
        -11   -1    0    0    0    0  0.00000000000E+00  0.00000000000E+00  0.45593999997E+02  0.45594000000E+02  0.51100000000E-03 0. -1.
         11   -1    0    0    0    0 -0.00000000000E+00 -0.00000000000E+00 -0.45593999997E+02  0.45594000000E+02  0.51100000000E-03 0.  1.
    9900012    2    1    2    0    0 -0.10667517164E+02  0.14163065300E+02 -0.60242537290E+01  0.72461548811E+02  0.69999972014E+02 0.  0.
         12    1    1    2    0    0  0.10667517164E+02 -0.14163065300E+02  0.60242537290E+01  0.18726451189E+02  0.00000000000E+00 0. -1.
         11    1    3    3    0    0 -0.25341154516E+02 -0.37420437738E+01  0.15431501958E+02  0.29904987155E+02  0.51100000000E-03 0. -1.
        -11    1    3    3    0    0  0.81216913753E+01  0.20745799267E+01 -0.23828781367E+02  0.25260177640E+02  0.51100000000E-03 0.  1.
        -12    1    3    3    0    0  0.65519459772E+01  0.15830529147E+02  0.23730256807E+01  0.17296384016E+02  0.00000000000E+00 0.  1.
</event>
<event>
 7    1  0.1339094E-013  0.7246164E+02  0.7816164E-02  0.1226708E+00
        -11   -1    0    0    0    0  0.00000000000E+00  0.00000000000E+00  0.45593999997E+02  0.45594000000E+02  0.51100000000E-03 0. -1.
         11   -1    0    0    0    0 -0.00000000000E+00 -0.00000000000E+00 -0.45593999997E+02  0.45594000000E+02  0.51100000000E-03 0.  1.
    9900012    2    1    2    0    0 -0.10687883746E+02 -0.13670741403E+02 -0.70396518848E+01  0.72461635480E+02  0.70000084916E+02 0.  0.
         12    1    1    2    0    0  0.10687883746E+02  0.13670741403E+02  0.70396518848E+01  0.18726364520E+02  0.00000000000E+00 0. -1.
         11    1    3    3    0    0  0.19137243379E+02  0.50466185174E+01  0.12284559606E+02  0.23294051764E+02  0.51100000000E-03 0.  1.
        -11    1    3    3    0    0 -0.22801855127E+02 -0.18454986838E+02 -0.78948768361E+00  0.29345092051E+02  0.51100000000E-03 0. -1.
         12    1    3    3    0    0 -0.70232719981E+01 -0.26237308264E+00 -0.18534723808E+02  0.19822491665E+02  0.00000000000E+00 0. -1.
</event>
<event>
 7    1  0.1339094E-013  0.7246132E+02  0.7816164E-02  0.1226709E+00
        -11   -1    0    0    0    0  0.00000000000E+00  0.00000000000E+00  0.45593999997E+02  0.45594000000E+02  0.51100000000E-03 0.  1.
         11   -1    0    0    0    0 -0.00000000000E+00 -0.00000000000E+00 -0.45593999997E+02  0.45594000000E+02  0.51100000000E-03 0. -1.
    9900012    2    1    2    0    0  0.27377040858E+01  0.11025977545E+02  0.14886950409E+02  0.72461321252E+02  0.69999675575E+02 0.  0.
         12    1    1    2    0    0 -0.27377040858E+01 -0.11025977545E+02 -0.14886950409E+02  0.18726678748E+02  0.00000000000E+00 0. -1.
         11    1    3    3    0    0  0.30826478410E+02  0.28473504964E+01  0.18066793096E+02  0.35843942153E+02  0.51100000000E-03 0. -1.
        -11    1    3    3    0    0 -0.10341207710E+02 -0.44572680564E+01  0.62486551723E+01  0.12878412447E+02  0.51100000000E-03 0.  1.
         12    1    3    3    0    0 -0.17747566614E+02  0.12635895105E+02 -0.94284978596E+01  0.23738966652E+02  0.00000000000E+00 0. -1.
</event>
<event>
 7    1  0.1339094E-013  0.7246155E+02  0.7816164E-02  0.1226708E+00
        -11   -1    0    0    0    0  0.00000000000E+00  0.00000000000E+00  0.45593999997E+02  0.45594000000E+02  0.51100000000E-03 0. -1.
         11   -1    0    0    0    0 -0.00000000000E+00 -0.00000000000E+00 -0.45593999997E+02  0.45594000000E+02  0.51100000000E-03 0.  1.
    9900012    2    1    2    0    0  0.74299539907E+01 -0.20850908854E+01  0.17062473578E+02  0.72461552796E+02  0.69999977205E+02 0.  0.
         12    1    1    2    0    0 -0.74299539907E+01  0.20850908854E+01 -0.17062473578E+02  0.18726447204E+02  0.00000000000E+00 0. -1.
         11    1    3    3    0    0 -0.12498744807E+02 -0.15133281276E+02  0.15468291545E+02  0.24990055373E+02  0.51100000000E-03 0. -1.
        -11    1    3    3    0    0 -0.20644866081E+01  0.22469646111E+02 -0.39598176208E+01  0.22909108607E+02  0.51100000000E-03 0.  1.
         12    1    3    3    0    0  0.21993185406E+02 -0.94214557201E+01  0.55539996533E+01  0.24562388816E+02  0.00000000000E+00 0. -1.
</event>
<event>
 7    1  0.1732321E-013  0.7246167E+02  0.7816164E-02  0.1226708E+00
        -11   -1    0    0    0    0  0.00000000000E+00  0.00000000000E+00  0.45593999997E+02  0.45594000000E+02  0.51100000000E-03 0. -1.
         11   -1    0    0    0    0 -0.00000000000E+00 -0.00000000000E+00 -0.45593999997E+02  0.45594000000E+02  0.51100000000E-03 0.  1.
    9900012    2    1    2    0    0  0.11110295764E+02  0.77693334695E+01 -0.12917975822E+02  0.72461673242E+02  0.70000134108E+02 0.  0.
         12    1    1    2    0    0 -0.11110295764E+02 -0.77693334695E+01  0.12917975822E+02  0.18726326758E+02  0.00000000000E+00 0. -1.
         11    1    3    3    0    0  0.92415603071E+01 -0.17298197553E+02  0.12643994306E+02  0.23334623798E+02  0.51100000000E-03 0. -1.
        -11    1    3    3    0    0 -0.44506958675E+01  0.21182502673E+01 -0.24827710535E+02  0.25312267551E+02  0.51100000000E-03 0.  1.
         12    1    3    3    0    0  0.63194313243E+01  0.22949280755E+02 -0.73425959308E+00  0.23814781893E+02  0.00000000000E+00 0. -1.
</event>
<event>
 7    1  0.1339094E-013  0.7246158E+02  0.7816164E-02  0.1226708E+00
        -11   -1    0    0    0    0  0.00000000000E+00  0.00000000000E+00  0.45593999997E+02  0.45594000000E+02  0.51100000000E-03 0.  1.
         11   -1    0    0    0    0 -0.00000000000E+00 -0.00000000000E+00 -0.45593999997E+02  0.45594000000E+02  0.51100000000E-03 0. -1.
    9900012    2    1    2    0    0  0.11658482028E+02  0.12397910965E+02  0.78134718278E+01  0.72461581723E+02  0.70000014887E+02 0.  0.
         12    1    1    2    0    0 -0.11658482028E+02 -0.12397910965E+02 -0.78134718278E+01  0.18726418277E+02  0.00000000000E+00 0. -1.
         11    1    3    3    0    0  0.23191444843E+02  0.16421324944E+01 -0.23521779442E+02  0.33072856263E+02  0.51100000000E-03 0. -1.
        -11    1    3    3    0    0 -0.98088319488E+01 -0.27243445394E+01  0.15181676830E+02  0.18278909951E+02  0.51100000000E-03 0.  1.
        -12    1    3    3    0    0 -0.17241308659E+01  0.13480123010E+02  0.16153574440E+02  0.21109815508E+02  0.00000000000E+00 0.  1.
</event>
<event>
 7    1  0.1339094E-013  0.7246158E+02  0.7816164E-02  0.1226708E+00
        -11   -1    0    0    0    0  0.00000000000E+00  0.00000000000E+00  0.45593999997E+02  0.45594000000E+02  0.51100000000E-03 0.  1.
         11   -1    0    0    0    0 -0.00000000000E+00 -0.00000000000E+00 -0.45593999997E+02  0.45594000000E+02  0.51100000000E-03 0. -1.
    9900012    2    1    2    0    0  0.58599310257E+01 -0.10311085015E+01  0.17756035280E+02  0.72461581089E+02  0.70000014062E+02 0.  0.
         12    1    1    2    0    0 -0.58599310257E+01  0.10311085015E+01 -0.17756035280E+02  0.18726418911E+02  0.00000000000E+00 0. -1.
         11    1    3    3    0    0  0.21134890862E+02 -0.13321274446E+01  0.20121045499E+02  0.29211549900E+02  0.51100000000E-03 0. -1.
        -11    1    3    3    0    0 -0.21777984662E+02  0.16840395204E+01  0.13754791928E+02  0.25812998785E+02  0.51100000000E-03 0.  1.
         12    1    3    3    0    0  0.65030248248E+01 -0.13830205773E+01 -0.16119802148E+02  0.17437032405E+02  0.00000000000E+00 0. -1.
</event>
<event>
 7    1  0.1339094E-013  0.7246147E+02  0.7816164E-02  0.1226708E+00
        -11   -1    0    0    0    0  0.00000000000E+00  0.00000000000E+00  0.45593999997E+02  0.45594000000E+02  0.51100000000E-03 0.  1.
         11   -1    0    0    0    0 -0.00000000000E+00 -0.00000000000E+00 -0.45593999997E+02  0.45594000000E+02  0.51100000000E-03 0. -1.
    9900012    2    1    2    0    0 -0.15932928280E+02  0.92427888578E+01  0.33757237270E+01  0.72461471754E+02  0.69999871633E+02 0.  0.
         12    1    1    2    0    0  0.15932928280E+02 -0.92427888578E+01 -0.33757237270E+01  0.18726528246E+02  0.00000000000E+00 0. -1.
         11    1    3    3    0    0 -0.31964608176E+02  0.17795312280E+02 -0.23171058300E+01  0.36657581681E+02  0.51100000000E-03 0. -1.
        -11    1    3    3    0    0  0.69763976275E+01  0.11427601831E+02  0.27885158954E+01  0.13676111605E+02  0.51100000000E-03 0.  1.
         12    1    3    3    0    0  0.90552822685E+01 -0.19980125254E+02  0.29043136616E+01  0.22127778469E+02  0.00000000000E+00 0. -1.
</event>
<event>
 7    1  0.1339094E-013  0.7246150E+02  0.7816164E-02  0.1226708E+00
        -11   -1    0    0    0    0  0.00000000000E+00  0.00000000000E+00  0.45593999997E+02  0.45594000000E+02  0.51100000000E-03 0.  1.
         11   -1    0    0    0    0 -0.00000000000E+00 -0.00000000000E+00 -0.45593999997E+02  0.45594000000E+02  0.51100000000E-03 0. -1.
    9900012    2    1    2    0    0 -0.42795882954E+01  0.10357336400E+02  0.15003086256E+02  0.72461497644E+02  0.69999905359E+02 0.  0.
         12    1    1    2    0    0  0.42795882954E+01 -0.10357336400E+02 -0.15003086256E+02  0.18726502356E+02  0.00000000000E+00 0. -1.
         11    1    3    3    0    0  0.14337542230E+02 -0.42401399897E+01  0.21329881578E+02  0.26048181371E+02  0.51100000000E-03 0. -1.
        -11    1    3    3    0    0 -0.22438921588E+02  0.24656284709E+02  0.10707020793E+01  0.33355419063E+02  0.51100000000E-03 0.  1.
        -12    1    3    3    0    0  0.38217910620E+01 -0.10058808319E+02 -0.73974974015E+01  0.13057897209E+02  0.00000000000E+00 0.  1.
</event>
<event>
 7    1  0.1339094E-013  0.7246155E+02  0.7816164E-02  0.1226708E+00
        -11   -1    0    0    0    0  0.00000000000E+00  0.00000000000E+00  0.45593999997E+02  0.45594000000E+02  0.51100000000E-03 0. -1.
         11   -1    0    0    0    0 -0.00000000000E+00 -0.00000000000E+00 -0.45593999997E+02  0.45594000000E+02  0.51100000000E-03 0.  1.
    9900012    2    1    2    0    0  0.11092867204E+02 -0.12409960998E+02  0.85802704523E+01  0.72461551436E+02  0.69999975434E+02 0.  0.
         12    1    1    2    0    0 -0.11092867204E+02  0.12409960998E+02 -0.85802704523E+01  0.18726448564E+02  0.00000000000E+00 0. -1.
         11    1    3    3    0    0 -0.27952835561E+01  0.10119072663E+02  0.29225759754E+02  0.31054054087E+02  0.51100000000E-03 0. -1.
        -11    1    3    3    0    0  0.55727497210E+01 -0.23598333601E+01 -0.18525141465E+02  0.19488592035E+02  0.51100000000E-03 0.  1.
         12    1    3    3    0    0  0.83154010393E+01 -0.20169200301E+02 -0.21203478366E+01  0.21918905314E+02  0.00000000000E+00 0. -1.
</event>
<event>
 7    1  0.1339094E-013  0.7246156E+02  0.7816164E-02  0.1226708E+00
        -11   -1    0    0    0    0  0.00000000000E+00  0.00000000000E+00  0.45593999997E+02  0.45594000000E+02  0.51100000000E-03 0.  1.
         11   -1    0    0    0    0 -0.00000000000E+00 -0.00000000000E+00 -0.45593999997E+02  0.45594000000E+02  0.51100000000E-03 0. -1.
    9900012    2    1    2    0    0 -0.84966336100E+01 -0.10994269480E+01  0.16651672466E+02  0.72461555643E+02  0.69999980914E+02 0.  0.
         12    1    1    2    0    0  0.84966336100E+01  0.10994269480E+01 -0.16651672466E+02  0.18726444357E+02  0.00000000000E+00 0. -1.
         11    1    3    3    0    0 -0.16732584001E+02 -0.14887699455E+02  0.12320481629E+01  0.22430802602E+02  0.51100000000E-03 0. -1.
        -11    1    3    3    0    0  0.13794404272E+02  0.26433728924E+02  0.67161877187E+00  0.29824129259E+02  0.51100000000E-03 0.  1.
        -12    1    3    3    0    0 -0.55584538810E+01 -0.12645456417E+02  0.14748005531E+02  0.20206623783E+02  0.00000000000E+00 0.  1.
</event>
<event>
 7    1  0.1339094E-013  0.7246152E+02  0.7816164E-02  0.1226708E+00
        -11   -1    0    0    0    0  0.00000000000E+00  0.00000000000E+00  0.45593999997E+02  0.45594000000E+02  0.51100000000E-03 0. -1.
         11   -1    0    0    0    0 -0.00000000000E+00 -0.00000000000E+00 -0.45593999997E+02  0.45594000000E+02  0.51100000000E-03 0.  1.
    9900012    2    1    2    0    0 -0.36572886543E+01 -0.11823139616E+02 -0.14054132892E+02  0.72461520297E+02  0.69999934870E+02 0.  0.
         12    1    1    2    0    0  0.36572886543E+01  0.11823139616E+02  0.14054132892E+02  0.18726479703E+02  0.00000000000E+00 0. -1.
         11    1    3    3    0    0 -0.13135257965E+01 -0.56226350854E+01  0.15973875230E+02  0.16985407427E+02  0.51100000000E-03 0. -1.
        -11    1    3    3    0    0 -0.20068951678E+02 -0.65046880108E+01 -0.31251843993E+02  0.37706120734E+02  0.51100000000E-03 0.  1.
        -12    1    3    3    0    0  0.17725188820E+02  0.30418347988E+00  0.12238358702E+01  0.17769992137E+02  0.00000000000E+00 0.  1.
</event>
<event>
 8    1  0.1339094E-013  0.7246149E+02  0.7816164E-02  0.1226708E+00
        -11   -1    0    0    0    0  0.00000000000E+00  0.00000000000E+00  0.45593999997E+02  0.45594000000E+02  0.51100000000E-03 0.  1.
         11   -1    0    0    0    0 -0.00000000000E+00 -0.00000000000E+00 -0.45593999997E+02  0.45594000000E+02  0.51100000000E-03 0. -1.
    9900012    2    1    2    0    0 -0.25760644965E+01 -0.94512624115E+01  0.15959936827E+02  0.72461493305E+02  0.69999899707E+02 0.  0.
         24    2    3    3    0    0  0.68586520094E+01 -0.13140994605E+02 -0.13825168977E+01  0.52376954459E+02  0.50216602422E+02 0.  0.
         12    1    1    2    0    0  0.25760644965E+01  0.94512624115E+01 -0.15959936827E+02  0.18726506695E+02  0.00000000000E+00 0. -1.
         11    1    3    3    0    0 -0.94347165059E+01  0.36897321932E+01  0.17342453725E+02  0.20084538846E+02  0.51100000000E-03 0.  1.
        -11    1    4    4    0    0  0.20702593944E+02 -0.26063828016E+02 -0.26882681274E+01  0.33393821474E+02  0.51100000000E-03 0. -1.
         12    1    4    4    0    0 -0.13843941934E+02  0.12922833411E+02  0.13057512297E+01  0.18983132985E+02  0.00000000000E+00 0. -1.
</event>
<event>
 7    1  0.1339094E-013  0.7246153E+02  0.7816164E-02  0.1226708E+00
        -11   -1    0    0    0    0  0.00000000000E+00  0.00000000000E+00  0.45593999997E+02  0.45594000000E+02  0.51100000000E-03 0.  1.
         11   -1    0    0    0    0 -0.00000000000E+00 -0.00000000000E+00 -0.45593999997E+02  0.45594000000E+02  0.51100000000E-03 0. -1.
    9900012    2    1    2    0    0  0.33529285537E+01  0.14941138081E+02  0.10779650639E+02  0.72461531969E+02  0.69999950074E+02 0.  0.
         12    1    1    2    0    0 -0.33529285537E+01 -0.14941138081E+02 -0.10779650639E+02  0.18726468031E+02  0.00000000000E+00 0. -1.
         11    1    3    3    0    0 -0.78579664329E+01 -0.14175056005E+02  0.17076597820E+02  0.23543365150E+02  0.51100000000E-03 0.  1.
        -11    1    3    3    0    0  0.16064613793E+02  0.23353396480E+01 -0.13104335212E+02  0.20862627572E+02  0.51100000000E-03 0. -1.
        -12    1    3    3    0    0 -0.48537188063E+01  0.26780854437E+02  0.68073880312E+01  0.28055539247E+02  0.00000000000E+00 0.  1.
</event>
<event>
 7    1  0.1339094E-013  0.7246157E+02  0.7816164E-02  0.1226708E+00
        -11   -1    0    0    0    0  0.00000000000E+00  0.00000000000E+00  0.45593999997E+02  0.45594000000E+02  0.51100000000E-03 0. -1.
         11   -1    0    0    0    0 -0.00000000000E+00 -0.00000000000E+00 -0.45593999997E+02  0.45594000000E+02  0.51100000000E-03 0.  1.
    9900012    2    1    2    0    0  0.15026123696E+02  0.29089078517E+01  0.10790414408E+02  0.72461569979E+02  0.69999999590E+02 0.  0.
         12    1    1    2    0    0 -0.15026123696E+02 -0.29089078517E+01 -0.10790414408E+02  0.18726430021E+02  0.00000000000E+00 0. -1.
         11    1    3    3    0    0  0.32989850766E+02  0.18019071724E+02 -0.39106858402E+01  0.37792997544E+02  0.51100000000E-03 0. -1.
        -11    1    3    3    0    0  0.29605865225E+01 -0.89181936437E+01  0.27598712517E+01  0.97936785740E+01  0.51100000000E-03 0.  1.
         12    1    3    3    0    0 -0.20924313593E+02 -0.61919702285E+01  0.11941228997E+02  0.24874893861E+02  0.00000000000E+00 0. -1.
</event>
<event>
 7    1  0.1339094E-013  0.7246156E+02  0.7816164E-02  0.1226708E+00
        -11   -1    0    0    0    0  0.00000000000E+00  0.00000000000E+00  0.45593999997E+02  0.45594000000E+02  0.51100000000E-03 0.  1.
         11   -1    0    0    0    0 -0.00000000000E+00 -0.00000000000E+00 -0.45593999997E+02  0.45594000000E+02  0.51100000000E-03 0. -1.
    9900012    2    1    2    0    0 -0.16135882179E+02 -0.17544069427E+01  0.93399592078E+01  0.72461562127E+02  0.69999989361E+02 0.  0.
         12    1    1    2    0    0  0.16135882179E+02  0.17544069427E+01 -0.93399592078E+01  0.18726437873E+02  0.00000000000E+00 0. -1.
         11    1    3    3    0    0  0.52251473646E+01  0.11136738667E+02  0.15251432453E+02  0.19594267152E+02  0.51100000000E-03 0. -1.
        -11    1    3    3    0    0 -0.34465206977E+02 -0.15234018784E+01 -0.79416266281E+01  0.35401139516E+02  0.51100000000E-03 0.  1.
         12    1    3    3    0    0  0.13104177434E+02 -0.11367743731E+02  0.20301533828E+01  0.17466155459E+02  0.00000000000E+00 0. -1.
</event>
<event>
 7    1  0.1339094E-013  0.7246146E+02  0.7816164E-02  0.1226708E+00
        -11   -1    0    0    0    0  0.00000000000E+00  0.00000000000E+00  0.45593999997E+02  0.45594000000E+02  0.51100000000E-03 0. -1.
         11   -1    0    0    0    0 -0.00000000000E+00 -0.00000000000E+00 -0.45593999997E+02  0.45594000000E+02  0.51100000000E-03 0.  1.
    9900012    2    1    2    0    0  0.13379283764E+02  0.13058640759E+02 -0.10723907269E+01  0.72461458558E+02  0.69999854442E+02 0.  0.
         12    1    1    2    0    0 -0.13379283764E+02 -0.13058640759E+02  0.10723907269E+01  0.18726541442E+02  0.00000000000E+00 0. -1.
         11    1    3    3    0    0 -0.14240733276E+02  0.11852434474E+02  0.12032823883E+01  0.18566813835E+02  0.51100000000E-03 0. -1.
        -11    1    3    3    0    0  0.34355170510E+02  0.99847166803E+01  0.10216611092E+02  0.37206873699E+02  0.51100000000E-03 0.  1.
        -12    1    3    3    0    0 -0.67351534701E+01 -0.87785103952E+01 -0.12492284207E+02  0.16687771024E+02  0.00000000000E+00 0.  1.
</event>
<event>
 7    1  0.1339094E-013  0.7246158E+02  0.7816164E-02  0.1226708E+00
        -11   -1    0    0    0    0  0.00000000000E+00  0.00000000000E+00  0.45593999997E+02  0.45594000000E+02  0.51100000000E-03 0.  1.
         11   -1    0    0    0    0 -0.00000000000E+00 -0.00000000000E+00 -0.45593999997E+02  0.45594000000E+02  0.51100000000E-03 0. -1.
    9900012    2    1    2    0    0  0.14368239893E+02  0.12008781255E+02  0.14756832306E+00  0.72461576923E+02  0.70000008635E+02 0.  0.
         12    1    1    2    0    0 -0.14368239893E+02 -0.12008781255E+02 -0.14756832306E+00  0.18726423077E+02  0.00000000000E+00 0. -1.
         11    1    3    3    0    0  0.10949622345E+02 -0.15907592345E+02  0.70300249809E+01  0.20551568680E+02  0.51100000000E-03 0. -1.
        -11    1    3    3    0    0  0.14781124430E+02  0.28016517142E+02 -0.17644695447E+02  0.36259373269E+02  0.51100000000E-03 0.  1.
        -12    1    3    3    0    0 -0.11362506881E+02 -0.10014354215E+00  0.10762238789E+02  0.15650634974E+02  0.00000000000E+00 0.  1.
</event>
<event>
 7    1  0.1339094E-013  0.7246153E+02  0.7816164E-02  0.1226708E+00
        -11   -1    0    0    0    0  0.00000000000E+00  0.00000000000E+00  0.45593999997E+02  0.45594000000E+02  0.51100000000E-03 0.  1.
         11   -1    0    0    0    0 -0.00000000000E+00 -0.00000000000E+00 -0.45593999997E+02  0.45594000000E+02  0.51100000000E-03 0. -1.
    9900012    2    1    2    0    0 -0.76712729463E+01 -0.13581835171E+02 -0.10361752434E+02  0.72461532401E+02  0.69999950637E+02 0.  0.
         12    1    1    2    0    0  0.76712729463E+01  0.13581835171E+02  0.10361752434E+02  0.18726467599E+02  0.00000000000E+00 0. -1.
         11    1    3    3    0    0 -0.26905164324E+02 -0.14549490902E+02  0.17292054842E+02  0.35136743073E+02  0.51100000000E-03 0. -1.
        -11    1    3    3    0    0  0.46988274955E+01 -0.61449807473E+01 -0.41200084089E+01  0.87643732102E+01  0.51100000000E-03 0.  1.
         12    1    3    3    0    0  0.14535063882E+02  0.71126364785E+01 -0.23533798867E+02  0.28560416119E+02  0.00000000000E+00 0. -1.
</event>
<event>
 7    1  0.1339094E-013  0.7246160E+02  0.7816164E-02  0.1226708E+00
        -11   -1    0    0    0    0  0.00000000000E+00  0.00000000000E+00  0.45593999997E+02  0.45594000000E+02  0.51100000000E-03 0.  1.
         11   -1    0    0    0    0 -0.00000000000E+00 -0.00000000000E+00 -0.45593999997E+02  0.45594000000E+02  0.51100000000E-03 0. -1.
    9900012    2    1    2    0    0  0.62002015201E+01 -0.17491261668E+02  0.25082742490E+01  0.72461596893E+02  0.70000034649E+02 0.  0.
         12    1    1    2    0    0 -0.62002015201E+01  0.17491261668E+02 -0.25082742490E+01  0.18726403107E+02  0.00000000000E+00 0. -1.
         11    1    3    3    0    0 -0.17780265046E+02 -0.13066129968E+02 -0.23308898859E+02  0.32096204507E+02  0.51100000000E-03 0. -1.
        -11    1    3    3    0    0  0.15947922219E+02  0.63735237400E+01  0.11240655865E+02  0.20525846450E+02  0.51100000000E-03 0.  1.
         12    1    3    3    0    0  0.80325443471E+01 -0.10798655440E+02  0.14576517243E+02  0.19839545936E+02  0.00000000000E+00 0. -1.
</event>
<event>
 8    1  0.1339094E-013  0.7246159E+02  0.7816164E-02  0.1226708E+00
        -11   -1    0    0    0    0  0.00000000000E+00  0.00000000000E+00  0.45593999997E+02  0.45594000000E+02  0.51100000000E-03 0.  1.
         11   -1    0    0    0    0 -0.00000000000E+00 -0.00000000000E+00 -0.45593999997E+02  0.45594000000E+02  0.51100000000E-03 0. -1.
    9900012    2    1    2    0    0  0.11597624808E+02 -0.10541369587E+02  0.10249532724E+02  0.72461593644E+02  0.70000030417E+02 0.  0.
         24    2    3    3    0    0  0.16912877715E+02 -0.18199532678E+02  0.19962431763E+02  0.58999061067E+02  0.49649995998E+02 0.  0.
         12    1    1    2    0    0 -0.11597624808E+02  0.10541369587E+02 -0.10249532724E+02  0.18726406356E+02  0.00000000000E+00 0. -1.
         11    1    3    3    0    0 -0.53152529063E+01  0.76581630904E+01 -0.97128990389E+01  0.13462532577E+02  0.51100000000E-03 0. -1.
        -11    1    4    4    0    0 -0.11515598978E+02 -0.23850866923E+02  0.10772587437E+02  0.28592333118E+02  0.51100000000E-03 0.  1.
         12    1    4    4    0    0  0.28428476692E+02  0.56513342454E+01  0.91898443257E+01  0.30406727949E+02  0.00000000000E+00 0. -1.
</event>
<event>
 7    1  0.1339094E-013  0.7246158E+02  0.7816164E-02  0.1226708E+00
        -11   -1    0    0    0    0  0.00000000000E+00  0.00000000000E+00  0.45593999997E+02  0.45594000000E+02  0.51100000000E-03 0. -1.
         11   -1    0    0    0    0 -0.00000000000E+00 -0.00000000000E+00 -0.45593999997E+02  0.45594000000E+02  0.51100000000E-03 0.  1.
    9900012    2    1    2    0    0 -0.13735897217E+02  0.63537294044E+01 -0.11028791050E+02  0.72461575308E+02  0.70000006532E+02 0.  0.
         12    1    1    2    0    0  0.13735897217E+02 -0.63537294044E+01  0.11028791050E+02  0.18726424692E+02  0.00000000000E+00 0. -1.
         11    1    3    3    0    0 -0.23284519879E+02  0.57679425430E+01  0.65479036927E+01  0.24865901757E+02  0.51100000000E-03 0. -1.
        -11    1    3    3    0    0  0.11924145806E+02  0.62219306777E+01 -0.30480317130E+02  0.33315873201E+02  0.51100000000E-03 0.  1.
        -12    1    3    3    0    0 -0.23755231443E+01 -0.56361438163E+01  0.12903622387E+02  0.14279800350E+02  0.00000000000E+00 0.  1.
</event>
<event>
 7    1  0.1339094E-013  0.7246165E+02  0.7816164E-02  0.1226708E+00
        -11   -1    0    0    0    0  0.00000000000E+00  0.00000000000E+00  0.45593999997E+02  0.45594000000E+02  0.51100000000E-03 0. -1.
         11   -1    0    0    0    0 -0.00000000000E+00 -0.00000000000E+00 -0.45593999997E+02  0.45594000000E+02  0.51100000000E-03 0.  1.
    9900012    2    1    2    0    0 -0.14168268162E+02 -0.11379256443E+01 -0.12191869044E+02  0.72461645089E+02  0.70000097433E+02 0.  0.
         12    1    1    2    0    0  0.14168268162E+02  0.11379256443E+01  0.12191869044E+02  0.18726354911E+02  0.00000000000E+00 0. -1.
         11    1    3    3    0    0 -0.21123145564E+02  0.12093568084E+02 -0.34185813436E+00  0.24342525234E+02  0.51100000000E-03 0. -1.
        -11    1    3    3    0    0 -0.29804082998E+01 -0.22319741292E+02 -0.21827228194E+02  0.31360509815E+02  0.51100000000E-03 0.  1.
        -12    1    3    3    0    0  0.99352857017E+01  0.90882475633E+01  0.99772172839E+01  0.16758610040E+02  0.00000000000E+00 0.  1.
</event>
<event>
 7    1  0.1339094E-013  0.7246158E+02  0.7816164E-02  0.1226708E+00
        -11   -1    0    0    0    0  0.00000000000E+00  0.00000000000E+00  0.45593999997E+02  0.45594000000E+02  0.51100000000E-03 0.  1.
         11   -1    0    0    0    0 -0.00000000000E+00 -0.00000000000E+00 -0.45593999997E+02  0.45594000000E+02  0.51100000000E-03 0. -1.
    9900012    2    1    2    0    0 -0.93533400736E+01 -0.23883358580E+01  0.16046490663E+02  0.72461575320E+02  0.70000006546E+02 0.  0.
         12    1    1    2    0    0  0.93533400736E+01  0.23883358580E+01 -0.16046490663E+02  0.18726424680E+02  0.00000000000E+00 0. -1.
         11    1    3    3    0    0 -0.54188000075E+01 -0.17857809692E+02 -0.13779735107E+02  0.23197971041E+02  0.51100000000E-03 0. -1.
        -11    1    3    3    0    0 -0.17742019135E+02  0.17038585638E+02  0.14409872758E+02  0.28508543925E+02  0.51100000000E-03 0.  1.
         12    1    3    3    0    0  0.13807479069E+02 -0.15691118040E+01  0.15416353013E+02  0.20755060354E+02  0.00000000000E+00 0. -1.
</event>
<event>
 7    1  0.1339094E-013  0.7246157E+02  0.7816164E-02  0.1226708E+00
        -11   -1    0    0    0    0  0.00000000000E+00  0.00000000000E+00  0.45593999997E+02  0.45594000000E+02  0.51100000000E-03 0.  1.
         11   -1    0    0    0    0 -0.00000000000E+00 -0.00000000000E+00 -0.45593999997E+02  0.45594000000E+02  0.51100000000E-03 0. -1.
    9900012    2    1    2    0    0 -0.10000057151E+02  0.10560938195E+02 -0.11795955989E+02  0.72461571182E+02  0.70000001157E+02 0.  0.
         12    1    1    2    0    0  0.10000057151E+02 -0.10560938195E+02  0.11795955989E+02  0.18726428818E+02  0.00000000000E+00 0. -1.
         11    1    3    3    0    0  0.82995823688E+01  0.15536964091E+02 -0.33401598212E+02  0.37761714527E+02  0.51100000000E-03 0. -1.
        -11    1    3    3    0    0 -0.71410612103E+01 -0.13371644797E+01  0.21781944394E+02  0.22961617232E+02  0.51100000000E-03 0.  1.
        -12    1    3    3    0    0 -0.11158578309E+02 -0.36388614168E+01 -0.17630217146E+00  0.11738239423E+02  0.00000000000E+00 0.  1.
</event>
<event>
 7    1  0.1339094E-013  0.7246155E+02  0.7816164E-02  0.1226708E+00
        -11   -1    0    0    0    0  0.00000000000E+00  0.00000000000E+00  0.45593999997E+02  0.45594000000E+02  0.51100000000E-03 0.  1.
         11   -1    0    0    0    0 -0.00000000000E+00 -0.00000000000E+00 -0.45593999997E+02  0.45594000000E+02  0.51100000000E-03 0. -1.
    9900012    2    1    2    0    0 -0.96287929368E+01 -0.12310103294E+02  0.10316380930E+02  0.72461547799E+02  0.69999970696E+02 0.  0.
         12    1    1    2    0    0  0.96287929368E+01  0.12310103294E+02 -0.10316380930E+02  0.18726452201E+02  0.00000000000E+00 0. -1.
         11    1    3    3    0    0  0.43507444701E+01  0.58337109729E+01 -0.15458742629E+02  0.17086072840E+02  0.51100000000E-03 0. -1.
        -11    1    3    3    0    0  0.49772165997E+01  0.40583289489E+01  0.25378778836E+02  0.26178715293E+02  0.51100000000E-03 0.  1.
        -12    1    3    3    0    0 -0.18956754007E+02 -0.22202143216E+02  0.39634472322E+00  0.29196759666E+02  0.00000000000E+00 0.  1.
</event>
<event>
 7    1  0.1385148E-013  0.7246155E+02  0.7816164E-02  0.1226708E+00
        -11   -1    0    0    0    0  0.00000000000E+00  0.00000000000E+00  0.45593999997E+02  0.45594000000E+02  0.51100000000E-03 0. -1.
         11   -1    0    0    0    0 -0.00000000000E+00 -0.00000000000E+00 -0.45593999997E+02  0.45594000000E+02  0.51100000000E-03 0.  1.
    9900012    2    1    2    0    0  0.40244615371E+01 -0.11115691414E+02 -0.14523252652E+02  0.72461554692E+02  0.69999979675E+02 0.  0.
         12    1    1    2    0    0 -0.40244615371E+01  0.11115691414E+02  0.14523252652E+02  0.18726445308E+02  0.00000000000E+00 0. -1.
         11    1    3    3    0    0  0.50830074115E+01 -0.21269991178E+02  0.96959445328E+01  0.23921973784E+02  0.51100000000E-03 0. -1.
        -11    1    3    3    0    0 -0.20865319560E+02  0.48062748145E+01 -0.14329514911E+02  0.25764255001E+02  0.51100000000E-03 0.  1.
        -12    1    3    3    0    0  0.19806773685E+02  0.53480249498E+01 -0.98896822737E+01  0.22775325907E+02  0.00000000000E+00 0.  1.
</event>
<event>
 7    1  0.1339094E-013  0.7246156E+02  0.7816164E-02  0.1226708E+00
        -11   -1    0    0    0    0  0.00000000000E+00  0.00000000000E+00  0.45593999997E+02  0.45594000000E+02  0.51100000000E-03 0. -1.
         11   -1    0    0    0    0 -0.00000000000E+00 -0.00000000000E+00 -0.45593999997E+02  0.45594000000E+02  0.51100000000E-03 0.  1.
    9900012    2    1    2    0    0  0.12111016200E+02  0.65506283229E+01 -0.12692201653E+02  0.72461563403E+02  0.69999991023E+02 0.  0.
         12    1    1    2    0    0 -0.12111016200E+02 -0.65506283229E+01  0.12692201653E+02  0.18726436597E+02  0.00000000000E+00 0. -1.
         11    1    3    3    0    0 -0.30802239823E+01  0.28305441363E+02 -0.21722909510E+02  0.35812994685E+02  0.51100000000E-03 0. -1.
        -11    1    3    3    0    0 -0.50555421516E+01 -0.34441233113E+00  0.46114496095E+01  0.68514665629E+01  0.51100000000E-03 0.  1.
         12    1    3    3    0    0  0.20246782334E+02 -0.21410400708E+02  0.44192582468E+01  0.29797102155E+02  0.00000000000E+00 0. -1.
</event>
<event>
 7    1  0.1339094E-013  0.7246161E+02  0.7816164E-02  0.1226708E+00
        -11   -1    0    0    0    0  0.00000000000E+00  0.00000000000E+00  0.45593999997E+02  0.45594000000E+02  0.51100000000E-03 0.  1.
         11   -1    0    0    0    0 -0.00000000000E+00 -0.00000000000E+00 -0.45593999997E+02  0.45594000000E+02  0.51100000000E-03 0. -1.
    9900012    2    1    2    0    0 -0.12467457916E+02 -0.13183491687E+02  0.46298830516E+01  0.72461607475E+02  0.70000048434E+02 0.  0.
         12    1    1    2    0    0  0.12467457916E+02  0.13183491687E+02 -0.46298830516E+01  0.18726392525E+02  0.00000000000E+00 0. -1.
         11    1    3    3    0    0  0.28334360982E+02 -0.73567267063E+00 -0.29161311670E+01  0.28493526419E+02  0.51100000000E-03 0.  1.
        -11    1    3    3    0    0 -0.27357467942E+02 -0.89915986809E+01  0.15265634497E+01  0.28837654122E+02  0.51100000000E-03 0. -1.
        -12    1    3    3    0    0 -0.13444350956E+02 -0.34562203351E+01  0.60194507689E+01  0.15130426934E+02  0.00000000000E+00 0.  1.
</event>
<event>
 7    1  0.1339094E-013  0.7246155E+02  0.7816164E-02  0.1226708E+00
        -11   -1    0    0    0    0  0.00000000000E+00  0.00000000000E+00  0.45593999997E+02  0.45594000000E+02  0.51100000000E-03 0. -1.
         11   -1    0    0    0    0 -0.00000000000E+00 -0.00000000000E+00 -0.45593999997E+02  0.45594000000E+02  0.51100000000E-03 0.  1.
    9900012    2    1    2    0    0  0.17033250489E+02  0.75761952158E+00 -0.77443015357E+01  0.72461553038E+02  0.69999977520E+02 0.  0.
         12    1    1    2    0    0 -0.17033250489E+02 -0.75761952158E+00  0.77443015357E+01  0.18726446962E+02  0.00000000000E+00 0. -1.
         11    1    3    3    0    0 -0.11064384845E+02  0.13214480689E+02 -0.57188091307E+01  0.18158961700E+02  0.51100000000E-03 0. -1.
        -11    1    3    3    0    0  0.33023634343E+02 -0.18210820114E+00 -0.14549926365E+02  0.36087310043E+02  0.51100000000E-03 0.  1.
        -12    1    3    3    0    0 -0.49259990092E+01 -0.12274752967E+02  0.12524433960E+02  0.18215281295E+02  0.00000000000E+00 0.  1.
</event>
<event>
 7    1  0.1339094E-013  0.7246157E+02  0.7816164E-02  0.1226708E+00
        -11   -1    0    0    0    0  0.00000000000E+00  0.00000000000E+00  0.45593999997E+02  0.45594000000E+02  0.51100000000E-03 0.  1.
         11   -1    0    0    0    0 -0.00000000000E+00 -0.00000000000E+00 -0.45593999997E+02  0.45594000000E+02  0.51100000000E-03 0. -1.
    9900012    2    1    2    0    0 -0.26357248057E+01  0.33442235261E+01  0.18235905423E+02  0.72461571541E+02  0.70000001624E+02 0.  0.
         12    1    1    2    0    0  0.26357248057E+01 -0.33442235261E+01 -0.18235905423E+02  0.18726428459E+02  0.00000000000E+00 0. -1.
         11    1    3    3    0    0  0.20146411598E+02  0.12706993650E+02 -0.14326867461E+02  0.27795768013E+02  0.51100000000E-03 0. -1.
        -11    1    3    3    0    0 -0.91247184408E+00 -0.63461258237E+01  0.15468448416E+02  0.16744515953E+02  0.51100000000E-03 0.  1.
         12    1    3    3    0    0 -0.21869664560E+02 -0.30166443001E+01  0.17094324468E+02  0.27921287575E+02  0.00000000000E+00 0. -1.
</event>
<event>
 7    1  0.1339094E-013  0.7246162E+02  0.7816164E-02  0.1226708E+00
        -11   -1    0    0    0    0  0.00000000000E+00  0.00000000000E+00  0.45593999997E+02  0.45594000000E+02  0.51100000000E-03 0.  1.
         11   -1    0    0    0    0 -0.00000000000E+00 -0.00000000000E+00 -0.45593999997E+02  0.45594000000E+02  0.51100000000E-03 0. -1.
    9900012    2    1    2    0    0  0.91164516496E+01 -0.13871138205E+02 -0.86694412541E+01  0.72461618143E+02  0.70000062332E+02 0.  0.
         12    1    1    2    0    0 -0.91164516496E+01  0.13871138205E+02  0.86694412541E+01  0.18726381857E+02  0.00000000000E+00 0. -1.
         11    1    3    3    0    0 -0.17731391569E+02  0.66654288701E+01 -0.13824780006E+02  0.23451113651E+02  0.51100000000E-03 0. -1.
        -11    1    3    3    0    0  0.28185562954E+02 -0.52103352521E+01 -0.68804816219E+01  0.29477357074E+02  0.51100000000E-03 0.  1.
         12    1    3    3    0    0 -0.13377197354E+01 -0.15326231823E+02  0.12035820374E+02  0.19533147418E+02  0.00000000000E+00 0. -1.
</event>
<event>
 7    1  0.1339094E-013  0.7246160E+02  0.7816164E-02  0.1226708E+00
        -11   -1    0    0    0    0  0.00000000000E+00  0.00000000000E+00  0.45593999997E+02  0.45594000000E+02  0.51100000000E-03 0.  1.
         11   -1    0    0    0    0 -0.00000000000E+00 -0.00000000000E+00 -0.45593999997E+02  0.45594000000E+02  0.51100000000E-03 0. -1.
    9900012    2    1    2    0    0 -0.14724843092E+02 -0.20802340439E+01  0.11381108134E+02  0.72461601518E+02  0.70000040674E+02 0.  0.
         12    1    1    2    0    0  0.14724843092E+02  0.20802340439E+01 -0.11381108134E+02  0.18726398482E+02  0.00000000000E+00 0. -1.
         11    1    3    3    0    0 -0.98622499192E+01  0.85364444850E+01 -0.18206352501E+02  0.22396565129E+02  0.51100000000E-03 0. -1.
        -11    1    3    3    0    0 -0.95372814024E+00  0.13323981507E+02  0.19849535199E+02  0.23925762860E+02  0.51100000000E-03 0.  1.
         12    1    3    3    0    0 -0.39088650323E+01 -0.23940660036E+02  0.97379254362E+01  0.26139273528E+02  0.00000000000E+00 0. -1.
</event>
<event>
 7    1  0.1339094E-013  0.7246156E+02  0.7816164E-02  0.1226708E+00
        -11   -1    0    0    0    0  0.00000000000E+00  0.00000000000E+00  0.45593999997E+02  0.45594000000E+02  0.51100000000E-03 0.  1.
         11   -1    0    0    0    0 -0.00000000000E+00 -0.00000000000E+00 -0.45593999997E+02  0.45594000000E+02  0.51100000000E-03 0. -1.
    9900012    2    1    2    0    0 -0.42598070256E+01 -0.10139458287E+01  0.18207290486E+02  0.72461562302E+02  0.69999989588E+02 0.  0.
         12    1    1    2    0    0  0.42598070256E+01  0.10139458287E+01 -0.18207290486E+02  0.18726437698E+02  0.00000000000E+00 0. -1.
         11    1    3    3    0    0  0.11875568340E+02 -0.23855665110E+02  0.12910071986E+02  0.29610671052E+02  0.51100000000E-03 0.  1.
        -11    1    3    3    0    0 -0.23676678433E+02  0.75097933941E+01 -0.39249593551E+00  0.24842225177E+02  0.51100000000E-03 0. -1.
        -12    1    3    3    0    0  0.75413030672E+01  0.15331925887E+02  0.56897144347E+01  0.18008666072E+02  0.00000000000E+00 0.  1.
</event>
<event>
 7    1  0.1339094E-013  0.7246157E+02  0.7816164E-02  0.1226708E+00
        -11   -1    0    0    0    0  0.00000000000E+00  0.00000000000E+00  0.45593999997E+02  0.45594000000E+02  0.51100000000E-03 0.  1.
         11   -1    0    0    0    0 -0.00000000000E+00 -0.00000000000E+00 -0.45593999997E+02  0.45594000000E+02  0.51100000000E-03 0. -1.
    9900012    2    1    2    0    0  0.18349197611E+02 -0.28887106543E+01 -0.23752146871E+01  0.72461565555E+02  0.69999993827E+02 0.  0.
         12    1    1    2    0    0 -0.18349197611E+02  0.28887106543E+01  0.23752146871E+01  0.18726434445E+02  0.00000000000E+00 0. -1.
         11    1    3    3    0    0  0.31206725835E+01  0.21129125938E+01  0.16160977252E+01  0.41005815589E+01  0.51100000000E-03 0. -1.
        -11    1    3    3    0    0 -0.20511225337E+02 -0.20499073304E+02  0.14114829760E+01  0.29032992536E+02  0.51100000000E-03 0.  1.
        -12    1    3    3    0    0  0.35739750364E+02  0.15497450056E+02 -0.54027953884E+01  0.39327991461E+02  0.00000000000E+00 0.  1.
</event>
<event>
 7    1  0.1339094E-013  0.7246159E+02  0.7816164E-02  0.1226708E+00
        -11   -1    0    0    0    0  0.00000000000E+00  0.00000000000E+00  0.45593999997E+02  0.45594000000E+02  0.51100000000E-03 0.  1.
         11   -1    0    0    0    0 -0.00000000000E+00 -0.00000000000E+00 -0.45593999997E+02  0.45594000000E+02  0.51100000000E-03 0. -1.
    9900012    2    1    2    0    0 -0.61307285384E+01  0.96334324426E+01  0.14842160097E+02  0.72461586318E+02  0.70000020874E+02 0.  0.
         12    1    1    2    0    0  0.61307285384E+01 -0.96334324426E+01 -0.14842160097E+02  0.18726413682E+02  0.00000000000E+00 0. -1.
         11    1    3    3    0    0  0.12363574025E+02  0.24548385472E+02 -0.40150967501E+01  0.27777728383E+02  0.51100000000E-03 0. -1.
        -11    1    3    3    0    0  0.42157320232E+01 -0.14680994956E+02  0.15437094539E+02  0.21716535116E+02  0.51100000000E-03 0.  1.
         12    1    3    3    0    0 -0.22710034586E+02 -0.23395807353E+00  0.34201623084E+01  0.22967322820E+02  0.00000000000E+00 0. -1.
</event>
<event>
 7    1  0.1339094E-013  0.7246154E+02  0.7816164E-02  0.1226708E+00
        -11   -1    0    0    0    0  0.00000000000E+00  0.00000000000E+00  0.45593999997E+02  0.45594000000E+02  0.51100000000E-03 0.  1.
         11   -1    0    0    0    0 -0.00000000000E+00 -0.00000000000E+00 -0.45593999997E+02  0.45594000000E+02  0.51100000000E-03 0. -1.
    9900012    2    1    2    0    0  0.72427157584E+01  0.16597184511E+02  0.47704288302E+01  0.72461535932E+02  0.69999955237E+02 0.  0.
         12    1    1    2    0    0 -0.72427157584E+01 -0.16597184511E+02 -0.47704288302E+01  0.18726464068E+02  0.00000000000E+00 0. -1.
         11    1    3    3    0    0  0.70017253335E+01  0.27930509277E+02 -0.29605133278E+01  0.28946539440E+02  0.51100000000E-03 0. -1.
        -11    1    3    3    0    0  0.14082547720E+02 -0.19384485787E+02 -0.31341717990E+01  0.24164011932E+02  0.51100000000E-03 0.  1.
         12    1    3    3    0    0 -0.13841557295E+02  0.80511610215E+01  0.10865113957E+02  0.19350984560E+02  0.00000000000E+00 0. -1.
</event>
<event>
 7    1  0.1339094E-013  0.7246145E+02  0.7816164E-02  0.1226708E+00
        -11   -1    0    0    0    0  0.00000000000E+00  0.00000000000E+00  0.45593999997E+02  0.45594000000E+02  0.51100000000E-03 0. -1.
         11   -1    0    0    0    0 -0.00000000000E+00 -0.00000000000E+00 -0.45593999997E+02  0.45594000000E+02  0.51100000000E-03 0.  1.
    9900012    2    1    2    0    0 -0.14004412761E+02  0.10072388305E+02 -0.72874715681E+01  0.72461445998E+02  0.69999838081E+02 0.  0.
         12    1    1    2    0    0  0.14004412761E+02 -0.10072388305E+02  0.72874715681E+01  0.18726554002E+02  0.00000000000E+00 0. -1.
         11    1    3    3    0    0 -0.12895066753E+02  0.23618532947E+02  0.90491075992E+01  0.28390212992E+02  0.51100000000E-03 0. -1.
        -11    1    3    3    0    0 -0.13174606620E+02 -0.18704469187E+02  0.30273206201E+00  0.22880539201E+02  0.51100000000E-03 0.  1.
         12    1    3    3    0    0  0.12065260612E+02  0.51583245446E+01 -0.16639311229E+02  0.21190693805E+02  0.00000000000E+00 0. -1.
</event>
<event>
 7    1  0.1339094E-013  0.7246164E+02  0.7816164E-02  0.1226708E+00
        -11   -1    0    0    0    0  0.00000000000E+00  0.00000000000E+00  0.45593999997E+02  0.45594000000E+02  0.51100000000E-03 0.  1.
         11   -1    0    0    0    0 -0.00000000000E+00 -0.00000000000E+00 -0.45593999997E+02  0.45594000000E+02  0.51100000000E-03 0. -1.
    9900012    2    1    2    0    0 -0.32469021069E+00  0.14179337278E+02  0.12227740517E+02  0.72461637098E+02  0.70000087024E+02 0.  0.
         12    1    1    2    0    0  0.32469021069E+00 -0.14179337278E+02 -0.12227740517E+02  0.18726362902E+02  0.00000000000E+00 0. -1.
         11    1    3    3    0    0  0.22596781752E+02 -0.10365987356E+02 -0.13752623313E+02  0.28411316190E+02  0.51100000000E-03 0. -1.
        -11    1    3    3    0    0 -0.28471119910E+01  0.10701954511E+02  0.65100034856E+01  0.12845934092E+02  0.51100000000E-03 0.  1.
         12    1    3    3    0    0 -0.20074359971E+02  0.13843370123E+02  0.19470360344E+02  0.31204386816E+02  0.00000000000E+00 0. -1.
</event>
<event>
 7    1  0.1339094E-013  0.7246147E+02  0.7816164E-02  0.1226708E+00
        -11   -1    0    0    0    0  0.00000000000E+00  0.00000000000E+00  0.45593999997E+02  0.45594000000E+02  0.51100000000E-03 0.  1.
         11   -1    0    0    0    0 -0.00000000000E+00 -0.00000000000E+00 -0.45593999997E+02  0.45594000000E+02  0.51100000000E-03 0. -1.
    9900012    2    1    2    0    0  0.82175616725E+00  0.18707096344E+02 -0.22838848943E+00  0.72461470740E+02  0.69999870311E+02 0.  0.
         12    1    1    2    0    0 -0.82175616725E+00 -0.18707096344E+02  0.22838848943E+00  0.18726529260E+02  0.00000000000E+00 0. -1.
         11    1    3    3    0    0 -0.75381713445E+01  0.14050289740E+02  0.10326950509E+02  0.18996857005E+02  0.51100000000E-03 0. -1.
        -11    1    3    3    0    0  0.50090586934E+01 -0.35177464081E+01 -0.30786238122E+02  0.31388814357E+02  0.51100000000E-03 0.  1.
        -12    1    3    3    0    0  0.33508688184E+01  0.81745530128E+01  0.20230899124E+02  0.22075799378E+02  0.00000000000E+00 0.  1.
</event>
<event>
 7    1  0.1339094E-013  0.7246156E+02  0.7816164E-02  0.1226708E+00
        -11   -1    0    0    0    0  0.00000000000E+00  0.00000000000E+00  0.45593999997E+02  0.45594000000E+02  0.51100000000E-03 0. -1.
         11   -1    0    0    0    0 -0.00000000000E+00 -0.00000000000E+00 -0.45593999997E+02  0.45594000000E+02  0.51100000000E-03 0.  1.
    9900012    2    1    2    0    0 -0.87988919774E+01 -0.15984806089E+02 -0.42124640697E+01  0.72461564694E+02  0.69999992705E+02 0.  0.
         12    1    1    2    0    0  0.87988919774E+01  0.15984806089E+02  0.42124640697E+01  0.18726435306E+02  0.00000000000E+00 0. -1.
         11    1    3    3    0    0 -0.26744007676E+01  0.78433237059E+01  0.13877956551E+02  0.16163781257E+02  0.51100000000E-03 0. -1.
        -11    1    3    3    0    0 -0.52898685446E+00  0.62437359119E+01 -0.24292233165E+02  0.25087380446E+02  0.51100000000E-03 0.  1.
         12    1    3    3    0    0 -0.55955043554E+01 -0.30071865706E+02  0.62018125445E+01  0.31210402991E+02  0.00000000000E+00 0. -1.
</event>
<event>
 7    1  0.1339094E-013  0.7246154E+02  0.7816164E-02  0.1226708E+00
        -11   -1    0    0    0    0  0.00000000000E+00  0.00000000000E+00  0.45593999997E+02  0.45594000000E+02  0.51100000000E-03 0.  1.
         11   -1    0    0    0    0 -0.00000000000E+00 -0.00000000000E+00 -0.45593999997E+02  0.45594000000E+02  0.51100000000E-03 0. -1.
    9900012    2    1    2    0    0 -0.27618282411E+01 -0.12971357338E+02  0.13221055812E+02  0.72461544831E+02  0.69999966829E+02 0.  0.
         12    1    1    2    0    0  0.27618282411E+01  0.12971357338E+02 -0.13221055812E+02  0.18726455169E+02  0.00000000000E+00 0. -1.
         11    1    3    3    0    0 -0.15242100507E+02  0.15012478307E+02  0.12170698284E+01  0.21428424861E+02  0.51100000000E-03 0. -1.
        -11    1    3    3    0    0  0.88031618525E+01 -0.66352111423E+01  0.23899247173E+02  0.26319112850E+02  0.51100000000E-03 0.  1.
        -12    1    3    3    0    0  0.36771104134E+01 -0.21348624503E+02 -0.11895261190E+02  0.24714007120E+02  0.00000000000E+00 0.  1.
</event>
<event>
 8    1  0.1339094E-013  0.7246156E+02  0.7816164E-02  0.1226708E+00
        -11   -1    0    0    0    0  0.00000000000E+00  0.00000000000E+00  0.45593999997E+02  0.45594000000E+02  0.51100000000E-03 0.  1.
         11   -1    0    0    0    0 -0.00000000000E+00 -0.00000000000E+00 -0.45593999997E+02  0.45594000000E+02  0.51100000000E-03 0. -1.
    9900012    2    1    2    0    0  0.46881334239E+00  0.18576682210E+02 -0.23165739310E+01  0.72461563536E+02  0.69999991196E+02 0.  0.
        -24    2    3    3    0    0  0.82749828604E+01  0.24445967242E+02 -0.12603364088E+02  0.58276964799E+02  0.50707782283E+02 0.  0.
         12    1    1    2    0    0 -0.46881334239E+00 -0.18576682210E+02  0.23165739310E+01  0.18726436464E+02  0.00000000000E+00 0. -1.
         11    1    4    4    0    0  0.36258063721E+01  0.31811386410E+02 -0.26711527363E+02  0.41696720153E+02  0.51100000000E-03 0. -1.
        -11    1    3    3    0    0 -0.78061695180E+01 -0.58692850325E+01  0.10286790157E+02  0.14184598737E+02  0.51100000000E-03 0.  1.
        -12    1    4    4    0    0  0.46491764883E+01 -0.73654191676E+01  0.14108163275E+02  0.16580244646E+02  0.00000000000E+00 0.  1.
</event>
<event>
 7    1  0.1339094E-013  0.7246172E+02  0.7816164E-02  0.1226708E+00
        -11   -1    0    0    0    0  0.00000000000E+00  0.00000000000E+00  0.45593999997E+02  0.45594000000E+02  0.51100000000E-03 0.  1.
         11   -1    0    0    0    0 -0.00000000000E+00 -0.00000000000E+00 -0.45593999997E+02  0.45594000000E+02  0.51100000000E-03 0. -1.
    9900012    2    1    2    0    0 -0.25894328825E+01 -0.11329083578E+02  0.14684014393E+02  0.72461719642E+02  0.70000194552E+02 0.  0.
         12    1    1    2    0    0  0.25894328825E+01  0.11329083578E+02 -0.14684014393E+02  0.18726280358E+02  0.00000000000E+00 0. -1.
         11    1    3    3    0    0  0.22336485412E+02  0.36432919185E+01 -0.10114301650E+02  0.24788934117E+02  0.51100000000E-03 0. -1.
        -11    1    3    3    0    0 -0.16556876072E+02 -0.21067868084E+02  0.25892815454E+02  0.37261549932E+02  0.51100000000E-03 0.  1.
        -12    1    3    3    0    0 -0.83690422219E+01  0.60954925878E+01 -0.10944994119E+01  0.10411235593E+02  0.00000000000E+00 0.  1.
</event>
<event>
 7    1  0.1339094E-013  0.7246153E+02  0.7816164E-02  0.1226708E+00
        -11   -1    0    0    0    0  0.00000000000E+00  0.00000000000E+00  0.45593999997E+02  0.45594000000E+02  0.51100000000E-03 0. -1.
         11   -1    0    0    0    0 -0.00000000000E+00 -0.00000000000E+00 -0.45593999997E+02  0.45594000000E+02  0.51100000000E-03 0.  1.
    9900012    2    1    2    0    0  0.13682412750E+02  0.38261765718E+01 -0.12199703153E+02  0.72461526684E+02  0.69999943190E+02 0.  0.
         12    1    1    2    0    0 -0.13682412750E+02 -0.38261765718E+01  0.12199703153E+02  0.18726473316E+02  0.00000000000E+00 0. -1.
         11    1    3    3    0    0  0.24368045867E+02  0.74425661500E+01 -0.31534511846E+02  0.40541569875E+02  0.51100000000E-03 0. -1.
        -11    1    3    3    0    0 -0.11515760471E+02 -0.47529868964E+01 -0.75881594940E-01  0.12458305741E+02  0.51100000000E-03 0.  1.
         12    1    3    3    0    0  0.83012735317E+00  0.11365973182E+01  0.19410690288E+02  0.19461651069E+02  0.00000000000E+00 0. -1.
</event>
<event>
 7    1  0.1339094E-013  0.7246157E+02  0.7816164E-02  0.1226708E+00
        -11   -1    0    0    0    0  0.00000000000E+00  0.00000000000E+00  0.45593999997E+02  0.45594000000E+02  0.51100000000E-03 0. -1.
         11   -1    0    0    0    0 -0.00000000000E+00 -0.00000000000E+00 -0.45593999997E+02  0.45594000000E+02  0.51100000000E-03 0.  1.
    9900012    2    1    2    0    0  0.10945852185E+02  0.15111914773E+02 -0.15803424949E+01  0.72461571335E+02  0.70000001355E+02 0.  0.
         12    1    1    2    0    0 -0.10945852185E+02 -0.15111914773E+02  0.15803424949E+01  0.18726428665E+02  0.00000000000E+00 0. -1.
         11    1    3    3    0    0  0.27302441935E+01 -0.45483814250E+01  0.76492011821E+01  0.93087209609E+01  0.51100000000E-03 0. -1.
        -11    1    3    3    0    0 -0.14727639962E+01  0.29770315399E+02 -0.27212988915E+02  0.40360717024E+02  0.51100000000E-03 0.  1.
        -12    1    3    3    0    0  0.96883719878E+01 -0.10110019201E+02  0.17983445238E+02  0.22792133350E+02  0.00000000000E+00 0.  1.
</event>
<event>
 7    1  0.1339094E-013  0.7246154E+02  0.7816164E-02  0.1226708E+00
        -11   -1    0    0    0    0  0.00000000000E+00  0.00000000000E+00  0.45593999997E+02  0.45594000000E+02  0.51100000000E-03 0. -1.
         11   -1    0    0    0    0 -0.00000000000E+00 -0.00000000000E+00 -0.45593999997E+02  0.45594000000E+02  0.51100000000E-03 0.  1.
    9900012    2    1    2    0    0 -0.31215541481E+01 -0.47199004392E+01 -0.17851013276E+02  0.72461541835E+02  0.69999962926E+02 0.  0.
         12    1    1    2    0    0  0.31215541481E+01  0.47199004392E+01  0.17851013276E+02  0.18726458165E+02  0.00000000000E+00 0. -1.
         11    1    3    3    0    0  0.20188970131E+02  0.14876428862E+02  0.53808265851E+01  0.25648702611E+02  0.51100000000E-03 0. -1.
        -11    1    3    3    0    0 -0.18681443806E+02 -0.19504025259E+02 -0.43302106270E+01  0.27352405165E+02  0.51100000000E-03 0.  1.
        -12    1    3    3    0    0 -0.46290804724E+01 -0.92304041734E-01 -0.18901629234E+02  0.19460434059E+02  0.00000000000E+00 0.  1.
</event>
<event>
 7    1  0.1339094E-013  0.7246156E+02  0.7816164E-02  0.1226708E+00
        -11   -1    0    0    0    0  0.00000000000E+00  0.00000000000E+00  0.45593999997E+02  0.45594000000E+02  0.51100000000E-03 0. -1.
         11   -1    0    0    0    0 -0.00000000000E+00 -0.00000000000E+00 -0.45593999997E+02  0.45594000000E+02  0.51100000000E-03 0.  1.
    9900012    2    1    2    0    0 -0.10182395615E+02 -0.12091769622E+02 -0.10039288401E+02  0.72461564550E+02  0.69999992517E+02 0.  0.
         12    1    1    2    0    0  0.10182395615E+02  0.12091769622E+02  0.10039288401E+02  0.18726435450E+02  0.00000000000E+00 0. -1.
         11    1    3    3    0    0  0.12888796338E+02 -0.32691578839E+02 -0.91762192761E+01  0.36318912408E+02  0.51100000000E-03 0.  1.
        -11    1    3    3    0    0 -0.23680119278E+02  0.22499322511E+02 -0.34831595695E+01  0.32849656974E+02  0.51100000000E-03 0. -1.
        -12    1    3    3    0    0  0.60892732459E+00 -0.18995132947E+01  0.26200904442E+01  0.32929951684E+01  0.00000000000E+00 0.  1.
</event>
<event>
 7    1  0.1339094E-013  0.7246153E+02  0.7816164E-02  0.1226708E+00
        -11   -1    0    0    0    0  0.00000000000E+00  0.00000000000E+00  0.45593999997E+02  0.45594000000E+02  0.51100000000E-03 0. -1.
         11   -1    0    0    0    0 -0.00000000000E+00 -0.00000000000E+00 -0.45593999997E+02  0.45594000000E+02  0.51100000000E-03 0.  1.
    9900012    2    1    2    0    0 -0.69185471208E+00 -0.34716756337E+01 -0.18388837464E+02  0.72461533758E+02  0.69999952404E+02 0.  0.
         12    1    1    2    0    0  0.69185471208E+00  0.34716756337E+01  0.18388837464E+02  0.18726466242E+02  0.00000000000E+00 0. -1.
         11    1    3    3    0    0 -0.24220771653E+02 -0.23238736390E+02 -0.15365356785E+02  0.36915834515E+02  0.51100000000E-03 0. -1.
        -11    1    3    3    0    0  0.22364535641E+02  0.13498935513E+02 -0.81503660316E+01  0.27364615494E+02  0.51100000000E-03 0.  1.
        -12    1    3    3    0    0  0.11643813000E+01  0.62681252438E+01  0.51268853529E+01  0.81810837489E+01  0.00000000000E+00 0.  1.
</event>
<event>
 7    1  0.1339094E-013  0.7246160E+02  0.7816164E-02  0.1226708E+00
        -11   -1    0    0    0    0  0.00000000000E+00  0.00000000000E+00  0.45593999997E+02  0.45594000000E+02  0.51100000000E-03 0. -1.
         11   -1    0    0    0    0 -0.00000000000E+00 -0.00000000000E+00 -0.45593999997E+02  0.45594000000E+02  0.51100000000E-03 0.  1.
    9900012    2    1    2    0    0 -0.17281391723E+02 -0.62800399493E+01  0.35486116288E+01  0.72461600289E+02  0.70000039074E+02 0.  0.
         12    1    1    2    0    0  0.17281391723E+02  0.62800399493E+01 -0.35486116288E+01  0.18726399711E+02  0.00000000000E+00 0. -1.
         11    1    3    3    0    0 -0.12022276451E+02 -0.43037843001E+01 -0.23544442925E+02  0.26784295460E+02  0.51100000000E-03 0.  1.
        -11    1    3    3    0    0 -0.49870096253E+01 -0.16755470590E+02  0.25349557281E+02  0.30793117969E+02  0.51100000000E-03 0. -1.
        -12    1    3    3    0    0 -0.27210564604E+00  0.14779214941E+02  0.17434972728E+01  0.14884186860E+02  0.00000000000E+00 0.  1.
</event>
<event>
 7    1  0.1339094E-013  0.7246162E+02  0.7816164E-02  0.1226708E+00
        -11   -1    0    0    0    0  0.00000000000E+00  0.00000000000E+00  0.45593999997E+02  0.45594000000E+02  0.51100000000E-03 0.  1.
         11   -1    0    0    0    0 -0.00000000000E+00 -0.00000000000E+00 -0.45593999997E+02  0.45594000000E+02  0.51100000000E-03 0. -1.
    9900012    2    1    2    0    0  0.42281080142E+00  0.82593739188E+01  0.16801233417E+02  0.72461615649E+02  0.70000059083E+02 0.  0.
         12    1    1    2    0    0 -0.42281080142E+00 -0.82593739188E+01 -0.16801233417E+02  0.18726384351E+02  0.00000000000E+00 0. -1.
         11    1    3    3    0    0  0.11011951569E+02  0.21499262634E+02  0.35177439411E+02  0.42672398748E+02  0.51100000000E-03 0.  1.
        -11    1    3    3    0    0 -0.19606219191E+01 -0.11277628578E+02 -0.17480865944E+02  0.20895205648E+02  0.51100000000E-03 0. -1.
        -12    1    3    3    0    0 -0.86285188482E+01 -0.19622601364E+01 -0.89534004922E+00  0.88940112525E+01  0.00000000000E+00 0.  1.
</event>
<event>
 7    1  0.1339094E-013  0.7246152E+02  0.7816164E-02  0.1226708E+00
        -11   -1    0    0    0    0  0.00000000000E+00  0.00000000000E+00  0.45593999997E+02  0.45594000000E+02  0.51100000000E-03 0. -1.
         11   -1    0    0    0    0 -0.00000000000E+00 -0.00000000000E+00 -0.45593999997E+02  0.45594000000E+02  0.51100000000E-03 0.  1.
    9900012    2    1    2    0    0 -0.11728203260E+02  0.14536435054E+02  0.13499640084E+01  0.72461518787E+02  0.69999932902E+02 0.  0.
         12    1    1    2    0    0  0.11728203260E+02 -0.14536435054E+02 -0.13499640084E+01  0.18726481213E+02  0.00000000000E+00 0. -1.
         11    1    3    3    0    0  0.19682923388E+02  0.22656028621E+02  0.29746788998E+01  0.30158942634E+02  0.51100000000E-03 0. -1.
        -11    1    3    3    0    0 -0.90635230547E+01 -0.14404678878E+02 -0.71170991178E+01  0.18447095269E+02  0.51100000000E-03 0.  1.
        -12    1    3    3    0    0 -0.22347603593E+02  0.62850853110E+01  0.54923842263E+01  0.23855480884E+02  0.00000000000E+00 0.  1.
</event>
<event>
 7    1  0.1339094E-013  0.7246158E+02  0.7816164E-02  0.1226708E+00
        -11   -1    0    0    0    0  0.00000000000E+00  0.00000000000E+00  0.45593999997E+02  0.45594000000E+02  0.51100000000E-03 0.  1.
         11   -1    0    0    0    0 -0.00000000000E+00 -0.00000000000E+00 -0.45593999997E+02  0.45594000000E+02  0.51100000000E-03 0. -1.
    9900012    2    1    2    0    0 -0.17816765242E+02  0.22042100230E+01 -0.53275919125E+01  0.72461577462E+02  0.70000009337E+02 0.  0.
         12    1    1    2    0    0  0.17816765242E+02 -0.22042100230E+01  0.53275919125E+01  0.18726422538E+02  0.00000000000E+00 0. -1.
         11    1    3    3    0    0 -0.91668439483E+01  0.23550713386E+02 -0.56570971725E+01  0.25897294794E+02  0.51100000000E-03 0. -1.
        -11    1    3    3    0    0  0.68782240437E+01 -0.28314058422E+02  0.31689568839E+01  0.29309352745E+02  0.51100000000E-03 0.  1.
         12    1    3    3    0    0 -0.15528145337E+02  0.69675550587E+01 -0.28394516240E+01  0.17254929922E+02  0.00000000000E+00 0. -1.
</event>
<event>
 7    1  0.1339094E-013  0.7246145E+02  0.7816164E-02  0.1226708E+00
        -11   -1    0    0    0    0  0.00000000000E+00  0.00000000000E+00  0.45593999997E+02  0.45594000000E+02  0.51100000000E-03 0. -1.
         11   -1    0    0    0    0 -0.00000000000E+00 -0.00000000000E+00 -0.45593999997E+02  0.45594000000E+02  0.51100000000E-03 0.  1.
    9900012    2    1    2    0    0 -0.68078276262E+01  0.65230673728E+01 -0.16179820879E+02  0.72461453906E+02  0.69999848383E+02 0.  0.
         12    1    1    2    0    0  0.68078276262E+01 -0.65230673728E+01  0.16179820879E+02  0.18726546094E+02  0.00000000000E+00 0. -1.
         11    1    3    3    0    0 -0.11285339134E+02  0.74344041560E+01 -0.26083269103E+02  0.29376285877E+02  0.51100000000E-03 0.  1.
        -11    1    3    3    0    0 -0.15003919575E+02 -0.51827310858E+01  0.15689094919E+02  0.22318736608E+02  0.51100000000E-03 0. -1.
         12    1    3    3    0    0  0.19481431083E+02  0.42713943027E+01 -0.57856466945E+01  0.20766431422E+02  0.00000000000E+00 0. -1.
</event>
<event>
 7    1  0.1339094E-013  0.7246158E+02  0.7816164E-02  0.1226708E+00
        -11   -1    0    0    0    0  0.00000000000E+00  0.00000000000E+00  0.45593999997E+02  0.45594000000E+02  0.51100000000E-03 0. -1.
         11   -1    0    0    0    0 -0.00000000000E+00 -0.00000000000E+00 -0.45593999997E+02  0.45594000000E+02  0.51100000000E-03 0.  1.
    9900012    2    1    2    0    0 -0.12982331374E+02 -0.45447498812E+01 -0.12707595154E+02  0.72461584059E+02  0.70000017931E+02 0.  0.
         12    1    1    2    0    0  0.12982331374E+02  0.45447498812E+01  0.12707595154E+02  0.18726415941E+02  0.00000000000E+00 0. -1.
         11    1    3    3    0    0 -0.15451855916E+02 -0.40057483466E+01  0.17385663158E+02  0.23602270119E+02  0.51100000000E-03 0. -1.
        -11    1    3    3    0    0  0.17322463279E+02 -0.62403456537E+01 -0.48830030337E+01  0.19048710372E+02  0.51100000000E-03 0.  1.
        -12    1    3    3    0    0 -0.14852938737E+02  0.57013441192E+01 -0.25210255279E+02  0.29810603568E+02  0.00000000000E+00 0.  1.
</event>
<event>
 7    1  0.1339094E-013  0.7246154E+02  0.7816164E-02  0.1226708E+00
        -11   -1    0    0    0    0  0.00000000000E+00  0.00000000000E+00  0.45593999997E+02  0.45594000000E+02  0.51100000000E-03 0.  1.
         11   -1    0    0    0    0 -0.00000000000E+00 -0.00000000000E+00 -0.45593999997E+02  0.45594000000E+02  0.51100000000E-03 0. -1.
    9900012    2    1    2    0    0 -0.77742884669E+01 -0.16247228361E+02  0.51252532723E+01  0.72461542469E+02  0.69999963752E+02 0.  0.
         12    1    1    2    0    0  0.77742884669E+01  0.16247228361E+02 -0.51252532723E+01  0.18726457531E+02  0.00000000000E+00 0. -1.
         11    1    3    3    0    0 -0.72407382845E+01 -0.68542704983E+01 -0.24074735332E+02  0.26057670589E+02  0.51100000000E-03 0. -1.
        -11    1    3    3    0    0  0.25759112437E+00  0.12582631410E+02  0.17321595135E+02  0.21410899670E+02  0.51100000000E-03 0.  1.
        -12    1    3    3    0    0 -0.79114130682E+00 -0.21975589273E+02  0.11878393469E+02  0.24992972209E+02  0.00000000000E+00 0.  1.
</event>
<event>
 7    1  0.1339094E-013  0.7246169E+02  0.7816164E-02  0.1226708E+00
        -11   -1    0    0    0    0  0.00000000000E+00  0.00000000000E+00  0.45593999997E+02  0.45594000000E+02  0.51100000000E-03 0. -1.
         11   -1    0    0    0    0 -0.00000000000E+00 -0.00000000000E+00 -0.45593999997E+02  0.45594000000E+02  0.51100000000E-03 0.  1.
    9900012    2    1    2    0    0  0.15482055792E+02 -0.49167342898E+00 -0.10523246002E+02  0.72461694953E+02  0.70000162391E+02 0.  0.
         12    1    1    2    0    0 -0.15482055792E+02  0.49167342898E+00  0.10523246002E+02  0.18726305047E+02  0.00000000000E+00 0. -1.
         11    1    3    3    0    0  0.18823524351E+02 -0.12324771975E+02 -0.24585588142E+02  0.33326809295E+02  0.51100000000E-03 0.  1.
        -11    1    3    3    0    0  0.23131296253E+01  0.23408130321E+02  0.10567370119E+02  0.25786826972E+02  0.51100000000E-03 0. -1.
         12    1    3    3    0    0 -0.56545981846E+01 -0.11575031775E+02  0.34949720211E+01  0.13348058685E+02  0.00000000000E+00 0. -1.
</event>
<event>
 7    1  0.1339094E-013  0.7246154E+02  0.7816164E-02  0.1226708E+00
        -11   -1    0    0    0    0  0.00000000000E+00  0.00000000000E+00  0.45593999997E+02  0.45594000000E+02  0.51100000000E-03 0.  1.
         11   -1    0    0    0    0 -0.00000000000E+00 -0.00000000000E+00 -0.45593999997E+02  0.45594000000E+02  0.51100000000E-03 0. -1.
    9900012    2    1    2    0    0  0.10597681177E+01  0.71460376526E+01  0.17276899805E+02  0.72461541994E+02  0.69999963133E+02 0.  0.
         12    1    1    2    0    0 -0.10597681177E+01 -0.71460376526E+01 -0.17276899805E+02  0.18726458006E+02  0.00000000000E+00 0. -1.
         11    1    3    3    0    0  0.20431861825E+02  0.22494482493E+01  0.19399728038E+02  0.28264296263E+02  0.51100000000E-03 0.  1.
        -11    1    3    3    0    0 -0.24598976780E+02  0.16230363676E+02  0.49009646933E+01  0.29875639221E+02  0.51100000000E-03 0. -1.
        -12    1    3    3    0    0  0.52268830733E+01 -0.11333774273E+02 -0.70237929269E+01  0.14321606509E+02  0.00000000000E+00 0.  1.
</event>
<event>
 7    1  0.1339094E-013  0.7246155E+02  0.7816164E-02  0.1226708E+00
        -11   -1    0    0    0    0  0.00000000000E+00  0.00000000000E+00  0.45593999997E+02  0.45594000000E+02  0.51100000000E-03 0.  1.
         11   -1    0    0    0    0 -0.00000000000E+00 -0.00000000000E+00 -0.45593999997E+02  0.45594000000E+02  0.51100000000E-03 0. -1.
    9900012    2    1    2    0    0  0.18141760708E+02  0.38661938037E+01 -0.25707984467E+01  0.72461549702E+02  0.69999973175E+02 0.  0.
         12    1    1    2    0    0 -0.18141760708E+02 -0.38661938037E+01  0.25707984467E+01  0.18726450298E+02  0.00000000000E+00 0. -1.
         11    1    3    3    0    0 -0.16497546592E+02 -0.19521045711E+01 -0.19456342575E+02  0.25583764822E+02  0.51100000000E-03 0. -1.
        -11    1    3    3    0    0  0.26384191072E+02 -0.78052380832E+01  0.13250306533E+02  0.30538793420E+02  0.51100000000E-03 0.  1.
         12    1    3    3    0    0  0.82551162281E+01  0.13623536458E+02  0.36352375950E+01  0.16338991460E+02  0.00000000000E+00 0. -1.
</event>
<event>
 7    1  0.1339094E-013  0.7246160E+02  0.7816164E-02  0.1226708E+00
        -11   -1    0    0    0    0  0.00000000000E+00  0.00000000000E+00  0.45593999997E+02  0.45594000000E+02  0.51100000000E-03 0.  1.
         11   -1    0    0    0    0 -0.00000000000E+00 -0.00000000000E+00 -0.45593999997E+02  0.45594000000E+02  0.51100000000E-03 0. -1.
    9900012    2    1    2    0    0  0.15999139584E+01 -0.12723132164E+02  0.13646989156E+02  0.72461598056E+02  0.70000036165E+02 0.  0.
         12    1    1    2    0    0 -0.15999139584E+01  0.12723132164E+02 -0.13646989156E+02  0.18726401944E+02  0.00000000000E+00 0. -1.
         11    1    3    3    0    0  0.13820790907E+01 -0.20829672840E+02  0.23338920081E+02  0.31312786590E+02  0.51100000000E-03 0. -1.
        -11    1    3    3    0    0 -0.40474040822E+01 -0.76039113395E+01 -0.20071732057E+02  0.21842055203E+02  0.51100000000E-03 0.  1.
         12    1    3    3    0    0  0.42652389499E+01  0.15710452016E+02  0.10379801132E+02  0.19306756263E+02  0.00000000000E+00 0. -1.
</event>
<event>
 7    1  0.1339094E-013  0.7246157E+02  0.7816164E-02  0.1226708E+00
        -11   -1    0    0    0    0  0.00000000000E+00  0.00000000000E+00  0.45593999997E+02  0.45594000000E+02  0.51100000000E-03 0. -1.
         11   -1    0    0    0    0 -0.00000000000E+00 -0.00000000000E+00 -0.45593999997E+02  0.45594000000E+02  0.51100000000E-03 0.  1.
    9900012    2    1    2    0    0  0.65497131075E+01  0.16777386307E+02 -0.51283262721E+01  0.72461570457E+02  0.70000000212E+02 0.  0.
         12    1    1    2    0    0 -0.65497131075E+01 -0.16777386307E+02  0.51283262721E+01  0.18726429543E+02  0.00000000000E+00 0. -1.
         11    1    3    3    0    0  0.12648591838E+02  0.66428165307E+00  0.57935873814E+01  0.13928165730E+02  0.51100000000E-03 0. -1.
        -11    1    3    3    0    0 -0.69443412172E+01 -0.14833851912E+02 -0.20395298060E+02  0.26157890219E+02  0.51100000000E-03 0.  1.
        -12    1    3    3    0    0  0.84546248685E+00  0.30946956566E+02  0.94733844068E+01  0.32375514508E+02  0.00000000000E+00 0.  1.
</event>
<event>
 7    1  0.1339094E-013  0.7246158E+02  0.7816164E-02  0.1226708E+00
        -11   -1    0    0    0    0  0.00000000000E+00  0.00000000000E+00  0.45593999997E+02  0.45594000000E+02  0.51100000000E-03 0. -1.
         11   -1    0    0    0    0 -0.00000000000E+00 -0.00000000000E+00 -0.45593999997E+02  0.45594000000E+02  0.51100000000E-03 0.  1.
    9900012    2    1    2    0    0 -0.14884903444E+02 -0.24669538046E+01 -0.11091998172E+02  0.72461584565E+02  0.70000018590E+02 0.  0.
         12    1    1    2    0    0  0.14884903444E+02  0.24669538046E+01  0.11091998172E+02  0.18726415435E+02  0.00000000000E+00 0. -1.
         11    1    3    3    0    0 -0.41971041482E+01 -0.15789607443E+02  0.88336896218E+01  0.18573138104E+02  0.51100000000E-03 0. -1.
        -11    1    3    3    0    0  0.14705044217E+02  0.17235278046E+02 -0.23891227011E+01  0.22781594375E+02  0.51100000000E-03 0.  1.
        -12    1    3    3    0    0 -0.25392843513E+02 -0.39126244077E+01 -0.17536565092E+02  0.31106852085E+02  0.00000000000E+00 0.  1.
</event>
<event>
 7    1  0.1339094E-013  0.7246146E+02  0.7816164E-02  0.1226708E+00
        -11   -1    0    0    0    0  0.00000000000E+00  0.00000000000E+00  0.45593999997E+02  0.45594000000E+02  0.51100000000E-03 0. -1.
         11   -1    0    0    0    0 -0.00000000000E+00 -0.00000000000E+00 -0.45593999997E+02  0.45594000000E+02  0.51100000000E-03 0.  1.
    9900012    2    1    2    0    0 -0.17976224749E+02  0.48237319495E+01  0.20664957553E+01  0.72461455982E+02  0.69999851087E+02 0.  0.
         12    1    1    2    0    0  0.17976224749E+02 -0.48237319495E+01 -0.20664957553E+01  0.18726544018E+02  0.00000000000E+00 0. -1.
         11    1    3    3    0    0 -0.27735129631E+02  0.20847508055E+02 -0.16180226708E+01  0.34734334676E+02  0.51100000000E-03 0.  1.
        -11    1    3    3    0    0  0.20919315834E+02 -0.54817947346E+01  0.53710022186E+01  0.22282628067E+02  0.51100000000E-03 0. -1.
         12    1    3    3    0    0 -0.11160410951E+02 -0.10541981371E+02 -0.16864837926E+01  0.15444493239E+02  0.00000000000E+00 0. -1.
</event>
<event>
 7    1  0.1339094E-013  0.7246191E+02  0.7816164E-02  0.1226707E+00
        -11   -1    0    0    0    0  0.00000000000E+00  0.00000000000E+00  0.45593999997E+02  0.45594000000E+02  0.51100000000E-03 0.  1.
         11   -1    0    0    0    0 -0.00000000000E+00 -0.00000000000E+00 -0.45593999997E+02  0.45594000000E+02  0.51100000000E-03 0. -1.
    9900012    2    1    2    0    0 -0.16387210771E+02  0.83157477979E+01 -0.36019398931E+01  0.72461913669E+02  0.70000447308E+02 0.  0.
         12    1    1    2    0    0  0.16387210771E+02 -0.83157477979E+01  0.36019398931E+01  0.18726086331E+02  0.00000000000E+00 0. -1.
         11    1    3    3    0    0 -0.10032951854E+02  0.17413477089E+01 -0.24737743917E+02  0.26751605356E+02  0.51100000000E-03 0. -1.
        -11    1    3    3    0    0  0.42043523496E+01  0.15019043361E+02  0.26834883918E+02  0.31038028889E+02  0.51100000000E-03 0.  1.
        -12    1    3    3    0    0 -0.10558611267E+02 -0.84446432715E+01 -0.56990798943E+01  0.14672279424E+02  0.00000000000E+00 0.  1.
</event>
<event>
 7    1  0.1339094E-013  0.7246161E+02  0.7816164E-02  0.1226708E+00
        -11   -1    0    0    0    0  0.00000000000E+00  0.00000000000E+00  0.45593999997E+02  0.45594000000E+02  0.51100000000E-03 0. -1.
         11   -1    0    0    0    0 -0.00000000000E+00 -0.00000000000E+00 -0.45593999997E+02  0.45594000000E+02  0.51100000000E-03 0.  1.
    9900012    2    1    2    0    0  0.13775033257E+02 -0.70910912609E+00 -0.12665832790E+02  0.72461609605E+02  0.70000051209E+02 0.  0.
         12    1    1    2    0    0 -0.13775033257E+02  0.70910912609E+00  0.12665832790E+02  0.18726390395E+02  0.00000000000E+00 0. -1.
         11    1    3    3    0    0 -0.59014349283E+01  0.25983427100E+02  0.45494053735E+01  0.27030769645E+02  0.51100000000E-03 0. -1.
        -11    1    3    3    0    0  0.64297551993E+01 -0.19812236935E+02 -0.21465639509E+02  0.29910536005E+02  0.51100000000E-03 0.  1.
         12    1    3    3    0    0  0.13246712986E+02 -0.68802992913E+01  0.42504013456E+01  0.15520303955E+02  0.00000000000E+00 0. -1.
</event>
<event>
 7    1  0.1339094E-013  0.7246161E+02  0.7816164E-02  0.1226708E+00
        -11   -1    0    0    0    0  0.00000000000E+00  0.00000000000E+00  0.45593999997E+02  0.45594000000E+02  0.51100000000E-03 0.  1.
         11   -1    0    0    0    0 -0.00000000000E+00 -0.00000000000E+00 -0.45593999997E+02  0.45594000000E+02  0.51100000000E-03 0. -1.
    9900012    2    1    2    0    0  0.16068891622E+02  0.93505571543E+01 -0.22439807147E+01  0.72461610959E+02  0.70000052973E+02 0.  0.
         12    1    1    2    0    0 -0.16068891622E+02 -0.93505571543E+01  0.22439807147E+01  0.18726389041E+02  0.00000000000E+00 0. -1.
         11    1    3    3    0    0  0.44272966944E+01 -0.15145101005E+02 -0.61017929641E+01  0.16917651081E+02  0.51100000000E-03 0. -1.
        -11    1    3    3    0    0  0.26633459039E+02  0.29347522585E+02  0.20636786680E+01  0.39684719883E+02  0.51100000000E-03 0.  1.
         12    1    3    3    0    0 -0.14991864111E+02 -0.48518644263E+01  0.17941335814E+01  0.15859239996E+02  0.00000000000E+00 0. -1.
</event>
<event>
 7    1  0.1339094E-013  0.7246159E+02  0.7816164E-02  0.1226708E+00
        -11   -1    0    0    0    0  0.00000000000E+00  0.00000000000E+00  0.45593999997E+02  0.45594000000E+02  0.51100000000E-03 0.  1.
         11   -1    0    0    0    0 -0.00000000000E+00 -0.00000000000E+00 -0.45593999997E+02  0.45594000000E+02  0.51100000000E-03 0. -1.
    9900012    2    1    2    0    0  0.15834764139E+02 -0.59948708797E+01 -0.80000121002E+01  0.72461590152E+02  0.70000025868E+02 0.  0.
         12    1    1    2    0    0 -0.15834764139E+02  0.59948708797E+01  0.80000121002E+01  0.18726409848E+02  0.00000000000E+00 0. -1.
         11    1    3    3    0    0  0.27657621898E+01  0.18982622950E+02 -0.86251866502E+01  0.21032908966E+02  0.51100000000E-03 0. -1.
        -11    1    3    3    0    0  0.24458320985E+02 -0.23319563704E+02 -0.10534286923E+02  0.35397495928E+02  0.51100000000E-03 0.  1.
        -12    1    3    3    0    0 -0.11389319035E+02 -0.16579301251E+01  0.11159461473E+02  0.16031185258E+02  0.00000000000E+00 0.  1.
</event>
<event>
 7    1  0.1339094E-013  0.7246158E+02  0.7816164E-02  0.1226708E+00
        -11   -1    0    0    0    0  0.00000000000E+00  0.00000000000E+00  0.45593999997E+02  0.45594000000E+02  0.51100000000E-03 0.  1.
         11   -1    0    0    0    0 -0.00000000000E+00 -0.00000000000E+00 -0.45593999997E+02  0.45594000000E+02  0.51100000000E-03 0. -1.
    9900012    2    1    2    0    0  0.17644831728E+02  0.61301989021E+01  0.13264308608E+01  0.72461578982E+02  0.70000011318E+02 0.  0.
         12    1    1    2    0    0 -0.17644831728E+02 -0.61301989021E+01 -0.13264308608E+01  0.18726421018E+02  0.00000000000E+00 0. -1.
         11    1    3    3    0    0  0.65611312094E+01 -0.17378021408E+02 -0.35294343927E+01  0.18907696269E+02  0.51100000000E-03 0. -1.
        -11    1    3    3    0    0  0.28331417405E+02  0.21022153964E+02  0.70931049700E+01  0.35984889993E+02  0.51100000000E-03 0.  1.
        -12    1    3    3    0    0 -0.17247716886E+02  0.24860663456E+01 -0.22372397165E+01  0.17568992720E+02  0.00000000000E+00 0.  1.
</event>
<event>
 7    1  0.1339094E-013  0.7246158E+02  0.7816164E-02  0.1226708E+00
        -11   -1    0    0    0    0  0.00000000000E+00  0.00000000000E+00  0.45593999997E+02  0.45594000000E+02  0.51100000000E-03 0. -1.
         11   -1    0    0    0    0 -0.00000000000E+00 -0.00000000000E+00 -0.45593999997E+02  0.45594000000E+02  0.51100000000E-03 0.  1.
    9900012    2    1    2    0    0  0.47438449270E+01  0.16878879526E+02 -0.65786204875E+01  0.72461577858E+02  0.70000009853E+02 0.  0.
         12    1    1    2    0    0 -0.47438449270E+01 -0.16878879526E+02  0.65786204875E+01  0.18726422142E+02  0.00000000000E+00 0. -1.
         11    1    3    3    0    0 -0.84380512325E+01  0.31319686854E+01 -0.95185296325E+01  0.13100089430E+02  0.51100000000E-03 0.  1.
        -11    1    3    3    0    0 -0.51472209752E+01  0.97084025832E+01  0.26822697531E+02  0.28986273779E+02  0.51100000000E-03 0. -1.
        -12    1    3    3    0    0  0.18329117135E+02  0.40385082570E+01 -0.23882788386E+02  0.30375214649E+02  0.00000000000E+00 0.  1.
</event>
<event>
 7    1  0.1339094E-013  0.7246162E+02  0.7816164E-02  0.1226708E+00
        -11   -1    0    0    0    0  0.00000000000E+00  0.00000000000E+00  0.45593999997E+02  0.45594000000E+02  0.51100000000E-03 0.  1.
         11   -1    0    0    0    0 -0.00000000000E+00 -0.00000000000E+00 -0.45593999997E+02  0.45594000000E+02  0.51100000000E-03 0. -1.
    9900012    2    1    2    0    0 -0.81783878197E+01  0.11211340632E+02  0.12573674401E+02  0.72461615565E+02  0.70000058973E+02 0.  0.
         12    1    1    2    0    0  0.81783878197E+01 -0.11211340632E+02 -0.12573674401E+02  0.18726384435E+02  0.00000000000E+00 0. -1.
         11    1    3    3    0    0  0.49895842710E+01 -0.10772739580E+02 -0.58617125547E+01  0.13240375508E+02  0.51100000000E-03 0. -1.
        -11    1    3    3    0    0 -0.17011871672E+02  0.10229031183E+02  0.33982229519E+02  0.39355162051E+02  0.51100000000E-03 0.  1.
        -12    1    3    3    0    0  0.38438995816E+01  0.11755049028E+02 -0.15546842563E+02  0.19866078006E+02  0.00000000000E+00 0.  1.
</event>
<event>
 7    1  0.1339094E-013  0.7246148E+02  0.7816164E-02  0.1226708E+00
        -11   -1    0    0    0    0  0.00000000000E+00  0.00000000000E+00  0.45593999997E+02  0.45594000000E+02  0.51100000000E-03 0.  1.
         11   -1    0    0    0    0 -0.00000000000E+00 -0.00000000000E+00 -0.45593999997E+02  0.45594000000E+02  0.51100000000E-03 0. -1.
    9900012    2    1    2    0    0  0.13716666659E+02  0.36605734381E+01 -0.12212116419E+02  0.72461480581E+02  0.69999883131E+02 0.  0.
         12    1    1    2    0    0 -0.13716666659E+02 -0.36605734381E+01  0.12212116419E+02  0.18726519419E+02  0.00000000000E+00 0. -1.
         11    1    3    3    0    0  0.14939316808E+02  0.23604205805E+02 -0.71649662793E+01  0.28838835975E+02  0.51100000000E-03 0. -1.
        -11    1    3    3    0    0  0.51195380055E+01 -0.26940576871E+02 -0.13841855297E+02  0.30718094176E+02  0.51100000000E-03 0.  1.
        -12    1    3    3    0    0 -0.63421881543E+01  0.69969445037E+01  0.87947051570E+01  0.12904550429E+02  0.00000000000E+00 0.  1.
</event>
<event>
 7    1  0.1339094E-013  0.7246154E+02  0.7816164E-02  0.1226708E+00
        -11   -1    0    0    0    0  0.00000000000E+00  0.00000000000E+00  0.45593999997E+02  0.45594000000E+02  0.51100000000E-03 0.  1.
         11   -1    0    0    0    0 -0.00000000000E+00 -0.00000000000E+00 -0.45593999997E+02  0.45594000000E+02  0.51100000000E-03 0. -1.
    9900012    2    1    2    0    0 -0.12314627882E+02 -0.13392682166E+02  0.44346504593E+01  0.72461544912E+02  0.69999966935E+02 0.  0.
         12    1    1    2    0    0  0.12314627882E+02  0.13392682166E+02 -0.44346504593E+01  0.18726455088E+02  0.00000000000E+00 0. -1.
         11    1    3    3    0    0 -0.22974825163E-01  0.12814972817E+02  0.10723903630E+02  0.16710061803E+02  0.51100000000E-03 0. -1.
        -11    1    3    3    0    0 -0.27781069281E+02 -0.26525326824E+02 -0.10261353957E+02  0.39757718229E+02  0.51100000000E-03 0.  1.
        -12    1    3    3    0    0  0.15489416224E+02  0.31767184098E+00  0.39721007857E+01  0.15993764879E+02  0.00000000000E+00 0.  1.
</event>
<event>
 7    1  0.1339094E-013  0.7246159E+02  0.7816164E-02  0.1226708E+00
        -11   -1    0    0    0    0  0.00000000000E+00  0.00000000000E+00  0.45593999997E+02  0.45594000000E+02  0.51100000000E-03 0.  1.
         11   -1    0    0    0    0 -0.00000000000E+00 -0.00000000000E+00 -0.45593999997E+02  0.45594000000E+02  0.51100000000E-03 0. -1.
    9900012    2    1    2    0    0  0.11517713152E+02 -0.14537175896E+02 -0.25867229367E+01  0.72461592580E+02  0.70000029032E+02 0.  0.
         12    1    1    2    0    0 -0.11517713152E+02  0.14537175896E+02  0.25867229367E+01  0.18726407420E+02  0.00000000000E+00 0. -1.
         11    1    3    3    0    0  0.10806749716E+02 -0.38595960270E+01  0.31651695481E+02  0.33667672150E+02  0.51100000000E-03 0.  1.
        -11    1    3    3    0    0 -0.52220081628E+01 -0.10063709588E+02 -0.16036855273E+02  0.19639968107E+02  0.51100000000E-03 0. -1.
        -12    1    3    3    0    0  0.59329715991E+01 -0.61387028143E+00 -0.18201563144E+02  0.19153952324E+02  0.00000000000E+00 0.  1.
</event>
<event>
 7    1  0.1339094E-013  0.7246154E+02  0.7816164E-02  0.1226708E+00
        -11   -1    0    0    0    0  0.00000000000E+00  0.00000000000E+00  0.45593999997E+02  0.45594000000E+02  0.51100000000E-03 0.  1.
         11   -1    0    0    0    0 -0.00000000000E+00 -0.00000000000E+00 -0.45593999997E+02  0.45594000000E+02  0.51100000000E-03 0. -1.
    9900012    2    1    2    0    0 -0.10201574326E+02 -0.11336342733E+02  0.10867175721E+02  0.72461540285E+02  0.69999960908E+02 0.  0.
         12    1    1    2    0    0  0.10201574326E+02  0.11336342733E+02 -0.10867175721E+02  0.18726459715E+02  0.00000000000E+00 0. -1.
         11    1    3    3    0    0 -0.13153795007E+02  0.10264743278E+02 -0.18581420536E+02  0.24973114885E+02  0.51100000000E-03 0. -1.
        -11    1    3    3    0    0 -0.12302926685E+02 -0.14965628958E+02  0.21842377071E+02  0.29196258176E+02  0.51100000000E-03 0.  1.
         12    1    3    3    0    0  0.15255147366E+02 -0.66354570530E+01  0.76062191860E+01  0.18292167225E+02  0.00000000000E+00 0. -1.
</event>
<event>
 7    1  0.1339094E-013  0.7246162E+02  0.7816164E-02  0.1226708E+00
        -11   -1    0    0    0    0  0.00000000000E+00  0.00000000000E+00  0.45593999997E+02  0.45594000000E+02  0.51100000000E-03 0. -1.
         11   -1    0    0    0    0 -0.00000000000E+00 -0.00000000000E+00 -0.45593999997E+02  0.45594000000E+02  0.51100000000E-03 0.  1.
    9900012    2    1    2    0    0 -0.76285381860E+01  0.99272170028E+01  0.13925982156E+02  0.72461622580E+02  0.70000068112E+02 0.  0.
         12    1    1    2    0    0  0.76285381860E+01 -0.99272170028E+01 -0.13925982156E+02  0.18726377420E+02  0.00000000000E+00 0. -1.
         11    1    3    3    0    0 -0.12047091919E+02 -0.92839152414E+00  0.35696709907E+02  0.37686196850E+02  0.51100000000E-03 0. -1.
        -11    1    3    3    0    0 -0.56983478808E+01  0.15091739489E+02 -0.12335820976E+02  0.20307738643E+02  0.51100000000E-03 0.  1.
         12    1    3    3    0    0  0.10116901614E+02 -0.42361309624E+01 -0.94349067752E+01  0.14467687087E+02  0.00000000000E+00 0. -1.
</event>
<event>
 7    1  0.1339094E-013  0.7246158E+02  0.7816164E-02  0.1226708E+00
        -11   -1    0    0    0    0  0.00000000000E+00  0.00000000000E+00  0.45593999997E+02  0.45594000000E+02  0.51100000000E-03 0.  1.
         11   -1    0    0    0    0 -0.00000000000E+00 -0.00000000000E+00 -0.45593999997E+02  0.45594000000E+02  0.51100000000E-03 0. -1.
    9900012    2    1    2    0    0  0.18077548586E+02  0.40812448204E+01  0.26878062157E+01  0.72461584849E+02  0.70000018960E+02 0.  0.
         12    1    1    2    0    0 -0.18077548586E+02 -0.40812448204E+01 -0.26878062157E+01  0.18726415151E+02  0.00000000000E+00 0. -1.
         11    1    3    3    0    0  0.19917402563E+02  0.10004285923E+02 -0.81574396746E+01  0.23734626266E+02  0.51100000000E-03 0. -1.
        -11    1    3    3    0    0 -0.24362188226E+02 -0.67558547008E+00  0.51292797758E+01  0.24905464103E+02  0.51100000000E-03 0.  1.
        -12    1    3    3    0    0  0.22522334249E+02 -0.52474556326E+01  0.57159661145E+01  0.23821494480E+02  0.00000000000E+00 0.  1.
</event>
<event>
 7    1  0.1339094E-013  0.7246159E+02  0.7816164E-02  0.1226708E+00
        -11   -1    0    0    0    0  0.00000000000E+00  0.00000000000E+00  0.45593999997E+02  0.45594000000E+02  0.51100000000E-03 0. -1.
         11   -1    0    0    0    0 -0.00000000000E+00 -0.00000000000E+00 -0.45593999997E+02  0.45594000000E+02  0.51100000000E-03 0.  1.
    9900012    2    1    2    0    0  0.29137282481E+01  0.12220670124E+02 -0.13886823035E+02  0.72461589650E+02  0.70000025215E+02 0.  0.
         12    1    1    2    0    0 -0.29137282481E+01 -0.12220670124E+02  0.13886823035E+02  0.18726410350E+02  0.00000000000E+00 0. -1.
         11    1    3    3    0    0 -0.23360217349E+02  0.62852216927E+01  0.17552789095E+02  0.29888194519E+02  0.51100000000E-03 0. -1.
        -11    1    3    3    0    0  0.20632670368E+02  0.81044470778E+01 -0.21140407031E+02  0.30631780207E+02  0.51100000000E-03 0.  1.
         12    1    3    3    0    0  0.56412752298E+01 -0.21689986461E+01 -0.10299205098E+02  0.11941614924E+02  0.00000000000E+00 0. -1.
</event>
<event>
 7    1  0.1339094E-013  0.7246156E+02  0.7816164E-02  0.1226708E+00
        -11   -1    0    0    0    0  0.00000000000E+00  0.00000000000E+00  0.45593999997E+02  0.45594000000E+02  0.51100000000E-03 0.  1.
         11   -1    0    0    0    0 -0.00000000000E+00 -0.00000000000E+00 -0.45593999997E+02  0.45594000000E+02  0.51100000000E-03 0. -1.
    9900012    2    1    2    0    0  0.12074330349E+02 -0.76645486520E+01  0.12089041039E+02  0.72461556860E+02  0.69999982499E+02 0.  0.
         12    1    1    2    0    0 -0.12074330349E+02  0.76645486520E+01 -0.12089041039E+02  0.18726443140E+02  0.00000000000E+00 0. -1.
         11    1    3    3    0    0  0.26076843610E+02  0.61363499158E+01  0.14499665516E+02  0.30461399562E+02  0.51100000000E-03 0.  1.
        -11    1    3    3    0    0 -0.19894478920E+02  0.43928082370E+01  0.58074016906E+01  0.21185206404E+02  0.51100000000E-03 0. -1.
         12    1    3    3    0    0  0.58919656596E+01 -0.18193706805E+02 -0.82180261679E+01  0.20814950894E+02  0.00000000000E+00 0. -1.
</event>
<event>
 7    1  0.1339094E-013  0.7246156E+02  0.7816164E-02  0.1226708E+00
        -11   -1    0    0    0    0  0.00000000000E+00  0.00000000000E+00  0.45593999997E+02  0.45594000000E+02  0.51100000000E-03 0.  1.
         11   -1    0    0    0    0 -0.00000000000E+00 -0.00000000000E+00 -0.45593999997E+02  0.45594000000E+02  0.51100000000E-03 0. -1.
    9900012    2    1    2    0    0 -0.63728520099E+00 -0.91595745995E+01  0.16321016535E+02  0.72461560936E+02  0.69999987809E+02 0.  0.
         12    1    1    2    0    0  0.63728520099E+00  0.91595745995E+01 -0.16321016535E+02  0.18726439064E+02  0.00000000000E+00 0. -1.
         11    1    3    3    0    0  0.20220935315E+02 -0.73117248540E+01 -0.17298169944E+02  0.27596634379E+02  0.51100000000E-03 0. -1.
        -11    1    3    3    0    0 -0.10624245817E+02  0.90004241812E+01  0.10877377339E+02  0.17669170118E+02  0.51100000000E-03 0.  1.
         12    1    3    3    0    0 -0.10233974700E+02 -0.10848273927E+02  0.22741809140E+02  0.27195756440E+02  0.00000000000E+00 0. -1.
</event>
<event>
 7    1  0.1339094E-013  0.7246155E+02  0.7816164E-02  0.1226708E+00
        -11   -1    0    0    0    0  0.00000000000E+00  0.00000000000E+00  0.45593999997E+02  0.45594000000E+02  0.51100000000E-03 0. -1.
         11   -1    0    0    0    0 -0.00000000000E+00 -0.00000000000E+00 -0.45593999997E+02  0.45594000000E+02  0.51100000000E-03 0.  1.
    9900012    2    1    2    0    0  0.15704500160E+02 -0.99075682103E+01 -0.24266487980E+01  0.72461551925E+02  0.69999976071E+02 0.  0.
         12    1    1    2    0    0 -0.15704500160E+02  0.99075682103E+01  0.24266487980E+01  0.18726448075E+02  0.00000000000E+00 0. -1.
         11    1    3    3    0    0 -0.17132740772E+02 -0.25918768396E+01 -0.15055177364E+02  0.22954454854E+02  0.51100000000E-03 0.  1.
        -11    1    3    3    0    0  0.26323468562E+02 -0.31207008787E+01  0.23992447723E+02  0.35753339972E+02  0.51100000000E-03 0. -1.
         12    1    3    3    0    0  0.65137723701E+01 -0.41949904920E+01 -0.11363919158E+02  0.13753757099E+02  0.00000000000E+00 0. -1.
</event>
<event>
 7    1  0.1339094E-013  0.7246159E+02  0.7816164E-02  0.1226708E+00
        -11   -1    0    0    0    0  0.00000000000E+00  0.00000000000E+00  0.45593999997E+02  0.45594000000E+02  0.51100000000E-03 0.  1.
         11   -1    0    0    0    0 -0.00000000000E+00 -0.00000000000E+00 -0.45593999997E+02  0.45594000000E+02  0.51100000000E-03 0. -1.
    9900012    2    1    2    0    0  0.73898377390E+01 -0.75127226319E+01  0.15479918112E+02  0.72461586358E+02  0.70000020925E+02 0.  0.
         12    1    1    2    0    0 -0.73898377390E+01  0.75127226319E+01 -0.15479918112E+02  0.18726413642E+02  0.00000000000E+00 0. -1.
         11    1    3    3    0    0  0.25062290583E+02  0.22708285581E+02  0.56007496805E+01  0.34280505255E+02  0.51100000000E-03 0. -1.
        -11    1    3    3    0    0 -0.88176974740E+01 -0.14955272480E+02  0.10907352304E+02  0.20503226532E+02  0.51100000000E-03 0.  1.
         12    1    3    3    0    0 -0.88547553704E+01 -0.15265735733E+02 -0.10281838721E+01  0.17677854570E+02  0.00000000000E+00 0. -1.
</event>
<event>
 7    1  0.1339094E-013  0.7246160E+02  0.7816164E-02  0.1226708E+00
        -11   -1    0    0    0    0  0.00000000000E+00  0.00000000000E+00  0.45593999997E+02  0.45594000000E+02  0.51100000000E-03 0.  1.
         11   -1    0    0    0    0 -0.00000000000E+00 -0.00000000000E+00 -0.45593999997E+02  0.45594000000E+02  0.51100000000E-03 0. -1.
    9900012    2    1    2    0    0 -0.55262802407E+01  0.14617121676E+02  0.10318813937E+02  0.72461603111E+02  0.70000042750E+02 0.  0.
         12    1    1    2    0    0  0.55262802407E+01 -0.14617121676E+02 -0.10318813937E+02  0.18726396889E+02  0.00000000000E+00 0. -1.
         11    1    3    3    0    0  0.10427143828E+02  0.28736211360E+02 -0.36787312901E+01  0.30790067163E+02  0.51100000000E-03 0. -1.
        -11    1    3    3    0    0 -0.23294212692E+02 -0.71779394048E+01 -0.41699012720E-01  0.24375087653E+02  0.51100000000E-03 0.  1.
        -12    1    3    3    0    0  0.73407886226E+01 -0.69411502792E+01  0.14039244239E+02  0.17296448295E+02  0.00000000000E+00 0.  1.
</event>
<event>
 7    1  0.1339094E-013  0.7246158E+02  0.7816164E-02  0.1226708E+00
        -11   -1    0    0    0    0  0.00000000000E+00  0.00000000000E+00  0.45593999997E+02  0.45594000000E+02  0.51100000000E-03 0.  1.
         11   -1    0    0    0    0 -0.00000000000E+00 -0.00000000000E+00 -0.45593999997E+02  0.45594000000E+02  0.51100000000E-03 0. -1.
    9900012    2    1    2    0    0  0.13035938296E+02  0.44631394281E+01  0.12681626467E+02  0.72461576138E+02  0.70000007612E+02 0.  0.
         12    1    1    2    0    0 -0.13035938296E+02 -0.44631394281E+01 -0.12681626467E+02  0.18726423862E+02  0.00000000000E+00 0. -1.
         11    1    3    3    0    0 -0.12830987953E+02 -0.43813431369E+01  0.92174544850E+01  0.16394873802E+02  0.51100000000E-03 0. -1.
        -11    1    3    3    0    0  0.11721123880E+02 -0.16216699592E+02 -0.12066074357E+02  0.23365706523E+02  0.51100000000E-03 0.  1.
        -12    1    3    3    0    0  0.14145802369E+02  0.25061182157E+02  0.15530246339E+02  0.32700995813E+02  0.00000000000E+00 0.  1.
</event>
<event>
 7    1  0.1339094E-013  0.7246154E+02  0.7816164E-02  0.1226708E+00
        -11   -1    0    0    0    0  0.00000000000E+00  0.00000000000E+00  0.45593999997E+02  0.45594000000E+02  0.51100000000E-03 0.  1.
         11   -1    0    0    0    0 -0.00000000000E+00 -0.00000000000E+00 -0.45593999997E+02  0.45594000000E+02  0.51100000000E-03 0. -1.
    9900012    2    1    2    0    0  0.19981151226E+01 -0.18068699381E+02  0.44955427563E+01  0.72461541017E+02  0.69999961861E+02 0.  0.
         12    1    1    2    0    0 -0.19981151226E+01  0.18068699381E+02 -0.44955427563E+01  0.18726458983E+02  0.00000000000E+00 0. -1.
         11    1    3    3    0    0 -0.10615000594E+02  0.19951898417E+02  0.14977423760E+01  0.22649497137E+02  0.51100000000E-03 0. -1.
        -11    1    3    3    0    0  0.33718014793E+00 -0.21437981965E+02  0.14790807258E+02  0.26047432519E+02  0.51100000000E-03 0.  1.
         12    1    3    3    0    0  0.12275935569E+02 -0.16582615833E+02 -0.11793006878E+02  0.23764611362E+02  0.00000000000E+00 0. -1.
</event>
<event>
 7    1  0.1339094E-013  0.7246155E+02  0.7816164E-02  0.1226708E+00
        -11   -1    0    0    0    0  0.00000000000E+00  0.00000000000E+00  0.45593999997E+02  0.45594000000E+02  0.51100000000E-03 0.  1.
         11   -1    0    0    0    0 -0.00000000000E+00 -0.00000000000E+00 -0.45593999997E+02  0.45594000000E+02  0.51100000000E-03 0. -1.
    9900012    2    1    2    0    0 -0.71820510167E+01  0.16369748952E+02 -0.55793801965E+01  0.72461547561E+02  0.69999970386E+02 0.  0.
         12    1    1    2    0    0  0.71820510167E+01 -0.16369748952E+02  0.55793801965E+01  0.18726452439E+02  0.00000000000E+00 0. -1.
         11    1    3    3    0    0 -0.23371882650E+02 -0.64728202112E+01 -0.14914546491E+02  0.28470792005E+02  0.51100000000E-03 0. -1.
        -11    1    3    3    0    0  0.16389071196E+02  0.24733976251E+02  0.18277247562E+02  0.34848658720E+02  0.51100000000E-03 0.  1.
         12    1    3    3    0    0 -0.19923956221E+00 -0.18914070874E+01 -0.89420812672E+01  0.91420968362E+01  0.00000000000E+00 0. -1.
</event>
<event>
 7    1  0.1339094E-013  0.7246158E+02  0.7816164E-02  0.1226708E+00
        -11   -1    0    0    0    0  0.00000000000E+00  0.00000000000E+00  0.45593999997E+02  0.45594000000E+02  0.51100000000E-03 0.  1.
         11   -1    0    0    0    0 -0.00000000000E+00 -0.00000000000E+00 -0.45593999997E+02  0.45594000000E+02  0.51100000000E-03 0. -1.
    9900012    2    1    2    0    0  0.15247669388E+02  0.10797494687E+02 -0.12655043756E+01  0.72461579771E+02  0.70000012345E+02 0.  0.
         12    1    1    2    0    0 -0.15247669388E+02 -0.10797494687E+02  0.12655043756E+01  0.18726420229E+02  0.00000000000E+00 0. -1.
         11    1    3    3    0    0  0.91579999838E+01  0.17760008611E+02  0.17322444918E+01  0.20057106990E+02  0.51100000000E-03 0. -1.
        -11    1    3    3    0    0  0.23139296313E+02 -0.19871855199E+02 -0.50667849225E+01  0.30919087513E+02  0.51100000000E-03 0.  1.
        -12    1    3    3    0    0 -0.17049626910E+02  0.12909341275E+02  0.20690360551E+01  0.21485385268E+02  0.00000000000E+00 0.  1.
</event>
<event>
 7    1  0.1339094E-013  0.7246151E+02  0.7816164E-02  0.1226708E+00
        -11   -1    0    0    0    0  0.00000000000E+00  0.00000000000E+00  0.45593999997E+02  0.45594000000E+02  0.51100000000E-03 0. -1.
         11   -1    0    0    0    0 -0.00000000000E+00 -0.00000000000E+00 -0.45593999997E+02  0.45594000000E+02  0.51100000000E-03 0.  1.
    9900012    2    1    2    0    0 -0.11159146039E+02  0.20468096803E+01 -0.14898506392E+02  0.72461509061E+02  0.69999920232E+02 0.  0.
         12    1    1    2    0    0  0.11159146039E+02 -0.20468096803E+01  0.14898506392E+02  0.18726490939E+02  0.00000000000E+00 0. -1.
         11    1    3    3    0    0  0.24533240765E+02  0.14528360606E+02 -0.21399254518E+01  0.28592524295E+02  0.51100000000E-03 0. -1.
        -11    1    3    3    0    0 -0.11062707653E+02  0.44955984833E+01 -0.51372366073E+01  0.12999427163E+02  0.51100000000E-03 0.  1.
         12    1    3    3    0    0 -0.24629679151E+02 -0.16977149409E+02 -0.76213443329E+01  0.30869557603E+02  0.00000000000E+00 0. -1.
</event>
<event>
 7    1  0.1339094E-013  0.7246160E+02  0.7816164E-02  0.1226708E+00
        -11   -1    0    0    0    0  0.00000000000E+00  0.00000000000E+00  0.45593999997E+02  0.45594000000E+02  0.51100000000E-03 0.  1.
         11   -1    0    0    0    0 -0.00000000000E+00 -0.00000000000E+00 -0.45593999997E+02  0.45594000000E+02  0.51100000000E-03 0. -1.
    9900012    2    1    2    0    0  0.53674768643E+01  0.78107681526E+01  0.16151171032E+02  0.72461595307E+02  0.70000032583E+02 0.  0.
         12    1    1    2    0    0 -0.53674768643E+01 -0.78107681526E+01 -0.16151171032E+02  0.18726404693E+02  0.00000000000E+00 0. -1.
         11    1    3    3    0    0 -0.17699699527E+02 -0.14401449293E+01 -0.11179409398E+02  0.20984102923E+02  0.51100000000E-03 0. -1.
        -11    1    3    3    0    0  0.15998580830E+02  0.18337466478E+02  0.29475211836E+01  0.24513366697E+02  0.51100000000E-03 0.  1.
         12    1    3    3    0    0  0.70685955611E+01 -0.90865533964E+01  0.24383059246E+02  0.26964125687E+02  0.00000000000E+00 0. -1.
</event>
<event>
 7    1  0.1339094E-013  0.7246156E+02  0.7816164E-02  0.1226708E+00
        -11   -1    0    0    0    0  0.00000000000E+00  0.00000000000E+00  0.45593999997E+02  0.45594000000E+02  0.51100000000E-03 0.  1.
         11   -1    0    0    0    0 -0.00000000000E+00 -0.00000000000E+00 -0.45593999997E+02  0.45594000000E+02  0.51100000000E-03 0. -1.
    9900012    2    1    2    0    0 -0.16082522825E+02 -0.95597352305E+01  0.80209891744E+00  0.72461563052E+02  0.69999990565E+02 0.  0.
         12    1    1    2    0    0  0.16082522825E+02  0.95597352305E+01 -0.80209891744E+00  0.18726436948E+02  0.00000000000E+00 0. -1.
         11    1    3    3    0    0 -0.12935814823E+02 -0.26005805157E+02  0.22982459261E+02  0.37038232151E+02  0.51100000000E-03 0.  1.
        -11    1    3    3    0    0 -0.60936802845E+01  0.21169955345E+02 -0.17122550008E+02  0.27901284339E+02  0.51100000000E-03 0. -1.
        -12    1    3    3    0    0  0.29469722827E+01 -0.47238854191E+01 -0.50578103348E+01  0.75220465613E+01  0.00000000000E+00 0.  1.
</event>
<event>
 7    1  0.1339094E-013  0.7246178E+02  0.7816164E-02  0.1226707E+00
        -11   -1    0    0    0    0  0.00000000000E+00  0.00000000000E+00  0.45593999997E+02  0.45594000000E+02  0.51100000000E-03 0. -1.
         11   -1    0    0    0    0 -0.00000000000E+00 -0.00000000000E+00 -0.45593999997E+02  0.45594000000E+02  0.51100000000E-03 0.  1.
    9900012    2    1    2    0    0  0.30567348252E+01 -0.18361008003E+02 -0.20496925672E+01  0.72461775546E+02  0.70000267378E+02 0.  0.
         12    1    1    2    0    0 -0.30567348252E+01  0.18361008003E+02  0.20496925672E+01  0.18726224454E+02  0.00000000000E+00 0. -1.
         11    1    3    3    0    0 -0.16965198283E+02 -0.14581848589E+02  0.18637578323E+02  0.29117135626E+02  0.51100000000E-03 0. -1.
        -11    1    3    3    0    0  0.17612146843E+02 -0.42689323385E+01 -0.29264842705E+02  0.34421541490E+02  0.51100000000E-03 0.  1.
        -12    1    3    3    0    0  0.24097862655E+01  0.48977292464E+00  0.85775718149E+01  0.89230984306E+01  0.00000000000E+00 0.  1.
</event>
<event>
 7    1  0.1339094E-013  0.7246151E+02  0.7816164E-02  0.1226708E+00
        -11   -1    0    0    0    0  0.00000000000E+00  0.00000000000E+00  0.45593999997E+02  0.45594000000E+02  0.51100000000E-03 0. -1.
         11   -1    0    0    0    0 -0.00000000000E+00 -0.00000000000E+00 -0.45593999997E+02  0.45594000000E+02  0.51100000000E-03 0.  1.
    9900012    2    1    2    0    0  0.59095211301E+01 -0.33118052804E+01 -0.17458264470E+02  0.72461508270E+02  0.69999919201E+02 0.  0.
         12    1    1    2    0    0 -0.59095211301E+01  0.33118052804E+01  0.17458264470E+02  0.18726491730E+02  0.00000000000E+00 0. -1.
         11    1    3    3    0    0  0.16971914356E+02 -0.23716641012E+02  0.99029107169E+01  0.30799230165E+02  0.51100000000E-03 0. -1.
        -11    1    3    3    0    0 -0.75395644549E+01  0.14909142158E+02 -0.36930214354E+01  0.17110405011E+02  0.51100000000E-03 0.  1.
         12    1    3    3    0    0 -0.35228287713E+01  0.54956935738E+01 -0.23668153752E+02  0.24551873094E+02  0.00000000000E+00 0. -1.
</event>
<event>
 7    1  0.1339094E-013  0.7246153E+02  0.7816164E-02  0.1226708E+00
        -11   -1    0    0    0    0  0.00000000000E+00  0.00000000000E+00  0.45593999997E+02  0.45594000000E+02  0.51100000000E-03 0. -1.
         11   -1    0    0    0    0 -0.00000000000E+00 -0.00000000000E+00 -0.45593999997E+02  0.45594000000E+02  0.51100000000E-03 0.  1.
    9900012    2    1    2    0    0  0.17141789195E+02 -0.72475205241E+01 -0.20768582795E+01  0.72461525936E+02  0.69999942215E+02 0.  0.
         12    1    1    2    0    0 -0.17141789195E+02  0.72475205241E+01  0.20768582795E+01  0.18726474064E+02  0.00000000000E+00 0. -1.
         11    1    3    3    0    0 -0.64484393791E+01  0.10441154012E+01 -0.29957980554E+02  0.30661916876E+02  0.51100000000E-03 0. -1.
        -11    1    3    3    0    0  0.24233028754E+02 -0.18941119659E+01  0.19085379023E+02  0.30904353018E+02  0.51100000000E-03 0.  1.
         12    1    3    3    0    0 -0.64280017959E+00 -0.63975239594E+01  0.87957432512E+01  0.10895256042E+02  0.00000000000E+00 0. -1.
</event>
<event>
 7    1  0.1339094E-013  0.7246161E+02  0.7816164E-02  0.1226708E+00
        -11   -1    0    0    0    0  0.00000000000E+00  0.00000000000E+00  0.45593999997E+02  0.45594000000E+02  0.51100000000E-03 0. -1.
         11   -1    0    0    0    0 -0.00000000000E+00 -0.00000000000E+00 -0.45593999997E+02  0.45594000000E+02  0.51100000000E-03 0.  1.
    9900012    2    1    2    0    0 -0.82495908795E+01  0.16551459464E+02 -0.29446639913E+01  0.72461612038E+02  0.70000054379E+02 0.  0.
         12    1    1    2    0    0  0.82495908795E+01 -0.16551459464E+02  0.29446639913E+01  0.18726387962E+02  0.00000000000E+00 0. -1.
         11    1    3    3    0    0 -0.10697208580E+02 -0.13464448416E+02  0.22248371311E+02  0.28119595815E+02  0.51100000000E-03 0. -1.
        -11    1    3    3    0    0  0.73220891460E+01  0.26648609738E+02 -0.12494442863E+02  0.30329399815E+02  0.51100000000E-03 0.  1.
         12    1    3    3    0    0 -0.48744714458E+01  0.33672981420E+01 -0.12698592440E+02  0.14012616408E+02  0.00000000000E+00 0. -1.
</event>
<event>
 7    1  0.1339094E-013  0.7246159E+02  0.7816164E-02  0.1226708E+00
        -11   -1    0    0    0    0  0.00000000000E+00  0.00000000000E+00  0.45593999997E+02  0.45594000000E+02  0.51100000000E-03 0. -1.
         11   -1    0    0    0    0 -0.00000000000E+00 -0.00000000000E+00 -0.45593999997E+02  0.45594000000E+02  0.51100000000E-03 0.  1.
    9900012    2    1    2    0    0  0.11884758528E+02  0.14100332356E+02 -0.32575426319E+01  0.72461589724E+02  0.70000025311E+02 0.  0.
         12    1    1    2    0    0 -0.11884758528E+02 -0.14100332356E+02  0.32575426319E+01  0.18726410276E+02  0.00000000000E+00 0. -1.
         11    1    3    3    0    0  0.22296362923E+02  0.21733503691E+01 -0.20900035185E+02  0.30637603079E+02  0.51100000000E-03 0. -1.
        -11    1    3    3    0    0 -0.91754355229E+01  0.88272265046E+01  0.28098379961E+02  0.30848460278E+02  0.51100000000E-03 0.  1.
        -12    1    3    3    0    0 -0.12361688724E+01  0.30997554827E+01 -0.10455887409E+02  0.10975526367E+02  0.00000000000E+00 0.  1.
</event>
<event>
 7    1  0.1339094E-013  0.7246156E+02  0.7816164E-02  0.1226708E+00
        -11   -1    0    0    0    0  0.00000000000E+00  0.00000000000E+00  0.45593999997E+02  0.45594000000E+02  0.51100000000E-03 0. -1.
         11   -1    0    0    0    0 -0.00000000000E+00 -0.00000000000E+00 -0.45593999997E+02  0.45594000000E+02  0.51100000000E-03 0.  1.
    9900012    2    1    2    0    0 -0.12201699272E+02  0.11820202070E+02  0.78791473187E+01  0.72461558678E+02  0.69999984868E+02 0.  0.
         12    1    1    2    0    0  0.12201699272E+02 -0.11820202070E+02 -0.78791473187E+01  0.18726441322E+02  0.00000000000E+00 0. -1.
         11    1    3    3    0    0  0.20837310680E+01 -0.16038562726E+02  0.27726619710E+02  0.32098954349E+02  0.51100000000E-03 0. -1.
        -11    1    3    3    0    0 -0.11500718781E+02  0.13476487699E+02 -0.28853319138E+01  0.17950136314E+02  0.51100000000E-03 0.  1.
         12    1    3    3    0    0 -0.27847115595E+01  0.14382277097E+02 -0.16962140478E+02  0.22412468016E+02  0.00000000000E+00 0. -1.
</event>
<event>
 7    1  0.1339094E-013  0.7246162E+02  0.7816164E-02  0.1226708E+00
        -11   -1    0    0    0    0  0.00000000000E+00  0.00000000000E+00  0.45593999997E+02  0.45594000000E+02  0.51100000000E-03 0.  1.
         11   -1    0    0    0    0 -0.00000000000E+00 -0.00000000000E+00 -0.45593999997E+02  0.45594000000E+02  0.51100000000E-03 0. -1.
    9900012    2    1    2    0    0  0.17975243518E+02  0.17414340603E+01  0.49533157489E+01  0.72461619971E+02  0.70000064712E+02 0.  0.
         12    1    1    2    0    0 -0.17975243518E+02 -0.17414340603E+01 -0.49533157489E+01  0.18726380029E+02  0.00000000000E+00 0. -1.
         11    1    3    3    0    0 -0.64616864196E+00 -0.22283093770E+02  0.85051673220E+01  0.23859833892E+02  0.51100000000E-03 0. -1.
        -11    1    3    3    0    0  0.29282739770E+02  0.13112442693E+02  0.25173820469E+01  0.32183104487E+02  0.51100000000E-03 0.  1.
         12    1    3    3    0    0 -0.10661327611E+02  0.10912085138E+02 -0.60692336200E+01  0.16418681592E+02  0.00000000000E+00 0. -1.
</event>
<event>
 7    1  0.1339094E-013  0.7246155E+02  0.7816164E-02  0.1226708E+00
        -11   -1    0    0    0    0  0.00000000000E+00  0.00000000000E+00  0.45593999997E+02  0.45594000000E+02  0.51100000000E-03 0.  1.
         11   -1    0    0    0    0 -0.00000000000E+00 -0.00000000000E+00 -0.45593999997E+02  0.45594000000E+02  0.51100000000E-03 0. -1.
    9900012    2    1    2    0    0  0.51655807318E+01  0.15232657769E+02  0.95897250624E+01  0.72461550423E+02  0.69999974113E+02 0.  0.
         12    1    1    2    0    0 -0.51655807318E+01 -0.15232657769E+02 -0.95897250624E+01  0.18726449577E+02  0.00000000000E+00 0. -1.
         11    1    3    3    0    0  0.31393481939E+02  0.10982165897E+02  0.22884694899E+01  0.33337602927E+02  0.51100000000E-03 0.  1.
        -11    1    3    3    0    0 -0.50717184707E+01  0.46136835898E+01  0.15091654860E+02  0.16576080694E+02  0.51100000000E-03 0. -1.
         12    1    3    3    0    0 -0.21156182737E+02 -0.36319171829E+00 -0.77903992874E+01  0.22547866801E+02  0.00000000000E+00 0. -1.
</event>
<event>
 7    1  0.1339094E-013  0.7246160E+02  0.7816164E-02  0.1226708E+00
        -11   -1    0    0    0    0  0.00000000000E+00  0.00000000000E+00  0.45593999997E+02  0.45594000000E+02  0.51100000000E-03 0.  1.
         11   -1    0    0    0    0 -0.00000000000E+00 -0.00000000000E+00 -0.45593999997E+02  0.45594000000E+02  0.51100000000E-03 0. -1.
    9900012    2    1    2    0    0  0.30378677471E+01  0.10044734620E+02  0.15509762659E+02  0.72461599605E+02  0.70000038182E+02 0.  0.
         12    1    1    2    0    0 -0.30378677471E+01 -0.10044734620E+02 -0.15509762659E+02  0.18726400395E+02  0.00000000000E+00 0. -1.
         11    1    3    3    0    0  0.62323464131E+01  0.30749735436E+02  0.20884750252E+02  0.37690332508E+02  0.51100000000E-03 0.  1.
        -11    1    3    3    0    0 -0.96928147463E+01 -0.24126088935E+02 -0.59184446977E+00  0.26007097207E+02  0.51100000000E-03 0. -1.
        -12    1    3    3    0    0  0.64983360803E+01  0.34210881186E+01 -0.47831431229E+01  0.87641698901E+01  0.00000000000E+00 0.  1.
</event>
<event>
 7    1  0.1339094E-013  0.7246162E+02  0.7816164E-02  0.1226708E+00
        -11   -1    0    0    0    0  0.00000000000E+00  0.00000000000E+00  0.45593999997E+02  0.45594000000E+02  0.51100000000E-03 0. -1.
         11   -1    0    0    0    0 -0.00000000000E+00 -0.00000000000E+00 -0.45593999997E+02  0.45594000000E+02  0.51100000000E-03 0.  1.
    9900012    2    1    2    0    0  0.56499892600E+01 -0.10978657405E+02 -0.14079201672E+02  0.72461622433E+02  0.70000067920E+02 0.  0.
         12    1    1    2    0    0 -0.56499892600E+01  0.10978657405E+02  0.14079201672E+02  0.18726377567E+02  0.00000000000E+00 0. -1.
         11    1    3    3    0    0  0.16414686037E+02 -0.31591108280E+02 -0.39692738977E+01  0.35821713744E+02  0.51100000000E-03 0. -1.
        -11    1    3    3    0    0 -0.16115835651E+02  0.62919349929E+01 -0.12256740151E+02  0.21202270729E+02  0.51100000000E-03 0.  1.
        -12    1    3    3    0    0  0.53511388745E+01  0.14320515882E+02  0.21468123764E+01  0.15437637959E+02  0.00000000000E+00 0.  1.
</event>
<event>
 7    1  0.1339094E-013  0.7246181E+02  0.7816164E-02  0.1226707E+00
        -11   -1    0    0    0    0  0.00000000000E+00  0.00000000000E+00  0.45593999997E+02  0.45594000000E+02  0.51100000000E-03 0. -1.
         11   -1    0    0    0    0 -0.00000000000E+00 -0.00000000000E+00 -0.45593999997E+02  0.45594000000E+02  0.51100000000E-03 0.  1.
    9900012    2    1    2    0    0 -0.65989471161E+01 -0.15390497834E+02  0.83819247736E+01  0.72461810064E+02  0.70000312344E+02 0.  0.
         12    1    1    2    0    0  0.65989471161E+01  0.15390497834E+02 -0.83819247736E+01  0.18726189936E+02  0.00000000000E+00 0. -1.
         11    1    3    3    0    0  0.11084342467E+02 -0.34391396539E+01 -0.15760752455E+01  0.11712145104E+02  0.51100000000E-03 0. -1.
        -11    1    3    3    0    0 -0.24115285691E+02 -0.14876387260E+02  0.28936150704E+02  0.40498823683E+02  0.51100000000E-03 0.  1.
        -12    1    3    3    0    0  0.64319961076E+01  0.29250290804E+01 -0.18978150685E+02  0.20250841278E+02  0.00000000000E+00 0.  1.
</event>
<event>
 7    1  0.1339094E-013  0.7246154E+02  0.7816164E-02  0.1226708E+00
        -11   -1    0    0    0    0  0.00000000000E+00  0.00000000000E+00  0.45593999997E+02  0.45594000000E+02  0.51100000000E-03 0.  1.
         11   -1    0    0    0    0 -0.00000000000E+00 -0.00000000000E+00 -0.45593999997E+02  0.45594000000E+02  0.51100000000E-03 0. -1.
    9900012    2    1    2    0    0  0.22357586639E+01  0.16052470791E+02 -0.93808216481E+01  0.72461541443E+02  0.69999962415E+02 0.  0.
         12    1    1    2    0    0 -0.22357586639E+01 -0.16052470791E+02  0.93808216481E+01  0.18726458557E+02  0.00000000000E+00 0. -1.
         11    1    3    3    0    0  0.16863053475E+02  0.16395321069E+02 -0.45789770637E+01  0.23961138467E+02  0.51100000000E-03 0. -1.
        -11    1    3    3    0    0 -0.12401966022E+02 -0.11526025434E+02 -0.22064508566E+02  0.27811878075E+02  0.51100000000E-03 0.  1.
        -12    1    3    3    0    0 -0.22253287892E+01  0.11183175157E+02  0.17262663982E+02  0.20688524901E+02  0.00000000000E+00 0.  1.
</event>
<event>
 7    1  0.1440360E-013  0.7246153E+02  0.7816164E-02  0.1226708E+00
        -11   -1    0    0    0    0  0.00000000000E+00  0.00000000000E+00  0.45593999997E+02  0.45594000000E+02  0.51100000000E-03 0. -1.
         11   -1    0    0    0    0 -0.00000000000E+00 -0.00000000000E+00 -0.45593999997E+02  0.45594000000E+02  0.51100000000E-03 0.  1.
    9900012    2    1    2    0    0 -0.22611669180E+01 -0.12639696394E+02 -0.13631060075E+02  0.72461532113E+02  0.69999950262E+02 0.  0.
         12    1    1    2    0    0  0.22611669180E+01  0.12639696394E+02  0.13631060075E+02  0.18726467887E+02  0.00000000000E+00 0. -1.
         11    1    3    3    0    0  0.22372946963E+02  0.49291817142E+01 -0.12952778447E+01  0.22946096250E+02  0.51100000000E-03 0. -1.
        -11    1    3    3    0    0 -0.10216879877E+02 -0.19303367702E+02 -0.22833531999E+02  0.31597069846E+02  0.51100000000E-03 0.  1.
         12    1    3    3    0    0 -0.14417234004E+02  0.17344895939E+01  0.10497749769E+02  0.17918366016E+02  0.00000000000E+00 0. -1.
</event>
<event>
 7    1  0.1339094E-013  0.7246154E+02  0.7816164E-02  0.1226708E+00
        -11   -1    0    0    0    0  0.00000000000E+00  0.00000000000E+00  0.45593999997E+02  0.45594000000E+02  0.51100000000E-03 0. -1.
         11   -1    0    0    0    0 -0.00000000000E+00 -0.00000000000E+00 -0.45593999997E+02  0.45594000000E+02  0.51100000000E-03 0.  1.
    9900012    2    1    2    0    0 -0.68050554095E+01 -0.39161894526E+01 -0.17001029938E+02  0.72461539098E+02  0.69999959361E+02 0.  0.
         12    1    1    2    0    0  0.68050554095E+01  0.39161894526E+01  0.17001029938E+02  0.18726460902E+02  0.00000000000E+00 0. -1.
         11    1    3    3    0    0 -0.12411466990E+02 -0.28036606880E+02  0.11057177939E+02  0.32593818776E+02  0.51100000000E-03 0. -1.
        -11    1    3    3    0    0  0.26139519066E+01  0.85899211183E+01 -0.17148521528E+01  0.91411272585E+01  0.51100000000E-03 0.  1.
         12    1    3    3    0    0  0.29924596744E+01  0.15530496309E+02 -0.26343355724E+02  0.30726593064E+02  0.00000000000E+00 0. -1.
</event>
<event>
 7    1  0.1339094E-013  0.7246159E+02  0.7816164E-02  0.1226708E+00
        -11   -1    0    0    0    0  0.00000000000E+00  0.00000000000E+00  0.45593999997E+02  0.45594000000E+02  0.51100000000E-03 0.  1.
         11   -1    0    0    0    0 -0.00000000000E+00 -0.00000000000E+00 -0.45593999997E+02  0.45594000000E+02  0.51100000000E-03 0. -1.
    9900012    2    1    2    0    0 -0.15313562237E+02  0.83745588064E+01  0.67852889913E+01  0.72461586294E+02  0.70000020843E+02 0.  0.
         12    1    1    2    0    0  0.15313562237E+02 -0.83745588064E+01 -0.67852889913E+01  0.18726413706E+02  0.00000000000E+00 0. -1.
         11    1    3    3    0    0  0.86790476983E+01 -0.16538776122E+02 -0.97655347426E+01  0.21076590180E+02  0.51100000000E-03 0. -1.
        -11    1    3    3    0    0 -0.31064162483E+02  0.22270274072E+02  0.64311453097E+01  0.38759604336E+02  0.51100000000E-03 0.  1.
         12    1    3    3    0    0  0.70715525486E+01  0.26430608562E+01  0.10119678424E+02  0.12625391778E+02  0.00000000000E+00 0. -1.
</event>
<event>
 7    1  0.1339094E-013  0.7246157E+02  0.7816164E-02  0.1226708E+00
        -11   -1    0    0    0    0  0.00000000000E+00  0.00000000000E+00  0.45593999997E+02  0.45594000000E+02  0.51100000000E-03 0. -1.
         11   -1    0    0    0    0 -0.00000000000E+00 -0.00000000000E+00 -0.45593999997E+02  0.45594000000E+02  0.51100000000E-03 0.  1.
    9900012    2    1    2    0    0  0.83773064924E+01 -0.26806995602E+01 -0.16532205174E+02  0.72461568890E+02  0.69999998171E+02 0.  0.
         12    1    1    2    0    0 -0.83773064924E+01  0.26806995602E+01  0.16532205174E+02  0.18726431110E+02  0.00000000000E+00 0. -1.
         11    1    3    3    0    0  0.23730575263E+02 -0.15741979189E+02  0.75988962519E+01  0.29473604049E+02  0.51100000000E-03 0. -1.
        -11    1    3    3    0    0  0.21181736099E+01  0.17032055289E+02 -0.15388603642E+02  0.23051826156E+02  0.51100000000E-03 0.  1.
         12    1    3    3    0    0 -0.17471442380E+02 -0.39707756601E+01 -0.87424977836E+01  0.19936138686E+02  0.00000000000E+00 0. -1.
</event>
<event>
 7    1  0.1339094E-013  0.7246144E+02  0.7816164E-02  0.1226708E+00
        -11   -1    0    0    0    0  0.00000000000E+00  0.00000000000E+00  0.45593999997E+02  0.45594000000E+02  0.51100000000E-03 0.  1.
         11   -1    0    0    0    0 -0.00000000000E+00 -0.00000000000E+00 -0.45593999997E+02  0.45594000000E+02  0.51100000000E-03 0. -1.
    9900012    2    1    2    0    0 -0.10493940744E+02  0.14250587021E+02  0.61222496097E+01  0.72461442306E+02  0.69999833271E+02 0.  0.
         12    1    1    2    0    0  0.10493940744E+02 -0.14250587021E+02 -0.61222496097E+01  0.18726557694E+02  0.00000000000E+00 0. -1.
         11    1    3    3    0    0  0.12670271087E+02  0.87413849350E+01 -0.17352076141E+02  0.23195735096E+02  0.51100000000E-03 0. -1.
        -11    1    3    3    0    0 -0.48516744322E+01 -0.12351018754E+02  0.19187341114E+02  0.23328962007E+02  0.51100000000E-03 0.  1.
        -12    1    3    3    0    0 -0.18312537399E+02  0.17860220840E+02  0.42869846360E+01  0.25936745202E+02  0.00000000000E+00 0.  1.
</event>
<event>
 7    1  0.1339094E-013  0.7246153E+02  0.7816164E-02  0.1226708E+00
        -11   -1    0    0    0    0  0.00000000000E+00  0.00000000000E+00  0.45593999997E+02  0.45594000000E+02  0.51100000000E-03 0.  1.
         11   -1    0    0    0    0 -0.00000000000E+00 -0.00000000000E+00 -0.45593999997E+02  0.45594000000E+02  0.51100000000E-03 0. -1.
    9900012    2    1    2    0    0 -0.17012112298E+02 -0.35954086857E+01 -0.69528333129E+01  0.72461526239E+02  0.69999942610E+02 0.  0.
         12    1    1    2    0    0  0.17012112298E+02  0.35954086857E+01  0.69528333129E+01  0.18726473761E+02  0.00000000000E+00 0. -1.
         11    1    3    3    0    0 -0.84279328388E+01 -0.15179566798E+02 -0.32599012241E+02  0.36934332259E+02  0.51100000000E-03 0. -1.
        -11    1    3    3    0    0  0.81722746849E+00  0.10520992431E+02  0.29796779346E+01  0.10965291757E+02  0.51100000000E-03 0.  1.
         12    1    3    3    0    0 -0.94014069275E+01  0.10631656809E+01  0.22666500993E+02  0.24561902222E+02  0.00000000000E+00 0. -1.
</event>
<event>
 7    1  0.1339094E-013  0.7246157E+02  0.7816164E-02  0.1226708E+00
        -11   -1    0    0    0    0  0.00000000000E+00  0.00000000000E+00  0.45593999997E+02  0.45594000000E+02  0.51100000000E-03 0. -1.
         11   -1    0    0    0    0 -0.00000000000E+00 -0.00000000000E+00 -0.45593999997E+02  0.45594000000E+02  0.51100000000E-03 0.  1.
    9900012    2    1    2    0    0 -0.89727544143E+01 -0.16341676086E+02 -0.17659053247E+01  0.72461571598E+02  0.70000001698E+02 0.  0.
         12    1    1    2    0    0  0.89727544143E+01  0.16341676086E+02  0.17659053247E+01  0.18726428402E+02  0.00000000000E+00 0. -1.
         11    1    3    3    0    0 -0.10831821222E+02 -0.55668288711E+01  0.13200076095E+01  0.12249912450E+02  0.51100000000E-03 0. -1.
        -11    1    3    3    0    0  0.27173740438E+02 -0.17441152353E+02 -0.86952885034E+01  0.33439707044E+02  0.51100000000E-03 0.  1.
        -12    1    3    3    0    0 -0.25314673630E+02  0.66663051376E+01  0.56093755692E+01  0.26771952104E+02  0.00000000000E+00 0.  1.
</event>
<event>
 7    1  0.1339094E-013  0.7246155E+02  0.7816164E-02  0.1226708E+00
        -11   -1    0    0    0    0  0.00000000000E+00  0.00000000000E+00  0.45593999997E+02  0.45594000000E+02  0.51100000000E-03 0. -1.
         11   -1    0    0    0    0 -0.00000000000E+00 -0.00000000000E+00 -0.45593999997E+02  0.45594000000E+02  0.51100000000E-03 0.  1.
    9900012    2    1    2    0    0 -0.18053297645E+02  0.48598773536E+00 -0.49519991641E+01  0.72461547168E+02  0.69999969874E+02 0.  0.
         12    1    1    2    0    0  0.18053297645E+02 -0.48598773536E+00  0.49519991641E+01  0.18726452832E+02  0.00000000000E+00 0. -1.
         11    1    3    3    0    0 -0.61976761253E+01 -0.37775537784E+01  0.89478757726E+01  0.11521526939E+02  0.51100000000E-03 0. -1.
        -11    1    3    3    0    0 -0.42033723688E+01  0.28057030942E+02 -0.20604123516E+02  0.35062732789E+02  0.51100000000E-03 0.  1.
        -12    1    3    3    0    0 -0.76522491511E+01 -0.23793489428E+02  0.67042485790E+01  0.25877287440E+02  0.00000000000E+00 0.  1.
</event>
<event>
 7    1  0.1339094E-013  0.7246157E+02  0.7816164E-02  0.1226708E+00
        -11   -1    0    0    0    0  0.00000000000E+00  0.00000000000E+00  0.45593999997E+02  0.45594000000E+02  0.51100000000E-03 0.  1.
         11   -1    0    0    0    0 -0.00000000000E+00 -0.00000000000E+00 -0.45593999997E+02  0.45594000000E+02  0.51100000000E-03 0. -1.
    9900012    2    1    2    0    0  0.63805440609E+01 -0.16681824081E+02  0.56289188316E+01  0.72461566160E+02  0.69999994614E+02 0.  0.
         12    1    1    2    0    0 -0.63805440609E+01  0.16681824081E+02 -0.56289188316E+01  0.18726433840E+02  0.00000000000E+00 0. -1.
         11    1    3    3    0    0 -0.16491545375E+02  0.96635272193E+01  0.44838417800E+01  0.19633126714E+02  0.51100000000E-03 0. -1.
        -11    1    3    3    0    0  0.12907149313E+02 -0.35360269600E+01  0.18246910909E+02  0.22628472065E+02  0.51100000000E-03 0.  1.
         12    1    3    3    0    0  0.99649401233E+01 -0.22809324340E+02 -0.17101833857E+02  0.30199967380E+02  0.00000000000E+00 0. -1.
</event>
<event>
 8    1  0.1339094E-013  0.7246167E+02  0.7816164E-02  0.1226708E+00
        -11   -1    0    0    0    0  0.00000000000E+00  0.00000000000E+00  0.45593999997E+02  0.45594000000E+02  0.51100000000E-03 0. -1.
         11   -1    0    0    0    0 -0.00000000000E+00 -0.00000000000E+00 -0.45593999997E+02  0.45594000000E+02  0.51100000000E-03 0.  1.
    9900012    2    1    2    0    0  0.45528282268E+01 -0.17718862979E+02  0.39986175064E+01  0.72461673823E+02  0.70000134865E+02 0.  0.
        -24    2    3    3    0    0  0.14840859565E+02 -0.22639074952E+02  0.11501488349E+02  0.58810844331E+02  0.50927913263E+02 0.  0.
         12    1    1    2    0    0 -0.45528282268E+01  0.17718862979E+02 -0.39986175064E+01  0.18726326177E+02  0.00000000000E+00 0. -1.
         11    1    4    4    0    0  0.31693052345E+02 -0.17135722686E+02 -0.26513739450E+01  0.36126338632E+02  0.51100000000E-03 0. -1.
        -11    1    3    3    0    0 -0.10288031338E+02  0.49202119733E+01 -0.75028708427E+01  0.13650829492E+02  0.51100000000E-03 0.  1.
        -12    1    4    4    0    0 -0.16852192780E+02 -0.55033522667E+01  0.14152862294E+02  0.22684505698E+02  0.00000000000E+00 0.  1.
</event>
<event>
 7    1  0.1339094E-013  0.7246160E+02  0.7816164E-02  0.1226708E+00
        -11   -1    0    0    0    0  0.00000000000E+00  0.00000000000E+00  0.45593999997E+02  0.45594000000E+02  0.51100000000E-03 0.  1.
         11   -1    0    0    0    0 -0.00000000000E+00 -0.00000000000E+00 -0.45593999997E+02  0.45594000000E+02  0.51100000000E-03 0. -1.
    9900012    2    1    2    0    0 -0.11071526560E+02  0.81621633563E+01  0.12707417168E+02  0.72461599863E+02  0.70000038518E+02 0.  0.
         12    1    1    2    0    0  0.11071526560E+02 -0.81621633563E+01 -0.12707417168E+02  0.18726400137E+02  0.00000000000E+00 0. -1.
         11    1    3    3    0    0  0.16709041901E+02  0.13412350912E+01 -0.13787055977E+02  0.21704237043E+02  0.51100000000E-03 0.  1.
        -11    1    3    3    0    0 -0.14651591269E+02  0.19852851177E+02  0.17009349702E+02  0.29968697071E+02  0.51100000000E-03 0. -1.
        -12    1    3    3    0    0 -0.13128977192E+02 -0.13031922912E+02  0.94851234438E+01  0.20788665749E+02  0.00000000000E+00 0.  1.
</event>
<event>
 7    1  0.1339094E-013  0.7246163E+02  0.7816164E-02  0.1226708E+00
        -11   -1    0    0    0    0  0.00000000000E+00  0.00000000000E+00  0.45593999997E+02  0.45594000000E+02  0.51100000000E-03 0. -1.
         11   -1    0    0    0    0 -0.00000000000E+00 -0.00000000000E+00 -0.45593999997E+02  0.45594000000E+02  0.51100000000E-03 0.  1.
    9900012    2    1    2    0    0 -0.12895141200E+02 -0.12596326895E+02  0.50719614778E+01  0.72461630597E+02  0.70000078555E+02 0.  0.
         12    1    1    2    0    0  0.12895141200E+02  0.12596326895E+02 -0.50719614778E+01  0.18726369403E+02  0.00000000000E+00 0. -1.
         11    1    3    3    0    0 -0.14800409613E+02 -0.43474188205E+01  0.17450805872E+02  0.23291260184E+02  0.51100000000E-03 0. -1.
        -11    1    3    3    0    0  0.12502904127E+02 -0.24097918473E+02 -0.14332956205E+01  0.27186147630E+02  0.51100000000E-03 0.  1.
        -12    1    3    3    0    0 -0.10597635714E+02  0.15849010399E+02 -0.10945548774E+02  0.21984222782E+02  0.00000000000E+00 0.  1.
</event>
<event>
 8    1  0.1339094E-013  0.7246155E+02  0.7816164E-02  0.1226708E+00
        -11   -1    0    0    0    0  0.00000000000E+00  0.00000000000E+00  0.45593999997E+02  0.45594000000E+02  0.51100000000E-03 0.  1.
         11   -1    0    0    0    0 -0.00000000000E+00 -0.00000000000E+00 -0.45593999997E+02  0.45594000000E+02  0.51100000000E-03 0. -1.
    9900012    2    1    2    0    0  0.10013996539E+02 -0.81954130898E+01  0.13536429477E+02  0.72461552248E+02  0.69999976492E+02 0.  0.
         24    2    3    3    0    0 -0.41636615768E+01 -0.12842101534E+02  0.74035019879E+00  0.52806086130E+02  0.51045851589E+02 0.  0.
         12    1    1    2    0    0 -0.10013996539E+02  0.81954130898E+01 -0.13536429477E+02  0.18726447752E+02  0.00000000000E+00 0. -1.
         11    1    3    3    0    0  0.14177658116E+02  0.46466884442E+01  0.12796079279E+02  0.19655466118E+02  0.51100000000E-03 0. -1.
        -11    1    4    4    0    0  0.11008646766E+02 -0.27792441308E+02  0.68069310810E+01  0.30658512823E+02  0.51100000000E-03 0.  1.
         12    1    4    4    0    0 -0.15172308343E+02  0.14950339774E+02 -0.60665808822E+01  0.22147573307E+02  0.00000000000E+00 0. -1.
</event>
<event>
 7    1  0.1476005E-013  0.7246159E+02  0.7816164E-02  0.1226708E+00
        -11   -1    0    0    0    0  0.00000000000E+00  0.00000000000E+00  0.45593999997E+02  0.45594000000E+02  0.51100000000E-03 0. -1.
         11   -1    0    0    0    0 -0.00000000000E+00 -0.00000000000E+00 -0.45593999997E+02  0.45594000000E+02  0.51100000000E-03 0.  1.
    9900012    2    1    2    0    0 -0.12492675340E+02 -0.48117701825E+01 -0.13094212683E+02  0.72461588832E+02  0.70000024149E+02 0.  0.
         12    1    1    2    0    0  0.12492675340E+02  0.48117701825E+01  0.13094212683E+02  0.18726411168E+02  0.00000000000E+00 0. -1.
         11    1    3    3    0    0 -0.88617184447E+01  0.12083474877E+02  0.13946279556E+02  0.20470445345E+02  0.51100000000E-03 0.  1.
        -11    1    3    3    0    0  0.84682518771E+01 -0.25149912160E+02 -0.75116592537E+01  0.27579963678E+02  0.51100000000E-03 0. -1.
        -12    1    3    3    0    0 -0.12099208773E+02  0.82546670999E+01 -0.19528832986E+02  0.24411179808E+02  0.00000000000E+00 0.  1.
</event>
<event>
 7    1  0.1339094E-013  0.7246156E+02  0.7816164E-02  0.1226708E+00
        -11   -1    0    0    0    0  0.00000000000E+00  0.00000000000E+00  0.45593999997E+02  0.45594000000E+02  0.51100000000E-03 0. -1.
         11   -1    0    0    0    0 -0.00000000000E+00 -0.00000000000E+00 -0.45593999997E+02  0.45594000000E+02  0.51100000000E-03 0.  1.
    9900012    2    1    2    0    0  0.10157087270E+02 -0.35676344196E+01 -0.15322702436E+02  0.72461557543E+02  0.69999983389E+02 0.  0.
         12    1    1    2    0    0 -0.10157087270E+02  0.35676344196E+01  0.15322702436E+02  0.18726442457E+02  0.00000000000E+00 0. -1.
         11    1    3    3    0    0  0.57511086211E+01  0.29401304794E+02 -0.98908746242E+01  0.31549031285E+02  0.51100000000E-03 0. -1.
        -11    1    3    3    0    0 -0.78777350972E+01 -0.34939807511E+01 -0.10826739817E+01  0.86855509303E+01  0.51100000000E-03 0.  1.
         12    1    3    3    0    0  0.12283713746E+02 -0.29474958462E+02 -0.43491538296E+01  0.32226975328E+02  0.00000000000E+00 0. -1.
</event>
<event>
 7    1  0.1339094E-013  0.7246163E+02  0.7816164E-02  0.1226708E+00
        -11   -1    0    0    0    0  0.00000000000E+00  0.00000000000E+00  0.45593999997E+02  0.45594000000E+02  0.51100000000E-03 0.  1.
         11   -1    0    0    0    0 -0.00000000000E+00 -0.00000000000E+00 -0.45593999997E+02  0.45594000000E+02  0.51100000000E-03 0. -1.
    9900012    2    1    2    0    0  0.16134835524E+02 -0.94184527942E+01  0.12794113509E+01  0.72461626517E+02  0.70000073241E+02 0.  0.
         12    1    1    2    0    0 -0.16134835524E+02  0.94184527942E+01 -0.12794113509E+01  0.18726373483E+02  0.00000000000E+00 0. -1.
         11    1    3    3    0    0  0.30311961577E+02 -0.21451275891E+02  0.44085741722E+01  0.37395290860E+02  0.51100000000E-03 0. -1.
        -11    1    3    3    0    0 -0.20029864573E+01  0.22833436920E+01  0.12572868986E+02  0.12934552484E+02  0.51100000000E-03 0.  1.
         12    1    3    3    0    0 -0.12174139596E+02  0.97494794048E+01 -0.15702031807E+02  0.22131783173E+02  0.00000000000E+00 0. -1.
</event>
<event>
 7    1  0.1339094E-013  0.7246155E+02  0.7816164E-02  0.1226708E+00
        -11   -1    0    0    0    0  0.00000000000E+00  0.00000000000E+00  0.45593999997E+02  0.45594000000E+02  0.51100000000E-03 0.  1.
         11   -1    0    0    0    0 -0.00000000000E+00 -0.00000000000E+00 -0.45593999997E+02  0.45594000000E+02  0.51100000000E-03 0. -1.
    9900012    2    1    2    0    0  0.18426039475E+02  0.30009791310E+01  0.14679845463E+01  0.72461553858E+02  0.69999978589E+02 0.  0.
         12    1    1    2    0    0 -0.18426039475E+02 -0.30009791310E+01 -0.14679845463E+01  0.18726446142E+02  0.00000000000E+00 0. -1.
         11    1    3    3    0    0  0.21539189165E+02 -0.21351331669E+02  0.21000061871E+02  0.36889275308E+02  0.51100000000E-03 0.  1.
        -11    1    3    3    0    0  0.47896991883E+01  0.20276031164E+02 -0.13953344206E+02  0.25074977026E+02  0.51100000000E-03 0. -1.
        -12    1    3    3    0    0 -0.79028488778E+01  0.40762796361E+01 -0.55787331194E+01  0.10497301523E+02  0.00000000000E+00 0.  1.
</event>
<event>
 7    1  0.1339094E-013  0.7246159E+02  0.7816164E-02  0.1226708E+00
        -11   -1    0    0    0    0  0.00000000000E+00  0.00000000000E+00  0.45593999997E+02  0.45594000000E+02  0.51100000000E-03 0. -1.
         11   -1    0    0    0    0 -0.00000000000E+00 -0.00000000000E+00 -0.45593999997E+02  0.45594000000E+02  0.51100000000E-03 0.  1.
    9900012    2    1    2    0    0 -0.15116366178E+02 -0.15182158613E+01 -0.10948461184E+02  0.72461593294E+02  0.70000029961E+02 0.  0.
         12    1    1    2    0    0  0.15116366178E+02  0.15182158613E+01  0.10948461184E+02  0.18726406706E+02  0.00000000000E+00 0. -1.
         11    1    3    3    0    0 -0.14253158799E+02 -0.11734206066E+02 -0.33600296831E+02  0.38338284718E+02  0.51100000000E-03 0.  1.
        -11    1    3    3    0    0  0.15745853932E+01  0.50145809065E+01  0.26624974438E+02  0.27138802570E+02  0.51100000000E-03 0. -1.
         12    1    3    3    0    0 -0.24377927724E+01  0.52014092984E+01 -0.39731387913E+01  0.69845060059E+01  0.00000000000E+00 0. -1.
</event>
<event>
 7    1  0.1339094E-013  0.7246157E+02  0.7816164E-02  0.1226708E+00
        -11   -1    0    0    0    0  0.00000000000E+00  0.00000000000E+00  0.45593999997E+02  0.45594000000E+02  0.51100000000E-03 0.  1.
         11   -1    0    0    0    0 -0.00000000000E+00 -0.00000000000E+00 -0.45593999997E+02  0.45594000000E+02  0.51100000000E-03 0. -1.
    9900012    2    1    2    0    0 -0.80734096220E+01 -0.11059936031E+02  0.12774072402E+02  0.72461573387E+02  0.70000004029E+02 0.  0.
         12    1    1    2    0    0  0.80734096220E+01  0.11059936031E+02 -0.12774072402E+02  0.18726426613E+02  0.00000000000E+00 0. -1.
         11    1    3    3    0    0  0.59817011413E+01 -0.30119762709E+02 -0.37859287048E+01  0.30940493057E+02  0.51100000000E-03 0. -1.
        -11    1    3    3    0    0 -0.48291751215E+01  0.12592630768E+02  0.24341578507E+02  0.27828182235E+02  0.51100000000E-03 0.  1.
         12    1    3    3    0    0 -0.92259356418E+01  0.64671959098E+01 -0.77815774001E+01  0.13692898095E+02  0.00000000000E+00 0. -1.
</event>
<event>
 7    1  0.1339094E-013  0.7246151E+02  0.7816164E-02  0.1226708E+00
        -11   -1    0    0    0    0  0.00000000000E+00  0.00000000000E+00  0.45593999997E+02  0.45594000000E+02  0.51100000000E-03 0. -1.
         11   -1    0    0    0    0 -0.00000000000E+00 -0.00000000000E+00 -0.45593999997E+02  0.45594000000E+02  0.51100000000E-03 0.  1.
    9900012    2    1    2    0    0 -0.11794842338E+01 -0.15330384854E+02 -0.10689696570E+02  0.72461508188E+02  0.69999919094E+02 0.  0.
         12    1    1    2    0    0  0.11794842338E+01  0.15330384854E+02  0.10689696570E+02  0.18726491812E+02  0.00000000000E+00 0. -1.
         11    1    3    3    0    0  0.48495124760E+01  0.95091842043E+00 -0.11930726866E+02  0.12913723743E+02  0.51100000000E-03 0. -1.
        -11    1    3    3    0    0 -0.20164083055E+02  0.98003771298E+01  0.14868403783E+02  0.26901804189E+02  0.51100000000E-03 0.  1.
        -12    1    3    3    0    0  0.14135086345E+02 -0.26081680404E+02 -0.13627373487E+02  0.32645980255E+02  0.00000000000E+00 0.  1.
</event>
<event>
 7    1  0.1339094E-013  0.7246151E+02  0.7816164E-02  0.1226708E+00
        -11   -1    0    0    0    0  0.00000000000E+00  0.00000000000E+00  0.45593999997E+02  0.45594000000E+02  0.51100000000E-03 0.  1.
         11   -1    0    0    0    0 -0.00000000000E+00 -0.00000000000E+00 -0.45593999997E+02  0.45594000000E+02  0.51100000000E-03 0. -1.
    9900012    2    1    2    0    0 -0.50191848059E+01  0.16034072672E+02 -0.82702923667E+01  0.72461509715E+02  0.69999921084E+02 0.  0.
         12    1    1    2    0    0  0.50191848059E+01 -0.16034072672E+02  0.82702923667E+01  0.18726490285E+02  0.00000000000E+00 0. -1.
         11    1    3    3    0    0  0.70866092114E+01  0.55245347930E+01 -0.47003625937E+01  0.10140706266E+02  0.51100000000E-03 0. -1.
        -11    1    3    3    0    0 -0.11892619799E+02  0.73488525131E+01  0.27627375504E+02  0.30963073433E+02  0.51100000000E-03 0.  1.
        -12    1    3    3    0    0 -0.21317421884E+00  0.31606853662E+01 -0.31197305277E+02  0.31357730016E+02  0.00000000000E+00 0.  1.
</event>
<event>
 7    1  0.1339094E-013  0.7246152E+02  0.7816164E-02  0.1226708E+00
        -11   -1    0    0    0    0  0.00000000000E+00  0.00000000000E+00  0.45593999997E+02  0.45594000000E+02  0.51100000000E-03 0.  1.
         11   -1    0    0    0    0 -0.00000000000E+00 -0.00000000000E+00 -0.45593999997E+02  0.45594000000E+02  0.51100000000E-03 0. -1.
    9900012    2    1    2    0    0 -0.31187227333E+01  0.18464946004E+02  0.22791887655E-01  0.72461516564E+02  0.69999930006E+02 0.  0.
         12    1    1    2    0    0  0.31187227333E+01 -0.18464946004E+02 -0.22791887655E-01  0.18726483436E+02  0.00000000000E+00 0. -1.
         11    1    3    3    0    0 -0.12392860663E+02 -0.12364978360E+02 -0.17202606509E+02  0.24543947446E+02  0.51100000000E-03 0. -1.
        -11    1    3    3    0    0  0.13810266374E+02  0.15152005792E+02 -0.42568669634E+01  0.20938664080E+02  0.51100000000E-03 0.  1.
         12    1    3    3    0    0 -0.45361284438E+01  0.15677918573E+02  0.21482265360E+02  0.26978905038E+02  0.00000000000E+00 0. -1.
</event>
<event>
 7    1  0.1339094E-013  0.7246162E+02  0.7816164E-02  0.1226708E+00
        -11   -1    0    0    0    0  0.00000000000E+00  0.00000000000E+00  0.45593999997E+02  0.45594000000E+02  0.51100000000E-03 0.  1.
         11   -1    0    0    0    0 -0.00000000000E+00 -0.00000000000E+00 -0.45593999997E+02  0.45594000000E+02  0.51100000000E-03 0. -1.
    9900012    2    1    2    0    0  0.13131735808E+02  0.12090079698E+02  0.56625637331E+01  0.72461624471E+02  0.70000070575E+02 0.  0.
         12    1    1    2    0    0 -0.13131735808E+02 -0.12090079698E+02 -0.56625637331E+01  0.18726375529E+02  0.00000000000E+00 0. -1.
         11    1    3    3    0    0 -0.27842824361E+01  0.45438324023E+01 -0.16085471916E+02  0.16945236753E+02  0.51100000000E-03 0. -1.
        -11    1    3    3    0    0  0.30098575511E+02  0.15402821904E+02  0.19812210615E+02  0.39187942790E+02  0.51100000000E-03 0.  1.
         12    1    3    3    0    0 -0.14182557267E+02 -0.78565746091E+01  0.19358250341E+01  0.16328444929E+02  0.00000000000E+00 0. -1.
</event>
<event>
 7    1  0.1339094E-013  0.7246167E+02  0.7816164E-02  0.1226708E+00
        -11   -1    0    0    0    0  0.00000000000E+00  0.00000000000E+00  0.45593999997E+02  0.45594000000E+02  0.51100000000E-03 0. -1.
         11   -1    0    0    0    0 -0.00000000000E+00 -0.00000000000E+00 -0.45593999997E+02  0.45594000000E+02  0.51100000000E-03 0.  1.
    9900012    2    1    2    0    0 -0.42611925117E+01  0.13314102796E+02 -0.12460026445E+02  0.72461672173E+02  0.70000132715E+02 0.  0.
         12    1    1    2    0    0  0.42611925117E+01 -0.13314102796E+02  0.12460026445E+02  0.18726327827E+02  0.00000000000E+00 0. -1.
         11    1    3    3    0    0 -0.14591389727E+02 -0.24405270246E+01  0.36752322762E+01  0.15243758030E+02  0.51100000000E-03 0. -1.
        -11    1    3    3    0    0  0.10781189232E+02 -0.12906992297E+02  0.90170434431E+01  0.19082231634E+02  0.51100000000E-03 0.  1.
        -12    1    3    3    0    0 -0.45099201699E+00  0.28661622118E+02 -0.25152302165E+02  0.38135682509E+02  0.00000000000E+00 0.  1.
</event>
<event>
 7    1  0.1339094E-013  0.7246156E+02  0.7816164E-02  0.1226708E+00
        -11   -1    0    0    0    0  0.00000000000E+00  0.00000000000E+00  0.45593999997E+02  0.45594000000E+02  0.51100000000E-03 0.  1.
         11   -1    0    0    0    0 -0.00000000000E+00 -0.00000000000E+00 -0.45593999997E+02  0.45594000000E+02  0.51100000000E-03 0. -1.
    9900012    2    1    2    0    0 -0.29664050249E+01 -0.13637546930E+02  0.12485885539E+02  0.72461559261E+02  0.69999985628E+02 0.  0.
         12    1    1    2    0    0  0.29664050249E+01  0.13637546930E+02 -0.12485885539E+02  0.18726440739E+02  0.00000000000E+00 0. -1.
         11    1    3    3    0    0  0.28548409221E+02  0.33322825843E+01 -0.83365329029E+01  0.29926803327E+02  0.51100000000E-03 0. -1.
        -11    1    3    3    0    0 -0.21025262717E+02 -0.59722534313E+01  0.11375802564E+02  0.24640177914E+02  0.51100000000E-03 0.  1.
         12    1    3    3    0    0 -0.10489551529E+02 -0.10997576083E+02  0.94466158773E+01  0.17894578020E+02  0.00000000000E+00 0. -1.
</event>
<event>
 7    1  0.1339094E-013  0.7246167E+02  0.7816164E-02  0.1226708E+00
        -11   -1    0    0    0    0  0.00000000000E+00  0.00000000000E+00  0.45593999997E+02  0.45594000000E+02  0.51100000000E-03 0.  1.
         11   -1    0    0    0    0 -0.00000000000E+00 -0.00000000000E+00 -0.45593999997E+02  0.45594000000E+02  0.51100000000E-03 0. -1.
    9900012    2    1    2    0    0  0.18628200649E+02  0.88305421027E+00  0.16987689482E+01  0.72461669337E+02  0.70000129022E+02 0.  0.
         12    1    1    2    0    0 -0.18628200649E+02 -0.88305421027E+00 -0.16987689482E+01  0.18726330663E+02  0.00000000000E+00 0. -1.
         11    1    3    3    0    0  0.15165095107E+02  0.22910034938E+02 -0.16596842985E+02  0.32098364566E+02  0.51100000000E-03 0. -1.
        -11    1    3    3    0    0 -0.59762426443E+01  0.27439110564E+01  0.11089746131E+02  0.12892904776E+02  0.51100000000E-03 0.  1.
         12    1    3    3    0    0  0.94393481860E+01 -0.24770891784E+02  0.72058658018E+01  0.27470399996E+02  0.00000000000E+00 0. -1.
</event>
<event>
 7    1  0.1339094E-013  0.7246156E+02  0.7816164E-02  0.1226708E+00
        -11   -1    0    0    0    0  0.00000000000E+00  0.00000000000E+00  0.45593999997E+02  0.45594000000E+02  0.51100000000E-03 0. -1.
         11   -1    0    0    0    0 -0.00000000000E+00 -0.00000000000E+00 -0.45593999997E+02  0.45594000000E+02  0.51100000000E-03 0.  1.
    9900012    2    1    2    0    0 -0.13873809478E+02 -0.11292059235E+02  0.55395370895E+01  0.72461557135E+02  0.69999982858E+02 0.  0.
         12    1    1    2    0    0  0.13873809478E+02  0.11292059235E+02 -0.55395370895E+01  0.18726442865E+02  0.00000000000E+00 0. -1.
         11    1    3    3    0    0 -0.76027030734E+01 -0.12392252507E+02  0.23104986687E+02  0.27298524251E+02  0.51100000000E-03 0. -1.
        -11    1    3    3    0    0  0.16976879352E+02 -0.47461205461E+01 -0.70200468367E+01  0.18974223320E+02  0.51100000000E-03 0.  1.
        -12    1    3    3    0    0 -0.23247985756E+02  0.58463138183E+01 -0.10545402761E+02  0.26188809564E+02  0.00000000000E+00 0.  1.
</event>
<event>
 7    1  0.1339094E-013  0.7246158E+02  0.7816164E-02  0.1226708E+00
        -11   -1    0    0    0    0  0.00000000000E+00  0.00000000000E+00  0.45593999997E+02  0.45594000000E+02  0.51100000000E-03 0.  1.
         11   -1    0    0    0    0 -0.00000000000E+00 -0.00000000000E+00 -0.45593999997E+02  0.45594000000E+02  0.51100000000E-03 0. -1.
    9900012    2    1    2    0    0  0.64443218162E+01  0.16405291578E+02  0.63258285472E+01  0.72461575295E+02  0.70000006515E+02 0.  0.
         12    1    1    2    0    0 -0.64443218162E+01 -0.16405291578E+02 -0.63258285472E+01  0.18726424705E+02  0.00000000000E+00 0. -1.
         11    1    3    3    0    0 -0.17132900849E+02  0.24215950096E+02  0.24173444940E+02  0.38266224939E+02  0.51100000000E-03 0. -1.
        -11    1    3    3    0    0  0.18442464544E+02 -0.22736476725E+00 -0.63724903996E+01  0.19513708703E+02  0.51100000000E-03 0.  1.
        -12    1    3    3    0    0  0.51347581212E+01 -0.75832937509E+01 -0.11475125993E+02  0.14681641653E+02  0.00000000000E+00 0.  1.
</event>
<event>
 7    1  0.1339094E-013  0.7246182E+02  0.7816164E-02  0.1226707E+00
        -11   -1    0    0    0    0  0.00000000000E+00  0.00000000000E+00  0.45593999997E+02  0.45594000000E+02  0.51100000000E-03 0.  1.
         11   -1    0    0    0    0 -0.00000000000E+00 -0.00000000000E+00 -0.45593999997E+02  0.45594000000E+02  0.51100000000E-03 0. -1.
    9900012    2    1    2    0    0 -0.38252614495E+01  0.18225604788E+02 -0.19658787496E+01  0.72461815810E+02  0.70000319829E+02 0.  0.
         12    1    1    2    0    0  0.38252614495E+01 -0.18225604788E+02  0.19658787496E+01  0.18726184190E+02  0.00000000000E+00 0. -1.
         11    1    3    3    0    0 -0.26356857355E+02  0.14373031983E+02 -0.17475851295E+02  0.34737204216E+02  0.51100000000E-03 0. -1.
        -11    1    3    3    0    0  0.25893952833E+02  0.45111570073E+01  0.51117245081E+01  0.26776427293E+02  0.51100000000E-03 0.  1.
         12    1    3    3    0    0 -0.33623569280E+01 -0.65858420175E+00  0.10398248037E+02  0.10948184301E+02  0.00000000000E+00 0. -1.
</event>
<event>
 7    1  0.1339094E-013  0.7246153E+02  0.7816164E-02  0.1226708E+00
        -11   -1    0    0    0    0  0.00000000000E+00  0.00000000000E+00  0.45593999997E+02  0.45594000000E+02  0.51100000000E-03 0.  1.
         11   -1    0    0    0    0 -0.00000000000E+00 -0.00000000000E+00 -0.45593999997E+02  0.45594000000E+02  0.51100000000E-03 0. -1.
    9900012    2    1    2    0    0  0.17323064651E+02  0.40910965652E+01  0.58185235557E+01  0.72461525254E+02  0.69999941327E+02 0.  0.
         12    1    1    2    0    0 -0.17323064651E+02 -0.40910965652E+01 -0.58185235557E+01  0.18726474746E+02  0.00000000000E+00 0. -1.
         11    1    3    3    0    0  0.51491584667E+01  0.26718539106E+02 -0.98270467396E+01  0.28930347609E+02  0.51100000000E-03 0. -1.
        -11    1    3    3    0    0  0.34482356703E+01 -0.28994691268E+02  0.14693095404E+02  0.32687451778E+02  0.51100000000E-03 0.  1.
        -12    1    3    3    0    0  0.87256705145E+01  0.63672487263E+01  0.95247489172E+00  0.10843725868E+02  0.00000000000E+00 0.  1.
</event>
<event>
 7    1  0.1339094E-013  0.7246164E+02  0.7816164E-02  0.1226708E+00
        -11   -1    0    0    0    0  0.00000000000E+00  0.00000000000E+00  0.45593999997E+02  0.45594000000E+02  0.51100000000E-03 0.  1.
         11   -1    0    0    0    0 -0.00000000000E+00 -0.00000000000E+00 -0.45593999997E+02  0.45594000000E+02  0.51100000000E-03 0. -1.
    9900012    2    1    2    0    0 -0.56925038066E+01 -0.60440975921E+01  0.16785136024E+02  0.72461641394E+02  0.70000092621E+02 0.  0.
         12    1    1    2    0    0  0.56925038066E+01  0.60440975921E+01 -0.16785136024E+02  0.18726358606E+02  0.00000000000E+00 0. -1.
         11    1    3    3    0    0  0.12543892559E+02  0.16137356116E+01 -0.10967789318E+02  0.16740543180E+02  0.51100000000E-03 0. -1.
        -11    1    3    3    0    0 -0.14288674868E+02 -0.25085353885E+02  0.23812025849E+02  0.37422637324E+02  0.51100000000E-03 0.  1.
         12    1    3    3    0    0 -0.39477214981E+01  0.17427520682E+02  0.39408994934E+01  0.18298460890E+02  0.00000000000E+00 0. -1.
</event>
<event>
 7    1  0.1339094E-013  0.7246150E+02  0.7816164E-02  0.1226708E+00
        -11   -1    0    0    0    0  0.00000000000E+00  0.00000000000E+00  0.45593999997E+02  0.45594000000E+02  0.51100000000E-03 0.  1.
         11   -1    0    0    0    0 -0.00000000000E+00 -0.00000000000E+00 -0.45593999997E+02  0.45594000000E+02  0.51100000000E-03 0. -1.
    9900012    2    1    2    0    0 -0.15405982866E+02 -0.10558106706E+02  0.13651704473E+01  0.72461504982E+02  0.69999914919E+02 0.  0.
         12    1    1    2    0    0  0.15405982866E+02  0.10558106706E+02 -0.13651704473E+01  0.18726495018E+02  0.00000000000E+00 0. -1.
         11    1    3    3    0    0  0.25377525049E+02  0.72456173606E+01  0.61672960452E+01  0.27102643585E+02  0.51100000000E-03 0. -1.
        -11    1    3    3    0    0 -0.16795406641E+02 -0.99593339170E+01  0.65605821117E+00  0.19537257457E+02  0.51100000000E-03 0.  1.
         12    1    3    3    0    0 -0.23988101274E+02 -0.78443901501E+01 -0.54581838090E+01  0.25821603940E+02  0.00000000000E+00 0. -1.
</event>
<event>
 7    1  0.1339094E-013  0.7246157E+02  0.7816164E-02  0.1226708E+00
        -11   -1    0    0    0    0  0.00000000000E+00  0.00000000000E+00  0.45593999997E+02  0.45594000000E+02  0.51100000000E-03 0. -1.
         11   -1    0    0    0    0 -0.00000000000E+00 -0.00000000000E+00 -0.45593999997E+02  0.45594000000E+02  0.51100000000E-03 0.  1.
    9900012    2    1    2    0    0  0.15061428494E+02  0.58968839461E+01 -0.94371228045E+01  0.72461570672E+02  0.70000000491E+02 0.  0.
         12    1    1    2    0    0 -0.15061428494E+02 -0.58968839461E+01  0.94371228045E+01  0.18726429328E+02  0.00000000000E+00 0. -1.
         11    1    3    3    0    0  0.18964234602E+02 -0.22425992437E+02 -0.13621117898E+01  0.29401065961E+02  0.51100000000E-03 0. -1.
        -11    1    3    3    0    0  0.84413421940E+01  0.28715203511E+02 -0.51769667027E+01  0.30374663047E+02  0.51100000000E-03 0.  1.
        -12    1    3    3    0    0 -0.12344148302E+02 -0.39232712815E+00 -0.28980443121E+01  0.12685841664E+02  0.00000000000E+00 0.  1.
</event>
<event>
 7    1  0.1339094E-013  0.7246165E+02  0.7816164E-02  0.1226708E+00
        -11   -1    0    0    0    0  0.00000000000E+00  0.00000000000E+00  0.45593999997E+02  0.45594000000E+02  0.51100000000E-03 0. -1.
         11   -1    0    0    0    0 -0.00000000000E+00 -0.00000000000E+00 -0.45593999997E+02  0.45594000000E+02  0.51100000000E-03 0.  1.
    9900012    2    1    2    0    0 -0.45783406832E+01  0.15453954098E+02 -0.95336418135E+01  0.72461648863E+02  0.70000102350E+02 0.  0.
         12    1    1    2    0    0  0.45783406832E+01 -0.15453954098E+02  0.95336418135E+01  0.18726351137E+02  0.00000000000E+00 0. -1.
         11    1    3    3    0    0  0.19979674717E+01  0.27478105984E+02  0.78755588204E+01  0.28654190085E+02  0.51100000000E-03 0. -1.
        -11    1    3    3    0    0  0.10699785572E+02 -0.13864417559E+02 -0.19613413856E+02  0.26294362302E+02  0.51100000000E-03 0.  1.
         12    1    3    3    0    0 -0.17276093727E+02  0.18402656734E+01  0.22042132222E+01  0.17513096475E+02  0.00000000000E+00 0. -1.
</event>
<event>
 8    1  0.1339094E-013  0.7246156E+02  0.7816164E-02  0.1226708E+00
        -11   -1    0    0    0    0  0.00000000000E+00  0.00000000000E+00  0.45593999997E+02  0.45594000000E+02  0.51100000000E-03 0. -1.
         11   -1    0    0    0    0 -0.00000000000E+00 -0.00000000000E+00 -0.45593999997E+02  0.45594000000E+02  0.51100000000E-03 0.  1.
    9900012    2    1    2    0    0  0.97437898658E+01 -0.15880642065E+02 -0.18823726533E+01  0.72461559865E+02  0.69999986413E+02 0.  0.
         24    2    3    3    0    0  0.13350655069E+02 -0.25842102106E+02  0.81130533923E+01  0.57896234436E+02  0.49397349063E+02 0.  0.
         12    1    1    2    0    0 -0.97437898658E+01  0.15880642065E+02  0.18823726533E+01  0.18726440135E+02  0.00000000000E+00 0. -1.
         11    1    3    3    0    0 -0.36068652032E+01  0.99614600415E+01 -0.99954260455E+01  0.14565325429E+02  0.51100000000E-03 0. -1.
        -11    1    4    4    0    0  0.27676478601E+02 -0.31140882489E+02  0.29248374758E+01  0.41764778277E+02  0.51100000000E-03 0.  1.
         12    1    4    4    0    0 -0.14325823532E+02  0.52987803828E+01  0.51882159165E+01  0.16131456159E+02  0.00000000000E+00 0. -1.
</event>
<event>
 7    1  0.1339094E-013  0.7246165E+02  0.7816164E-02  0.1226708E+00
        -11   -1    0    0    0    0  0.00000000000E+00  0.00000000000E+00  0.45593999997E+02  0.45594000000E+02  0.51100000000E-03 0.  1.
         11   -1    0    0    0    0 -0.00000000000E+00 -0.00000000000E+00 -0.45593999997E+02  0.45594000000E+02  0.51100000000E-03 0. -1.
    9900012    2    1    2    0    0  0.52477961373E+01  0.16235048991E+02  0.77175023271E+01  0.72461654328E+02  0.70000109470E+02 0.  0.
         12    1    1    2    0    0 -0.52477961373E+01 -0.16235048991E+02 -0.77175023271E+01  0.18726345672E+02  0.00000000000E+00 0. -1.
         11    1    3    3    0    0 -0.46756089612E+01 -0.12115166655E+02 -0.11491523182E+02  0.17340521548E+02  0.51100000000E-03 0. -1.
        -11    1    3    3    0    0  0.19235674426E+02  0.85547089170E+01  0.24810884442E+02  0.32538810708E+02  0.51100000000E-03 0.  1.
        -12    1    3    3    0    0 -0.93122693271E+01  0.19795506729E+02 -0.56018589327E+01  0.22582322072E+02  0.00000000000E+00 0.  1.
</event>
<event>
 7    1  0.1339094E-013  0.7246160E+02  0.7816164E-02  0.1226708E+00
        -11   -1    0    0    0    0  0.00000000000E+00  0.00000000000E+00  0.45593999997E+02  0.45594000000E+02  0.51100000000E-03 0.  1.
         11   -1    0    0    0    0 -0.00000000000E+00 -0.00000000000E+00 -0.45593999997E+02  0.45594000000E+02  0.51100000000E-03 0. -1.
    9900012    2    1    2    0    0 -0.12649380445E+02 -0.13782344471E+02 -0.84745247443E+00  0.72461600974E+02  0.70000039966E+02 0.  0.
         12    1    1    2    0    0  0.12649380445E+02  0.13782344471E+02  0.84745247443E+00  0.18726399026E+02  0.00000000000E+00 0. -1.
         11    1    3    3    0    0 -0.22697975108E+02  0.59588619474E+01 -0.12901193712E+02  0.26779598749E+02  0.51100000000E-03 0. -1.
        -11    1    3    3    0    0  0.16786465795E+02 -0.18930596545E+02 -0.63338649372E+01  0.26082000781E+02  0.51100000000E-03 0.  1.
         12    1    3    3    0    0 -0.67378711328E+01 -0.81060987393E+00  0.18387606175E+02  0.19600001444E+02  0.00000000000E+00 0. -1.
</event>
<event>
 7    1  0.1339094E-013  0.7246156E+02  0.7816164E-02  0.1226708E+00
        -11   -1    0    0    0    0  0.00000000000E+00  0.00000000000E+00  0.45593999997E+02  0.45594000000E+02  0.51100000000E-03 0.  1.
         11   -1    0    0    0    0 -0.00000000000E+00 -0.00000000000E+00 -0.45593999997E+02  0.45594000000E+02  0.51100000000E-03 0. -1.
    9900012    2    1    2    0    0  0.82561920736E+01 -0.16296786664E+02  0.41145617685E+01  0.72461559290E+02  0.69999985665E+02 0.  0.
         12    1    1    2    0    0 -0.82561920736E+01  0.16296786664E+02 -0.41145617685E+01  0.18726440710E+02  0.00000000000E+00 0. -1.
         11    1    3    3    0    0  0.57946313041E+01 -0.15464137018E+02 -0.29741884934E+02  0.34019068261E+02  0.51100000000E-03 0. -1.
        -11    1    3    3    0    0 -0.58845513788E+01  0.35758840254E+01  0.63694856730E+01  0.93800447490E+01  0.51100000000E-03 0.  1.
         12    1    3    3    0    0  0.83461121483E+01 -0.44085336709E+01  0.27486961029E+02  0.29062446280E+02  0.00000000000E+00 0. -1.
</event>
<event>
 7    1  0.1339094E-013  0.7246160E+02  0.7816164E-02  0.1226708E+00
        -11   -1    0    0    0    0  0.00000000000E+00  0.00000000000E+00  0.45593999997E+02  0.45594000000E+02  0.51100000000E-03 0.  1.
         11   -1    0    0    0    0 -0.00000000000E+00 -0.00000000000E+00 -0.45593999997E+02  0.45594000000E+02  0.51100000000E-03 0. -1.
    9900012    2    1    2    0    0  0.88146456135E+01  0.15772197009E+02 -0.49211768959E+01  0.72461597307E+02  0.70000035189E+02 0.  0.
         12    1    1    2    0    0 -0.88146456135E+01 -0.15772197009E+02  0.49211768959E+01  0.18726402693E+02  0.00000000000E+00 0. -1.
         11    1    3    3    0    0  0.29343173797E+02  0.18831779300E+02  0.70305056062E+01  0.35568044217E+02  0.51100000000E-03 0. -1.
        -11    1    3    3    0    0 -0.15027756739E+02 -0.12436802965E+02  0.15394235398E+01  0.19567252380E+02  0.51100000000E-03 0.  1.
         12    1    3    3    0    0 -0.55007714448E+01  0.93772206741E+01 -0.13491106042E+02  0.17326300710E+02  0.00000000000E+00 0. -1.
</event>
<event>
 7    1  0.1339094E-013  0.7246154E+02  0.7816164E-02  0.1226708E+00
        -11   -1    0    0    0    0  0.00000000000E+00  0.00000000000E+00  0.45593999997E+02  0.45594000000E+02  0.51100000000E-03 0. -1.
         11   -1    0    0    0    0 -0.00000000000E+00 -0.00000000000E+00 -0.45593999997E+02  0.45594000000E+02  0.51100000000E-03 0.  1.
    9900012    2    1    2    0    0 -0.18654082673E+02  0.16411070843E+01 -0.11128313469E+00  0.72461536992E+02  0.69999956618E+02 0.  0.
         12    1    1    2    0    0  0.18654082673E+02 -0.16411070843E+01  0.11128313469E+00  0.18726463008E+02  0.00000000000E+00 0. -1.
         11    1    3    3    0    0 -0.24629588917E+02 -0.20672059680E+02  0.22609609626E+02  0.39308334350E+02  0.51100000000E-03 0. -1.
        -11    1    3    3    0    0  0.61072814908E+01  0.19662527333E+02 -0.16483224772E+02  0.26374430183E+02  0.51100000000E-03 0.  1.
         12    1    3    3    0    0 -0.13177524687E+00  0.26506394309E+01 -0.62376679887E+01  0.67787724586E+01  0.00000000000E+00 0. -1.
</event>
<event>
 7    1  0.1339094E-013  0.7246157E+02  0.7816164E-02  0.1226708E+00
        -11   -1    0    0    0    0  0.00000000000E+00  0.00000000000E+00  0.45593999997E+02  0.45594000000E+02  0.51100000000E-03 0.  1.
         11   -1    0    0    0    0 -0.00000000000E+00 -0.00000000000E+00 -0.45593999997E+02  0.45594000000E+02  0.51100000000E-03 0. -1.
    9900012    2    1    2    0    0  0.79674649881E-01 -0.17441850957E+02 -0.68157621209E+01  0.72461571453E+02  0.70000001509E+02 0.  0.
         12    1    1    2    0    0 -0.79674649881E-01  0.17441850957E+02  0.68157621209E+01  0.18726428547E+02  0.00000000000E+00 0. -1.
         11    1    3    3    0    0  0.17565459746E+01  0.63287823986E+00  0.16454980540E+02  0.16560566822E+02  0.51100000000E-03 0.  1.
        -11    1    3    3    0    0  0.17818403441E+02 -0.65641642996E+01 -0.26946183974E+02  0.32964838619E+02  0.51100000000E-03 0. -1.
        -12    1    3    3    0    0 -0.19495274766E+02 -0.11510564897E+02  0.36754413132E+01  0.22936166012E+02  0.00000000000E+00 0.  1.
</event>
<event>
 7    1  0.1339094E-013  0.7246156E+02  0.7816164E-02  0.1226708E+00
        -11   -1    0    0    0    0  0.00000000000E+00  0.00000000000E+00  0.45593999997E+02  0.45594000000E+02  0.51100000000E-03 0.  1.
         11   -1    0    0    0    0 -0.00000000000E+00 -0.00000000000E+00 -0.45593999997E+02  0.45594000000E+02  0.51100000000E-03 0. -1.
    9900012    2    1    2    0    0 -0.56770705483E+00 -0.99974095429E+00  0.18691112570E+02  0.72461562475E+02  0.69999989814E+02 0.  0.
         12    1    1    2    0    0  0.56770705483E+00  0.99974095429E+00 -0.18691112570E+02  0.18726437525E+02  0.00000000000E+00 0. -1.
         11    1    3    3    0    0 -0.42565177984E+01  0.28987044118E+02  0.89796932436E+01  0.30643132370E+02  0.51100000000E-03 0. -1.
        -11    1    3    3    0    0 -0.10968083107E+02 -0.17674871026E+02  0.89957884000E+01  0.22663276948E+02  0.51100000000E-03 0.  1.
         12    1    3    3    0    0  0.14656893851E+02 -0.12311914046E+02  0.71563092632E+00  0.19155153157E+02  0.00000000000E+00 0. -1.
</event>
<event>
 7    1  0.1339094E-013  0.7246161E+02  0.7816164E-02  0.1226708E+00
        -11   -1    0    0    0    0  0.00000000000E+00  0.00000000000E+00  0.45593999997E+02  0.45594000000E+02  0.51100000000E-03 0. -1.
         11   -1    0    0    0    0 -0.00000000000E+00 -0.00000000000E+00 -0.45593999997E+02  0.45594000000E+02  0.51100000000E-03 0.  1.
    9900012    2    1    2    0    0  0.10159007718E+02  0.15455226436E+02 -0.29339579922E+01  0.72461612961E+02  0.70000055582E+02 0.  0.
         12    1    1    2    0    0 -0.10159007718E+02 -0.15455226436E+02  0.29339579922E+01  0.18726387039E+02  0.00000000000E+00 0. -1.
         11    1    3    3    0    0  0.10866692547E+02 -0.15248269415E+02 -0.20889543416E+01  0.18840341228E+02  0.51100000000E-03 0. -1.
        -11    1    3    3    0    0  0.19934553566E+01  0.12680125689E+02  0.21344612997E+02  0.24906865640E+02  0.51100000000E-03 0.  1.
        -12    1    3    3    0    0 -0.27011401851E+01  0.18023370163E+02 -0.22189616648E+02  0.28714406094E+02  0.00000000000E+00 0.  1.
</event>
<event>
 7    1  0.1339094E-013  0.7246159E+02  0.7816164E-02  0.1226708E+00
        -11   -1    0    0    0    0  0.00000000000E+00  0.00000000000E+00  0.45593999997E+02  0.45594000000E+02  0.51100000000E-03 0.  1.
         11   -1    0    0    0    0 -0.00000000000E+00 -0.00000000000E+00 -0.45593999997E+02  0.45594000000E+02  0.51100000000E-03 0. -1.
    9900012    2    1    2    0    0  0.85085839474E+01 -0.16414032480E+02  0.29768810744E+01  0.72461593939E+02  0.70000030802E+02 0.  0.
         12    1    1    2    0    0 -0.85085839474E+01  0.16414032480E+02 -0.29768810744E+01  0.18726406061E+02  0.00000000000E+00 0. -1.
         11    1    3    3    0    0 -0.15851225632E+02  0.10116441942E+02 -0.39875103210E+01  0.19222486583E+02  0.51100000000E-03 0.  1.
        -11    1    3    3    0    0  0.30486663459E+02 -0.13960985557E+02  0.15410572306E+02  0.36903001309E+02  0.51100000000E-03 0. -1.
        -12    1    3    3    0    0 -0.61268538793E+01 -0.12569488865E+02 -0.84461809108E+01  0.16336106047E+02  0.00000000000E+00 0.  1.
</event>
<event>
 7    1  0.1339094E-013  0.7246160E+02  0.7816164E-02  0.1226708E+00
        -11   -1    0    0    0    0  0.00000000000E+00  0.00000000000E+00  0.45593999997E+02  0.45594000000E+02  0.51100000000E-03 0.  1.
         11   -1    0    0    0    0 -0.00000000000E+00 -0.00000000000E+00 -0.45593999997E+02  0.45594000000E+02  0.51100000000E-03 0. -1.
    9900012    2    1    2    0    0  0.13208639560E+02  0.51684977100E+01  0.12226870440E+02  0.72461604502E+02  0.70000044561E+02 0.  0.
         12    1    1    2    0    0 -0.13208639560E+02 -0.51684977100E+01 -0.12226870440E+02  0.18726395498E+02  0.00000000000E+00 0. -1.
         11    1    3    3    0    0 -0.16923208503E+02 -0.90943482531E+01  0.71344284432E+01  0.20493955833E+02  0.51100000000E-03 0. -1.
        -11    1    3    3    0    0  0.18318880854E+02  0.16534533994E+02  0.20736639944E+02  0.32233219613E+02  0.51100000000E-03 0.  1.
         12    1    3    3    0    0  0.11812967208E+02 -0.22716880310E+01 -0.15644197947E+02  0.19734429056E+02  0.00000000000E+00 0. -1.
</event>
<event>
 7    1  0.1339094E-013  0.7246156E+02  0.7816164E-02  0.1226708E+00
        -11   -1    0    0    0    0  0.00000000000E+00  0.00000000000E+00  0.45593999997E+02  0.45594000000E+02  0.51100000000E-03 0. -1.
         11   -1    0    0    0    0 -0.00000000000E+00 -0.00000000000E+00 -0.45593999997E+02  0.45594000000E+02  0.51100000000E-03 0.  1.
    9900012    2    1    2    0    0  0.22720194337E+01  0.17397814584E+02 -0.65447419900E+01  0.72461556870E+02  0.69999982512E+02 0.  0.
         12    1    1    2    0    0 -0.22720194337E+01 -0.17397814584E+02  0.65447419900E+01  0.18726443130E+02  0.00000000000E+00 0. -1.
         11    1    3    3    0    0 -0.12594414185E+02  0.29915278200E+02  0.13561800681E+02  0.35177628920E+02  0.51100000000E-03 0. -1.
        -11    1    3    3    0    0  0.16029416153E+02  0.10859895125E+01 -0.47887873252E+01  0.16764666407E+02  0.51100000000E-03 0.  1.
         12    1    3    3    0    0 -0.11629825347E+01 -0.13603453129E+02 -0.15317755346E+02  0.20519261542E+02  0.00000000000E+00 0. -1.
</event>
<event>
 7    1  0.1339094E-013  0.7246158E+02  0.7816164E-02  0.1226708E+00
        -11   -1    0    0    0    0  0.00000000000E+00  0.00000000000E+00  0.45593999997E+02  0.45594000000E+02  0.51100000000E-03 0.  1.
         11   -1    0    0    0    0 -0.00000000000E+00 -0.00000000000E+00 -0.45593999997E+02  0.45594000000E+02  0.51100000000E-03 0. -1.
    9900012    2    1    2    0    0  0.78623050246E+01  0.13798216200E+02  0.99233170226E+01  0.72461579324E+02  0.70000011763E+02 0.  0.
         12    1    1    2    0    0 -0.78623050246E+01 -0.13798216200E+02 -0.99233170226E+01  0.18726420676E+02  0.00000000000E+00 0. -1.
         11    1    3    3    0    0  0.20047166614E+02 -0.10813604511E+02 -0.19201926470E+02  0.29791557733E+02  0.51100000000E-03 0. -1.
        -11    1    3    3    0    0  0.26807781774E+01  0.87667804518E+01  0.60956354043E+01  0.11009077271E+02  0.51100000000E-03 0.  1.
         12    1    3    3    0    0 -0.14865639767E+02  0.15845040260E+02  0.23029608088E+02  0.31660944319E+02  0.00000000000E+00 0. -1.
</event>
<event>
 7    1  0.1339094E-013  0.7246155E+02  0.7816164E-02  0.1226708E+00
        -11   -1    0    0    0    0  0.00000000000E+00  0.00000000000E+00  0.45593999997E+02  0.45594000000E+02  0.51100000000E-03 0. -1.
         11   -1    0    0    0    0 -0.00000000000E+00 -0.00000000000E+00 -0.45593999997E+02  0.45594000000E+02  0.51100000000E-03 0.  1.
    9900012    2    1    2    0    0 -0.12835660959E+02 -0.12976967791E+02 -0.41861512837E+01  0.72461554852E+02  0.69999979883E+02 0.  0.
         12    1    1    2    0    0  0.12835660959E+02  0.12976967791E+02  0.41861512837E+01  0.18726445148E+02  0.00000000000E+00 0. -1.
         11    1    3    3    0    0  0.72019607176E-02  0.35670406831E+01 -0.13594770876E+02  0.14054950251E+02  0.51100000000E-03 0. -1.
        -11    1    3    3    0    0  0.18469352622E+02 -0.12174617264E+02  0.14406228299E+02  0.26398441353E+02  0.51100000000E-03 0.  1.
        -12    1    3    3    0    0 -0.31312215542E+02 -0.43693912104E+01 -0.49976087067E+01  0.32008163248E+02  0.00000000000E+00 0.  1.
</event>
<event>
 7    1  0.1339094E-013  0.7246154E+02  0.7816164E-02  0.1226708E+00
        -11   -1    0    0    0    0  0.00000000000E+00  0.00000000000E+00  0.45593999997E+02  0.45594000000E+02  0.51100000000E-03 0. -1.
         11   -1    0    0    0    0 -0.00000000000E+00 -0.00000000000E+00 -0.45593999997E+02  0.45594000000E+02  0.51100000000E-03 0.  1.
    9900012    2    1    2    0    0 -0.11355782416E+02  0.97840357101E+01 -0.11224934546E+02  0.72461539987E+02  0.69999960519E+02 0.  0.
         12    1    1    2    0    0  0.11355782416E+02 -0.97840357101E+01  0.11224934546E+02  0.18726460013E+02  0.00000000000E+00 0. -1.
         11    1    3    3    0    0  0.20519727030E+01  0.98570107006E+01  0.27784914593E+02  0.29552880251E+02  0.51100000000E-03 0. -1.
        -11    1    3    3    0    0 -0.36780695779E+01 -0.39023327962E+01 -0.24153380973E+02  0.24741507831E+02  0.51100000000E-03 0.  1.
        -12    1    3    3    0    0 -0.97296855413E+01  0.38293578057E+01 -0.14856468166E+02  0.18167151904E+02  0.00000000000E+00 0.  1.
</event>
<event>
 7    1  0.1339094E-013  0.7246158E+02  0.7816164E-02  0.1226708E+00
        -11   -1    0    0    0    0  0.00000000000E+00  0.00000000000E+00  0.45593999997E+02  0.45594000000E+02  0.51100000000E-03 0. -1.
         11   -1    0    0    0    0 -0.00000000000E+00 -0.00000000000E+00 -0.45593999997E+02  0.45594000000E+02  0.51100000000E-03 0.  1.
    9900012    2    1    2    0    0 -0.14494808305E+02 -0.84498254668E+01 -0.83174327049E+01  0.72461582696E+02  0.70000016156E+02 0.  0.
         12    1    1    2    0    0  0.14494808305E+02  0.84498254668E+01  0.83174327049E+01  0.18726417304E+02  0.00000000000E+00 0. -1.
         11    1    3    3    0    0  0.16745994920E+02 -0.54647511915E-01  0.30760815092E+00  0.16748909077E+02  0.51100000000E-03 0. -1.
        -11    1    3    3    0    0 -0.21826579058E+02 -0.26528541686E+02 -0.28020523213E+01  0.34467587308E+02  0.51100000000E-03 0.  1.
         12    1    3    3    0    0 -0.94142241675E+01  0.18133363732E+02 -0.58229885346E+01  0.21245086311E+02  0.00000000000E+00 0. -1.
</event>
<event>
 7    1  0.1339094E-013  0.7246156E+02  0.7816164E-02  0.1226708E+00
        -11   -1    0    0    0    0  0.00000000000E+00  0.00000000000E+00  0.45593999997E+02  0.45594000000E+02  0.51100000000E-03 0.  1.
         11   -1    0    0    0    0 -0.00000000000E+00 -0.00000000000E+00 -0.45593999997E+02  0.45594000000E+02  0.51100000000E-03 0. -1.
    9900012    2    1    2    0    0  0.15431988357E+02 -0.90870748420E+01 -0.54734142551E+01  0.72461562606E+02  0.69999989985E+02 0.  0.
         12    1    1    2    0    0 -0.15431988357E+02  0.90870748420E+01  0.54734142551E+01  0.18726437394E+02  0.00000000000E+00 0. -1.
         11    1    3    3    0    0 -0.17938931386E+01 -0.87444410514E+01 -0.31798705009E+01  0.94760159644E+01  0.51100000000E-03 0. -1.
        -11    1    3    3    0    0  0.33965781174E+02 -0.13895539029E+02  0.10195442161E+02  0.38088152184E+02  0.51100000000E-03 0.  1.
        -12    1    3    3    0    0 -0.16739899678E+02  0.13552905238E+02 -0.12488985915E+02  0.24897394458E+02  0.00000000000E+00 0.  1.
</event>
<event>
 7    1  0.1339094E-013  0.7246156E+02  0.7816164E-02  0.1226708E+00
        -11   -1    0    0    0    0  0.00000000000E+00  0.00000000000E+00  0.45593999997E+02  0.45594000000E+02  0.51100000000E-03 0. -1.
         11   -1    0    0    0    0 -0.00000000000E+00 -0.00000000000E+00 -0.45593999997E+02  0.45594000000E+02  0.51100000000E-03 0.  1.
    9900012    2    1    2    0    0  0.41598401040E+01 -0.16833886912E+02 -0.70707447293E+01  0.72461562825E+02  0.69999990269E+02 0.  0.
         12    1    1    2    0    0 -0.41598401040E+01  0.16833886912E+02  0.70707447293E+01  0.18726437175E+02  0.00000000000E+00 0. -1.
         11    1    3    3    0    0 -0.31449758007E+00 -0.25841558746E+01  0.23774308216E+02  0.23916406539E+02  0.51100000000E-03 0. -1.
        -11    1    3    3    0    0 -0.10734900799E+02 -0.16820668412E+02 -0.25145312343E+02  0.32100774353E+02  0.51100000000E-03 0.  1.
        -12    1    3    3    0    0  0.15209238483E+02  0.25709373750E+01 -0.56997406025E+01  0.16444381933E+02  0.00000000000E+00 0.  1.
</event>
<event>
 7    1  0.1339094E-013  0.7246157E+02  0.7816164E-02  0.1226708E+00
        -11   -1    0    0    0    0  0.00000000000E+00  0.00000000000E+00  0.45593999997E+02  0.45594000000E+02  0.51100000000E-03 0.  1.
         11   -1    0    0    0    0 -0.00000000000E+00 -0.00000000000E+00 -0.45593999997E+02  0.45594000000E+02  0.51100000000E-03 0. -1.
    9900012    2    1    2    0    0  0.14269943781E+02  0.38656923467E+00  0.12120166707E+02  0.72461570220E+02  0.69999999904E+02 0.  0.
         12    1    1    2    0    0 -0.14269943781E+02 -0.38656923467E+00 -0.12120166707E+02  0.18726429780E+02  0.00000000000E+00 0. -1.
         11    1    3    3    0    0  0.20122072789E+02 -0.20381414381E+02 -0.23511527847E+01  0.28737219510E+02  0.51100000000E-03 0. -1.
        -11    1    3    3    0    0 -0.16327092951E+02  0.15482693397E+02 -0.29782303399E+01  0.22697083849E+02  0.51100000000E-03 0.  1.
         12    1    3    3    0    0  0.10474963943E+02  0.52852902193E+01  0.17449549832E+02  0.21027266861E+02  0.00000000000E+00 0. -1.
</event>
<event>
 7    1  0.1339094E-013  0.7246156E+02  0.7816164E-02  0.1226708E+00
        -11   -1    0    0    0    0  0.00000000000E+00  0.00000000000E+00  0.45593999997E+02  0.45594000000E+02  0.51100000000E-03 0.  1.
         11   -1    0    0    0    0 -0.00000000000E+00 -0.00000000000E+00 -0.45593999997E+02  0.45594000000E+02  0.51100000000E-03 0. -1.
    9900012    2    1    2    0    0 -0.11668711322E+02 -0.90083882144E+01  0.11548574078E+02  0.72461562929E+02  0.69999990405E+02 0.  0.
         12    1    1    2    0    0  0.11668711322E+02  0.90083882144E+01 -0.11548574078E+02  0.18726437071E+02  0.00000000000E+00 0. -1.
         11    1    3    3    0    0 -0.73426414057E+01 -0.11455516763E+02 -0.22339206143E+02  0.26156899252E+02  0.51100000000E-03 0. -1.
        -11    1    3    3    0    0  0.10269151952E+02  0.98322554888E+01  0.10115989714E+02  0.17448838872E+02  0.51100000000E-03 0.  1.
         12    1    3    3    0    0 -0.14595221868E+02 -0.73851269405E+01  0.23771790507E+02  0.28855824806E+02  0.00000000000E+00 0. -1.
</event>
<event>
 7    1  0.1339094E-013  0.7246158E+02  0.7816164E-02  0.1226708E+00
        -11   -1    0    0    0    0  0.00000000000E+00  0.00000000000E+00  0.45593999997E+02  0.45594000000E+02  0.51100000000E-03 0. -1.
         11   -1    0    0    0    0 -0.00000000000E+00 -0.00000000000E+00 -0.45593999997E+02  0.45594000000E+02  0.51100000000E-03 0.  1.
    9900012    2    1    2    0    0  0.62477332807E+01 -0.17485183927E+02 -0.24316975107E+01  0.72461575331E+02  0.70000006561E+02 0.  0.
         12    1    1    2    0    0 -0.62477332807E+01  0.17485183927E+02  0.24316975107E+01  0.18726424669E+02  0.00000000000E+00 0. -1.
         11    1    3    3    0    0 -0.20849065758E+02 -0.27125176596E+02  0.76144989235E+01  0.35049099025E+02  0.51100000000E-03 0. -1.
        -11    1    3    3    0    0  0.15325887636E+02 -0.30332939318E+01  0.27938789605E+01  0.15871025922E+02  0.51100000000E-03 0.  1.
         12    1    3    3    0    0  0.11770911403E+02  0.12673286601E+02 -0.12840075395E+02  0.21541450384E+02  0.00000000000E+00 0. -1.
</event>
<event>
 7    1  0.1339094E-013  0.7246156E+02  0.7816164E-02  0.1226708E+00
        -11   -1    0    0    0    0  0.00000000000E+00  0.00000000000E+00  0.45593999997E+02  0.45594000000E+02  0.51100000000E-03 0.  1.
         11   -1    0    0    0    0 -0.00000000000E+00 -0.00000000000E+00 -0.45593999997E+02  0.45594000000E+02  0.51100000000E-03 0. -1.
    9900012    2    1    2    0    0 -0.14974753588E+02 -0.62928456654E+01  0.93186044907E+01  0.72461560369E+02  0.69999987071E+02 0.  0.
         12    1    1    2    0    0  0.14974753588E+02  0.62928456654E+01 -0.93186044907E+01  0.18726439631E+02  0.00000000000E+00 0. -1.
         11    1    3    3    0    0 -0.22879721236E+02  0.16466324193E+02 -0.13834542666E+02  0.31400892460E+02  0.51100000000E-03 0. -1.
        -11    1    3    3    0    0 -0.42326385902E+01 -0.11344336939E+02 -0.51116030451E+00  0.12119013785E+02  0.51100000000E-03 0.  1.
         12    1    3    3    0    0  0.12137606238E+02 -0.11414832920E+02  0.23664307462E+02  0.28941654124E+02  0.00000000000E+00 0. -1.
</event>
<event>
 7    1  0.1339094E-013  0.7246172E+02  0.7816164E-02  0.1226708E+00
        -11   -1    0    0    0    0  0.00000000000E+00  0.00000000000E+00  0.45593999997E+02  0.45594000000E+02  0.51100000000E-03 0. -1.
         11   -1    0    0    0    0 -0.00000000000E+00 -0.00000000000E+00 -0.45593999997E+02  0.45594000000E+02  0.51100000000E-03 0.  1.
    9900012    2    1    2    0    0  0.20605560786E+01 -0.18516727227E+02 -0.18863893272E+01  0.72461720518E+02  0.70000195693E+02 0.  0.
         12    1    1    2    0    0 -0.20605560786E+01  0.18516727227E+02  0.18863893272E+01  0.18726279482E+02  0.00000000000E+00 0. -1.
         11    1    3    3    0    0  0.24214975252E+02  0.11107703410E+02  0.52069100126E+01  0.27145128728E+02  0.51100000000E-03 0. -1.
        -11    1    3    3    0    0  0.13259876921E+01 -0.16936824862E+02  0.20340190245E+01  0.17109982858E+02  0.51100000000E-03 0.  1.
         12    1    3    3    0    0 -0.23480406866E+02 -0.12687605775E+02 -0.91273183644E+01  0.28206608931E+02  0.00000000000E+00 0. -1.
</event>
<event>
 7    1  0.1339094E-013  0.7246168E+02  0.7816164E-02  0.1226708E+00
        -11   -1    0    0    0    0  0.00000000000E+00  0.00000000000E+00  0.45593999997E+02  0.45594000000E+02  0.51100000000E-03 0. -1.
         11   -1    0    0    0    0 -0.00000000000E+00 -0.00000000000E+00 -0.45593999997E+02  0.45594000000E+02  0.51100000000E-03 0.  1.
    9900012    2    1    2    0    0 -0.69183489625E+01  0.73613971022E+01 -0.15767733439E+02  0.72461677951E+02  0.70000140243E+02 0.  0.
         12    1    1    2    0    0  0.69183489625E+01 -0.73613971022E+01  0.15767733439E+02  0.18726322049E+02  0.00000000000E+00 0. -1.
         11    1    3    3    0    0  0.22657844665E+02  0.17346813630E+02 -0.18750020927E+02  0.34144591856E+02  0.51100000000E-03 0. -1.
        -11    1    3    3    0    0 -0.20539020047E+02 -0.84405942416E+01 -0.83647769408E+01  0.23728979522E+02  0.51100000000E-03 0.  1.
         12    1    3    3    0    0 -0.90371735809E+01 -0.15448222862E+01  0.11347064429E+02  0.14588106573E+02  0.00000000000E+00 0. -1.
</event>
<event>
 7    1  0.1339094E-013  0.7246156E+02  0.7816164E-02  0.1226708E+00
        -11   -1    0    0    0    0  0.00000000000E+00  0.00000000000E+00  0.45593999997E+02  0.45594000000E+02  0.51100000000E-03 0.  1.
         11   -1    0    0    0    0 -0.00000000000E+00 -0.00000000000E+00 -0.45593999997E+02  0.45594000000E+02  0.51100000000E-03 0. -1.
    9900012    2    1    2    0    0  0.48046926072E+01  0.13001583702E+02  0.12591795391E+02  0.72461559842E+02  0.69999986384E+02 0.  0.
         12    1    1    2    0    0 -0.48046926072E+01 -0.13001583702E+02 -0.12591795391E+02  0.18726440158E+02  0.00000000000E+00 0. -1.
         11    1    3    3    0    0  0.11077661449E+02 -0.20545855492E+02 -0.10553275028E+01  0.23365797172E+02  0.51100000000E-03 0. -1.
        -11    1    3    3    0    0 -0.18716845747E+02  0.14459784298E+02  0.26645228025E+01  0.23801373042E+02  0.51100000000E-03 0.  1.
        -12    1    3    3    0    0  0.12443876905E+02  0.19087654897E+02  0.10982600091E+02  0.25294389628E+02  0.00000000000E+00 0.  1.
</event>
<event>
 8    1  0.1339094E-013  0.7246166E+02  0.7816164E-02  0.1226708E+00
        -11   -1    0    0    0    0  0.00000000000E+00  0.00000000000E+00  0.45593999997E+02  0.45594000000E+02  0.51100000000E-03 0.  1.
         11   -1    0    0    0    0 -0.00000000000E+00 -0.00000000000E+00 -0.45593999997E+02  0.45594000000E+02  0.51100000000E-03 0. -1.
    9900012    2    1    2    0    0 -0.18072988899E+02 -0.35662578287E+01  0.33652263037E+01  0.72461658374E+02  0.70000114740E+02 0.  0.
         24    2    3    3    0    0 -0.23469196204E+02 -0.10179959358E+02  0.10271692709E+02  0.61481704837E+02  0.54955050864E+02 0.  0.
         12    1    1    2    0    0  0.18072988899E+02  0.35662578287E+01 -0.33652263037E+01  0.18726341626E+02  0.00000000000E+00 0. -1.
         11    1    3    3    0    0  0.53962073051E+01  0.66137015298E+01 -0.69064664055E+01  0.10979953537E+02  0.51100000000E-03 0. -1.
        -11    1    4    4    0    0  0.79669905996E+00 -0.19679418115E+02  0.24781848139E+02  0.31655240074E+02  0.51100000000E-03 0.  1.
         12    1    4    4    0    0 -0.24265895264E+02  0.94994587566E+01 -0.14510155430E+02  0.29826464762E+02  0.00000000000E+00 0. -1.
</event>
<event>
 7    1  0.1570871E-013  0.7246153E+02  0.7816164E-02  0.1226708E+00
        -11   -1    0    0    0    0  0.00000000000E+00  0.00000000000E+00  0.45593999997E+02  0.45594000000E+02  0.51100000000E-03 0. -1.
         11   -1    0    0    0    0 -0.00000000000E+00 -0.00000000000E+00 -0.45593999997E+02  0.45594000000E+02  0.51100000000E-03 0.  1.
    9900012    2    1    2    0    0 -0.11223805634E+02  0.60616106461E+01 -0.13709989561E+02  0.72461528088E+02  0.69999945018E+02 0.  0.
         12    1    1    2    0    0  0.11223805634E+02 -0.60616106461E+01  0.13709989561E+02  0.18726471912E+02  0.00000000000E+00 0. -1.
         11    1    3    3    0    0 -0.10590248974E+01 -0.99074470274E+01  0.16684303476E+02  0.19433090929E+02  0.51100000000E-03 0. -1.
        -11    1    3    3    0    0 -0.12715140256E+02 -0.55990346045E+01 -0.27899339980E+02  0.31167244854E+02  0.51100000000E-03 0.  1.
         12    1    3    3    0    0  0.25503595202E+01  0.21568092278E+02 -0.24949530567E+01  0.21861192304E+02  0.00000000000E+00 0. -1.
</event>
<event>
 7    1  0.1339094E-013  0.7246157E+02  0.7816164E-02  0.1226708E+00
        -11   -1    0    0    0    0  0.00000000000E+00  0.00000000000E+00  0.45593999997E+02  0.45594000000E+02  0.51100000000E-03 0.  1.
         11   -1    0    0    0    0 -0.00000000000E+00 -0.00000000000E+00 -0.45593999997E+02  0.45594000000E+02  0.51100000000E-03 0. -1.
    9900012    2    1    2    0    0 -0.90295252407E+01  0.82422505230E+01  0.14184932931E+02  0.72461565689E+02  0.69999994001E+02 0.  0.
         12    1    1    2    0    0  0.90295252407E+01 -0.82422505230E+01 -0.14184932931E+02  0.18726434311E+02  0.00000000000E+00 0. -1.
         11    1    3    3    0    0  0.31707864209E+01  0.64287898219E+01 -0.71416365756E+01  0.10118606541E+02  0.51100000000E-03 0. -1.
        -11    1    3    3    0    0 -0.25423927362E+02 -0.18796516361E+02  0.30054722300E+01  0.31760320738E+02  0.51100000000E-03 0.  1.
        -12    1    3    3    0    0  0.13223615700E+02  0.20609977062E+02  0.18321097276E+02  0.30582638409E+02  0.00000000000E+00 0.  1.
</event>
<event>
 7    1  0.1339094E-013  0.7246157E+02  0.7816164E-02  0.1226708E+00
        -11   -1    0    0    0    0  0.00000000000E+00  0.00000000000E+00  0.45593999997E+02  0.45594000000E+02  0.51100000000E-03 0.  1.
         11   -1    0    0    0    0 -0.00000000000E+00 -0.00000000000E+00 -0.45593999997E+02  0.45594000000E+02  0.51100000000E-03 0. -1.
    9900012    2    1    2    0    0  0.64136749527E+00  0.82294488745E+01  0.16809043760E+02  0.72461571265E+02  0.70000001264E+02 0.  0.
         12    1    1    2    0    0 -0.64136749527E+00 -0.82294488745E+01 -0.16809043760E+02  0.18726428735E+02  0.00000000000E+00 0. -1.
         11    1    3    3    0    0 -0.85275070337E+01 -0.25808909125E+01 -0.18794876919E+02  0.20799682035E+02  0.51100000000E-03 0. -1.
        -11    1    3    3    0    0  0.20269861993E+02  0.12293398312E+02  0.14552608014E+02  0.27816781761E+02  0.51100000000E-03 0.  1.
        -12    1    3    3    0    0 -0.11100987464E+02 -0.14830585254E+01  0.21051312665E+02  0.23845107469E+02  0.00000000000E+00 0.  1.
</event>
<event>
 7    1  0.1339094E-013  0.7246154E+02  0.7816164E-02  0.1226708E+00
        -11   -1    0    0    0    0  0.00000000000E+00  0.00000000000E+00  0.45593999997E+02  0.45594000000E+02  0.51100000000E-03 0.  1.
         11   -1    0    0    0    0 -0.00000000000E+00 -0.00000000000E+00 -0.45593999997E+02  0.45594000000E+02  0.51100000000E-03 0. -1.
    9900012    2    1    2    0    0  0.52857331557E+01 -0.15455419700E+02  0.91581211714E+01  0.72461543942E+02  0.69999965671E+02 0.  0.
         12    1    1    2    0    0 -0.52857331557E+01  0.15455419700E+02 -0.91581211714E+01  0.18726456058E+02  0.00000000000E+00 0. -1.
         11    1    3    3    0    0 -0.12400054331E+02 -0.10712045323E+02 -0.16625970085E+02  0.23343781698E+02  0.51100000000E-03 0. -1.
        -11    1    3    3    0    0  0.15490744362E+02 -0.25351215399E+01  0.35553383911E+02  0.38864290935E+02  0.51100000000E-03 0.  1.
        -12    1    3    3    0    0  0.21950431245E+01 -0.22082528374E+01 -0.97692926546E+01  0.10253471309E+02  0.00000000000E+00 0.  1.
</event>
<event>
 7    1  0.1339094E-013  0.7246155E+02  0.7816164E-02  0.1226708E+00
        -11   -1    0    0    0    0  0.00000000000E+00  0.00000000000E+00  0.45593999997E+02  0.45594000000E+02  0.51100000000E-03 0.  1.
         11   -1    0    0    0    0 -0.00000000000E+00 -0.00000000000E+00 -0.45593999997E+02  0.45594000000E+02  0.51100000000E-03 0. -1.
    9900012    2    1    2    0    0 -0.93785892996E+00  0.82692214567E+01  0.16775583763E+02  0.72461553101E+02  0.69999977603E+02 0.  0.
         12    1    1    2    0    0  0.93785892996E+00 -0.82692214567E+01 -0.16775583763E+02  0.18726446899E+02  0.00000000000E+00 0. -1.
         11    1    3    3    0    0 -0.27246191062E+02  0.10790256640E+02  0.14169600982E+02  0.32550916393E+02  0.51100000000E-03 0. -1.
        -11    1    3    3    0    0  0.15678634499E+02 -0.26696136960E+01  0.16167576565E+02  0.22678997978E+02  0.51100000000E-03 0.  1.
         12    1    3    3    0    0  0.10629697634E+02  0.14857851240E+00 -0.13561593785E+02  0.17231638730E+02  0.00000000000E+00 0. -1.
</event>
<event>
 7    1  0.1339094E-013  0.7246141E+02  0.7816164E-02  0.1226708E+00
        -11   -1    0    0    0    0  0.00000000000E+00  0.00000000000E+00  0.45593999997E+02  0.45594000000E+02  0.51100000000E-03 0. -1.
         11   -1    0    0    0    0 -0.00000000000E+00 -0.00000000000E+00 -0.45593999997E+02  0.45594000000E+02  0.51100000000E-03 0.  1.
    9900012    2    1    2    0    0 -0.33517111187E+01 -0.17862530095E+02  0.45145480875E+01  0.72461412130E+02  0.69999793962E+02 0.  0.
         12    1    1    2    0    0  0.33517111187E+01  0.17862530095E+02 -0.45145480875E+01  0.18726587870E+02  0.00000000000E+00 0. -1.
         11    1    3    3    0    0 -0.98189972693E-01  0.86915246347E+01  0.13282406234E+02  0.15873706478E+02  0.51100000000E-03 0. -1.
        -11    1    3    3    0    0 -0.73942521055E+01 -0.34480478634E+02 -0.21295537689E+02  0.41195610163E+02  0.51100000000E-03 0.  1.
        -12    1    3    3    0    0  0.41407309595E+01  0.79264239043E+01  0.12527679543E+02  0.15392095488E+02  0.00000000000E+00 0.  1.
</event>
<event>
 7    1  0.1339094E-013  0.7246157E+02  0.7816164E-02  0.1226708E+00
        -11   -1    0    0    0    0  0.00000000000E+00  0.00000000000E+00  0.45593999997E+02  0.45594000000E+02  0.51100000000E-03 0.  1.
         11   -1    0    0    0    0 -0.00000000000E+00 -0.00000000000E+00 -0.45593999997E+02  0.45594000000E+02  0.51100000000E-03 0. -1.
    9900012    2    1    2    0    0 -0.30557511776E+01  0.10850670954E+02  0.14953409207E+02  0.72461571554E+02  0.70000001642E+02 0.  0.
         12    1    1    2    0    0  0.30557511776E+01 -0.10850670954E+02 -0.14953409207E+02  0.18726428446E+02  0.00000000000E+00 0. -1.
         11    1    3    3    0    0 -0.10468572807E+02  0.47787280805E+01 -0.10104319182E+02  0.15314193582E+02  0.51100000000E-03 0. -1.
        -11    1    3    3    0    0  0.54994431644E+00  0.21801233283E+02  0.31925349070E+02  0.38662955460E+02  0.51100000000E-03 0.  1.
        -12    1    3    3    0    0  0.68628773127E+01 -0.15729290409E+02 -0.68676206814E+01  0.18484422512E+02  0.00000000000E+00 0.  1.
</event>
<event>
 7    1  0.1339094E-013  0.7246141E+02  0.7816164E-02  0.1226708E+00
        -11   -1    0    0    0    0  0.00000000000E+00  0.00000000000E+00  0.45593999997E+02  0.45594000000E+02  0.51100000000E-03 0.  1.
         11   -1    0    0    0    0 -0.00000000000E+00 -0.00000000000E+00 -0.45593999997E+02  0.45594000000E+02  0.51100000000E-03 0. -1.
    9900012    2    1    2    0    0 -0.26132348799E+01 -0.46156608658E+01  0.17959732168E+02  0.72461406575E+02  0.69999786725E+02 0.  0.
         12    1    1    2    0    0  0.26132348799E+01  0.46156608658E+01 -0.17959732168E+02  0.18726593425E+02  0.00000000000E+00 0. -1.
         11    1    3    3    0    0 -0.27840649413E+02 -0.53686231494E+00 -0.43297426741E+01  0.28180430315E+02  0.51100000000E-03 0. -1.
        -11    1    3    3    0    0  0.13912345656E+02 -0.16226218169E+02  0.15211177798E+02  0.26234013189E+02  0.51100000000E-03 0.  1.
         12    1    3    3    0    0  0.11315068877E+02  0.12147419618E+02  0.70782970436E+01  0.18046963071E+02  0.00000000000E+00 0. -1.
</event>
<event>
 7    1  0.1339094E-013  0.7246154E+02  0.7816164E-02  0.1226708E+00
        -11   -1    0    0    0    0  0.00000000000E+00  0.00000000000E+00  0.45593999997E+02  0.45594000000E+02  0.51100000000E-03 0.  1.
         11   -1    0    0    0    0 -0.00000000000E+00 -0.00000000000E+00 -0.45593999997E+02  0.45594000000E+02  0.51100000000E-03 0. -1.
    9900012    2    1    2    0    0  0.78459290699E+01  0.56968960234E+01  0.16020831934E+02  0.72461540561E+02  0.69999961266E+02 0.  0.
         12    1    1    2    0    0 -0.78459290699E+01 -0.56968960234E+01 -0.16020831934E+02  0.18726459439E+02  0.00000000000E+00 0. -1.
         11    1    3    3    0    0  0.16340623590E+02 -0.20968633978E+02  0.20175441104E+01  0.26660271467E+02  0.51100000000E-03 0.  1.
        -11    1    3    3    0    0  0.12280234742E+01  0.27515135236E+02 -0.13868279360E+01  0.27577418311E+02  0.51100000000E-03 0. -1.
        -12    1    3    3    0    0 -0.97227179941E+01 -0.84960523544E+00  0.15390115760E+02  0.18223850783E+02  0.00000000000E+00 0.  1.
</event>
<event>
 7    1  0.1339094E-013  0.7246157E+02  0.7816164E-02  0.1226708E+00
        -11   -1    0    0    0    0  0.00000000000E+00  0.00000000000E+00  0.45593999997E+02  0.45594000000E+02  0.51100000000E-03 0.  1.
         11   -1    0    0    0    0 -0.00000000000E+00 -0.00000000000E+00 -0.45593999997E+02  0.45594000000E+02  0.51100000000E-03 0. -1.
    9900012    2    1    2    0    0  0.19115855015E+01 -0.13653227362E+02  0.12673376505E+02  0.72461568184E+02  0.69999997251E+02 0.  0.
         12    1    1    2    0    0 -0.19115855015E+01  0.13653227362E+02 -0.12673376505E+02  0.18726431816E+02  0.00000000000E+00 0. -1.
         11    1    3    3    0    0  0.12608751268E+02 -0.13649038321E+02  0.51794546504E+01  0.19289987205E+02  0.51100000000E-03 0. -1.
        -11    1    3    3    0    0 -0.20423972459E+02  0.70975773440E+01 -0.15913984902E+02  0.26847144557E+02  0.51100000000E-03 0.  1.
        -12    1    3    3    0    0  0.97268066927E+01 -0.71017663854E+01  0.23407906756E+02  0.26324436422E+02  0.00000000000E+00 0.  1.
</event>
<event>
 7    1  0.1339094E-013  0.7246155E+02  0.7816164E-02  0.1226708E+00
        -11   -1    0    0    0    0  0.00000000000E+00  0.00000000000E+00  0.45593999997E+02  0.45594000000E+02  0.51100000000E-03 0.  1.
         11   -1    0    0    0    0 -0.00000000000E+00 -0.00000000000E+00 -0.45593999997E+02  0.45594000000E+02  0.51100000000E-03 0. -1.
    9900012    2    1    2    0    0 -0.13740262758E+01 -0.16956668057E+02  0.78270930842E+01  0.72461550098E+02  0.69999973690E+02 0.  0.
         12    1    1    2    0    0  0.13740262758E+01  0.16956668057E+02 -0.78270930842E+01  0.18726449902E+02  0.00000000000E+00 0. -1.
         11    1    3    3    0    0  0.28304289862E+02 -0.11993712435E+02 -0.29917268300E+01  0.30885795963E+02  0.51100000000E-03 0. -1.
        -11    1    3    3    0    0 -0.19112469723E+02 -0.14307686126E+02  0.12497657313E+00  0.23874924096E+02  0.51100000000E-03 0.  1.
        -12    1    3    3    0    0 -0.10565846415E+02  0.93447305045E+01  0.10693843341E+02  0.17700830039E+02  0.00000000000E+00 0.  1.
</event>
<event>
 7    1  0.1339094E-013  0.7246156E+02  0.7816164E-02  0.1226708E+00
        -11   -1    0    0    0    0  0.00000000000E+00  0.00000000000E+00  0.45593999997E+02  0.45594000000E+02  0.51100000000E-03 0.  1.
         11   -1    0    0    0    0 -0.00000000000E+00 -0.00000000000E+00 -0.45593999997E+02  0.45594000000E+02  0.51100000000E-03 0. -1.
    9900012    2    1    2    0    0 -0.16636126480E+02 -0.25225610995E+01  0.82192177880E+01  0.72461559873E+02  0.69999986425E+02 0.  0.
         12    1    1    2    0    0  0.16636126480E+02  0.25225610995E+01 -0.82192177880E+01  0.18726440127E+02  0.00000000000E+00 0. -1.
         11    1    3    3    0    0  0.10150963318E+02 -0.73326855662E+01  0.24522898659E+02  0.27535121079E+02  0.51100000000E-03 0.  1.
        -11    1    3    3    0    0 -0.21338634079E+02  0.40574460626E+00 -0.25571999110E+02  0.33308093187E+02  0.51100000000E-03 0. -1.
        -12    1    3    3    0    0 -0.54484557199E+01  0.44043798604E+01  0.92683182387E+01  0.11618345608E+02  0.00000000000E+00 0.  1.
</event>
<event>
 7    1  0.1339094E-013  0.7246147E+02  0.7816164E-02  0.1226708E+00
        -11   -1    0    0    0    0  0.00000000000E+00  0.00000000000E+00  0.45593999997E+02  0.45594000000E+02  0.51100000000E-03 0.  1.
         11   -1    0    0    0    0 -0.00000000000E+00 -0.00000000000E+00 -0.45593999997E+02  0.45594000000E+02  0.51100000000E-03 0. -1.
    9900012    2    1    2    0    0  0.24311072738E+01 -0.10517443464E+02  0.15302160198E+02  0.72461467852E+02  0.69999866549E+02 0.  0.
         12    1    1    2    0    0 -0.24311072738E+01  0.10517443464E+02 -0.15302160198E+02  0.18726532148E+02  0.00000000000E+00 0. -1.
         11    1    3    3    0    0 -0.21345917464E+02 -0.13588452162E+02  0.94936891613E+01  0.27026364142E+02  0.51100000000E-03 0. -1.
        -11    1    3    3    0    0  0.18082248762E+02 -0.75784989150E+01 -0.12682007548E+02  0.23350260851E+02  0.51100000000E-03 0.  1.
        -12    1    3    3    0    0  0.56947759764E+01  0.10649507614E+02  0.18490478585E+02  0.22084842859E+02  0.00000000000E+00 0.  1.
</event>
<event>
 7    1  0.1339094E-013  0.7246159E+02  0.7816164E-02  0.1226708E+00
        -11   -1    0    0    0    0  0.00000000000E+00  0.00000000000E+00  0.45593999997E+02  0.45594000000E+02  0.51100000000E-03 0.  1.
         11   -1    0    0    0    0 -0.00000000000E+00 -0.00000000000E+00 -0.45593999997E+02  0.45594000000E+02  0.51100000000E-03 0. -1.
    9900012    2    1    2    0    0  0.13023686890E+01 -0.59182966829E+01  0.17718806494E+02  0.72461588080E+02  0.70000023169E+02 0.  0.
         12    1    1    2    0    0 -0.13023686890E+01  0.59182966829E+01 -0.17718806494E+02  0.18726411920E+02  0.00000000000E+00 0. -1.
         11    1    3    3    0    0 -0.35167727105E+01  0.22911000156E+02 -0.11768610663E+02  0.25995803809E+02  0.51100000000E-03 0. -1.
        -11    1    3    3    0    0  0.12002960800E+02 -0.12327145942E+02  0.19010876121E+02  0.25640651438E+02  0.51100000000E-03 0.  1.
         12    1    3    3    0    0 -0.71838194008E+01 -0.16502150898E+02  0.10476541036E+02  0.20825132833E+02  0.00000000000E+00 0. -1.
</event>
<event>
 7    1  0.1339094E-013  0.7246157E+02  0.7816164E-02  0.1226708E+00
        -11   -1    0    0    0    0  0.00000000000E+00  0.00000000000E+00  0.45593999997E+02  0.45594000000E+02  0.51100000000E-03 0. -1.
         11   -1    0    0    0    0 -0.00000000000E+00 -0.00000000000E+00 -0.45593999997E+02  0.45594000000E+02  0.51100000000E-03 0.  1.
    9900012    2    1    2    0    0  0.52304021116E+00 -0.18564392598E+02  0.24018956747E+01  0.72461565570E+02  0.69999993846E+02 0.  0.
         12    1    1    2    0    0 -0.52304021116E+00  0.18564392598E+02 -0.24018956747E+01  0.18726434430E+02  0.00000000000E+00 0. -1.
         11    1    3    3    0    0  0.15157456815E+02  0.78175302022E+01 -0.14062043558E+02  0.22104373885E+02  0.51100000000E-03 0. -1.
        -11    1    3    3    0    0  0.95112435108E+01 -0.18214967003E+02  0.13747685746E+02  0.24723422896E+02  0.51100000000E-03 0.  1.
         12    1    3    3    0    0 -0.24145660115E+02 -0.81669557978E+01  0.27162534868E+01  0.25633768790E+02  0.00000000000E+00 0. -1.
</event>
<event>
 7    1  0.1339094E-013  0.7246158E+02  0.7816164E-02  0.1226708E+00
        -11   -1    0    0    0    0  0.00000000000E+00  0.00000000000E+00  0.45593999997E+02  0.45594000000E+02  0.51100000000E-03 0.  1.
         11   -1    0    0    0    0 -0.00000000000E+00 -0.00000000000E+00 -0.45593999997E+02  0.45594000000E+02  0.51100000000E-03 0. -1.
    9900012    2    1    2    0    0  0.86773535879E+01 -0.12192905054E+02 -0.11256788301E+02  0.72461583317E+02  0.70000016964E+02 0.  0.
         12    1    1    2    0    0 -0.86773535879E+01  0.12192905054E+02  0.11256788301E+02  0.18726416683E+02  0.00000000000E+00 0. -1.
         11    1    3    3    0    0 -0.12698686487E+02 -0.13210584495E+02  0.35532983563E+01  0.18665532692E+02  0.51100000000E-03 0. -1.
        -11    1    3    3    0    0  0.32139460408E+02  0.11279978472E+02 -0.19198875421E+01  0.34115521366E+02  0.51100000000E-03 0.  1.
        -12    1    3    3    0    0 -0.10763420333E+02 -0.10262299031E+02 -0.12890199115E+02  0.19680529258E+02  0.00000000000E+00 0.  1.
</event>
<event>
 7    1  0.1339094E-013  0.7246156E+02  0.7816164E-02  0.1226708E+00
        -11   -1    0    0    0    0  0.00000000000E+00  0.00000000000E+00  0.45593999997E+02  0.45594000000E+02  0.51100000000E-03 0. -1.
         11   -1    0    0    0    0 -0.00000000000E+00 -0.00000000000E+00 -0.45593999997E+02  0.45594000000E+02  0.51100000000E-03 0.  1.
    9900012    2    1    2    0    0  0.11598040063E+02  0.12205090008E+02 -0.81975991599E+01  0.72461564478E+02  0.69999992423E+02 0.  0.
         12    1    1    2    0    0 -0.11598040063E+02 -0.12205090008E+02  0.81975991599E+01  0.18726435522E+02  0.00000000000E+00 0. -1.
         11    1    3    3    0    0 -0.50322440792E+01  0.20507292783E+01  0.34082034481E+01  0.64144229709E+01  0.51100000000E-03 0. -1.
        -11    1    3    3    0    0  0.36495748347E+02  0.20402094689E+02 -0.24227461061E+01  0.41881437583E+02  0.51100000000E-03 0.  1.
        -12    1    3    3    0    0 -0.19865464205E+02 -0.10247733959E+02 -0.91830565019E+01  0.24165703923E+02  0.00000000000E+00 0.  1.
</event>
<event>
 7    1  0.1339094E-013  0.7246160E+02  0.7816164E-02  0.1226708E+00
        -11   -1    0    0    0    0  0.00000000000E+00  0.00000000000E+00  0.45593999997E+02  0.45594000000E+02  0.51100000000E-03 0. -1.
         11   -1    0    0    0    0 -0.00000000000E+00 -0.00000000000E+00 -0.45593999997E+02  0.45594000000E+02  0.51100000000E-03 0.  1.
    9900012    2    1    2    0    0  0.18079687869E+02  0.48330806266E+01  0.66656165680E+00  0.72461599219E+02  0.70000037680E+02 0.  0.
         12    1    1    2    0    0 -0.18079687869E+02 -0.48330806266E+01 -0.66656165680E+00  0.18726400781E+02  0.00000000000E+00 0. -1.
         11    1    3    3    0    0  0.17226476392E+02  0.17396660394E+02  0.19720778406E+02  0.31437308774E+02  0.51100000000E-03 0. -1.
        -11    1    3    3    0    0  0.96967809015E+01 -0.18958198612E+02 -0.21036032237E+02  0.29932515882E+02  0.51100000000E-03 0.  1.
        -12    1    3    3    0    0 -0.88435694246E+01  0.63946188448E+01  0.19818154875E+01  0.11091774563E+02  0.00000000000E+00 0.  1.
</event>
<event>
 7    1  0.1339094E-013  0.7246164E+02  0.7816164E-02  0.1226708E+00
        -11   -1    0    0    0    0  0.00000000000E+00  0.00000000000E+00  0.45593999997E+02  0.45594000000E+02  0.51100000000E-03 0.  1.
         11   -1    0    0    0    0 -0.00000000000E+00 -0.00000000000E+00 -0.45593999997E+02  0.45594000000E+02  0.51100000000E-03 0. -1.
    9900012    2    1    2    0    0 -0.13233321756E+02 -0.57310175795E+00  0.13237342208E+02  0.72461642131E+02  0.70000093580E+02 0.  0.
         12    1    1    2    0    0  0.13233321756E+02  0.57310175795E+00 -0.13237342208E+02  0.18726357869E+02  0.00000000000E+00 0. -1.
         11    1    3    3    0    0  0.20977207896E+02  0.17373713559E+01 -0.10116540151E+02  0.23353931045E+02  0.51100000000E-03 0. -1.
        -11    1    3    3    0    0 -0.35399323742E+02  0.30914351973E+01  0.13902691330E+02  0.38156964233E+02  0.51100000000E-03 0.  1.
        -12    1    3    3    0    0  0.11887940901E+01 -0.54019083111E+01  0.94511910284E+01  0.10950746853E+02  0.00000000000E+00 0.  1.
</event>
<event>
 7    1  0.1339094E-013  0.7246143E+02  0.7816164E-02  0.1226708E+00
        -11   -1    0    0    0    0  0.00000000000E+00  0.00000000000E+00  0.45593999997E+02  0.45594000000E+02  0.51100000000E-03 0.  1.
         11   -1    0    0    0    0 -0.00000000000E+00 -0.00000000000E+00 -0.45593999997E+02  0.45594000000E+02  0.51100000000E-03 0. -1.
    9900012    2    1    2    0    0 -0.17498122154E+01 -0.18590556551E+02  0.14190261735E+01  0.72461434086E+02  0.69999822563E+02 0.  0.
         12    1    1    2    0    0  0.17498122154E+01  0.18590556551E+02 -0.14190261735E+01  0.18726565914E+02  0.00000000000E+00 0. -1.
         11    1    3    3    0    0  0.86788676314E+01  0.11212880945E+02  0.18954371234E+02  0.23671071619E+02  0.51100000000E-03 0. -1.
        -11    1    3    3    0    0 -0.12250710768E+02 -0.36110314206E+02 -0.11386279902E+02  0.39795503222E+02  0.51100000000E-03 0.  1.
         12    1    3    3    0    0  0.18220309216E+01  0.63068767108E+01 -0.61490651582E+01  0.89948592454E+01  0.00000000000E+00 0. -1.
</event>
<event>
 7    1  0.1339094E-013  0.7246158E+02  0.7816164E-02  0.1226708E+00
        -11   -1    0    0    0    0  0.00000000000E+00  0.00000000000E+00  0.45593999997E+02  0.45594000000E+02  0.51100000000E-03 0.  1.
         11   -1    0    0    0    0 -0.00000000000E+00 -0.00000000000E+00 -0.45593999997E+02  0.45594000000E+02  0.51100000000E-03 0. -1.
    9900012    2    1    2    0    0  0.11797768446E+02  0.84758576415E+01  0.11817415315E+02  0.72461579953E+02  0.70000012582E+02 0.  0.
         12    1    1    2    0    0 -0.11797768446E+02 -0.84758576415E+01 -0.11817415315E+02  0.18726420047E+02  0.00000000000E+00 0. -1.
         11    1    3    3    0    0  0.38140483898E+01 -0.20119635179E+01 -0.14155379575E+02  0.14797625941E+02  0.51100000000E-03 0. -1.
        -11    1    3    3    0    0  0.69289640756E+01  0.19150571201E+02  0.37816970891E+02  0.42952045447E+02  0.51100000000E-03 0.  1.
        -12    1    3    3    0    0  0.10547559803E+01 -0.86627500416E+01 -0.11844176001E+02  0.14711908564E+02  0.00000000000E+00 0.  1.
</event>
<event>
 7    1  0.1339094E-013  0.7246163E+02  0.7816164E-02  0.1226708E+00
        -11   -1    0    0    0    0  0.00000000000E+00  0.00000000000E+00  0.45593999997E+02  0.45594000000E+02  0.51100000000E-03 0.  1.
         11   -1    0    0    0    0 -0.00000000000E+00 -0.00000000000E+00 -0.45593999997E+02  0.45594000000E+02  0.51100000000E-03 0. -1.
    9900012    2    1    2    0    0  0.43936105539E+00 -0.91351659963E+01  0.16341127904E+02  0.72461634707E+02  0.70000083909E+02 0.  0.
         12    1    1    2    0    0 -0.43936105539E+00  0.91351659963E+01 -0.16341127904E+02  0.18726365293E+02  0.00000000000E+00 0. -1.
         11    1    3    3    0    0  0.14256212829E+02  0.20280915156E+02 -0.44026843143E+01  0.25178140384E+02  0.51100000000E-03 0. -1.
        -11    1    3    3    0    0  0.14446267972E+01 -0.15093011942E+02  0.21536756195E+02  0.26338523568E+02  0.51100000000E-03 0.  1.
         12    1    3    3    0    0 -0.15261478571E+02 -0.14323069209E+02 -0.79294397707E+00  0.20944970754E+02  0.00000000000E+00 0. -1.
</event>
<event>
 7    1  0.1339094E-013  0.7246157E+02  0.7816164E-02  0.1226708E+00
        -11   -1    0    0    0    0  0.00000000000E+00  0.00000000000E+00  0.45593999997E+02  0.45594000000E+02  0.51100000000E-03 0.  1.
         11   -1    0    0    0    0 -0.00000000000E+00 -0.00000000000E+00 -0.45593999997E+02  0.45594000000E+02  0.51100000000E-03 0. -1.
    9900012    2    1    2    0    0 -0.10773325461E+02  0.69383707912E+01  0.13655534376E+02  0.72461570820E+02  0.70000000685E+02 0.  0.
         12    1    1    2    0    0  0.10773325461E+02 -0.69383707912E+01 -0.13655534376E+02  0.18726429180E+02  0.00000000000E+00 0. -1.
         11    1    3    3    0    0 -0.23728293191E+02 -0.18275105092E+02  0.13940037992E+02  0.33035375333E+02  0.51100000000E-03 0. -1.
        -11    1    3    3    0    0  0.13290269427E+02  0.16177581386E+00 -0.44746822308E+01  0.14024272323E+02  0.51100000000E-03 0.  1.
         12    1    3    3    0    0 -0.33530169766E+00  0.25051700070E+02  0.41901786155E+01  0.25401923164E+02  0.00000000000E+00 0. -1.
</event>
<event>
 7    1  0.1339094E-013  0.7246146E+02  0.7816164E-02  0.1226708E+00
        -11   -1    0    0    0    0  0.00000000000E+00  0.00000000000E+00  0.45593999997E+02  0.45594000000E+02  0.51100000000E-03 0.  1.
         11   -1    0    0    0    0 -0.00000000000E+00 -0.00000000000E+00 -0.45593999997E+02  0.45594000000E+02  0.51100000000E-03 0. -1.
    9900012    2    1    2    0    0  0.16898781679E+02  0.39787215256E+01  0.70202761227E+01  0.72461459368E+02  0.69999855498E+02 0.  0.
         12    1    1    2    0    0 -0.16898781679E+02 -0.39787215256E+01 -0.70202761227E+01  0.18726540632E+02  0.00000000000E+00 0. -1.
         11    1    3    3    0    0 -0.40430465958E+01 -0.10348481400E+01 -0.61107155959E+01  0.73998636341E+01  0.51100000000E-03 0. -1.
        -11    1    3    3    0    0  0.93770797102E+01  0.27231536931E+02  0.24256301163E+02  0.37654407097E+02  0.51100000000E-03 0.  1.
        -12    1    3    3    0    0  0.11564748564E+02 -0.22217967265E+02 -0.11125309444E+02  0.27407188637E+02  0.00000000000E+00 0.  1.
</event>
<event>
 7    1  0.1339094E-013  0.7246145E+02  0.7816164E-02  0.1226708E+00
        -11   -1    0    0    0    0  0.00000000000E+00  0.00000000000E+00  0.45593999997E+02  0.45594000000E+02  0.51100000000E-03 0.  1.
         11   -1    0    0    0    0 -0.00000000000E+00 -0.00000000000E+00 -0.45593999997E+02  0.45594000000E+02  0.51100000000E-03 0. -1.
    9900012    2    1    2    0    0  0.12615028262E+02 -0.33932027037E+01  0.13417562857E+02  0.72461447844E+02  0.69999840485E+02 0.  0.
         12    1    1    2    0    0 -0.12615028262E+02  0.33932027037E+01 -0.13417562857E+02  0.18726552156E+02  0.00000000000E+00 0. -1.
         11    1    3    3    0    0  0.12831764892E+02  0.11793270477E+02 -0.13989279318E+02  0.22348050360E+02  0.51100000000E-03 0. -1.
        -11    1    3    3    0    0 -0.20362831036E+01 -0.25125823262E+02  0.52327929389E+01  0.25745593132E+02  0.51100000000E-03 0.  1.
         12    1    3    3    0    0  0.18195464734E+01  0.99393500819E+01  0.22174049236E+02  0.24367804352E+02  0.00000000000E+00 0. -1.
</event>
<event>
 7    1  0.1339094E-013  0.7246153E+02  0.7816164E-02  0.1226708E+00
        -11   -1    0    0    0    0  0.00000000000E+00  0.00000000000E+00  0.45593999997E+02  0.45594000000E+02  0.51100000000E-03 0.  1.
         11   -1    0    0    0    0 -0.00000000000E+00 -0.00000000000E+00 -0.45593999997E+02  0.45594000000E+02  0.51100000000E-03 0. -1.
    9900012    2    1    2    0    0  0.14220693957E+02  0.10965234500E+02  0.53119010206E+01  0.72461526848E+02  0.69999943403E+02 0.  0.
         12    1    1    2    0    0 -0.14220693957E+02 -0.10965234500E+02 -0.53119010206E+01  0.18726473152E+02  0.00000000000E+00 0. -1.
         11    1    3    3    0    0  0.28056293549E+02  0.87240218409E+01  0.10709403721E+02  0.31272279948E+02  0.51100000000E-03 0.  1.
        -11    1    3    3    0    0 -0.22752605979E+02  0.53063449490E+01 -0.14973931301E+02  0.27749900800E+02  0.51100000000E-03 0. -1.
         12    1    3    3    0    0  0.89170063868E+01 -0.30651322899E+01  0.95764286006E+01  0.13439346100E+02  0.00000000000E+00 0. -1.
</event>
<event>
 7    1  0.1339094E-013  0.7246154E+02  0.7816164E-02  0.1226708E+00
        -11   -1    0    0    0    0  0.00000000000E+00  0.00000000000E+00  0.45593999997E+02  0.45594000000E+02  0.51100000000E-03 0.  1.
         11   -1    0    0    0    0 -0.00000000000E+00 -0.00000000000E+00 -0.45593999997E+02  0.45594000000E+02  0.51100000000E-03 0. -1.
    9900012    2    1    2    0    0 -0.65185597069E+01 -0.17167488096E+02  0.36696331080E+01  0.72461535429E+02  0.69999954582E+02 0.  0.
         12    1    1    2    0    0  0.65185597069E+01  0.17167488096E+02 -0.36696331080E+01  0.18726464571E+02  0.00000000000E+00 0. -1.
         11    1    3    3    0    0 -0.92038339244E+01 -0.15350755410E+02  0.27577713588E+02  0.32876838923E+02  0.51100000000E-03 0. -1.
        -11    1    3    3    0    0  0.49930146958E+01  0.13218163480E+02 -0.43024160252E+01  0.14770268293E+02  0.51100000000E-03 0.  1.
         12    1    3    3    0    0 -0.23077404782E+01 -0.15034896165E+02 -0.19605664455E+02  0.24814428213E+02  0.00000000000E+00 0. -1.
</event>
<event>
 7    1  0.1339094E-013  0.7246156E+02  0.7816164E-02  0.1226708E+00
        -11   -1    0    0    0    0  0.00000000000E+00  0.00000000000E+00  0.45593999997E+02  0.45594000000E+02  0.51100000000E-03 0.  1.
         11   -1    0    0    0    0 -0.00000000000E+00 -0.00000000000E+00 -0.45593999997E+02  0.45594000000E+02  0.51100000000E-03 0. -1.
    9900012    2    1    2    0    0  0.17005979578E+02 -0.77044570790E+01  0.14552256257E+01  0.72461556614E+02  0.69999982179E+02 0.  0.
         12    1    1    2    0    0 -0.17005979578E+02  0.77044570790E+01 -0.14552256257E+01  0.18726443386E+02  0.00000000000E+00 0. -1.
         11    1    3    3    0    0 -0.14197354624E+02  0.16188584960E+02 -0.46932311650E+00  0.21537303122E+02  0.51100000000E-03 0. -1.
        -11    1    3    3    0    0  0.14923991516E+02 -0.25781982994E+02 -0.91280507540E+01  0.31156981252E+02  0.51100000000E-03 0.  1.
        -12    1    3    3    0    0  0.16279342685E+02  0.18889409553E+01  0.11052599496E+02  0.19767272240E+02  0.00000000000E+00 0.  1.
</event>
<event>
 7    1  0.1339094E-013  0.7246156E+02  0.7816164E-02  0.1226708E+00
        -11   -1    0    0    0    0  0.00000000000E+00  0.00000000000E+00  0.45593999997E+02  0.45594000000E+02  0.51100000000E-03 0. -1.
         11   -1    0    0    0    0 -0.00000000000E+00 -0.00000000000E+00 -0.45593999997E+02  0.45594000000E+02  0.51100000000E-03 0.  1.
    9900012    2    1    2    0    0 -0.13758655158E+02 -0.84711124494E+01 -0.94667373493E+01  0.72461562701E+02  0.69999990108E+02 0.  0.
         12    1    1    2    0    0  0.13758655158E+02  0.84711124494E+01  0.94667373493E+01  0.18726437299E+02  0.00000000000E+00 0. -1.
         11    1    3    3    0    0 -0.29087780832E+01  0.43314010091E+00  0.37864366592E+01  0.47943407388E+01  0.51100000000E-03 0. -1.
        -11    1    3    3    0    0  0.15579750036E+02  0.10305949851E+02 -0.26490304963E+02  0.32414155408E+02  0.51100000000E-03 0.  1.
        -12    1    3    3    0    0 -0.26429627111E+02 -0.19210202401E+02  0.13237130955E+02  0.35253066554E+02  0.00000000000E+00 0.  1.
</event>
<event>
 7    1  0.1339094E-013  0.7246149E+02  0.7816164E-02  0.1226708E+00
        -11   -1    0    0    0    0  0.00000000000E+00  0.00000000000E+00  0.45593999997E+02  0.45594000000E+02  0.51100000000E-03 0. -1.
         11   -1    0    0    0    0 -0.00000000000E+00 -0.00000000000E+00 -0.45593999997E+02  0.45594000000E+02  0.51100000000E-03 0.  1.
    9900012    2    1    2    0    0  0.30602367633E+01 -0.17612439183E+02 -0.55784492203E+01  0.72461490482E+02  0.69999896029E+02 0.  0.
         12    1    1    2    0    0 -0.30602367633E+01  0.17612439183E+02  0.55784492203E+01  0.18726509518E+02  0.00000000000E+00 0. -1.
         11    1    3    3    0    0 -0.16260897286E+02  0.10582768257E+02  0.25771354446E+01  0.19571749842E+02  0.51100000000E-03 0. -1.
        -11    1    3    3    0    0  0.27010002702E+02 -0.93257569945E+01  0.44658668966E+01  0.28921513738E+02  0.51100000000E-03 0.  1.
         12    1    3    3    0    0 -0.76888686528E+01 -0.18869450446E+02 -0.12621451561E+02  0.23968226902E+02  0.00000000000E+00 0. -1.
</event>
<event>
 7    1  0.1339094E-013  0.7246152E+02  0.7816164E-02  0.1226708E+00
        -11   -1    0    0    0    0  0.00000000000E+00  0.00000000000E+00  0.45593999997E+02  0.45594000000E+02  0.51100000000E-03 0. -1.
         11   -1    0    0    0    0 -0.00000000000E+00 -0.00000000000E+00 -0.45593999997E+02  0.45594000000E+02  0.51100000000E-03 0.  1.
    9900012    2    1    2    0    0 -0.83454024656E+00 -0.18045171820E+02 -0.49352275708E+01  0.72461517292E+02  0.69999930955E+02 0.  0.
         12    1    1    2    0    0  0.83454024656E+00  0.18045171820E+02  0.49352275708E+01  0.18726482708E+02  0.00000000000E+00 0. -1.
         11    1    3    3    0    0  0.97823915950E+01  0.10256065018E+02 -0.81261509075E+01  0.16337575824E+02  0.51100000000E-03 0. -1.
        -11    1    3    3    0    0 -0.22379745975E+02 -0.31597170375E+02  0.12584848281E+02  0.40713788968E+02  0.51100000000E-03 0.  1.
        -12    1    3    3    0    0  0.11762814133E+02  0.32959335368E+01 -0.93939249445E+01  0.15410152500E+02  0.00000000000E+00 0.  1.
</event>
<event>
 7    1  0.1339094E-013  0.7246155E+02  0.7816164E-02  0.1226708E+00
        -11   -1    0    0    0    0  0.00000000000E+00  0.00000000000E+00  0.45593999997E+02  0.45594000000E+02  0.51100000000E-03 0.  1.
         11   -1    0    0    0    0 -0.00000000000E+00 -0.00000000000E+00 -0.45593999997E+02  0.45594000000E+02  0.51100000000E-03 0. -1.
    9900012    2    1    2    0    0  0.16802120669E+02  0.82217954648E+01  0.87784698530E+00  0.72461553595E+02  0.69999978246E+02 0.  0.
         12    1    1    2    0    0 -0.16802120669E+02 -0.82217954648E+01 -0.87784698530E+00  0.18726446405E+02  0.00000000000E+00 0. -1.
         11    1    3    3    0    0 -0.13058186810E+02 -0.72155584519E+01  0.19831317228E+02  0.24816560394E+02  0.51100000000E-03 0.  1.
        -11    1    3    3    0    0  0.88547965248E+01 -0.34806388602E+01 -0.16783989271E+02  0.19293122207E+02  0.51100000000E-03 0. -1.
        -12    1    3    3    0    0  0.21005510954E+02  0.18917992777E+02 -0.21694809715E+01  0.28351870994E+02  0.00000000000E+00 0.  1.
</event>
<event>
 7    1  0.1339094E-013  0.7246143E+02  0.7816164E-02  0.1226708E+00
        -11   -1    0    0    0    0  0.00000000000E+00  0.00000000000E+00  0.45593999997E+02  0.45594000000E+02  0.51100000000E-03 0.  1.
         11   -1    0    0    0    0 -0.00000000000E+00 -0.00000000000E+00 -0.45593999997E+02  0.45594000000E+02  0.51100000000E-03 0. -1.
    9900012    2    1    2    0    0  0.12336279785E+02  0.22876155242E+01 -0.13902068965E+02  0.72461427830E+02  0.69999814414E+02 0.  0.
         12    1    1    2    0    0 -0.12336279785E+02 -0.22876155242E+01  0.13902068965E+02  0.18726572170E+02  0.00000000000E+00 0. -1.
         11    1    3    3    0    0 -0.18203631500E+02  0.32971989238E+01 -0.65017209304E+01  0.19609081974E+02  0.51100000000E-03 0. -1.
        -11    1    3    3    0    0  0.15663847221E+02 -0.20444177434E+02  0.36254526382E+01  0.26008929386E+02  0.51100000000E-03 0.  1.
        -12    1    3    3    0    0  0.14876064064E+02  0.19434594034E+02 -0.11025800673E+02  0.26843416470E+02  0.00000000000E+00 0.  1.
</event>
<event>
 7    1  0.1339094E-013  0.7246159E+02  0.7816164E-02  0.1226708E+00
        -11   -1    0    0    0    0  0.00000000000E+00  0.00000000000E+00  0.45593999997E+02  0.45594000000E+02  0.51100000000E-03 0.  1.
         11   -1    0    0    0    0 -0.00000000000E+00 -0.00000000000E+00 -0.45593999997E+02  0.45594000000E+02  0.51100000000E-03 0. -1.
    9900012    2    1    2    0    0  0.26944682917E+01 -0.91296271467E+01  0.16126627902E+02  0.72461591409E+02  0.70000027506E+02 0.  0.
         12    1    1    2    0    0 -0.26944682917E+01  0.91296271467E+01 -0.16126627902E+02  0.18726408591E+02  0.00000000000E+00 0. -1.
         11    1    3    3    0    0 -0.16039040348E+02  0.98274522489E+01  0.87439945940E+01  0.20743362185E+02  0.51100000000E-03 0. -1.
        -11    1    3    3    0    0  0.19225199144E+02 -0.23554030824E+02  0.21254296368E+02  0.37096438704E+02  0.51100000000E-03 0.  1.
         12    1    3    3    0    0 -0.49169050428E+00  0.45969514282E+01 -0.13871663059E+02  0.14621790520E+02  0.00000000000E+00 0. -1.
</event>
<event>
 7    1  0.1339094E-013  0.7246158E+02  0.7816164E-02  0.1226708E+00
        -11   -1    0    0    0    0  0.00000000000E+00  0.00000000000E+00  0.45593999997E+02  0.45594000000E+02  0.51100000000E-03 0. -1.
         11   -1    0    0    0    0 -0.00000000000E+00 -0.00000000000E+00 -0.45593999997E+02  0.45594000000E+02  0.51100000000E-03 0.  1.
    9900012    2    1    2    0    0 -0.17318520531E+02 -0.59465292698E+00  0.70988631622E+01  0.72461584868E+02  0.70000018985E+02 0.  0.
         12    1    1    2    0    0  0.17318520531E+02  0.59465292698E+00 -0.70988631622E+01  0.18726415132E+02  0.00000000000E+00 0. -1.
         11    1    3    3    0    0  0.20149623118E+02  0.19691985095E+01  0.12854298763E+02  0.23981619035E+02  0.51100000000E-03 0. -1.
        -11    1    3    3    0    0 -0.16567465453E+02  0.60420477020E+00 -0.17657279540E+02  0.24220352928E+02  0.51100000000E-03 0.  1.
        -12    1    3    3    0    0 -0.20900678196E+02 -0.31680562067E+01  0.11901843939E+02  0.24259612906E+02  0.00000000000E+00 0.  1.
</event>
<event>
 7    1  0.1339094E-013  0.7246160E+02  0.7816164E-02  0.1226708E+00
        -11   -1    0    0    0    0  0.00000000000E+00  0.00000000000E+00  0.45593999997E+02  0.45594000000E+02  0.51100000000E-03 0. -1.
         11   -1    0    0    0    0 -0.00000000000E+00 -0.00000000000E+00 -0.45593999997E+02  0.45594000000E+02  0.51100000000E-03 0.  1.
    9900012    2    1    2    0    0  0.15092317166E+02  0.38716551418E+00 -0.11079262583E+02  0.72461601683E+02  0.70000040889E+02 0.  0.
         12    1    1    2    0    0 -0.15092317166E+02 -0.38716551418E+00  0.11079262583E+02  0.18726398317E+02  0.00000000000E+00 0. -1.
         11    1    3    3    0    0  0.34299466932E+02 -0.55677334607E+01  0.10567389975E+02  0.36319730435E+02  0.51100000000E-03 0. -1.
        -11    1    3    3    0    0 -0.85142058838E+01  0.12003812526E+02 -0.51895361719E+01  0.15604951231E+02  0.51100000000E-03 0.  1.
         12    1    3    3    0    0 -0.10692943882E+02 -0.60489135513E+01 -0.16457116386E+02  0.20536920016E+02  0.00000000000E+00 0. -1.
</event>
<event>
 7    1  0.1339094E-013  0.7246150E+02  0.7816164E-02  0.1226708E+00
        -11   -1    0    0    0    0  0.00000000000E+00  0.00000000000E+00  0.45593999997E+02  0.45594000000E+02  0.51100000000E-03 0.  1.
         11   -1    0    0    0    0 -0.00000000000E+00 -0.00000000000E+00 -0.45593999997E+02  0.45594000000E+02  0.51100000000E-03 0. -1.
    9900012    2    1    2    0    0  0.52923500984E+01  0.20435584427E+01  0.17846474584E+02  0.72461501241E+02  0.69999910046E+02 0.  0.
         12    1    1    2    0    0 -0.52923500984E+01 -0.20435584427E+01 -0.17846474584E+02  0.18726498759E+02  0.00000000000E+00 0. -1.
         11    1    3    3    0    0  0.21007096838E+02 -0.17910780496E+02  0.32020989524E+02  0.42278102440E+02  0.51100000000E-03 0. -1.
        -11    1    3    3    0    0 -0.10018460316E+02  0.16758563267E+02 -0.13227494485E+02  0.23583587524E+02  0.51100000000E-03 0.  1.
         12    1    3    3    0    0 -0.56962864231E+01  0.31957756712E+01 -0.94702045477E+00  0.65998112774E+01  0.00000000000E+00 0. -1.
</event>
<event>
 7    1  0.1339094E-013  0.7246157E+02  0.7816164E-02  0.1226708E+00
        -11   -1    0    0    0    0  0.00000000000E+00  0.00000000000E+00  0.45593999997E+02  0.45594000000E+02  0.51100000000E-03 0.  1.
         11   -1    0    0    0    0 -0.00000000000E+00 -0.00000000000E+00 -0.45593999997E+02  0.45594000000E+02  0.51100000000E-03 0. -1.
    9900012    2    1    2    0    0  0.72081778974E+01 -0.13089222882E+02  0.11286881614E+02  0.72461567323E+02  0.69999996129E+02 0.  0.
         12    1    1    2    0    0 -0.72081778974E+01  0.13089222882E+02 -0.11286881614E+02  0.18726432677E+02  0.00000000000E+00 0. -1.
         11    1    3    3    0    0 -0.12851709278E+02 -0.12495825334E+02 -0.83564572980E+01  0.19777321886E+02  0.51100000000E-03 0. -1.
        -11    1    3    3    0    0  0.31749219353E+02 -0.99699302114E+01  0.17334965611E+02  0.37522173057E+02  0.51100000000E-03 0.  1.
        -12    1    3    3    0    0 -0.11689332178E+02  0.93765326634E+01  0.23083733007E+01  0.15162072380E+02  0.00000000000E+00 0.  1.
</event>
<event>
 7    1  0.1339094E-013  0.7246156E+02  0.7816164E-02  0.1226708E+00
        -11   -1    0    0    0    0  0.00000000000E+00  0.00000000000E+00  0.45593999997E+02  0.45594000000E+02  0.51100000000E-03 0.  1.
         11   -1    0    0    0    0 -0.00000000000E+00 -0.00000000000E+00 -0.45593999997E+02  0.45594000000E+02  0.51100000000E-03 0. -1.
    9900012    2    1    2    0    0 -0.16503939025E+02 -0.38898342851E+01  0.79478864447E+01  0.72461555782E+02  0.69999981095E+02 0.  0.
         12    1    1    2    0    0  0.16503939025E+02  0.38898342851E+01 -0.79478864447E+01  0.18726444218E+02  0.00000000000E+00 0. -1.
         11    1    3    3    0    0 -0.32434319414E+02 -0.31231918153E+01  0.17703899515E+02  0.37083250414E+02  0.51100000000E-03 0. -1.
        -11    1    3    3    0    0  0.13749921022E+02  0.45029565330E+01  0.81361817796E+01  0.16599228893E+02  0.51100000000E-03 0.  1.
         12    1    3    3    0    0  0.21804593678E+01 -0.52695990027E+01 -0.17892194850E+02  0.18779076475E+02  0.00000000000E+00 0. -1.
</event>
<event>
 7    1  0.1339094E-013  0.7246150E+02  0.7816164E-02  0.1226708E+00
        -11   -1    0    0    0    0  0.00000000000E+00  0.00000000000E+00  0.45593999997E+02  0.45594000000E+02  0.51100000000E-03 0. -1.
         11   -1    0    0    0    0 -0.00000000000E+00 -0.00000000000E+00 -0.45593999997E+02  0.45594000000E+02  0.51100000000E-03 0.  1.
    9900012    2    1    2    0    0 -0.14146379064E+02 -0.11031929202E+02  0.53719921413E+01  0.72461500003E+02  0.69999908433E+02 0.  0.
         12    1    1    2    0    0  0.14146379064E+02  0.11031929202E+02 -0.53719921413E+01  0.18726499997E+02  0.00000000000E+00 0. -1.
         11    1    3    3    0    0  0.20381790901E+02 -0.16931840306E+02  0.92041949772E+01  0.28050344417E+02  0.51100000000E-03 0. -1.
        -11    1    3    3    0    0 -0.88171019749E+01  0.14025110530E+02  0.23907708917E+01  0.16738004610E+02  0.51100000000E-03 0.  1.
         12    1    3    3    0    0 -0.25711067990E+02 -0.81251994261E+01 -0.62229737276E+01  0.27673150976E+02  0.00000000000E+00 0. -1.
</event>
<event>
 7    1  0.1339094E-013  0.7246157E+02  0.7816164E-02  0.1226708E+00
        -11   -1    0    0    0    0  0.00000000000E+00  0.00000000000E+00  0.45593999997E+02  0.45594000000E+02  0.51100000000E-03 0.  1.
         11   -1    0    0    0    0 -0.00000000000E+00 -0.00000000000E+00 -0.45593999997E+02  0.45594000000E+02  0.51100000000E-03 0. -1.
    9900012    2    1    2    0    0  0.77613457123E+01  0.89725531833E+01  0.14489098278E+02  0.72461570367E+02  0.70000000095E+02 0.  0.
         12    1    1    2    0    0 -0.77613457123E+01 -0.89725531833E+01 -0.14489098278E+02  0.18726429633E+02  0.00000000000E+00 0. -1.
         11    1    3    3    0    0  0.25647653777E+02  0.61483677326E+01 -0.22959091793E+01  0.26474058420E+02  0.51100000000E-03 0. -1.
        -11    1    3    3    0    0 -0.16117414806E+02  0.70380498514E+01  0.28456818149E+02  0.33452887845E+02  0.51100000000E-03 0.  1.
         12    1    3    3    0    0 -0.17688932586E+01 -0.42138644007E+01 -0.11671810692E+02  0.12534624102E+02  0.00000000000E+00 0. -1.
</event>
<event>
 7    1  0.1339094E-013  0.7246160E+02  0.7816164E-02  0.1226708E+00
        -11   -1    0    0    0    0  0.00000000000E+00  0.00000000000E+00  0.45593999997E+02  0.45594000000E+02  0.51100000000E-03 0.  1.
         11   -1    0    0    0    0 -0.00000000000E+00 -0.00000000000E+00 -0.45593999997E+02  0.45594000000E+02  0.51100000000E-03 0. -1.
    9900012    2    1    2    0    0 -0.16493965558E+01  0.18178606935E+02  0.41828183278E+01  0.72461595426E+02  0.70000032738E+02 0.  0.
         12    1    1    2    0    0  0.16493965558E+01 -0.18178606935E+02 -0.41828183278E+01  0.18726404574E+02  0.00000000000E+00 0. -1.
         11    1    3    3    0    0  0.79214683364E+01  0.43259885154E+02  0.27000515170E+01  0.44061974565E+02  0.51100000000E-03 0. -1.
        -11    1    3    3    0    0  0.60871962741E+00 -0.10013540627E+02  0.19018819258E+01  0.10210714499E+02  0.51100000000E-03 0.  1.
         12    1    3    3    0    0 -0.10179584520E+02 -0.15067737592E+02 -0.41911511506E+00  0.18188906361E+02  0.00000000000E+00 0. -1.
</event>
<event>
 7    1  0.1339094E-013  0.7246158E+02  0.7816164E-02  0.1226708E+00
        -11   -1    0    0    0    0  0.00000000000E+00  0.00000000000E+00  0.45593999997E+02  0.45594000000E+02  0.51100000000E-03 0.  1.
         11   -1    0    0    0    0 -0.00000000000E+00 -0.00000000000E+00 -0.45593999997E+02  0.45594000000E+02  0.51100000000E-03 0. -1.
    9900012    2    1    2    0    0  0.98130993192E+01  0.78493444230E+01  0.13884147341E+02  0.72461583538E+02  0.70000017252E+02 0.  0.
         12    1    1    2    0    0 -0.98130993192E+01 -0.78493444230E+01 -0.13884147341E+02  0.18726416462E+02  0.00000000000E+00 0. -1.
         11    1    3    3    0    0  0.29950142661E+02  0.23884747417E+02 -0.69541987578E+01  0.38933957995E+02  0.51100000000E-03 0. -1.
        -11    1    3    3    0    0 -0.44296744607E+01 -0.65279297836E+01  0.57368533905E+01  0.97543513456E+01  0.51100000000E-03 0.  1.
         12    1    3    3    0    0 -0.15707368881E+02 -0.95074732107E+01  0.15101492709E+02  0.23773274197E+02  0.00000000000E+00 0. -1.
</event>
<event>
 7    1  0.1339094E-013  0.7246159E+02  0.7816164E-02  0.1226708E+00
        -11   -1    0    0    0    0  0.00000000000E+00  0.00000000000E+00  0.45593999997E+02  0.45594000000E+02  0.51100000000E-03 0.  1.
         11   -1    0    0    0    0 -0.00000000000E+00 -0.00000000000E+00 -0.45593999997E+02  0.45594000000E+02  0.51100000000E-03 0. -1.
    9900012    2    1    2    0    0  0.15317223562E+02  0.87967885058E+01  0.62191429484E+01  0.72461586444E+02  0.70000021038E+02 0.  0.
         12    1    1    2    0    0 -0.15317223562E+02 -0.87967885058E+01 -0.62191429484E+01  0.18726413556E+02  0.00000000000E+00 0. -1.
         11    1    3    3    0    0  0.46621530474E+01  0.16384741632E+02  0.31643395307E+01  0.17326525166E+02  0.51100000000E-03 0. -1.
        -11    1    3    3    0    0  0.24719420317E+02 -0.23125668868E+02 -0.62816572518E+00  0.33856179552E+02  0.51100000000E-03 0.  1.
        -12    1    3    3    0    0 -0.14064349803E+02  0.15537715741E+02  0.36829691428E+01  0.21278881726E+02  0.00000000000E+00 0.  1.
</event>
<event>
 7    1  0.1339094E-013  0.7246157E+02  0.7816164E-02  0.1226708E+00
        -11   -1    0    0    0    0  0.00000000000E+00  0.00000000000E+00  0.45593999997E+02  0.45594000000E+02  0.51100000000E-03 0. -1.
         11   -1    0    0    0    0 -0.00000000000E+00 -0.00000000000E+00 -0.45593999997E+02  0.45594000000E+02  0.51100000000E-03 0.  1.
    9900012    2    1    2    0    0  0.16356527303E+02 -0.78197846246E+01 -0.46898014514E+01  0.72461568022E+02  0.69999997040E+02 0.  0.
         12    1    1    2    0    0 -0.16356527303E+02  0.78197846246E+01  0.46898014514E+01  0.18726431978E+02  0.00000000000E+00 0. -1.
         11    1    3    3    0    0  0.10812651164E+02 -0.13798397952E+02  0.14376739663E+02  0.22671564896E+02  0.51100000000E-03 0. -1.
        -11    1    3    3    0    0 -0.19226270580E+02  0.74004714654E+00 -0.14431229642E+02  0.24051144244E+02  0.51100000000E-03 0.  1.
        -12    1    3    3    0    0  0.24770146719E+02  0.52385661805E+01 -0.46353114724E+01  0.25738858882E+02  0.00000000000E+00 0.  1.
</event>
<event>
 7    1  0.1339094E-013  0.7246155E+02  0.7816164E-02  0.1226708E+00
        -11   -1    0    0    0    0  0.00000000000E+00  0.00000000000E+00  0.45593999997E+02  0.45594000000E+02  0.51100000000E-03 0.  1.
         11   -1    0    0    0    0 -0.00000000000E+00 -0.00000000000E+00 -0.45593999997E+02  0.45594000000E+02  0.51100000000E-03 0. -1.
    9900012    2    1    2    0    0  0.66523711923E+01 -0.10212621070E+02  0.14217183917E+02  0.72461548384E+02  0.69999971458E+02 0.  0.
         12    1    1    2    0    0 -0.66523711923E+01  0.10212621070E+02 -0.14217183917E+02  0.18726451616E+02  0.00000000000E+00 0. -1.
         11    1    3    3    0    0 -0.13993200129E+02 -0.31582458674E+01 -0.28061612615E+01  0.14617069066E+02  0.51100000000E-03 0. -1.
        -11    1    3    3    0    0  0.12305959035E+02  0.21476424759E+02  0.28567296030E+01  0.24916547764E+02  0.51100000000E-03 0.  1.
        -12    1    3    3    0    0  0.83396122862E+01 -0.28530799962E+02  0.14166615575E+02  0.32927931553E+02  0.00000000000E+00 0.  1.
</event>
<event>
 7    1  0.1339094E-013  0.7246170E+02  0.7816164E-02  0.1226708E+00
        -11   -1    0    0    0    0  0.00000000000E+00  0.00000000000E+00  0.45593999997E+02  0.45594000000E+02  0.51100000000E-03 0.  1.
         11   -1    0    0    0    0 -0.00000000000E+00 -0.00000000000E+00 -0.45593999997E+02  0.45594000000E+02  0.51100000000E-03 0. -1.
    9900012    2    1    2    0    0 -0.18509720613E+02  0.26809733740E+01 -0.93654467971E+00  0.72461695203E+02  0.70000162717E+02 0.  0.
         12    1    1    2    0    0  0.18509720613E+02 -0.26809733740E+01  0.93654467971E+00  0.18726304797E+02  0.00000000000E+00 0. -1.
         11    1    3    3    0    0 -0.15713864720E+02  0.32668084082E+01 -0.17057690141E+02  0.23421408472E+02  0.51100000000E-03 0. -1.
        -11    1    3    3    0    0  0.11413455939E+02  0.81876331025E+01  0.26061658368E+02  0.29605985027E+02  0.51100000000E-03 0.  1.
        -12    1    3    3    0    0 -0.14209311831E+02 -0.87734681367E+01 -0.99405129066E+01  0.19434301704E+02  0.00000000000E+00 0.  1.
</event>
<event>
 7    1  0.1339094E-013  0.7246154E+02  0.7816164E-02  0.1226708E+00
        -11   -1    0    0    0    0  0.00000000000E+00  0.00000000000E+00  0.45593999997E+02  0.45594000000E+02  0.51100000000E-03 0.  1.
         11   -1    0    0    0    0 -0.00000000000E+00 -0.00000000000E+00 -0.45593999997E+02  0.45594000000E+02  0.51100000000E-03 0. -1.
    9900012    2    1    2    0    0 -0.17194528441E+02  0.47492388866E+01  0.56985400280E+01  0.72461536459E+02  0.69999955923E+02 0.  0.
         12    1    1    2    0    0  0.17194528441E+02 -0.47492388866E+01 -0.56985400280E+01  0.18726463541E+02  0.00000000000E+00 0. -1.
         11    1    3    3    0    0 -0.98334934065E+01 -0.15620869894E+02 -0.16760086066E+02  0.24932100874E+02  0.51100000000E-03 0. -1.
        -11    1    3    3    0    0 -0.17211180207E+02  0.20511661851E+02  0.46486238649E+01  0.27176510080E+02  0.51100000000E-03 0.  1.
         12    1    3    3    0    0  0.98501451727E+01 -0.14155307052E+00  0.17810002229E+02  0.20352925504E+02  0.00000000000E+00 0. -1.
</event>
<event>
 7    1  0.1339094E-013  0.7246156E+02  0.7816164E-02  0.1226708E+00
        -11   -1    0    0    0    0  0.00000000000E+00  0.00000000000E+00  0.45593999997E+02  0.45594000000E+02  0.51100000000E-03 0. -1.
         11   -1    0    0    0    0 -0.00000000000E+00 -0.00000000000E+00 -0.45593999997E+02  0.45594000000E+02  0.51100000000E-03 0.  1.
    9900012    2    1    2    0    0 -0.14085509897E+02  0.44825936223E+01 -0.11497138321E+02  0.72461563494E+02  0.69999991142E+02 0.  0.
         12    1    1    2    0    0  0.14085509897E+02 -0.44825936223E+01  0.11497138321E+02  0.18726436506E+02  0.00000000000E+00 0. -1.
         11    1    3    3    0    0 -0.35945724272E+01 -0.11291982180E+02 -0.35980874794E+02  0.37882095556E+02  0.51100000000E-03 0.  1.
        -11    1    3    3    0    0 -0.10419255087E+02  0.18718543446E+02  0.22217173513E+02  0.30863368975E+02  0.51100000000E-03 0. -1.
         12    1    3    3    0    0 -0.71682382371E-01 -0.29439676441E+01  0.22665629597E+01  0.37160989631E+01  0.00000000000E+00 0. -1.
</event>
<event>
 7    1  0.1339094E-013  0.7246165E+02  0.7816164E-02  0.1226708E+00
        -11   -1    0    0    0    0  0.00000000000E+00  0.00000000000E+00  0.45593999997E+02  0.45594000000E+02  0.51100000000E-03 0.  1.
         11   -1    0    0    0    0 -0.00000000000E+00 -0.00000000000E+00 -0.45593999997E+02  0.45594000000E+02  0.51100000000E-03 0. -1.
    9900012    2    1    2    0    0  0.59443203274E+01  0.15611715335E+02  0.84626011365E+01  0.72461649105E+02  0.70000102666E+02 0.  0.
         12    1    1    2    0    0 -0.59443203274E+01 -0.15611715335E+02 -0.84626011365E+01  0.18726350895E+02  0.00000000000E+00 0. -1.
         11    1    3    3    0    0  0.17383890814E+02  0.19269550611E+02  0.28770157349E+02  0.38745802285E+02  0.51100000000E-03 0. -1.
        -11    1    3    3    0    0 -0.73307871989E+01  0.92281562769E+01 -0.15255972930E+02  0.19278070949E+02  0.51100000000E-03 0.  1.
         12    1    3    3    0    0 -0.41087832881E+01 -0.12885991553E+02 -0.50515832824E+01  0.14437775870E+02  0.00000000000E+00 0. -1.
</event>
<event>
 7    1  0.1339094E-013  0.7246157E+02  0.7816164E-02  0.1226708E+00
        -11   -1    0    0    0    0  0.00000000000E+00  0.00000000000E+00  0.45593999997E+02  0.45594000000E+02  0.51100000000E-03 0. -1.
         11   -1    0    0    0    0 -0.00000000000E+00 -0.00000000000E+00 -0.45593999997E+02  0.45594000000E+02  0.51100000000E-03 0.  1.
    9900012    2    1    2    0    0  0.64684090722E+01  0.94325207325E+01 -0.14827890161E+02  0.72461572420E+02  0.70000002769E+02 0.  0.
         12    1    1    2    0    0 -0.64684090722E+01 -0.94325207325E+01  0.14827890161E+02  0.18726427580E+02  0.00000000000E+00 0. -1.
         11    1    3    3    0    0 -0.21326330611E+02 -0.23056981750E+01  0.90799305095E+01  0.23293212739E+02  0.51100000000E-03 0. -1.
        -11    1    3    3    0    0  0.24616525833E+02  0.21479206881E+02 -0.19177571234E+02  0.37882831349E+02  0.51100000000E-03 0.  1.
        -12    1    3    3    0    0  0.31782138499E+01 -0.97409879739E+01 -0.47302494368E+01  0.11285528331E+02  0.00000000000E+00 0.  1.
</event>
<event>
 8    1  0.1339094E-013  0.7246157E+02  0.7816164E-02  0.1226708E+00
        -11   -1    0    0    0    0  0.00000000000E+00  0.00000000000E+00  0.45593999997E+02  0.45594000000E+02  0.51100000000E-03 0.  1.
         11   -1    0    0    0    0 -0.00000000000E+00 -0.00000000000E+00 -0.45593999997E+02  0.45594000000E+02  0.51100000000E-03 0. -1.
    9900012    2    1    2    0    0  0.13204573250E+02 -0.32954307349E+01  0.12863074288E+02  0.72461566848E+02  0.69999995511E+02 0.  0.
        -24    2    3    3    0    0  0.19088765871E+02 -0.16826180630E+02  0.85343527300E+01  0.57084871946E+02  0.50382001662E+02 0.  0.
         12    1    1    2    0    0 -0.13204573250E+02  0.32954307349E+01 -0.12863074288E+02  0.18726433152E+02  0.00000000000E+00 0. -1.
         11    1    4    4    0    0 -0.10451267438E+02 -0.23529671836E+02  0.52042098216E+00  0.25751607445E+02  0.51100000000E-03 0. -1.
        -11    1    3    3    0    0 -0.58841926208E+01  0.13530749896E+02  0.43287215583E+01  0.15376694903E+02  0.51100000000E-03 0.  1.
        -12    1    4    4    0    0  0.29540033308E+02  0.67034912054E+01  0.80139317478E+01  0.31333264500E+02  0.00000000000E+00 0.  1.
</event>
<event>
 7    1  0.1339094E-013  0.7246147E+02  0.7816164E-02  0.1226708E+00
        -11   -1    0    0    0    0  0.00000000000E+00  0.00000000000E+00  0.45593999997E+02  0.45594000000E+02  0.51100000000E-03 0.  1.
         11   -1    0    0    0    0 -0.00000000000E+00 -0.00000000000E+00 -0.45593999997E+02  0.45594000000E+02  0.51100000000E-03 0. -1.
    9900012    2    1    2    0    0 -0.10911364755E+02  0.13494035861E+02  0.70381727098E+01  0.72461474435E+02  0.69999875125E+02 0.  0.
         12    1    1    2    0    0  0.10911364755E+02 -0.13494035861E+02 -0.70381727098E+01  0.18726525565E+02  0.00000000000E+00 0. -1.
         11    1    3    3    0    0 -0.15784714999E+02  0.11854369103E+01 -0.22290803765E+02  0.27339393209E+02  0.51100000000E-03 0. -1.
        -11    1    3    3    0    0 -0.10988648351E+02 -0.34296098136E+01  0.13484265878E+02  0.17729581004E+02  0.51100000000E-03 0.  1.
         12    1    3    3    0    0  0.15861998594E+02  0.15738208765E+02  0.15844710596E+02  0.27392500222E+02  0.00000000000E+00 0. -1.
</event>
<event>
 7    1  0.1339094E-013  0.7246155E+02  0.7816164E-02  0.1226708E+00
        -11   -1    0    0    0    0  0.00000000000E+00  0.00000000000E+00  0.45593999997E+02  0.45594000000E+02  0.51100000000E-03 0. -1.
         11   -1    0    0    0    0 -0.00000000000E+00 -0.00000000000E+00 -0.45593999997E+02  0.45594000000E+02  0.51100000000E-03 0.  1.
    9900012    2    1    2    0    0 -0.10448455201E+02 -0.57875749741E+01 -0.14422682029E+02  0.72461548199E+02  0.69999971216E+02 0.  0.
         12    1    1    2    0    0  0.10448455201E+02  0.57875749741E+01  0.14422682029E+02  0.18726451801E+02  0.00000000000E+00 0. -1.
         11    1    3    3    0    0  0.67581533021E+01  0.27728381103E+02 -0.20831943532E+01  0.28615999958E+02  0.51100000000E-03 0.  1.
        -11    1    3    3    0    0 -0.40877392099E+01 -0.15603883996E+02  0.35833953668E+01  0.16523665762E+02  0.51100000000E-03 0. -1.
         12    1    3    3    0    0 -0.13118869293E+02 -0.17912072081E+02 -0.15922883042E+02  0.27321882478E+02  0.00000000000E+00 0. -1.
</event>
<event>
 7    1  0.1339094E-013  0.7246151E+02  0.7816164E-02  0.1226708E+00
        -11   -1    0    0    0    0  0.00000000000E+00  0.00000000000E+00  0.45593999997E+02  0.45594000000E+02  0.51100000000E-03 0.  1.
         11   -1    0    0    0    0 -0.00000000000E+00 -0.00000000000E+00 -0.45593999997E+02  0.45594000000E+02  0.51100000000E-03 0. -1.
    9900012    2    1    2    0    0  0.37706067104E+01 -0.18304315019E+02 -0.11899530847E+01  0.72461510430E+02  0.69999922015E+02 0.  0.
         12    1    1    2    0    0 -0.37706067104E+01  0.18304315019E+02  0.11899530847E+01  0.18726489570E+02  0.00000000000E+00 0. -1.
         11    1    3    3    0    0  0.54050982416E+01  0.16162723937E+02  0.21085699712E+02  0.27111906326E+02  0.51100000000E-03 0. -1.
        -11    1    3    3    0    0  0.75589799652E+01 -0.21808488328E+02 -0.88022963291E+01  0.24702808792E+02  0.51100000000E-03 0.  1.
         12    1    3    3    0    0 -0.91934714964E+01 -0.12658550628E+02 -0.13473356467E+02  0.20646795312E+02  0.00000000000E+00 0. -1.
</event>
<event>
 7    1  0.1339094E-013  0.7246154E+02  0.7816164E-02  0.1226708E+00
        -11   -1    0    0    0    0  0.00000000000E+00  0.00000000000E+00  0.45593999997E+02  0.45594000000E+02  0.51100000000E-03 0.  1.
         11   -1    0    0    0    0 -0.00000000000E+00 -0.00000000000E+00 -0.45593999997E+02  0.45594000000E+02  0.51100000000E-03 0. -1.
    9900012    2    1    2    0    0 -0.67524445714E+01 -0.93837979808E+01  0.14731910273E+02  0.72461538707E+02  0.69999958852E+02 0.  0.
         12    1    1    2    0    0  0.67524445714E+01  0.93837979808E+01 -0.14731910273E+02  0.18726461293E+02  0.00000000000E+00 0. -1.
         11    1    3    3    0    0 -0.11439564201E+02 -0.61059913990E+01 -0.15986116444E+02  0.20584039432E+02  0.51100000000E-03 0. -1.
        -11    1    3    3    0    0  0.13237370250E+02 -0.17775592668E+02  0.26460543677E+02  0.34516083754E+02  0.51100000000E-03 0.  1.
        -12    1    3    3    0    0 -0.85502506197E+01  0.14497786086E+02  0.42574830415E+01  0.17361415522E+02  0.00000000000E+00 0.  1.
</event>
<event>
 7    1  0.1339094E-013  0.7246158E+02  0.7816164E-02  0.1226708E+00
        -11   -1    0    0    0    0  0.00000000000E+00  0.00000000000E+00  0.45593999997E+02  0.45594000000E+02  0.51100000000E-03 0. -1.
         11   -1    0    0    0    0 -0.00000000000E+00 -0.00000000000E+00 -0.45593999997E+02  0.45594000000E+02  0.51100000000E-03 0.  1.
    9900012    2    1    2    0    0 -0.12228777723E+02  0.13518421991E+02  0.42881227185E+01  0.72461581918E+02  0.70000015142E+02 0.  0.
         12    1    1    2    0    0  0.12228777723E+02 -0.13518421991E+02 -0.42881227185E+01  0.18726418082E+02  0.00000000000E+00 0. -1.
         11    1    3    3    0    0 -0.13910065396E+02 -0.44352470456E+01  0.30464129091E+02  0.33782014404E+02  0.51100000000E-03 0. -1.
        -11    1    3    3    0    0 -0.63517429832E+01  0.18329235318E+02 -0.13376623201E+02  0.23563521697E+02  0.51100000000E-03 0.  1.
         12    1    3    3    0    0  0.80330306563E+01 -0.37556628130E+00 -0.12799383172E+02  0.15116045817E+02  0.00000000000E+00 0. -1.
</event>
<event>
 7    1  0.1339094E-013  0.7246168E+02  0.7816164E-02  0.1226708E+00
        -11   -1    0    0    0    0  0.00000000000E+00  0.00000000000E+00  0.45593999997E+02  0.45594000000E+02  0.51100000000E-03 0. -1.
         11   -1    0    0    0    0 -0.00000000000E+00 -0.00000000000E+00 -0.45593999997E+02  0.45594000000E+02  0.51100000000E-03 0.  1.
    9900012    2    1    2    0    0 -0.15011504919E+02 -0.11783395175E+01 -0.11132893780E+02  0.72461679276E+02  0.70000141968E+02 0.  0.
         12    1    1    2    0    0  0.15011504919E+02  0.11783395175E+01  0.11132893780E+02  0.18726320724E+02  0.00000000000E+00 0. -1.
         11    1    3    3    0    0 -0.30077457250E+02 -0.14926750286E+02  0.49420843319E+01  0.33939438807E+02  0.51100000000E-03 0.  1.
        -11    1    3    3    0    0  0.21279731128E+02  0.80838918151E+01 -0.29764708416E+01  0.22957256863E+02  0.51100000000E-03 0. -1.
        -12    1    3    3    0    0 -0.62137787969E+01  0.56645189539E+01 -0.13098507270E+02  0.15564983605E+02  0.00000000000E+00 0.  1.
</event>
<event>
 7    1  0.1339094E-013  0.7246145E+02  0.7816164E-02  0.1226708E+00
        -11   -1    0    0    0    0  0.00000000000E+00  0.00000000000E+00  0.45593999997E+02  0.45594000000E+02  0.51100000000E-03 0.  1.
         11   -1    0    0    0    0 -0.00000000000E+00 -0.00000000000E+00 -0.45593999997E+02  0.45594000000E+02  0.51100000000E-03 0. -1.
    9900012    2    1    2    0    0  0.84704267453E+01  0.16168414818E+02  0.41854353755E+01  0.72461451032E+02  0.69999844638E+02 0.  0.
         12    1    1    2    0    0 -0.84704267453E+01 -0.16168414818E+02 -0.41854353755E+01  0.18726548968E+02  0.00000000000E+00 0. -1.
         11    1    3    3    0    0  0.12152293672E+02  0.27256399822E+02 -0.11962834161E+02  0.32151189312E+02  0.51100000000E-03 0. -1.
        -11    1    3    3    0    0  0.62272220437E+01 -0.18772296739E+02 -0.10947303856E+00  0.19778508636E+02  0.51100000000E-03 0.  1.
        -12    1    3    3    0    0 -0.99090889704E+01  0.76843117354E+01  0.16257742575E+02  0.20531753084E+02  0.00000000000E+00 0.  1.
</event>
<event>
 7    1  0.1339094E-013  0.7246149E+02  0.7816164E-02  0.1226708E+00
        -11   -1    0    0    0    0  0.00000000000E+00  0.00000000000E+00  0.45593999997E+02  0.45594000000E+02  0.51100000000E-03 0. -1.
         11   -1    0    0    0    0 -0.00000000000E+00 -0.00000000000E+00 -0.45593999997E+02  0.45594000000E+02  0.51100000000E-03 0.  1.
    9900012    2    1    2    0    0  0.24320424574E-01  0.11716425049E+02 -0.14608458362E+02  0.72461487695E+02  0.69999892398E+02 0.  0.
         12    1    1    2    0    0 -0.24320424574E-01 -0.11716425049E+02  0.14608458362E+02  0.18726512305E+02  0.00000000000E+00 0. -1.
         11    1    3    3    0    0  0.15188542984E+02 -0.12996062330E+02  0.16630474731E+02  0.26003118353E+02  0.51100000000E-03 0. -1.
        -11    1    3    3    0    0 -0.80800342566E+01  0.39453947664E+01 -0.19727091238E+02  0.21679742213E+02  0.51100000000E-03 0.  1.
         12    1    3    3    0    0 -0.70841883025E+01  0.20767092613E+02 -0.11511841854E+02  0.24778627129E+02  0.00000000000E+00 0. -1.
</event>
<event>
 7    1  0.1339094E-013  0.7246157E+02  0.7816164E-02  0.1226708E+00
        -11   -1    0    0    0    0  0.00000000000E+00  0.00000000000E+00  0.45593999997E+02  0.45594000000E+02  0.51100000000E-03 0.  1.
         11   -1    0    0    0    0 -0.00000000000E+00 -0.00000000000E+00 -0.45593999997E+02  0.45594000000E+02  0.51100000000E-03 0. -1.
    9900012    2    1    2    0    0  0.13804735668E+02  0.46129085941E+01  0.11782601312E+02  0.72461565576E+02  0.69999993853E+02 0.  0.
         12    1    1    2    0    0 -0.13804735668E+02 -0.46129085941E+01 -0.11782601312E+02  0.18726434424E+02  0.00000000000E+00 0. -1.
         11    1    3    3    0    0  0.27541175208E+02 -0.17856022526E+01  0.29119064224E+01  0.27752187419E+02  0.51100000000E-03 0. -1.
        -11    1    3    3    0    0 -0.12038340507E+02 -0.12787014348E+02  0.16400523652E+02  0.24029285350E+02  0.51100000000E-03 0.  1.
         12    1    3    3    0    0 -0.16980990326E+01  0.19185525195E+02 -0.75298287623E+01  0.20680092807E+02  0.00000000000E+00 0. -1.
</event>
<event>
 7    1  0.1339094E-013  0.7246154E+02  0.7816164E-02  0.1226708E+00
        -11   -1    0    0    0    0  0.00000000000E+00  0.00000000000E+00  0.45593999997E+02  0.45594000000E+02  0.51100000000E-03 0. -1.
         11   -1    0    0    0    0 -0.00000000000E+00 -0.00000000000E+00 -0.45593999997E+02  0.45594000000E+02  0.51100000000E-03 0.  1.
    9900012    2    1    2    0    0 -0.18720250372E+02  0.28870225423E+00  0.38634681839E+00  0.72461537791E+02  0.69999957659E+02 0.  0.
         12    1    1    2    0    0  0.18720250372E+02 -0.28870225423E+00 -0.38634681839E+00  0.18726462209E+02  0.00000000000E+00 0. -1.
         11    1    3    3    0    0 -0.35376488468E+02  0.70347871887E+01  0.37305790365E+01  0.36261569013E+02  0.51100000000E-03 0. -1.
        -11    1    3    3    0    0 -0.20118521195E+00 -0.22823740592E+01 -0.15032948365E+02  0.15206552655E+02  0.51100000000E-03 0.  1.
         12    1    3    3    0    0  0.16857423307E+02 -0.44637108753E+01  0.11688716147E+02  0.20993416123E+02  0.00000000000E+00 0. -1.
</event>
<event>
 7    1  0.1339094E-013  0.7246153E+02  0.7816164E-02  0.1226708E+00
        -11   -1    0    0    0    0  0.00000000000E+00  0.00000000000E+00  0.45593999997E+02  0.45594000000E+02  0.51100000000E-03 0. -1.
         11   -1    0    0    0    0 -0.00000000000E+00 -0.00000000000E+00 -0.45593999997E+02  0.45594000000E+02  0.51100000000E-03 0.  1.
    9900012    2    1    2    0    0  0.12257838203E+02  0.53853056120E+01 -0.13092924787E+02  0.72461526935E+02  0.69999943517E+02 0.  0.
         12    1    1    2    0    0 -0.12257838203E+02 -0.53853056120E+01  0.13092924787E+02  0.18726473065E+02  0.00000000000E+00 0. -1.
         11    1    3    3    0    0 -0.42587058362E+01  0.32371179442E+02 -0.90921960702E+01  0.33892445522E+02  0.51100000000E-03 0.  1.
        -11    1    3    3    0    0  0.22257698493E+01 -0.20628893048E+02 -0.83014417121E+01  0.22347689244E+02  0.51100000000E-03 0. -1.
        -12    1    3    3    0    0  0.14290774190E+02 -0.63569807818E+01  0.43007129949E+01  0.16221392168E+02  0.00000000000E+00 0.  1.
</event>
<event>
 7    1  0.1339094E-013  0.7246156E+02  0.7816164E-02  0.1226708E+00
        -11   -1    0    0    0    0  0.00000000000E+00  0.00000000000E+00  0.45593999997E+02  0.45594000000E+02  0.51100000000E-03 0. -1.
         11   -1    0    0    0    0 -0.00000000000E+00 -0.00000000000E+00 -0.45593999997E+02  0.45594000000E+02  0.51100000000E-03 0.  1.
    9900012    2    1    2    0    0  0.13124667131E+02 -0.10973163747E+02 -0.76165776484E+01  0.72461562405E+02  0.69999989722E+02 0.  0.
         12    1    1    2    0    0 -0.13124667131E+02  0.10973163747E+02  0.76165776484E+01  0.18726437595E+02  0.00000000000E+00 0. -1.
         11    1    3    3    0    0 -0.11729101606E+02  0.63677564246E+01  0.19506167889E+02  0.23634947268E+02  0.51100000000E-03 0. -1.
        -11    1    3    3    0    0  0.21974505441E+02  0.10245448616E+01 -0.14101772001E+02  0.26130223026E+02  0.51100000000E-03 0.  1.
        -12    1    3    3    0    0  0.28792632959E+01 -0.18365465033E+02 -0.13020973536E+02  0.22696392111E+02  0.00000000000E+00 0.  1.
</event>
<event>
 7    1  0.1339094E-013  0.7246152E+02  0.7816164E-02  0.1226708E+00
        -11   -1    0    0    0    0  0.00000000000E+00  0.00000000000E+00  0.45593999997E+02  0.45594000000E+02  0.51100000000E-03 0. -1.
         11   -1    0    0    0    0 -0.00000000000E+00 -0.00000000000E+00 -0.45593999997E+02  0.45594000000E+02  0.51100000000E-03 0.  1.
    9900012    2    1    2    0    0  0.12019314770E+02 -0.14302642947E+02  0.12851412978E+01  0.72461518457E+02  0.69999932472E+02 0.  0.
         12    1    1    2    0    0 -0.12019314770E+02  0.14302642947E+02 -0.12851412978E+01  0.18726481543E+02  0.00000000000E+00 0. -1.
         11    1    3    3    0    0 -0.13321253033E+02 -0.27998174004E+02 -0.10803001167E+02  0.32833799116E+02  0.51100000000E-03 0.  1.
        -11    1    3    3    0    0  0.15960700096E+02  0.18328682505E+02  0.15257709769E+02  0.28696380565E+02  0.51100000000E-03 0. -1.
        -12    1    3    3    0    0  0.93798677067E+01 -0.46331514479E+01 -0.31695673036E+01  0.10931338776E+02  0.00000000000E+00 0.  1.
</event>
<event>
 7    1  0.1339094E-013  0.7246157E+02  0.7816164E-02  0.1226708E+00
        -11   -1    0    0    0    0  0.00000000000E+00  0.00000000000E+00  0.45593999997E+02  0.45594000000E+02  0.51100000000E-03 0. -1.
         11   -1    0    0    0    0 -0.00000000000E+00 -0.00000000000E+00 -0.45593999997E+02  0.45594000000E+02  0.51100000000E-03 0.  1.
    9900012    2    1    2    0    0 -0.18612289721E+02 -0.60151654672E-01 -0.20635663073E+01  0.72461568072E+02  0.69999997104E+02 0.  0.
         12    1    1    2    0    0  0.18612289721E+02  0.60151654672E-01  0.20635663073E+01  0.18726431928E+02  0.00000000000E+00 0. -1.
         11    1    3    3    0    0 -0.19929158801E+02  0.30072360029E+01 -0.23051469589E+02  0.30620011257E+02  0.51100000000E-03 0.  1.
        -11    1    3    3    0    0  0.33926908701E+01 -0.19337279674E+02  0.94536458388E+01  0.21790184864E+02  0.51100000000E-03 0. -1.
        -12    1    3    3    0    0 -0.20758217894E+01  0.16269892016E+02  0.11534257443E+02  0.20051371950E+02  0.00000000000E+00 0.  1.
</event>
<event>
 7    1  0.1339094E-013  0.7246157E+02  0.7816164E-02  0.1226708E+00
        -11   -1    0    0    0    0  0.00000000000E+00  0.00000000000E+00  0.45593999997E+02  0.45594000000E+02  0.51100000000E-03 0.  1.
         11   -1    0    0    0    0 -0.00000000000E+00 -0.00000000000E+00 -0.45593999997E+02  0.45594000000E+02  0.51100000000E-03 0. -1.
    9900012    2    1    2    0    0 -0.32017507101E+00 -0.10972417022E+02  0.15171768408E+02  0.72461574714E+02  0.70000005757E+02 0.  0.
         12    1    1    2    0    0  0.32017507101E+00  0.10972417022E+02 -0.15171768408E+02  0.18726425286E+02  0.00000000000E+00 0. -1.
         11    1    3    3    0    0  0.30452717747E+02  0.33075170772E+00  0.81498995421E+01  0.31526152281E+02  0.51100000000E-03 0. -1.
        -11    1    3    3    0    0 -0.24193699234E+02 -0.17535683675E+02  0.98168610884E+01  0.31451646165E+02  0.51100000000E-03 0.  1.
        -12    1    3    3    0    0 -0.65791935834E+01  0.62325149463E+01 -0.27949922224E+01  0.94837762672E+01  0.00000000000E+00 0.  1.
</event>
<event>
 7    1  0.1339094E-013  0.7246156E+02  0.7816164E-02  0.1226708E+00
        -11   -1    0    0    0    0  0.00000000000E+00  0.00000000000E+00  0.45593999997E+02  0.45594000000E+02  0.51100000000E-03 0. -1.
         11   -1    0    0    0    0 -0.00000000000E+00 -0.00000000000E+00 -0.45593999997E+02  0.45594000000E+02  0.51100000000E-03 0.  1.
    9900012    2    1    2    0    0  0.15441905907E+02  0.14548104513E+00 -0.10592730962E+02  0.72461559548E+02  0.69999986001E+02 0.  0.
         12    1    1    2    0    0 -0.15441905907E+02 -0.14548104513E+00  0.10592730962E+02  0.18726440452E+02  0.00000000000E+00 0. -1.
         11    1    3    3    0    0 -0.13020306189E+02  0.14106726282E+02 -0.32215997011E+01  0.19465528623E+02  0.51100000000E-03 0. -1.
        -11    1    3    3    0    0  0.86273990600E+01  0.53641996407E+01 -0.20097270965E+02  0.22519035344E+02  0.51100000000E-03 0.  1.
         12    1    3    3    0    0  0.19834813036E+02 -0.19325444878E+02  0.12726139704E+02  0.30476995581E+02  0.00000000000E+00 0. -1.
</event>
<event>
 7    1  0.1339094E-013  0.7246157E+02  0.7816164E-02  0.1226708E+00
        -11   -1    0    0    0    0  0.00000000000E+00  0.00000000000E+00  0.45593999997E+02  0.45594000000E+02  0.51100000000E-03 0. -1.
         11   -1    0    0    0    0 -0.00000000000E+00 -0.00000000000E+00 -0.45593999997E+02  0.45594000000E+02  0.51100000000E-03 0.  1.
    9900012    2    1    2    0    0 -0.98159350848E+01  0.13890121247E+02 -0.78352595109E+01  0.72461565704E+02  0.69999994020E+02 0.  0.
         12    1    1    2    0    0  0.98159350848E+01 -0.13890121247E+02  0.78352595109E+01  0.18726434296E+02  0.00000000000E+00 0. -1.
         11    1    3    3    0    0  0.13471280705E+02 -0.74744095627E+00 -0.68414626475E+01  0.15127448008E+02  0.51100000000E-03 0. -1.
        -11    1    3    3    0    0 -0.27193580765E+02  0.90949153476E+01  0.20204634769E+02  0.35077565286E+02  0.51100000000E-03 0.  1.
        -12    1    3    3    0    0  0.39063649748E+01  0.55426468555E+01 -0.21198431632E+02  0.22256552409E+02  0.00000000000E+00 0.  1.
</event>
<event>
 7    1  0.1339094E-013  0.7246157E+02  0.7816164E-02  0.1226708E+00
        -11   -1    0    0    0    0  0.00000000000E+00  0.00000000000E+00  0.45593999997E+02  0.45594000000E+02  0.51100000000E-03 0.  1.
         11   -1    0    0    0    0 -0.00000000000E+00 -0.00000000000E+00 -0.45593999997E+02  0.45594000000E+02  0.51100000000E-03 0. -1.
    9900012    2    1    2    0    0 -0.10559323832E+02 -0.12863330390E+02  0.85857268471E+01  0.72461566970E+02  0.69999995670E+02 0.  0.
         12    1    1    2    0    0  0.10559323832E+02  0.12863330390E+02 -0.85857268471E+01  0.18726433030E+02  0.00000000000E+00 0. -1.
         11    1    3    3    0    0 -0.76217180760E+01 -0.18059769112E+02  0.10724225025E+02  0.22344011490E+02  0.51100000000E-03 0. -1.
        -11    1    3    3    0    0  0.22578344219E+02 -0.35681497062E+01 -0.33936427720E+01  0.23109091966E+02  0.51100000000E-03 0.  1.
        -12    1    3    3    0    0 -0.25515949975E+02  0.87645884277E+01  0.12551445937E+01  0.27008463514E+02  0.00000000000E+00 0.  1.
</event>
<event>
 7    1  0.1339094E-013  0.7246140E+02  0.7816164E-02  0.1226708E+00
        -11   -1    0    0    0    0  0.00000000000E+00  0.00000000000E+00  0.45593999997E+02  0.45594000000E+02  0.51100000000E-03 0. -1.
         11   -1    0    0    0    0 -0.00000000000E+00 -0.00000000000E+00 -0.45593999997E+02  0.45594000000E+02  0.51100000000E-03 0.  1.
    9900012    2    1    2    0    0  0.11710194654E+02 -0.76364748269E+01 -0.12459575029E+02  0.72461403498E+02  0.69999782717E+02 0.  0.
         12    1    1    2    0    0 -0.11710194654E+02  0.76364748269E+01  0.12459575029E+02  0.18726596502E+02  0.00000000000E+00 0. -1.
         11    1    3    3    0    0  0.15724410390E+02 -0.13909965366E+02  0.11328499213E+02  0.23855379126E+02  0.51100000000E-03 0. -1.
        -11    1    3    3    0    0 -0.22438886927E+02  0.76162783299E+01 -0.10912417443E+02  0.26088162006E+02  0.51100000000E-03 0.  1.
        -12    1    3    3    0    0  0.18424671191E+02 -0.13427877910E+01 -0.12875656799E+02  0.22517862367E+02  0.00000000000E+00 0.  1.
</event>
<event>
 7    1  0.1339094E-013  0.7246145E+02  0.7816164E-02  0.1226708E+00
        -11   -1    0    0    0    0  0.00000000000E+00  0.00000000000E+00  0.45593999997E+02  0.45594000000E+02  0.51100000000E-03 0.  1.
         11   -1    0    0    0    0 -0.00000000000E+00 -0.00000000000E+00 -0.45593999997E+02  0.45594000000E+02  0.51100000000E-03 0. -1.
    9900012    2    1    2    0    0 -0.15205993338E+02  0.64119714896E+01  0.88514470930E+01  0.72461448598E+02  0.69999841468E+02 0.  0.
         12    1    1    2    0    0  0.15205993338E+02 -0.64119714896E+01 -0.88514470930E+01  0.18726551402E+02  0.00000000000E+00 0. -1.
         11    1    3    3    0    0 -0.40911327258E+01 -0.16739410176E+02  0.23840204559E+01  0.17396228724E+02  0.51100000000E-03 0. -1.
        -11    1    3    3    0    0  0.44334864719E+01  0.18141246485E+02  0.24452864550E+02  0.30768542560E+02  0.51100000000E-03 0.  1.
         12    1    3    3    0    0 -0.15548347084E+02  0.50101351814E+01 -0.17985437912E+02  0.24296677314E+02  0.00000000000E+00 0. -1.
</event>
<event>
 7    1  0.1339094E-013  0.7246151E+02  0.7816164E-02  0.1226708E+00
        -11   -1    0    0    0    0  0.00000000000E+00  0.00000000000E+00  0.45593999997E+02  0.45594000000E+02  0.51100000000E-03 0. -1.
         11   -1    0    0    0    0 -0.00000000000E+00 -0.00000000000E+00 -0.45593999997E+02  0.45594000000E+02  0.51100000000E-03 0.  1.
    9900012    2    1    2    0    0  0.16866422934E+02  0.61369091853E+01 -0.53426186583E+01  0.72461509377E+02  0.69999920644E+02 0.  0.
         12    1    1    2    0    0 -0.16866422934E+02 -0.61369091853E+01  0.53426186583E+01  0.18726490623E+02  0.00000000000E+00 0. -1.
         11    1    3    3    0    0 -0.81751609321E+01  0.87301797339E+01  0.24611651470E+02  0.27363893780E+02  0.51100000000E-03 0. -1.
        -11    1    3    3    0    0  0.27357094314E+02 -0.26132430989E+01 -0.31877014466E+02  0.42087809403E+02  0.51100000000E-03 0.  1.
        -12    1    3    3    0    0 -0.23155104483E+01  0.19972550293E-01  0.19227443379E+01  0.30098061944E+01  0.00000000000E+00 0.  1.
</event>
<event>
 7    1  0.1339094E-013  0.7246162E+02  0.7816164E-02  0.1226708E+00
        -11   -1    0    0    0    0  0.00000000000E+00  0.00000000000E+00  0.45593999997E+02  0.45594000000E+02  0.51100000000E-03 0.  1.
         11   -1    0    0    0    0 -0.00000000000E+00 -0.00000000000E+00 -0.45593999997E+02  0.45594000000E+02  0.51100000000E-03 0. -1.
    9900012    2    1    2    0    0 -0.12330917481E+02 -0.91536679265E+01  0.10716159004E+02  0.72461622181E+02  0.70000067591E+02 0.  0.
         12    1    1    2    0    0  0.12330917481E+02  0.91536679265E+01 -0.10716159004E+02  0.18726377819E+02  0.00000000000E+00 0. -1.
         11    1    3    3    0    0  0.16498125641E+02 -0.21205567487E+02  0.10750424171E+02  0.28938484104E+02  0.51100000000E-03 0. -1.
        -11    1    3    3    0    0 -0.47709138443E+01  0.78745245347E+01 -0.12957964996E+02  0.15895867786E+02  0.51100000000E-03 0.  1.
         12    1    3    3    0    0 -0.24058129278E+02  0.41773750255E+01  0.12923699830E+02  0.27627270291E+02  0.00000000000E+00 0. -1.
</event>
<event>
 7    1  0.1339094E-013  0.7246095E+02  0.7816164E-02  0.1226710E+00
        -11   -1    0    0    0    0  0.00000000000E+00  0.00000000000E+00  0.45593999997E+02  0.45594000000E+02  0.51100000000E-03 0.  1.
         11   -1    0    0    0    0 -0.00000000000E+00 -0.00000000000E+00 -0.45593999997E+02  0.45594000000E+02  0.51100000000E-03 0. -1.
    9900012    2    1    2    0    0  0.80062218671E+01 -0.16929271685E+02 -0.48911271391E-01  0.72460954833E+02  0.69999198242E+02 0.  0.
         12    1    1    2    0    0 -0.80062218671E+01  0.16929271685E+02  0.48911271391E-01  0.18727045167E+02  0.00000000000E+00 0. -1.
         11    1    3    3    0    0  0.75195645251E+01  0.13021869655E+02 -0.55586247295E+01  0.16031570388E+02  0.51100000000E-03 0. -1.
        -11    1    3    3    0    0  0.25538706146E+01 -0.14231930707E+02  0.26461913280E+02  0.30154650744E+02  0.51100000000E-03 0.  1.
        -12    1    3    3    0    0 -0.20672132726E+01 -0.15719210634E+02 -0.20952199822E+02  0.26274733701E+02  0.00000000000E+00 0.  1.
</event>
<event>
 7    1  0.1339094E-013  0.7246172E+02  0.7816164E-02  0.1226708E+00
        -11   -1    0    0    0    0  0.00000000000E+00  0.00000000000E+00  0.45593999997E+02  0.45594000000E+02  0.51100000000E-03 0.  1.
         11   -1    0    0    0    0 -0.00000000000E+00 -0.00000000000E+00 -0.45593999997E+02  0.45594000000E+02  0.51100000000E-03 0. -1.
    9900012    2    1    2    0    0  0.81654416935E+01  0.16634461547E+02  0.27006995760E+01  0.72461720946E+02  0.70000196252E+02 0.  0.
         12    1    1    2    0    0 -0.81654416935E+01 -0.16634461547E+02 -0.27006995760E+01  0.18726279054E+02  0.00000000000E+00 0. -1.
         11    1    3    3    0    0 -0.26125459954E+02  0.16303621083E+02  0.15239793956E+02  0.34359846308E+02  0.51100000000E-03 0.  1.
        -11    1    3    3    0    0  0.20696850815E+02  0.11721684714E+01 -0.13008812454E+02  0.24473716806E+02  0.51100000000E-03 0. -1.
        -12    1    3    3    0    0  0.13594050832E+02 -0.84132800740E+00  0.46971807394E+00  0.13628157833E+02  0.00000000000E+00 0.  1.
</event>
<event>
 7    1  0.1339094E-013  0.7246156E+02  0.7816164E-02  0.1226708E+00
        -11   -1    0    0    0    0  0.00000000000E+00  0.00000000000E+00  0.45593999997E+02  0.45594000000E+02  0.51100000000E-03 0.  1.
         11   -1    0    0    0    0 -0.00000000000E+00 -0.00000000000E+00 -0.45593999997E+02  0.45594000000E+02  0.51100000000E-03 0. -1.
    9900012    2    1    2    0    0  0.17886564083E+02  0.45878961418E+01  0.31147526963E+01  0.72461557464E+02  0.69999983285E+02 0.  0.
         12    1    1    2    0    0 -0.17886564083E+02 -0.45878961418E+01 -0.31147526963E+01  0.18726442536E+02  0.00000000000E+00 0. -1.
         11    1    3    3    0    0  0.54491414228E+01 -0.11605352917E+02 -0.15218370327E+02  0.19899149586E+02  0.51100000000E-03 0. -1.
        -11    1    3    3    0    0  0.23323965767E+02  0.17897474065E+02  0.25911815760E+02  0.39188635512E+02  0.51100000000E-03 0.  1.
        -12    1    3    3    0    0 -0.10886543107E+02 -0.17042250064E+01 -0.75786927369E+01  0.13373772366E+02  0.00000000000E+00 0.  1.
</event>
<event>
 7    1  0.1339094E-013  0.7246190E+02  0.7816164E-02  0.1226707E+00
        -11   -1    0    0    0    0  0.00000000000E+00  0.00000000000E+00  0.45593999997E+02  0.45594000000E+02  0.51100000000E-03 0.  1.
         11   -1    0    0    0    0 -0.00000000000E+00 -0.00000000000E+00 -0.45593999997E+02  0.45594000000E+02  0.51100000000E-03 0. -1.
    9900012    2    1    2    0    0 -0.29266488751E+01  0.17366999349E+02  0.63630727839E+01  0.72461904964E+02  0.70000435969E+02 0.  0.
         12    1    1    2    0    0  0.29266488751E+01 -0.17366999349E+02 -0.63630727839E+01  0.18726095036E+02  0.00000000000E+00 0. -1.
         11    1    3    3    0    0 -0.83844924867E+01  0.28079879944E+02  0.17520001748E+02  0.34142785964E+02  0.51100000000E-03 0. -1.
        -11    1    3    3    0    0  0.15889513217E+02 -0.17421285798E+02 -0.37565650505E+01  0.23876549382E+02  0.51100000000E-03 0.  1.
         12    1    3    3    0    0 -0.10431669605E+02  0.67084052036E+01 -0.74003639133E+01  0.14442569618E+02  0.00000000000E+00 0. -1.
</event>
<event>
 7    1  0.1339094E-013  0.7246170E+02  0.7816164E-02  0.1226708E+00
        -11   -1    0    0    0    0  0.00000000000E+00  0.00000000000E+00  0.45593999997E+02  0.45594000000E+02  0.51100000000E-03 0.  1.
         11   -1    0    0    0    0 -0.00000000000E+00 -0.00000000000E+00 -0.45593999997E+02  0.45594000000E+02  0.51100000000E-03 0. -1.
    9900012    2    1    2    0    0 -0.17215593598E+02  0.73591169282E+01  0.37554709462E+00  0.72461700298E+02  0.70000169354E+02 0.  0.
         12    1    1    2    0    0  0.17215593598E+02 -0.73591169282E+01 -0.37554709462E+00  0.18726299702E+02  0.00000000000E+00 0. -1.
         11    1    3    3    0    0 -0.61514770507E+01 -0.16917656369E+02 -0.83621869095E+01  0.19848776716E+02  0.51100000000E-03 0. -1.
        -11    1    3    3    0    0 -0.28150414455E+02  0.18568051216E+02  0.38155715222E+01  0.33937839446E+02  0.51100000000E-03 0.  1.
         12    1    3    3    0    0  0.17086297908E+02  0.57087220818E+01  0.49221624819E+01  0.18675084137E+02  0.00000000000E+00 0. -1.
</event>
<event>
 7    1  0.1339094E-013  0.7246158E+02  0.7816164E-02  0.1226708E+00
        -11   -1    0    0    0    0  0.00000000000E+00  0.00000000000E+00  0.45593999997E+02  0.45594000000E+02  0.51100000000E-03 0. -1.
         11   -1    0    0    0    0 -0.00000000000E+00 -0.00000000000E+00 -0.45593999997E+02  0.45594000000E+02  0.51100000000E-03 0.  1.
    9900012    2    1    2    0    0  0.90892472484E+01 -0.51448536268E+01 -0.15543319825E+02  0.72461582148E+02  0.70000015442E+02 0.  0.
         12    1    1    2    0    0 -0.90892472484E+01  0.51448536268E+01  0.15543319825E+02  0.18726417852E+02  0.00000000000E+00 0. -1.
         11    1    3    3    0    0 -0.23626604731E+01  0.50613209640E+01  0.13217808441E+02  0.14349550329E+02  0.51100000000E-03 0. -1.
        -11    1    3    3    0    0 -0.59105502712E+01 -0.24479518749E+02 -0.24695348856E+02  0.35270975293E+02  0.51100000000E-03 0.  1.
        -12    1    3    3    0    0  0.17362457993E+02  0.14273344159E+02 -0.40657794094E+01  0.22841056526E+02  0.00000000000E+00 0.  1.
</event>
<event>
 7    1  0.1339094E-013  0.7246140E+02  0.7816164E-02  0.1226708E+00
        -11   -1    0    0    0    0  0.00000000000E+00  0.00000000000E+00  0.45593999997E+02  0.45594000000E+02  0.51100000000E-03 0.  1.
         11   -1    0    0    0    0 -0.00000000000E+00 -0.00000000000E+00 -0.45593999997E+02  0.45594000000E+02  0.51100000000E-03 0. -1.
    9900012    2    1    2    0    0 -0.14685443818E+01 -0.86242381249E+01  0.16557518629E+02  0.72461400496E+02  0.69999778805E+02 0.  0.
         12    1    1    2    0    0  0.14685443818E+01  0.86242381249E+01 -0.16557518629E+02  0.18726599504E+02  0.00000000000E+00 0. -1.
         11    1    3    3    0    0  0.12006247834E+02 -0.15857260829E+02 -0.25732794969E+01  0.20055534789E+02  0.51100000000E-03 0. -1.
        -11    1    3    3    0    0 -0.19183326468E+02  0.16506170313E+02 -0.51222501528E+01  0.25820362500E+02  0.51100000000E-03 0.  1.
        -12    1    3    3    0    0  0.57085342524E+01 -0.92731476082E+01  0.24253048279E+02  0.26585503206E+02  0.00000000000E+00 0.  1.
</event>
<event>
 7    1  0.1339094E-013  0.7246162E+02  0.7816164E-02  0.1226708E+00
        -11   -1    0    0    0    0  0.00000000000E+00  0.00000000000E+00  0.45593999997E+02  0.45594000000E+02  0.51100000000E-03 0. -1.
         11   -1    0    0    0    0 -0.00000000000E+00 -0.00000000000E+00 -0.45593999997E+02  0.45594000000E+02  0.51100000000E-03 0.  1.
    9900012    2    1    2    0    0  0.11643602668E+02  0.14347013808E+00 -0.14665717653E+02  0.72461619115E+02  0.70000063598E+02 0.  0.
         12    1    1    2    0    0 -0.11643602668E+02 -0.14347013808E+00  0.14665717653E+02  0.18726380885E+02  0.00000000000E+00 0. -1.
         11    1    3    3    0    0 -0.15050740600E+02  0.77037653293E+01  0.13939698225E+02  0.21913191911E+02  0.51100000000E-03 0. -1.
        -11    1    3    3    0    0  0.31062472532E+02 -0.68893086978E+01 -0.13070878808E+02  0.34397494781E+02  0.51100000000E-03 0.  1.
        -12    1    3    3    0    0 -0.43681292638E+01 -0.67098649349E+00 -0.15534537070E+02  0.16150932423E+02  0.00000000000E+00 0.  1.
</event>
<event>
 7    1  0.1339094E-013  0.7246159E+02  0.7816164E-02  0.1226708E+00
        -11   -1    0    0    0    0  0.00000000000E+00  0.00000000000E+00  0.45593999997E+02  0.45594000000E+02  0.51100000000E-03 0. -1.
         11   -1    0    0    0    0 -0.00000000000E+00 -0.00000000000E+00 -0.45593999997E+02  0.45594000000E+02  0.51100000000E-03 0.  1.
    9900012    2    1    2    0    0 -0.21599172258E+01  0.24932902943E+01 -0.18433577783E+02  0.72461587401E+02  0.70000022285E+02 0.  0.
         12    1    1    2    0    0  0.21599172258E+01 -0.24932902943E+01  0.18433577783E+02  0.18726412599E+02  0.00000000000E+00 0. -1.
         11    1    3    3    0    0 -0.15070419792E+01 -0.13897555491E+01  0.10813070932E+02  0.11005684861E+02  0.51100000000E-03 0. -1.
        -11    1    3    3    0    0  0.12340010522E+02 -0.13976281390E+02 -0.34080981240E+02  0.38847465602E+02  0.51100000000E-03 0.  1.
        -12    1    3    3    0    0 -0.12992885769E+02  0.17859327233E+02  0.48343325244E+01  0.22608436938E+02  0.00000000000E+00 0.  1.
</event>
<event>
 7    1  0.1339094E-013  0.7246158E+02  0.7816164E-02  0.1226708E+00
        -11   -1    0    0    0    0  0.00000000000E+00  0.00000000000E+00  0.45593999997E+02  0.45594000000E+02  0.51100000000E-03 0. -1.
         11   -1    0    0    0    0 -0.00000000000E+00 -0.00000000000E+00 -0.45593999997E+02  0.45594000000E+02  0.51100000000E-03 0.  1.
    9900012    2    1    2    0    0 -0.18680957130E+02  0.76419521122E+00 -0.10567902701E+01  0.72461575908E+02  0.70000007312E+02 0.  0.
         12    1    1    2    0    0  0.18680957130E+02 -0.76419521122E+00  0.10567902701E+01  0.18726424092E+02  0.00000000000E+00 0. -1.
         11    1    3    3    0    0 -0.69302396471E+01 -0.19619893805E+01  0.17141995568E+02  0.18593698831E+02  0.51100000000E-03 0. -1.
        -11    1    3    3    0    0  0.82123958518E+01  0.21630255268E+02 -0.69052714788E+01  0.24145272064E+02  0.51100000000E-03 0.  1.
        -12    1    3    3    0    0 -0.19963113335E+02 -0.18904070677E+02 -0.11293514359E+02  0.29722605013E+02  0.00000000000E+00 0.  1.
</event>
<event>
 7    1  0.1339094E-013  0.7246157E+02  0.7816164E-02  0.1226708E+00
        -11   -1    0    0    0    0  0.00000000000E+00  0.00000000000E+00  0.45593999997E+02  0.45594000000E+02  0.51100000000E-03 0.  1.
         11   -1    0    0    0    0 -0.00000000000E+00 -0.00000000000E+00 -0.45593999997E+02  0.45594000000E+02  0.51100000000E-03 0. -1.
    9900012    2    1    2    0    0 -0.15112507635E+02  0.99904447872E+00  0.11013315307E+02  0.72461572393E+02  0.70000002734E+02 0.  0.
         12    1    1    2    0    0  0.15112507635E+02 -0.99904447872E+00 -0.11013315307E+02  0.18726427607E+02  0.00000000000E+00 0. -1.
         11    1    3    3    0    0 -0.10489784146E+02 -0.25582155286E+01 -0.17235282057E+02  0.20338018241E+02  0.51100000000E-03 0. -1.
        -11    1    3    3    0    0  0.95909216743E+01 -0.15996051326E+02  0.17823028044E+02  0.25797669768E+02  0.51100000000E-03 0.  1.
         12    1    3    3    0    0 -0.14213645163E+02  0.19553311333E+02  0.10425569321E+02  0.26325884383E+02  0.00000000000E+00 0. -1.
</event>
<event>
 7    1  0.1339094E-013  0.7246153E+02  0.7816164E-02  0.1226708E+00
        -11   -1    0    0    0    0  0.00000000000E+00  0.00000000000E+00  0.45593999997E+02  0.45594000000E+02  0.51100000000E-03 0. -1.
         11   -1    0    0    0    0 -0.00000000000E+00 -0.00000000000E+00 -0.45593999997E+02  0.45594000000E+02  0.51100000000E-03 0.  1.
    9900012    2    1    2    0    0 -0.18565638159E+02 -0.55049598629E-01 -0.24483803523E+01  0.72461534315E+02  0.69999953130E+02 0.  0.
         12    1    1    2    0    0  0.18565638159E+02  0.55049598629E-01  0.24483803523E+01  0.18726465685E+02  0.00000000000E+00 0. -1.
         11    1    3    3    0    0  0.20445756512E+02 -0.35580016301E+01  0.10561947132E+02  0.23286113081E+02  0.51100000000E-03 0. -1.
        -11    1    3    3    0    0 -0.30644373551E+02  0.46769058709E+01  0.29269363797E+01  0.31137084573E+02  0.51100000000E-03 0.  1.
        -12    1    3    3    0    0 -0.83670211198E+01 -0.11739538394E+01 -0.15937263864E+02  0.18038336661E+02  0.00000000000E+00 0.  1.
</event>
<event>
 7    1  0.1532283E-013  0.7246139E+02  0.7816164E-02  0.1226708E+00
        -11   -1    0    0    0    0  0.00000000000E+00  0.00000000000E+00  0.45593999997E+02  0.45594000000E+02  0.51100000000E-03 0.  1.
         11   -1    0    0    0    0 -0.00000000000E+00 -0.00000000000E+00 -0.45593999997E+02  0.45594000000E+02  0.51100000000E-03 0. -1.
    9900012    2    1    2    0    0 -0.66712707403E+01  0.90732010903E+01 -0.14961854191E+02  0.72461390265E+02  0.69999765478E+02 0.  0.
         12    1    1    2    0    0  0.66712707403E+01 -0.90732010903E+01  0.14961854191E+02  0.18726609735E+02  0.00000000000E+00 0. -1.
         11    1    3    3    0    0 -0.19010442785E+02  0.24844119863E+01  0.17128168109E+02  0.25708819125E+02  0.51100000000E-03 0. -1.
        -11    1    3    3    0    0  0.14826908633E+02 -0.69769013315E+01 -0.63949739671E+01  0.17590055830E+02  0.51100000000E-03 0.  1.
         12    1    3    3    0    0 -0.24877365891E+01  0.13565690436E+02 -0.25695048333E+02  0.29162515310E+02  0.00000000000E+00 0. -1.
</event>
<event>
 7    1  0.1339094E-013  0.7246162E+02  0.7816164E-02  0.1226708E+00
        -11   -1    0    0    0    0  0.00000000000E+00  0.00000000000E+00  0.45593999997E+02  0.45594000000E+02  0.51100000000E-03 0.  1.
         11   -1    0    0    0    0 -0.00000000000E+00 -0.00000000000E+00 -0.45593999997E+02  0.45594000000E+02  0.51100000000E-03 0. -1.
    9900012    2    1    2    0    0  0.12031354119E+02 -0.13681299731E+02 -0.43296396036E+01  0.72461622257E+02  0.70000067692E+02 0.  0.
         12    1    1    2    0    0 -0.12031354119E+02  0.13681299731E+02  0.43296396036E+01  0.18726377743E+02  0.00000000000E+00 0. -1.
         11    1    3    3    0    0  0.30218789615E+02 -0.21694089672E+02 -0.88498715294E+01  0.38237795423E+02  0.51100000000E-03 0. -1.
        -11    1    3    3    0    0 -0.12196045825E+02 -0.93512005847E+01  0.38485076971E+01  0.15842963672E+02  0.51100000000E-03 0.  1.
         12    1    3    3    0    0 -0.59913896708E+01  0.17363990526E+02  0.67172422864E+00  0.18380863163E+02  0.00000000000E+00 0. -1.
</event>
<event>
 7    1  0.1339094E-013  0.7246155E+02  0.7816164E-02  0.1226708E+00
        -11   -1    0    0    0    0  0.00000000000E+00  0.00000000000E+00  0.45593999997E+02  0.45594000000E+02  0.51100000000E-03 0.  1.
         11   -1    0    0    0    0 -0.00000000000E+00 -0.00000000000E+00 -0.45593999997E+02  0.45594000000E+02  0.51100000000E-03 0. -1.
    9900012    2    1    2    0    0 -0.37892478950E+01 -0.83308635933E+01  0.16337638225E+02  0.72461545168E+02  0.69999967268E+02 0.  0.
         12    1    1    2    0    0  0.37892478950E+01  0.83308635933E+01 -0.16337638225E+02  0.18726454832E+02  0.00000000000E+00 0. -1.
         11    1    3    3    0    0  0.17817547391E+02 -0.17270565904E+02  0.12917360495E+02  0.27974910976E+02  0.51100000000E-03 0. -1.
        -11    1    3    3    0    0 -0.75608159038E+01  0.12571909484E+02  0.18466919001E+02  0.23584866819E+02  0.51100000000E-03 0.  1.
         12    1    3    3    0    0 -0.14045979382E+02 -0.36322071732E+01 -0.15046641271E+02  0.20901767373E+02  0.00000000000E+00 0. -1.
</event>
<event>
 7    1  0.1339094E-013  0.7246158E+02  0.7816164E-02  0.1226708E+00
        -11   -1    0    0    0    0  0.00000000000E+00  0.00000000000E+00  0.45593999997E+02  0.45594000000E+02  0.51100000000E-03 0.  1.
         11   -1    0    0    0    0 -0.00000000000E+00 -0.00000000000E+00 -0.45593999997E+02  0.45594000000E+02  0.51100000000E-03 0. -1.
    9900012    2    1    2    0    0 -0.18231224838E+01  0.28331304947E+01  0.18420867677E+02  0.72461580962E+02  0.70000013897E+02 0.  0.
         12    1    1    2    0    0  0.18231224838E+01 -0.28331304947E+01 -0.18420867677E+02  0.18726419038E+02  0.00000000000E+00 0. -1.
         11    1    3    3    0    0  0.29584346951E+02  0.58625985866E+00  0.10484833716E+02  0.31392818024E+02  0.51100000000E-03 0. -1.
        -11    1    3    3    0    0 -0.58127886533E+01  0.81665635404E+01  0.10689843300E+02  0.14654488119E+02  0.51100000000E-03 0.  1.
         12    1    3    3    0    0 -0.25594680782E+02 -0.59196929043E+01 -0.27538093387E+01  0.26414274820E+02  0.00000000000E+00 0. -1.
</event>
<event>
 7    1  0.1339094E-013  0.7246163E+02  0.7816164E-02  0.1226708E+00
        -11   -1    0    0    0    0  0.00000000000E+00  0.00000000000E+00  0.45593999997E+02  0.45594000000E+02  0.51100000000E-03 0. -1.
         11   -1    0    0    0    0 -0.00000000000E+00 -0.00000000000E+00 -0.45593999997E+02  0.45594000000E+02  0.51100000000E-03 0.  1.
    9900012    2    1    2    0    0  0.35651911137E+01 -0.17167407746E+02 -0.65762081437E+01  0.72461628490E+02  0.70000075811E+02 0.  0.
         12    1    1    2    0    0 -0.35651911137E+01  0.17167407746E+02  0.65762081437E+01  0.18726371510E+02  0.00000000000E+00 0. -1.
         11    1    3    3    0    0  0.82459412163E+01 -0.19086718671E+02 -0.29387291340E+01  0.20998440546E+02  0.51100000000E-03 0. -1.
        -11    1    3    3    0    0  0.50490617265E+01  0.11773279424E+02  0.20185758759E+02  0.23907488150E+02  0.51100000000E-03 0.  1.
        -12    1    3    3    0    0 -0.97298118291E+01 -0.98539684987E+01 -0.23823237768E+02  0.27555699795E+02  0.00000000000E+00 0.  1.
</event>
<event>
 7    1  0.1339094E-013  0.7246158E+02  0.7816164E-02  0.1226708E+00
        -11   -1    0    0    0    0  0.00000000000E+00  0.00000000000E+00  0.45593999997E+02  0.45594000000E+02  0.51100000000E-03 0.  1.
         11   -1    0    0    0    0 -0.00000000000E+00 -0.00000000000E+00 -0.45593999997E+02  0.45594000000E+02  0.51100000000E-03 0. -1.
    9900012    2    1    2    0    0  0.83918745635E+01 -0.15918939771E+02  0.51809733784E+01  0.72461583170E+02  0.70000016773E+02 0.  0.
         12    1    1    2    0    0 -0.83918745635E+01  0.15918939771E+02 -0.51809733784E+01  0.18726416830E+02  0.00000000000E+00 0. -1.
         11    1    3    3    0    0  0.33276361787E+01 -0.20128321090E+02 -0.23260521476E+02  0.30939850226E+02  0.51100000000E-03 0. -1.
        -11    1    3    3    0    0 -0.89278042541E+01 -0.75881632894E+01  0.86420928520E+01  0.14559247234E+02  0.51100000000E-03 0.  1.
         12    1    3    3    0    0  0.13992042639E+02  0.11797544608E+02  0.19799402003E+02  0.26962485710E+02  0.00000000000E+00 0. -1.
</event>
<event>
 7    1  0.1339094E-013  0.7246156E+02  0.7816164E-02  0.1226708E+00
        -11   -1    0    0    0    0  0.00000000000E+00  0.00000000000E+00  0.45593999997E+02  0.45594000000E+02  0.51100000000E-03 0.  1.
         11   -1    0    0    0    0 -0.00000000000E+00 -0.00000000000E+00 -0.45593999997E+02  0.45594000000E+02  0.51100000000E-03 0. -1.
    9900012    2    1    2    0    0  0.14689164948E+02  0.58583705734E+01  0.10029335693E+02  0.72461557543E+02  0.69999983389E+02 0.  0.
         12    1    1    2    0    0 -0.14689164948E+02 -0.58583705734E+01 -0.10029335693E+02  0.18726442457E+02  0.00000000000E+00 0. -1.
         11    1    3    3    0    0  0.28896622789E+02 -0.65373011582E+01 -0.65456325842E+01  0.30341331896E+02  0.51100000000E-03 0. -1.
        -11    1    3    3    0    0 -0.90704730814E+00 -0.52949785807E+01  0.19102571870E+02  0.19843582976E+02  0.51100000000E-03 0.  1.
         12    1    3    3    0    0 -0.13300410532E+02  0.17690650312E+02 -0.25276035932E+01  0.22276642671E+02  0.00000000000E+00 0. -1.
</event>
<event>
 8    1  0.1339094E-013  0.7246101E+02  0.7816164E-02  0.1226710E+00
        -11   -1    0    0    0    0  0.00000000000E+00  0.00000000000E+00  0.45593999997E+02  0.45594000000E+02  0.51100000000E-03 0.  1.
         11   -1    0    0    0    0 -0.00000000000E+00 -0.00000000000E+00 -0.45593999997E+02  0.45594000000E+02  0.51100000000E-03 0. -1.
    9900012    2    1    2    0    0 -0.15518358588E+02  0.25850394384E+01  0.10158659291E+02  0.72461007696E+02  0.69999267107E+02 0.  0.
         24    2    3    3    0    0 -0.28877744673E+02  0.33031384796E+01  0.46313303391E+01  0.57985503270E+02  0.49960329339E+02 0.  0.
         12    1    1    2    0    0  0.15518358588E+02 -0.25850394384E+01 -0.10158659291E+02  0.18726992304E+02  0.00000000000E+00 0. -1.
         11    1    3    3    0    0  0.13359386084E+02 -0.71809904126E+00  0.55273289515E+01  0.14475504426E+02  0.51100000000E-03 0. -1.
        -11    1    4    4    0    0 -0.27028860199E+02  0.15294741778E+02  0.21088216182E+02  0.37539329665E+02  0.51100000000E-03 0.  1.
         12    1    4    4    0    0 -0.18488844736E+01 -0.11991603298E+02 -0.16456885843E+02  0.20446173605E+02  0.00000000000E+00 0. -1.
</event>
<event>
 7    1  0.1339094E-013  0.7246153E+02  0.7816164E-02  0.1226708E+00
        -11   -1    0    0    0    0  0.00000000000E+00  0.00000000000E+00  0.45593999997E+02  0.45594000000E+02  0.51100000000E-03 0. -1.
         11   -1    0    0    0    0 -0.00000000000E+00 -0.00000000000E+00 -0.45593999997E+02  0.45594000000E+02  0.51100000000E-03 0.  1.
    9900012    2    1    2    0    0 -0.95422635683E+01 -0.72915302821E+01 -0.14368691886E+02  0.72461534387E+02  0.69999953224E+02 0.  0.
         12    1    1    2    0    0  0.95422635683E+01  0.72915302821E+01  0.14368691886E+02  0.18726465613E+02  0.00000000000E+00 0. -1.
         11    1    3    3    0    0 -0.17209856010E+02  0.53895024821E+01  0.47569671453E+01  0.18650861041E+02  0.51100000000E-03 0. -1.
        -11    1    3    3    0    0  0.17894756363E+02 -0.21051673683E+02  0.32534911179E+01  0.27820504576E+02  0.51100000000E-03 0.  1.
        -12    1    3    3    0    0 -0.10227163921E+02  0.83706409193E+01 -0.22379150149E+02  0.25990168769E+02  0.00000000000E+00 0.  1.
</event>
<event>
 7    1  0.1339094E-013  0.7246161E+02  0.7816164E-02  0.1226708E+00
        -11   -1    0    0    0    0  0.00000000000E+00  0.00000000000E+00  0.45593999997E+02  0.45594000000E+02  0.51100000000E-03 0. -1.
         11   -1    0    0    0    0 -0.00000000000E+00 -0.00000000000E+00 -0.45593999997E+02  0.45594000000E+02  0.51100000000E-03 0.  1.
    9900012    2    1    2    0    0 -0.10152963823E+02 -0.11159206387E+02 -0.11093566089E+02  0.72461607658E+02  0.70000048673E+02 0.  0.
         12    1    1    2    0    0  0.10152963823E+02  0.11159206387E+02  0.11093566089E+02  0.18726392342E+02  0.00000000000E+00 0. -1.
         11    1    3    3    0    0 -0.35702112523E+02 -0.58822098272E+00  0.67847371600E+01  0.36345831964E+02  0.51100000000E-03 0. -1.
        -11    1    3    3    0    0  0.19283747426E+02 -0.12097510718E+02 -0.76329672589E+01  0.24009891083E+02  0.51100000000E-03 0.  1.
         12    1    3    3    0    0  0.62654012749E+01  0.15265253137E+01 -0.10245335990E+02  0.12105884611E+02  0.00000000000E+00 0. -1.
</event>
<event>
 7    1  0.1339094E-013  0.7246153E+02  0.7816164E-02  0.1226708E+00
        -11   -1    0    0    0    0  0.00000000000E+00  0.00000000000E+00  0.45593999997E+02  0.45594000000E+02  0.51100000000E-03 0.  1.
         11   -1    0    0    0    0 -0.00000000000E+00 -0.00000000000E+00 -0.45593999997E+02  0.45594000000E+02  0.51100000000E-03 0. -1.
    9900012    2    1    2    0    0  0.53649192966E+01  0.16969239881E+02  0.58260731118E+01  0.72461532391E+02  0.69999950624E+02 0.  0.
         12    1    1    2    0    0 -0.53649192966E+01 -0.16969239881E+02 -0.58260731118E+01  0.18726467609E+02  0.00000000000E+00 0. -1.
         11    1    3    3    0    0 -0.12557469045E+02  0.63606847002E+01 -0.92268239315E+01  0.16831001717E+02  0.51100000000E-03 0. -1.
        -11    1    3    3    0    0  0.32337607087E+02 -0.32493308762E+01  0.14600586676E+02  0.35629427652E+02  0.51100000000E-03 0.  1.
        -12    1    3    3    0    0 -0.14415218745E+02  0.13857886057E+02  0.45231036743E+00  0.20001103022E+02  0.00000000000E+00 0.  1.
</event>
<event>
 7    1  0.1339094E-013  0.7246161E+02  0.7816164E-02  0.1226708E+00
        -11   -1    0    0    0    0  0.00000000000E+00  0.00000000000E+00  0.45593999997E+02  0.45594000000E+02  0.51100000000E-03 0.  1.
         11   -1    0    0    0    0 -0.00000000000E+00 -0.00000000000E+00 -0.45593999997E+02  0.45594000000E+02  0.51100000000E-03 0. -1.
    9900012    2    1    2    0    0  0.93586415542E+01  0.50424262510E+01  0.15416469162E+02  0.72461608044E+02  0.70000049177E+02 0.  0.
         12    1    1    2    0    0 -0.93586415542E+01 -0.50424262510E+01 -0.15416469162E+02  0.18726391956E+02  0.00000000000E+00 0. -1.
         11    1    3    3    0    0 -0.40929202931E+01 -0.44212258914E+01  0.16023242552E+02  0.17118514452E+02  0.51100000000E-03 0. -1.
        -11    1    3    3    0    0  0.32007801621E+02  0.10625713025E+02 -0.90568411147E+01  0.34920359579E+02  0.51100000000E-03 0.  1.
        -12    1    3    3    0    0 -0.18556239773E+02 -0.11620608826E+01  0.84500677249E+01  0.20422734013E+02  0.00000000000E+00 0.  1.
</event>
<event>
 7    1  0.1339094E-013  0.7246156E+02  0.7816164E-02  0.1226708E+00
        -11   -1    0    0    0    0  0.00000000000E+00  0.00000000000E+00  0.45593999997E+02  0.45594000000E+02  0.51100000000E-03 0.  1.
         11   -1    0    0    0    0 -0.00000000000E+00 -0.00000000000E+00 -0.45593999997E+02  0.45594000000E+02  0.51100000000E-03 0. -1.
    9900012    2    1    2    0    0  0.16865262421E+02  0.74912533042E+01 -0.31817353132E+01  0.72461564348E+02  0.69999992254E+02 0.  0.
         12    1    1    2    0    0 -0.16865262421E+02 -0.74912533042E+01  0.31817353132E+01  0.18726435652E+02  0.00000000000E+00 0. -1.
         11    1    3    3    0    0  0.86621478895E+01 -0.17218378052E+02  0.67724504482E+01  0.20429670436E+02  0.51100000000E-03 0. -1.
        -11    1    3    3    0    0  0.16493886221E+02  0.30831941435E+02  0.34356971926E+01  0.35134895912E+02  0.51100000000E-03 0.  1.
         12    1    3    3    0    0 -0.82907716886E+01 -0.61223100786E+01 -0.13389882954E+02  0.16896998000E+02  0.00000000000E+00 0. -1.
</event>
<event>
 7    1  0.1339094E-013  0.7246164E+02  0.7816164E-02  0.1226708E+00
        -11   -1    0    0    0    0  0.00000000000E+00  0.00000000000E+00  0.45593999997E+02  0.45594000000E+02  0.51100000000E-03 0.  1.
         11   -1    0    0    0    0 -0.00000000000E+00 -0.00000000000E+00 -0.45593999997E+02  0.45594000000E+02  0.51100000000E-03 0. -1.
    9900012    2    1    2    0    0 -0.11654335438E+02 -0.13781066883E+02  0.49935109168E+01  0.72461641832E+02  0.70000093192E+02 0.  0.
         12    1    1    2    0    0  0.11654335438E+02  0.13781066883E+02 -0.49935109168E+01  0.18726358168E+02  0.00000000000E+00 0. -1.
         11    1    3    3    0    0 -0.42735976061E+01  0.89894230410E+01  0.17059004301E+02  0.19750518756E+02  0.51100000000E-03 0. -1.
        -11    1    3    3    0    0  0.89937353158E+01 -0.26289595853E+02  0.56260600052E+01  0.28349297637E+02  0.51100000000E-03 0.  1.
         12    1    3    3    0    0 -0.16374473148E+02  0.35191059293E+01 -0.17691553390E+02  0.24361825440E+02  0.00000000000E+00 0. -1.
</event>
<event>
 7    1  0.1339094E-013  0.7246158E+02  0.7816164E-02  0.1226708E+00
        -11   -1    0    0    0    0  0.00000000000E+00  0.00000000000E+00  0.45593999997E+02  0.45594000000E+02  0.51100000000E-03 0. -1.
         11   -1    0    0    0    0 -0.00000000000E+00 -0.00000000000E+00 -0.45593999997E+02  0.45594000000E+02  0.51100000000E-03 0.  1.
    9900012    2    1    2    0    0  0.10719690280E+02  0.11860715423E+02 -0.97514408377E+01  0.72461576731E+02  0.70000008385E+02 0.  0.
         12    1    1    2    0    0 -0.10719690280E+02 -0.11860715423E+02  0.97514408377E+01  0.18726423269E+02  0.00000000000E+00 0. -1.
         11    1    3    3    0    0 -0.73621744681E+01  0.29391301538E+02  0.12080325290E+02  0.32618774937E+02  0.51100000000E-03 0. -1.
        -11    1    3    3    0    0  0.32032961232E+01 -0.17463102576E+02 -0.78037516444E+01  0.19393803073E+02  0.51100000000E-03 0.  1.
        -12    1    3    3    0    0  0.14878568625E+02 -0.67483539167E-01 -0.14028014484E+02  0.20448998721E+02  0.00000000000E+00 0.  1.
</event>
<event>
 7    1  0.1339094E-013  0.7246155E+02  0.7816164E-02  0.1226708E+00
        -11   -1    0    0    0    0  0.00000000000E+00  0.00000000000E+00  0.45593999997E+02  0.45594000000E+02  0.51100000000E-03 0.  1.
         11   -1    0    0    0    0 -0.00000000000E+00 -0.00000000000E+00 -0.45593999997E+02  0.45594000000E+02  0.51100000000E-03 0. -1.
    9900012    2    1    2    0    0  0.11748298910E+02  0.12539043321E+02  0.74451215207E+01  0.72461548944E+02  0.69999972188E+02 0.  0.
         12    1    1    2    0    0 -0.11748298910E+02 -0.12539043321E+02 -0.74451215207E+01  0.18726451056E+02  0.00000000000E+00 0. -1.
         11    1    3    3    0    0  0.15300624211E+01 -0.24266978277E+02 -0.96946037561E+01  0.26176567154E+02  0.51100000000E-03 0. -1.
        -11    1    3    3    0    0  0.75927348041E+01  0.14803085378E+02  0.17468909101E+02  0.24123510191E+02  0.51100000000E-03 0.  1.
         12    1    3    3    0    0  0.26255016851E+01  0.22002936221E+02 -0.32918382455E+00  0.22161471599E+02  0.00000000000E+00 0. -1.
</event>
<event>
 7    1  0.1339094E-013  0.7246151E+02  0.7816164E-02  0.1226708E+00
        -11   -1    0    0    0    0  0.00000000000E+00  0.00000000000E+00  0.45593999997E+02  0.45594000000E+02  0.51100000000E-03 0.  1.
         11   -1    0    0    0    0 -0.00000000000E+00 -0.00000000000E+00 -0.45593999997E+02  0.45594000000E+02  0.51100000000E-03 0. -1.
    9900012    2    1    2    0    0 -0.86243264162E+01 -0.16380091139E+02 -0.28275327709E+01  0.72461512518E+02  0.69999924735E+02 0.  0.
         12    1    1    2    0    0  0.86243264162E+01  0.16380091139E+02  0.28275327709E+01  0.18726487482E+02  0.00000000000E+00 0. -1.
         11    1    3    3    0    0  0.14304599927E+02  0.11787934251E+02 -0.12277997119E+02  0.22233447472E+02  0.51100000000E-03 0. -1.
        -11    1    3    3    0    0 -0.23957673646E+02 -0.30118226300E+01  0.50649402786E+01  0.24671741373E+02  0.51100000000E-03 0.  1.
         12    1    3    3    0    0  0.10287473025E+01 -0.25156202760E+02  0.43855240695E+01  0.25556323673E+02  0.00000000000E+00 0. -1.
</event>
<event>
 7    1  0.1339094E-013  0.7246156E+02  0.7816164E-02  0.1226708E+00
        -11   -1    0    0    0    0  0.00000000000E+00  0.00000000000E+00  0.45593999997E+02  0.45594000000E+02  0.51100000000E-03 0. -1.
         11   -1    0    0    0    0 -0.00000000000E+00 -0.00000000000E+00 -0.45593999997E+02  0.45594000000E+02  0.51100000000E-03 0.  1.
    9900012    2    1    2    0    0 -0.11674512542E+02  0.14342461760E+02  0.29460209972E+01  0.72461561680E+02  0.69999988778E+02 0.  0.
         12    1    1    2    0    0  0.11674512542E+02 -0.14342461760E+02 -0.29460209972E+01  0.18726438320E+02  0.00000000000E+00 0. -1.
         11    1    3    3    0    0 -0.99171264779E+01 -0.17813536181E+02 -0.42761822372E+01  0.20831639485E+02  0.51100000000E-03 0. -1.
        -11    1    3    3    0    0  0.18968344572E+02  0.14277771949E+02  0.28547561195E+01  0.23912392194E+02  0.51100000000E-03 0.  1.
         12    1    3    3    0    0 -0.20725730637E+02  0.17878225992E+02  0.43674471148E+01  0.27717530001E+02  0.00000000000E+00 0. -1.
</event>
<event>
 7    1  0.1339094E-013  0.7246160E+02  0.7816164E-02  0.1226708E+00
        -11   -1    0    0    0    0  0.00000000000E+00  0.00000000000E+00  0.45593999997E+02  0.45594000000E+02  0.51100000000E-03 0. -1.
         11   -1    0    0    0    0 -0.00000000000E+00 -0.00000000000E+00 -0.45593999997E+02  0.45594000000E+02  0.51100000000E-03 0.  1.
    9900012    2    1    2    0    0 -0.16027404360E+02  0.65180841029E+01 -0.71634356096E+01  0.72461603640E+02  0.70000043439E+02 0.  0.
         12    1    1    2    0    0  0.16027404360E+02 -0.65180841029E+01  0.71634356096E+01  0.18726396360E+02  0.00000000000E+00 0. -1.
         11    1    3    3    0    0 -0.42997405039E+01  0.16554705728E+02  0.25219746827E+02  0.30472638226E+02  0.51100000000E-03 0. -1.
        -11    1    3    3    0    0  0.38113854798E+01 -0.17137498040E+01 -0.20036153413E+02  0.20467316422E+02  0.51100000000E-03 0.  1.
         12    1    3    3    0    0 -0.15539049336E+02 -0.83228718211E+01 -0.12347029023E+02  0.21521648992E+02  0.00000000000E+00 0. -1.
</event>
<event>
 7    1  0.1339094E-013  0.7246153E+02  0.7816164E-02  0.1226708E+00
        -11   -1    0    0    0    0  0.00000000000E+00  0.00000000000E+00  0.45593999997E+02  0.45594000000E+02  0.51100000000E-03 0.  1.
         11   -1    0    0    0    0 -0.00000000000E+00 -0.00000000000E+00 -0.45593999997E+02  0.45594000000E+02  0.51100000000E-03 0. -1.
    9900012    2    1    2    0    0  0.15337371041E+02  0.35118933514E+00  0.10738818594E+02  0.72461534525E+02  0.69999953403E+02 0.  0.
         12    1    1    2    0    0 -0.15337371041E+02 -0.35118933514E+00 -0.10738818594E+02  0.18726465475E+02  0.00000000000E+00 0. -1.
         11    1    3    3    0    0 -0.18002015761E+01 -0.29762390910E+01  0.25161426815E+02  0.25400711101E+02  0.51100000000E-03 0.  1.
        -11    1    3    3    0    0  0.24490106097E+02 -0.50591405415E+01 -0.22219560310E+02  0.33452489598E+02  0.51100000000E-03 0. -1.
         12    1    3    3    0    0 -0.73525334801E+01  0.83865689677E+01  0.77969520893E+01  0.13608333826E+02  0.00000000000E+00 0. -1.
</event>
<event>
 7    1  0.1339094E-013  0.7246151E+02  0.7816164E-02  0.1226708E+00
        -11   -1    0    0    0    0  0.00000000000E+00  0.00000000000E+00  0.45593999997E+02  0.45594000000E+02  0.51100000000E-03 0. -1.
         11   -1    0    0    0    0 -0.00000000000E+00 -0.00000000000E+00 -0.45593999997E+02  0.45594000000E+02  0.51100000000E-03 0.  1.
    9900012    2    1    2    0    0 -0.15422153618E+02  0.35623485923E+01  0.10007413421E+02  0.72461508788E+02  0.69999919877E+02 0.  0.
         12    1    1    2    0    0  0.15422153618E+02 -0.35623485923E+01 -0.10007413421E+02  0.18726491212E+02  0.00000000000E+00 0. -1.
         11    1    3    3    0    0 -0.19362045996E+02 -0.14863161486E+02  0.24481734775E+02  0.34571053388E+02  0.51100000000E-03 0. -1.
        -11    1    3    3    0    0  0.64606919493E-01  0.12356647571E+02 -0.23376011397E+02  0.26441044275E+02  0.51100000000E-03 0.  1.
         12    1    3    3    0    0  0.38752854587E+01  0.60688625067E+01  0.89016900429E+01  0.11449411126E+02  0.00000000000E+00 0. -1.
</event>
<event>
 7    1  0.1339094E-013  0.7246155E+02  0.7816164E-02  0.1226708E+00
        -11   -1    0    0    0    0  0.00000000000E+00  0.00000000000E+00  0.45593999997E+02  0.45594000000E+02  0.51100000000E-03 0. -1.
         11   -1    0    0    0    0 -0.00000000000E+00 -0.00000000000E+00 -0.45593999997E+02  0.45594000000E+02  0.51100000000E-03 0.  1.
    9900012    2    1    2    0    0 -0.17006769291E+02  0.75731559958E+01  0.20241004504E+01  0.72461551429E+02  0.69999975424E+02 0.  0.
         12    1    1    2    0    0  0.17006769291E+02 -0.75731559958E+01 -0.20241004504E+01  0.18726448571E+02  0.00000000000E+00 0. -1.
         11    1    3    3    0    0  0.34318212037E+01  0.60193574380E+01  0.10798653826E+02  0.12830470976E+02  0.51100000000E-03 0. -1.
        -11    1    3    3    0    0 -0.33971324160E+02  0.51509771285E+01  0.10389826319E+02  0.35896126836E+02  0.51100000000E-03 0.  1.
        -12    1    3    3    0    0  0.13532733665E+02 -0.35971785707E+01 -0.19164379695E+02  0.23734953617E+02  0.00000000000E+00 0.  1.
</event>
<event>
 7    1  0.1339094E-013  0.7246159E+02  0.7816164E-02  0.1226708E+00
        -11   -1    0    0    0    0  0.00000000000E+00  0.00000000000E+00  0.45593999997E+02  0.45594000000E+02  0.51100000000E-03 0.  1.
         11   -1    0    0    0    0 -0.00000000000E+00 -0.00000000000E+00 -0.45593999997E+02  0.45594000000E+02  0.51100000000E-03 0. -1.
    9900012    2    1    2    0    0  0.17789434444E+02 -0.48451462635E+01  0.32770606700E+01  0.72461586922E+02  0.70000021660E+02 0.  0.
         12    1    1    2    0    0 -0.17789434444E+02  0.48451462635E+01 -0.32770606700E+01  0.18726413078E+02  0.00000000000E+00 0. -1.
         11    1    3    3    0    0  0.64933942491E+01 -0.29416393452E+01 -0.49636223834E+01  0.86864813554E+01  0.51100000000E-03 0.  1.
        -11    1    3    3    0    0 -0.14018980785E+02 -0.23422949255E+02 -0.54551677038E+01  0.27837478855E+02  0.51100000000E-03 0. -1.
        -12    1    3    3    0    0  0.25315020979E+02  0.21519442337E+02  0.13695850757E+02  0.35937626711E+02  0.00000000000E+00 0.  1.
</event>
<event>
 7    1  0.1339094E-013  0.7246157E+02  0.7816164E-02  0.1226708E+00
        -11   -1    0    0    0    0  0.00000000000E+00  0.00000000000E+00  0.45593999997E+02  0.45594000000E+02  0.51100000000E-03 0.  1.
         11   -1    0    0    0    0 -0.00000000000E+00 -0.00000000000E+00 -0.45593999997E+02  0.45594000000E+02  0.51100000000E-03 0. -1.
    9900012    2    1    2    0    0  0.10159334155E+02  0.17417481418E+01 -0.15634371503E+02  0.72461566026E+02  0.69999994440E+02 0.  0.
         12    1    1    2    0    0 -0.10159334155E+02 -0.17417481418E+01  0.15634371503E+02  0.18726433974E+02  0.00000000000E+00 0. -1.
         11    1    3    3    0    0  0.35261418344E+02  0.10526971998E+02 -0.13753115214E+02  0.39285276395E+02  0.51100000000E-03 0. -1.
        -11    1    3    3    0    0 -0.12961316129E+02  0.56286399143E+01 -0.23501886021E+01  0.14324827741E+02  0.51100000000E-03 0.  1.
         12    1    3    3    0    0 -0.12140768060E+02 -0.14413863771E+02  0.46893231337E+00  0.18851461890E+02  0.00000000000E+00 0. -1.
</event>
<event>
 7    1  0.1339094E-013  0.7246157E+02  0.7816164E-02  0.1226708E+00
        -11   -1    0    0    0    0  0.00000000000E+00  0.00000000000E+00  0.45593999997E+02  0.45594000000E+02  0.51100000000E-03 0.  1.
         11   -1    0    0    0    0 -0.00000000000E+00 -0.00000000000E+00 -0.45593999997E+02  0.45594000000E+02  0.51100000000E-03 0. -1.
    9900012    2    1    2    0    0  0.13531265025E+02  0.11923645860E+02 -0.50408899918E+01  0.72461573868E+02  0.70000004655E+02 0.  0.
         12    1    1    2    0    0 -0.13531265025E+02 -0.11923645860E+02  0.50408899918E+01  0.18726426132E+02  0.00000000000E+00 0. -1.
         11    1    3    3    0    0 -0.17334317826E+02 -0.54391353915E+01 -0.24645086232E+02  0.30617691682E+02  0.51100000000E-03 0. -1.
        -11    1    3    3    0    0  0.60969751727E+01  0.16536497851E+01 -0.41824771238E+00  0.63310816831E+01  0.51100000000E-03 0.  1.
         12    1    3    3    0    0  0.24768607678E+02  0.15709131466E+02  0.20022443952E+02  0.35512800503E+02  0.00000000000E+00 0. -1.
</event>
<event>
 7    1  0.1339094E-013  0.7246163E+02  0.7816164E-02  0.1226708E+00
        -11   -1    0    0    0    0  0.00000000000E+00  0.00000000000E+00  0.45593999997E+02  0.45594000000E+02  0.51100000000E-03 0.  1.
         11   -1    0    0    0    0 -0.00000000000E+00 -0.00000000000E+00 -0.45593999997E+02  0.45594000000E+02  0.51100000000E-03 0. -1.
    9900012    2    1    2    0    0  0.95138215959E+01 -0.14077314247E+02  0.78735781786E+01  0.72461633265E+02  0.70000082030E+02 0.  0.
         12    1    1    2    0    0 -0.95138215959E+01  0.14077314247E+02 -0.78735781786E+01  0.18726366735E+02  0.00000000000E+00 0. -1.
         11    1    3    3    0    0 -0.60682777061E+01  0.29246560087E+01 -0.12356014824E+02  0.14072977996E+02  0.51100000000E-03 0. -1.
        -11    1    3    3    0    0  0.86510828331E+01 -0.17972147684E+02  0.35988146148E+02  0.41145910975E+02  0.51100000000E-03 0.  1.
        -12    1    3    3    0    0  0.69310164689E+01  0.97017742759E+00 -0.15758553145E+02  0.17242744293E+02  0.00000000000E+00 0.  1.
</event>
<event>
 7    1  0.1339094E-013  0.7246157E+02  0.7816164E-02  0.1226708E+00
        -11   -1    0    0    0    0  0.00000000000E+00  0.00000000000E+00  0.45593999997E+02  0.45594000000E+02  0.51100000000E-03 0. -1.
         11   -1    0    0    0    0 -0.00000000000E+00 -0.00000000000E+00 -0.45593999997E+02  0.45594000000E+02  0.51100000000E-03 0.  1.
    9900012    2    1    2    0    0  0.76228426897E+01  0.56810938103E+01 -0.16133707682E+02  0.72461572655E+02  0.70000003075E+02 0.  0.
         12    1    1    2    0    0 -0.76228426897E+01 -0.56810938103E+01  0.16133707682E+02  0.18726427345E+02  0.00000000000E+00 0. -1.
         11    1    3    3    0    0  0.15551510582E+02  0.27434971265E+02 -0.62137687209E+01  0.32142464929E+02  0.51100000000E-03 0.  1.
        -11    1    3    3    0    0 -0.13604632886E+02 -0.23100813242E+02 -0.16535785230E+02  0.31498663493E+02  0.51100000000E-03 0. -1.
         12    1    3    3    0    0  0.56759649931E+01  0.13469357870E+01  0.66158462689E+01  0.88204442332E+01  0.00000000000E+00 0. -1.
</event>
<event>
 7    1  0.1339094E-013  0.7246151E+02  0.7816164E-02  0.1226708E+00
        -11   -1    0    0    0    0  0.00000000000E+00  0.00000000000E+00  0.45593999997E+02  0.45594000000E+02  0.51100000000E-03 0.  1.
         11   -1    0    0    0    0 -0.00000000000E+00 -0.00000000000E+00 -0.45593999997E+02  0.45594000000E+02  0.51100000000E-03 0. -1.
    9900012    2    1    2    0    0  0.61475808019E+01 -0.16781221166E+02  0.55927825743E+01  0.72461512063E+02  0.69999924143E+02 0.  0.
         12    1    1    2    0    0 -0.61475808019E+01  0.16781221166E+02 -0.55927825743E+01  0.18726487937E+02  0.00000000000E+00 0. -1.
         11    1    3    3    0    0  0.24967761591E+02 -0.29818129413E+02  0.13534219701E+02  0.41178696722E+02  0.51100000000E-03 0. -1.
        -11    1    3    3    0    0 -0.12409674506E+02  0.10076115340E+02  0.48216623053E+01  0.16696602928E+02  0.51100000000E-03 0.  1.
         12    1    3    3    0    0 -0.64105062833E+01  0.29607929067E+01 -0.12763099432E+02  0.14586212413E+02  0.00000000000E+00 0. -1.
</event>
<event>
 7    1  0.1339094E-013  0.7246155E+02  0.7816164E-02  0.1226708E+00
        -11   -1    0    0    0    0  0.00000000000E+00  0.00000000000E+00  0.45593999997E+02  0.45594000000E+02  0.51100000000E-03 0.  1.
         11   -1    0    0    0    0 -0.00000000000E+00 -0.00000000000E+00 -0.45593999997E+02  0.45594000000E+02  0.51100000000E-03 0. -1.
    9900012    2    1    2    0    0  0.72091316917E+01 -0.35078375758E+01  0.16923462436E+02  0.72461545850E+02  0.69999968157E+02 0.  0.
         12    1    1    2    0    0 -0.72091316917E+01  0.35078375758E+01 -0.16923462436E+02  0.18726454150E+02  0.00000000000E+00 0. -1.
         11    1    3    3    0    0 -0.55283490331E+01 -0.10121473059E+02 -0.12361384813E+02  0.16905936669E+02  0.51100000000E-03 0. -1.
        -11    1    3    3    0    0  0.50795974347E+01  0.25493465098E+02  0.11168865168E+02  0.28292448148E+02  0.51100000000E-03 0.  1.
        -12    1    3    3    0    0  0.76578832901E+01 -0.18879829615E+02  0.18115982080E+02  0.27263161033E+02  0.00000000000E+00 0.  1.
</event>
<event>
 7    1  0.1339094E-013  0.7246156E+02  0.7816164E-02  0.1226708E+00
        -11   -1    0    0    0    0  0.00000000000E+00  0.00000000000E+00  0.45593999997E+02  0.45594000000E+02  0.51100000000E-03 0. -1.
         11   -1    0    0    0    0 -0.00000000000E+00 -0.00000000000E+00 -0.45593999997E+02  0.45594000000E+02  0.51100000000E-03 0.  1.
    9900012    2    1    2    0    0 -0.11836009776E+02 -0.13987613236E+02 -0.38645892492E+01  0.72461561430E+02  0.69999988452E+02 0.  0.
         12    1    1    2    0    0  0.11836009776E+02  0.13987613236E+02  0.38645892492E+01  0.18726438570E+02  0.00000000000E+00 0. -1.
         11    1    3    3    0    0  0.25414156135E+01  0.54162305782E+01  0.18761478107E+02  0.19692318503E+02  0.51100000000E-03 0. -1.
        -11    1    3    3    0    0 -0.15261127290E+01 -0.12771873544E+02 -0.32703906001E+02  0.35142499083E+02  0.51100000000E-03 0.  1.
        -12    1    3    3    0    0 -0.12851312661E+02 -0.66319702704E+01  0.10077838644E+02  0.17626743843E+02  0.00000000000E+00 0.  1.
</event>
<event>
 7    1  0.1339094E-013  0.7246160E+02  0.7816164E-02  0.1226708E+00
        -11   -1    0    0    0    0  0.00000000000E+00  0.00000000000E+00  0.45593999997E+02  0.45594000000E+02  0.51100000000E-03 0.  1.
         11   -1    0    0    0    0 -0.00000000000E+00 -0.00000000000E+00 -0.45593999997E+02  0.45594000000E+02  0.51100000000E-03 0. -1.
    9900012    2    1    2    0    0  0.12197742134E+02 -0.54488663575E+01  0.13122617811E+02  0.72461597357E+02  0.70000035254E+02 0.  0.
         12    1    1    2    0    0 -0.12197742134E+02  0.54488663575E+01 -0.13122617811E+02  0.18726402643E+02  0.00000000000E+00 0. -1.
         11    1    3    3    0    0  0.10713332249E+02 -0.67664634242E-01 -0.19490495130E+01  0.10889392115E+02  0.51100000000E-03 0. -1.
        -11    1    3    3    0    0 -0.11770132898E+02  0.22710679033E+02  0.16564597938E+02  0.30474528309E+02  0.51100000000E-03 0.  1.
        -12    1    3    3    0    0  0.13254542783E+02 -0.28091880756E+02 -0.14929306144E+01  0.31097676932E+02  0.00000000000E+00 0.  1.
</event>
<event>
 7    1  0.1339094E-013  0.7246159E+02  0.7816164E-02  0.1226708E+00
        -11   -1    0    0    0    0  0.00000000000E+00  0.00000000000E+00  0.45593999997E+02  0.45594000000E+02  0.51100000000E-03 0.  1.
         11   -1    0    0    0    0 -0.00000000000E+00 -0.00000000000E+00 -0.45593999997E+02  0.45594000000E+02  0.51100000000E-03 0. -1.
    9900012    2    1    2    0    0  0.18061986831E+02  0.28733805837E+01  0.40232588654E+01  0.72461593614E+02  0.70000030378E+02 0.  0.
         12    1    1    2    0    0 -0.18061986831E+02 -0.28733805837E+01 -0.40232588654E+01  0.18726406386E+02  0.00000000000E+00 0. -1.
         11    1    3    3    0    0 -0.12367207329E+02  0.17729355872E+02  0.22709223901E+02  0.31352619144E+02  0.51100000000E-03 0. -1.
        -11    1    3    3    0    0  0.10495906676E+02  0.54263717117E+00 -0.15005875033E+01  0.10616509556E+02  0.51100000000E-03 0.  1.
         12    1    3    3    0    0  0.19933287484E+02 -0.15398612460E+02 -0.17185377532E+02  0.30492464913E+02  0.00000000000E+00 0. -1.
</event>
<event>
 8    1  0.1339094E-013  0.7246158E+02  0.7816164E-02  0.1226708E+00
        -11   -1    0    0    0    0  0.00000000000E+00  0.00000000000E+00  0.45593999997E+02  0.45594000000E+02  0.51100000000E-03 0. -1.
         11   -1    0    0    0    0 -0.00000000000E+00 -0.00000000000E+00 -0.45593999997E+02  0.45594000000E+02  0.51100000000E-03 0.  1.
    9900012    2    1    2    0    0  0.15354911970E+02 -0.10036683972E+02 -0.37643644846E+01  0.72461580514E+02  0.70000013313E+02 0.  0.
        -24    2    3    3    0    0  0.16696567729E+01 -0.75789943031E+01  0.40989153890E+01  0.56487926613E+02  0.55801933992E+02 0.  0.
         12    1    1    2    0    0 -0.15354911970E+02  0.10036683972E+02  0.37643644846E+01  0.18726419486E+02  0.00000000000E+00 0. -1.
         11    1    4    4    0    0 -0.19998212360E+02 -0.21349000827E+02  0.84504508862E+01  0.30448619909E+02  0.51100000000E-03 0. -1.
        -11    1    3    3    0    0  0.13685255198E+02 -0.24576896692E+01 -0.78632798736E+01  0.15973653901E+02  0.51100000000E-03 0.  1.
        -12    1    4    4    0    0  0.21667869133E+02  0.13770006524E+02 -0.43515354972E+01  0.26039306704E+02  0.00000000000E+00 0.  1.
</event>
<event>
 7    1  0.1339094E-013  0.7246166E+02  0.7816164E-02  0.1226708E+00
        -11   -1    0    0    0    0  0.00000000000E+00  0.00000000000E+00  0.45593999997E+02  0.45594000000E+02  0.51100000000E-03 0.  1.
         11   -1    0    0    0    0 -0.00000000000E+00 -0.00000000000E+00 -0.45593999997E+02  0.45594000000E+02  0.51100000000E-03 0. -1.
    9900012    2    1    2    0    0  0.37622473688E+01 -0.73047381462E+01  0.16827418186E+02  0.72461662732E+02  0.70000120418E+02 0.  0.
         12    1    1    2    0    0 -0.37622473688E+01  0.73047381462E+01 -0.16827418186E+02  0.18726337268E+02  0.00000000000E+00 0. -1.
         11    1    3    3    0    0  0.19166105706E+02  0.28398381965E+01 -0.12435188318E+01  0.19415216410E+02  0.51100000000E-03 0. -1.
        -11    1    3    3    0    0 -0.85916465219E+01  0.17698239485E+02  0.13881614797E+02  0.24077859134E+02  0.51100000000E-03 0.  1.
        -12    1    3    3    0    0 -0.68122118150E+01 -0.27842815828E+02  0.41893222213E+01  0.28968587189E+02  0.00000000000E+00 0.  1.
</event>
<event>
 7    1  0.1339094E-013  0.7246159E+02  0.7816164E-02  0.1226708E+00
        -11   -1    0    0    0    0  0.00000000000E+00  0.00000000000E+00  0.45593999997E+02  0.45594000000E+02  0.51100000000E-03 0. -1.
         11   -1    0    0    0    0 -0.00000000000E+00 -0.00000000000E+00 -0.45593999997E+02  0.45594000000E+02  0.51100000000E-03 0.  1.
    9900012    2    1    2    0    0  0.14386651800E+02 -0.11682108587E+02 -0.26890254265E+01  0.72461594344E+02  0.70000031329E+02 0.  0.
         12    1    1    2    0    0 -0.14386651800E+02  0.11682108587E+02  0.26890254265E+01  0.18726405656E+02  0.00000000000E+00 0. -1.
         11    1    3    3    0    0 -0.13392030233E+01 -0.11723218559E+02  0.31468711418E+02  0.33608140631E+02  0.51100000000E-03 0. -1.
        -11    1    3    3    0    0  0.60910356510E+00  0.19143586873E+01 -0.10679444504E+02  0.10866752574E+02  0.51100000000E-03 0.  1.
         12    1    3    3    0    0  0.15116751259E+02 -0.18732487148E+01 -0.23478292341E+02  0.27986701138E+02  0.00000000000E+00 0. -1.
</event>
<event>
 7    1  0.1339094E-013  0.7246158E+02  0.7816164E-02  0.1226708E+00
        -11   -1    0    0    0    0  0.00000000000E+00  0.00000000000E+00  0.45593999997E+02  0.45594000000E+02  0.51100000000E-03 0. -1.
         11   -1    0    0    0    0 -0.00000000000E+00 -0.00000000000E+00 -0.45593999997E+02  0.45594000000E+02  0.51100000000E-03 0.  1.
    9900012    2    1    2    0    0  0.17163422972E+02  0.19831132959E+01 -0.72223880970E+01  0.72461582396E+02  0.70000015765E+02 0.  0.
         12    1    1    2    0    0 -0.17163422972E+02 -0.19831132959E+01  0.72223880970E+01  0.18726417604E+02  0.00000000000E+00 0. -1.
         11    1    3    3    0    0  0.25326734785E+02  0.23201843561E+02 -0.27704105934E+01  0.34459312451E+02  0.51100000000E-03 0. -1.
        -11    1    3    3    0    0  0.79672480407E+01 -0.19526492604E+02 -0.53532146006E+01  0.21758167698E+02  0.51100000000E-03 0.  1.
         12    1    3    3    0    0 -0.16130559854E+02 -0.16922376609E+01  0.90123709693E+00  0.16244102247E+02  0.00000000000E+00 0. -1.
</event>
<event>
 7    1  0.1339094E-013  0.7246148E+02  0.7816164E-02  0.1226708E+00
        -11   -1    0    0    0    0  0.00000000000E+00  0.00000000000E+00  0.45593999997E+02  0.45594000000E+02  0.51100000000E-03 0.  1.
         11   -1    0    0    0    0 -0.00000000000E+00 -0.00000000000E+00 -0.45593999997E+02  0.45594000000E+02  0.51100000000E-03 0. -1.
    9900012    2    1    2    0    0 -0.10370034884E+02 -0.15592552629E+02 -0.13179505246E+00  0.72461476272E+02  0.69999877518E+02 0.  0.
         12    1    1    2    0    0  0.10370034884E+02  0.15592552629E+02  0.13179505246E+00  0.18726523728E+02  0.00000000000E+00 0. -1.
         11    1    3    3    0    0 -0.17309400106E+02 -0.10301076022E+02 -0.23793351343E+02  0.31174525941E+02  0.51100000000E-03 0. -1.
        -11    1    3    3    0    0 -0.88502774374E+01 -0.10639372431E+02  0.19829873284E+02  0.24181553531E+02  0.51100000000E-03 0.  1.
         12    1    3    3    0    0  0.15789642659E+02  0.53478958241E+01  0.38316830070E+01  0.17105396800E+02  0.00000000000E+00 0. -1.
</event>
<event>
 7    1  0.1339094E-013  0.7246155E+02  0.7816164E-02  0.1226708E+00
        -11   -1    0    0    0    0  0.00000000000E+00  0.00000000000E+00  0.45593999997E+02  0.45594000000E+02  0.51100000000E-03 0.  1.
         11   -1    0    0    0    0 -0.00000000000E+00 -0.00000000000E+00 -0.45593999997E+02  0.45594000000E+02  0.51100000000E-03 0. -1.
    9900012    2    1    2    0    0 -0.11368668549E+02  0.12583655063E+02  0.79426038492E+01  0.72461549316E+02  0.69999972671E+02 0.  0.
         12    1    1    2    0    0  0.11368668549E+02 -0.12583655063E+02 -0.79426038492E+01  0.18726450684E+02  0.00000000000E+00 0. -1.
         11    1    3    3    0    0 -0.24115505758E+02  0.73217431852E+01 -0.23618112942E+02  0.34539554144E+02  0.51100000000E-03 0. -1.
        -11    1    3    3    0    0 -0.19853393541E+01  0.58810433599E+01  0.10821065431E+02  0.12474922872E+02  0.51100000000E-03 0.  1.
         12    1    3    3    0    0  0.14732176564E+02 -0.61913148163E+00  0.20739651360E+02  0.25447072300E+02  0.00000000000E+00 0. -1.
</event>
<event>
 7    1  0.1339094E-013  0.7246155E+02  0.7816164E-02  0.1226708E+00
        -11   -1    0    0    0    0  0.00000000000E+00  0.00000000000E+00  0.45593999997E+02  0.45594000000E+02  0.51100000000E-03 0.  1.
         11   -1    0    0    0    0 -0.00000000000E+00 -0.00000000000E+00 -0.45593999997E+02  0.45594000000E+02  0.51100000000E-03 0. -1.
    9900012    2    1    2    0    0 -0.10694749554E+01  0.85700889359E+01  0.16615953205E+02  0.72461545398E+02  0.69999967568E+02 0.  0.
         12    1    1    2    0    0  0.10694749554E+01 -0.85700889359E+01 -0.16615953205E+02  0.18726454602E+02  0.00000000000E+00 0. -1.
         11    1    3    3    0    0 -0.27447229463E+02  0.39264144539E+01 -0.11249660011E+02  0.29921931526E+02  0.51100000000E-03 0. -1.
        -11    1    3    3    0    0  0.14600533029E+02  0.87231894757E+01  0.24142143634E+02  0.29531554292E+02  0.51100000000E-03 0.  1.
        -12    1    3    3    0    0  0.11777221478E+02 -0.40795149936E+01  0.37234695815E+01  0.13008059581E+02  0.00000000000E+00 0.  1.
</event>
<event>
 7    1  0.1339094E-013  0.7246157E+02  0.7816164E-02  0.1226708E+00
        -11   -1    0    0    0    0  0.00000000000E+00  0.00000000000E+00  0.45593999997E+02  0.45594000000E+02  0.51100000000E-03 0. -1.
         11   -1    0    0    0    0 -0.00000000000E+00 -0.00000000000E+00 -0.45593999997E+02  0.45594000000E+02  0.51100000000E-03 0.  1.
    9900012    2    1    2    0    0 -0.14140257131E+02 -0.91544464329E+01 -0.81809680730E+01  0.72461574825E+02  0.70000005902E+02 0.  0.
         12    1    1    2    0    0  0.14140257131E+02  0.91544464329E+01  0.81809680730E+01  0.18726425175E+02  0.00000000000E+00 0. -1.
         11    1    3    3    0    0  0.68779714547E+01  0.82353365927E+01  0.65962733586E+01  0.12595161079E+02  0.51100000000E-03 0. -1.
        -11    1    3    3    0    0 -0.83575160619E+01 -0.35128286258E+02 -0.74077043331E+01  0.36860801048E+02  0.51100000000E-03 0.  1.
        -12    1    3    3    0    0 -0.12660712524E+02  0.17738503233E+02 -0.73695370985E+01  0.23005612698E+02  0.00000000000E+00 0.  1.
</event>
<event>
 7    1  0.1339094E-013  0.7246161E+02  0.7816164E-02  0.1226708E+00
        -11   -1    0    0    0    0  0.00000000000E+00  0.00000000000E+00  0.45593999997E+02  0.45594000000E+02  0.51100000000E-03 0. -1.
         11   -1    0    0    0    0 -0.00000000000E+00 -0.00000000000E+00 -0.45593999997E+02  0.45594000000E+02  0.51100000000E-03 0.  1.
    9900012    2    1    2    0    0 -0.34552763387E+01  0.18225262556E+02 -0.25648469726E+01  0.72461613008E+02  0.70000055642E+02 0.  0.
         12    1    1    2    0    0  0.34552763387E+01 -0.18225262556E+02  0.25648469726E+01  0.18726386992E+02  0.00000000000E+00 0. -1.
         11    1    3    3    0    0  0.48133747767E-01 -0.13892439737E+02 -0.16035834529E+02  0.21216743106E+02  0.51100000000E-03 0. -1.
        -11    1    3    3    0    0  0.74518834020E+01  0.13870083043E+02 -0.10701526139E+02  0.19037658255E+02  0.51100000000E-03 0.  1.
         12    1    3    3    0    0 -0.10955293488E+02  0.18247619250E+02  0.24172513696E+02  0.32207211647E+02  0.00000000000E+00 0. -1.
</event>
<event>
 7    1  0.1339094E-013  0.7246151E+02  0.7816164E-02  0.1226708E+00
        -11   -1    0    0    0    0  0.00000000000E+00  0.00000000000E+00  0.45593999997E+02  0.45594000000E+02  0.51100000000E-03 0.  1.
         11   -1    0    0    0    0 -0.00000000000E+00 -0.00000000000E+00 -0.45593999997E+02  0.45594000000E+02  0.51100000000E-03 0. -1.
    9900012    2    1    2    0    0 -0.15144454550E+02 -0.93833009849E+01  0.57689423006E+01  0.72461507102E+02  0.69999917680E+02 0.  0.
         12    1    1    2    0    0  0.15144454550E+02  0.93833009849E+01 -0.57689423006E+01  0.18726492898E+02  0.00000000000E+00 0. -1.
         11    1    3    3    0    0  0.13192090220E+02  0.15678288003E+02  0.54565595529E+01  0.21204103412E+02  0.51100000000E-03 0. -1.
        -11    1    3    3    0    0 -0.94365436522E+01 -0.20215498238E+02  0.14958839266E+02  0.26860409482E+02  0.51100000000E-03 0.  1.
         12    1    3    3    0    0 -0.18900001118E+02 -0.48460907497E+01 -0.14646456518E+02  0.24396994207E+02  0.00000000000E+00 0. -1.
</event>
<event>
 7    1  0.1339094E-013  0.7246147E+02  0.7816164E-02  0.1226708E+00
        -11   -1    0    0    0    0  0.00000000000E+00  0.00000000000E+00  0.45593999997E+02  0.45594000000E+02  0.51100000000E-03 0.  1.
         11   -1    0    0    0    0 -0.00000000000E+00 -0.00000000000E+00 -0.45593999997E+02  0.45594000000E+02  0.51100000000E-03 0. -1.
    9900012    2    1    2    0    0 -0.18508765456E+02 -0.20598524438E+01  0.19660560028E+01  0.72461474241E+02  0.69999874873E+02 0.  0.
         12    1    1    2    0    0  0.18508765456E+02  0.20598524438E+01 -0.19660560028E+01  0.18726525759E+02  0.00000000000E+00 0. -1.
         11    1    3    3    0    0  0.10842906497E+02  0.67523524275E+01 -0.33461204596E+01  0.13204522217E+02  0.51100000000E-03 0. -1.
        -11    1    3    3    0    0 -0.42740628789E+02 -0.46906561878E+00  0.43799222555E+00  0.42745446649E+02  0.51100000000E-03 0.  1.
        -12    1    3    3    0    0  0.13388956836E+02 -0.83431392525E+01  0.48741842369E+01  0.16511505374E+02  0.00000000000E+00 0.  1.
</event>
<event>
 7    1  0.1339094E-013  0.7246157E+02  0.7816164E-02  0.1226708E+00
        -11   -1    0    0    0    0  0.00000000000E+00  0.00000000000E+00  0.45593999997E+02  0.45594000000E+02  0.51100000000E-03 0.  1.
         11   -1    0    0    0    0 -0.00000000000E+00 -0.00000000000E+00 -0.45593999997E+02  0.45594000000E+02  0.51100000000E-03 0. -1.
    9900012    2    1    2    0    0 -0.11799586307E+02  0.13571175129E+02  0.52222760229E+01  0.72461569527E+02  0.69999999000E+02 0.  0.
         12    1    1    2    0    0  0.11799586307E+02 -0.13571175129E+02 -0.52222760229E+01  0.18726430473E+02  0.00000000000E+00 0. -1.
         11    1    3    3    0    0 -0.28678047530E+02 -0.50342361636E+00 -0.15501618699E+02  0.32603435831E+02  0.51100000000E-03 0. -1.
        -11    1    3    3    0    0 -0.26762850723E+01  0.12576370507E+02  0.14277212767E+02  0.19213703484E+02  0.51100000000E-03 0.  1.
         12    1    3    3    0    0  0.19554746295E+02  0.14982282385E+01  0.64466819556E+01  0.20644430211E+02  0.00000000000E+00 0. -1.
</event>
<event>
 7    1  0.1339094E-013  0.7246154E+02  0.7816164E-02  0.1226708E+00
        -11   -1    0    0    0    0  0.00000000000E+00  0.00000000000E+00  0.45593999997E+02  0.45594000000E+02  0.51100000000E-03 0. -1.
         11   -1    0    0    0    0 -0.00000000000E+00 -0.00000000000E+00 -0.45593999997E+02  0.45594000000E+02  0.51100000000E-03 0.  1.
    9900012    2    1    2    0    0  0.21015429719E+01  0.64690354534E+01 -0.17447509324E+02  0.72461535193E+02  0.69999954274E+02 0.  0.
         12    1    1    2    0    0 -0.21015429719E+01 -0.64690354534E+01  0.17447509324E+02  0.18726464807E+02  0.00000000000E+00 0. -1.
         11    1    3    3    0    0 -0.97278367273E+01 -0.85340566673E+01  0.17864417864E+02  0.22058974511E+02  0.51100000000E-03 0. -1.
        -11    1    3    3    0    0  0.20020022725E+02  0.87184057919E+01 -0.12021326020E+02  0.24926375368E+02  0.51100000000E-03 0.  1.
         12    1    3    3    0    0 -0.81906430258E+01  0.62846863288E+01 -0.23290601167E+02  0.25476185314E+02  0.00000000000E+00 0. -1.
</event>
<event>
 7    1  0.1339094E-013  0.7246156E+02  0.7816164E-02  0.1226708E+00
        -11   -1    0    0    0    0  0.00000000000E+00  0.00000000000E+00  0.45593999997E+02  0.45594000000E+02  0.51100000000E-03 0. -1.
         11   -1    0    0    0    0 -0.00000000000E+00 -0.00000000000E+00 -0.45593999997E+02  0.45594000000E+02  0.51100000000E-03 0.  1.
    9900012    2    1    2    0    0  0.85722959858E+01 -0.16456492979E+02  0.25257113286E+01  0.72461557803E+02  0.69999983728E+02 0.  0.
         12    1    1    2    0    0 -0.85722959858E+01  0.16456492979E+02 -0.25257113286E+01  0.18726442197E+02  0.00000000000E+00 0. -1.
         11    1    3    3    0    0  0.26231285052E+02 -0.12567095518E+02 -0.23125898261E+02  0.37159378034E+02  0.51100000000E-03 0.  1.
        -11    1    3    3    0    0 -0.10204811674E+02 -0.88974566461E+00  0.25259513909E+02  0.27257528719E+02  0.51100000000E-03 0. -1.
        -12    1    3    3    0    0 -0.74541773923E+01 -0.29996517965E+01  0.39209568038E+00  0.80446510502E+01  0.00000000000E+00 0.  1.
</event>
<event>
 7    1  0.1339094E-013  0.7246159E+02  0.7816164E-02  0.1226708E+00
        -11   -1    0    0    0    0  0.00000000000E+00  0.00000000000E+00  0.45593999997E+02  0.45594000000E+02  0.51100000000E-03 0.  1.
         11   -1    0    0    0    0 -0.00000000000E+00 -0.00000000000E+00 -0.45593999997E+02  0.45594000000E+02  0.51100000000E-03 0. -1.
    9900012    2    1    2    0    0  0.15010398826E+02 -0.54707467051E+01  0.97692095043E+01  0.72461585587E+02  0.70000019922E+02 0.  0.
         12    1    1    2    0    0 -0.15010398826E+02  0.54707467051E+01 -0.97692095043E+01  0.18726414413E+02  0.00000000000E+00 0. -1.
         11    1    3    3    0    0 -0.92305082454E+01  0.12888891746E+01 -0.10419290309E+02  0.13979453801E+02  0.51100000000E-03 0. -1.
        -11    1    3    3    0    0  0.18664421492E+01  0.31081967388E+01  0.31380180767E+02  0.31588925884E+02  0.51100000000E-03 0.  1.
        -12    1    3    3    0    0  0.22374464922E+02 -0.98678326186E+01 -0.11191680954E+02  0.26893205902E+02  0.00000000000E+00 0.  1.
</event>
<event>
 7    1  0.1339094E-013  0.7246160E+02  0.7816164E-02  0.1226708E+00
        -11   -1    0    0    0    0  0.00000000000E+00  0.00000000000E+00  0.45593999997E+02  0.45594000000E+02  0.51100000000E-03 0. -1.
         11   -1    0    0    0    0 -0.00000000000E+00 -0.00000000000E+00 -0.45593999997E+02  0.45594000000E+02  0.51100000000E-03 0.  1.
    9900012    2    1    2    0    0 -0.92151805855E+01  0.13325105272E+02 -0.93914971783E+01  0.72461596101E+02  0.70000033618E+02 0.  0.
         12    1    1    2    0    0  0.92151805855E+01 -0.13325105272E+02  0.93914971783E+01  0.18726403899E+02  0.00000000000E+00 0. -1.
         11    1    3    3    0    0  0.97083281258E+01  0.31129795340E+02  0.87752536295E+01  0.33768637365E+02  0.51100000000E-03 0.  1.
        -11    1    3    3    0    0 -0.60946370320E+01 -0.10437022704E+02  0.33858335608E+01  0.12551490455E+02  0.51100000000E-03 0. -1.
         12    1    3    3    0    0 -0.12828871679E+02 -0.73676673645E+01 -0.21552584369E+02  0.26141468282E+02  0.00000000000E+00 0. -1.
</event>
<event>
 7    1  0.1339094E-013  0.7246183E+02  0.7816164E-02  0.1226707E+00
        -11   -1    0    0    0    0  0.00000000000E+00  0.00000000000E+00  0.45593999997E+02  0.45594000000E+02  0.51100000000E-03 0. -1.
         11   -1    0    0    0    0 -0.00000000000E+00 -0.00000000000E+00 -0.45593999997E+02  0.45594000000E+02  0.51100000000E-03 0.  1.
    9900012    2    1    2    0    0 -0.13850158891E+02  0.75679238387E+01 -0.10078154819E+02  0.72461826417E+02  0.70000333646E+02 0.  0.
         12    1    1    2    0    0  0.13850158891E+02 -0.75679238387E+01  0.10078154819E+02  0.18726173583E+02  0.00000000000E+00 0. -1.
         11    1    3    3    0    0 -0.22686657250E+02  0.18125224853E+02  0.19136087336E+02  0.34776400503E+02  0.51100000000E-03 0. -1.
        -11    1    3    3    0    0  0.24485082495E+00 -0.99270100081E+01 -0.27032608032E+02  0.28798739154E+02  0.51100000000E-03 0.  1.
         12    1    3    3    0    0  0.85916475347E+01 -0.63029100646E+00 -0.21816341227E+01  0.88866867593E+01  0.00000000000E+00 0. -1.
</event>
<event>
 7    1  0.1339094E-013  0.7246154E+02  0.7816164E-02  0.1226708E+00
        -11   -1    0    0    0    0  0.00000000000E+00  0.00000000000E+00  0.45593999997E+02  0.45594000000E+02  0.51100000000E-03 0.  1.
         11   -1    0    0    0    0 -0.00000000000E+00 -0.00000000000E+00 -0.45593999997E+02  0.45594000000E+02  0.51100000000E-03 0. -1.
    9900012    2    1    2    0    0  0.95214798269E+01 -0.14940090430E+02 -0.60675587787E+01  0.72461544123E+02  0.69999965908E+02 0.  0.
         12    1    1    2    0    0 -0.95214798269E+01  0.14940090430E+02  0.60675587787E+01  0.18726455877E+02  0.00000000000E+00 0. -1.
         11    1    3    3    0    0  0.26780730617E+01  0.50279950915E+01 -0.13487786886E+02  0.14641489177E+02  0.51100000000E-03 0. -1.
        -11    1    3    3    0    0 -0.21913494829E+02 -0.16243872412E+01  0.88303369336E+01  0.23681527404E+02  0.51100000000E-03 0.  1.
        -12    1    3    3    0    0  0.28756901594E+02 -0.18343698281E+02 -0.14101088263E+01  0.34138527543E+02  0.00000000000E+00 0.  1.
</event>
<event>
 7    1  0.1339094E-013  0.7246157E+02  0.7816164E-02  0.1226708E+00
        -11   -1    0    0    0    0  0.00000000000E+00  0.00000000000E+00  0.45593999997E+02  0.45594000000E+02  0.51100000000E-03 0.  1.
         11   -1    0    0    0    0 -0.00000000000E+00 -0.00000000000E+00 -0.45593999997E+02  0.45594000000E+02  0.51100000000E-03 0. -1.
    9900012    2    1    2    0    0 -0.14708220025E+02  0.11182342579E+02  0.30500477844E+01  0.72461566454E+02  0.69999994998E+02 0.  0.
         12    1    1    2    0    0  0.14708220025E+02 -0.11182342579E+02 -0.30500477844E+01  0.18726433546E+02  0.00000000000E+00 0. -1.
         11    1    3    3    0    0  0.60823302792E+01 -0.10445301589E+02  0.26569394264E+02  0.29189583394E+02  0.51100000000E-03 0. -1.
        -11    1    3    3    0    0 -0.56186584567E+00  0.93452688470E+01 -0.15825178214E+02  0.18387115294E+02  0.51100000000E-03 0.  1.
         12    1    3    3    0    0 -0.20228684458E+02  0.12282375321E+02 -0.76941682656E+01  0.24884867766E+02  0.00000000000E+00 0. -1.
</event>
<event>
 7    1  0.1339094E-013  0.7246157E+02  0.7816164E-02  0.1226708E+00
        -11   -1    0    0    0    0  0.00000000000E+00  0.00000000000E+00  0.45593999997E+02  0.45594000000E+02  0.51100000000E-03 0. -1.
         11   -1    0    0    0    0 -0.00000000000E+00 -0.00000000000E+00 -0.45593999997E+02  0.45594000000E+02  0.51100000000E-03 0.  1.
    9900012    2    1    2    0    0 -0.18673485874E+02 -0.14070525709E+01 -0.21956449485E-01  0.72461565376E+02  0.69999993593E+02 0.  0.
         12    1    1    2    0    0  0.18673485874E+02  0.14070525709E+01  0.21956449485E-01  0.18726434624E+02  0.00000000000E+00 0. -1.
         11    1    3    3    0    0  0.58530037707E+01 -0.25476278339E+02  0.61043576936E+01  0.26843278381E+02  0.51100000000E-03 0.  1.
        -11    1    3    3    0    0  0.27781258384E+01  0.16567221562E+02 -0.36757233656E+01  0.17195980808E+02  0.51100000000E-03 0. -1.
         12    1    3    3    0    0 -0.27304615483E+02  0.75020042066E+01 -0.24505907775E+01  0.28422306187E+02  0.00000000000E+00 0. -1.
</event>
<event>
 7    1  0.1339094E-013  0.7246159E+02  0.7816164E-02  0.1226708E+00
        -11   -1    0    0    0    0  0.00000000000E+00  0.00000000000E+00  0.45593999997E+02  0.45594000000E+02  0.51100000000E-03 0. -1.
         11   -1    0    0    0    0 -0.00000000000E+00 -0.00000000000E+00 -0.45593999997E+02  0.45594000000E+02  0.51100000000E-03 0.  1.
    9900012    2    1    2    0    0 -0.11224307962E+01  0.45028999906E+01 -0.18142287031E+02  0.72461587158E+02  0.70000021968E+02 0.  0.
         12    1    1    2    0    0  0.11224307962E+01 -0.45028999906E+01  0.18142287031E+02  0.18726412842E+02  0.00000000000E+00 0. -1.
         11    1    3    3    0    0  0.21959864732E+02 -0.19705405706E+02 -0.21969725352E+02  0.36785968866E+02  0.51100000000E-03 0. -1.
        -11    1    3    3    0    0 -0.71904135225E+01  0.15668705357E+02  0.37089953332E+01  0.17634257025E+02  0.51100000000E-03 0.  1.
         12    1    3    3    0    0 -0.15891882005E+02  0.85396003404E+01  0.11844298801E+00  0.18041361268E+02  0.00000000000E+00 0. -1.
</event>
<event>
 7    1  0.1339094E-013  0.7246186E+02  0.7816164E-02  0.1226707E+00
        -11   -1    0    0    0    0  0.00000000000E+00  0.00000000000E+00  0.45593999997E+02  0.45594000000E+02  0.51100000000E-03 0.  1.
         11   -1    0    0    0    0 -0.00000000000E+00 -0.00000000000E+00 -0.45593999997E+02  0.45594000000E+02  0.51100000000E-03 0. -1.
    9900012    2    1    2    0    0 -0.12798283152E+02 -0.11868800528E+02 -0.67826131664E+01  0.72461860009E+02  0.70000377406E+02 0.  0.
         12    1    1    2    0    0  0.12798283152E+02  0.11868800528E+02  0.67826131664E+01  0.18726139991E+02  0.00000000000E+00 0. -1.
         11    1    3    3    0    0  0.17400812343E+02  0.86941222547E+01  0.18291543818E+01  0.19537702986E+02  0.51100000000E-03 0. -1.
        -11    1    3    3    0    0 -0.14290280854E+02 -0.30346071078E+02 -0.55938110003E+01  0.34005688914E+02  0.51100000000E-03 0.  1.
         12    1    3    3    0    0 -0.15908814641E+02  0.97831482953E+01 -0.30179565478E+01  0.18918468109E+02  0.00000000000E+00 0. -1.
</event>
<event>
 7    1  0.1339094E-013  0.7246161E+02  0.7816164E-02  0.1226708E+00
        -11   -1    0    0    0    0  0.00000000000E+00  0.00000000000E+00  0.45593999997E+02  0.45594000000E+02  0.51100000000E-03 0. -1.
         11   -1    0    0    0    0 -0.00000000000E+00 -0.00000000000E+00 -0.45593999997E+02  0.45594000000E+02  0.51100000000E-03 0.  1.
    9900012    2    1    2    0    0 -0.40787879521E+01  0.18131438303E+02  0.23004697270E+01  0.72461608809E+02  0.70000050172E+02 0.  0.
         12    1    1    2    0    0  0.40787879521E+01 -0.18131438303E+02 -0.23004697270E+01  0.18726391191E+02  0.00000000000E+00 0. -1.
         11    1    3    3    0    0 -0.25064970811E+02  0.11282614755E+02  0.23475101223E+01  0.27587333353E+02  0.51100000000E-03 0. -1.
        -11    1    3    3    0    0  0.22317035534E+02  0.99711687516E+01  0.15511625255E+02  0.28949694292E+02  0.51100000000E-03 0.  1.
         12    1    3    3    0    0 -0.13308526742E+01 -0.31223452037E+01 -0.15558665651E+02  0.15924581164E+02  0.00000000000E+00 0. -1.
</event>
<event>
 7    1  0.1339094E-013  0.7246158E+02  0.7816164E-02  0.1226708E+00
        -11   -1    0    0    0    0  0.00000000000E+00  0.00000000000E+00  0.45593999997E+02  0.45594000000E+02  0.51100000000E-03 0. -1.
         11   -1    0    0    0    0 -0.00000000000E+00 -0.00000000000E+00 -0.45593999997E+02  0.45594000000E+02  0.51100000000E-03 0.  1.
    9900012    2    1    2    0    0 -0.60246884237E+01 -0.12409339713E+01 -0.17687339770E+02  0.72461580805E+02  0.70000013692E+02 0.  0.
         12    1    1    2    0    0  0.60246884237E+01  0.12409339713E+01  0.17687339770E+02  0.18726419195E+02  0.00000000000E+00 0. -1.
         11    1    3    3    0    0 -0.42285397060E+01 -0.19075393098E+02  0.12456697269E+02  0.23171544554E+02  0.51100000000E-03 0. -1.
        -11    1    3    3    0    0  0.87199151449E+01 -0.45615024005E+01 -0.20491108808E+02  0.22731690758E+02  0.51100000000E-03 0.  1.
         12    1    3    3    0    0 -0.10516063863E+02  0.22395961527E+02 -0.96529282318E+01  0.26558345493E+02  0.00000000000E+00 0. -1.
</event>
<event>
 7    1  0.1339094E-013  0.7246157E+02  0.7816164E-02  0.1226708E+00
        -11   -1    0    0    0    0  0.00000000000E+00  0.00000000000E+00  0.45593999997E+02  0.45594000000E+02  0.51100000000E-03 0.  1.
         11   -1    0    0    0    0 -0.00000000000E+00 -0.00000000000E+00 -0.45593999997E+02  0.45594000000E+02  0.51100000000E-03 0. -1.
    9900012    2    1    2    0    0  0.17674050246E+02  0.33943831370E+01  0.51754404332E+01  0.72461572880E+02  0.70000003369E+02 0.  0.
         12    1    1    2    0    0 -0.17674050246E+02 -0.33943831370E+01 -0.51754404332E+01  0.18726427120E+02  0.00000000000E+00 0. -1.
         11    1    3    3    0    0 -0.10860296824E+02  0.19855310818E+01 -0.68788980205E+01  0.13007982896E+02  0.51100000000E-03 0. -1.
        -11    1    3    3    0    0  0.26767968873E+02 -0.21041525496E+02  0.14076652490E+02  0.36843209664E+02  0.51100000000E-03 0.  1.
        -12    1    3    3    0    0  0.17663781980E+01  0.22450377552E+02 -0.20223140367E+01  0.22610380320E+02  0.00000000000E+00 0.  1.
</event>
<event>
 7    1  0.1339094E-013  0.7246155E+02  0.7816164E-02  0.1226708E+00
        -11   -1    0    0    0    0  0.00000000000E+00  0.00000000000E+00  0.45593999997E+02  0.45594000000E+02  0.51100000000E-03 0.  1.
         11   -1    0    0    0    0 -0.00000000000E+00 -0.00000000000E+00 -0.45593999997E+02  0.45594000000E+02  0.51100000000E-03 0. -1.
    9900012    2    1    2    0    0 -0.15636145857E+02  0.98226016704E+01 -0.31156358501E+01  0.72461554860E+02  0.69999979894E+02 0.  0.
         12    1    1    2    0    0  0.15636145857E+02 -0.98226016704E+01  0.31156358501E+01  0.18726445140E+02  0.00000000000E+00 0. -1.
         11    1    3    3    0    0  0.15155419211E+02 -0.15841125345E+02 -0.26208644436E+01  0.22079332289E+02  0.51100000000E-03 0. -1.
        -11    1    3    3    0    0 -0.32277639480E+02  0.26774168160E+02 -0.79637224747E+01  0.42686332320E+02  0.51100000000E-03 0.  1.
         12    1    3    3    0    0  0.14860744125E+01 -0.11104411447E+01  0.74689510683E+01  0.76958902510E+01  0.00000000000E+00 0. -1.
</event>
<event>
 7    1  0.1339094E-013  0.7246154E+02  0.7816164E-02  0.1226708E+00
        -11   -1    0    0    0    0  0.00000000000E+00  0.00000000000E+00  0.45593999997E+02  0.45594000000E+02  0.51100000000E-03 0.  1.
         11   -1    0    0    0    0 -0.00000000000E+00 -0.00000000000E+00 -0.45593999997E+02  0.45594000000E+02  0.51100000000E-03 0. -1.
    9900012    2    1    2    0    0 -0.10106971784E+02 -0.10039088152E+02  0.12155079217E+02  0.72461544907E+02  0.69999966929E+02 0.  0.
         12    1    1    2    0    0  0.10106971784E+02  0.10039088152E+02 -0.12155079217E+02  0.18726455093E+02  0.00000000000E+00 0. -1.
         11    1    3    3    0    0 -0.14164698180E+01 -0.11333181992E+02 -0.67055342051E+00  0.11441024559E+02  0.51100000000E-03 0. -1.
        -11    1    3    3    0    0 -0.31627225388E+02  0.49815787472E+01 -0.40983127118E+01  0.32278377901E+02  0.51100000000E-03 0.  1.
        -12    1    3    3    0    0  0.22936723422E+02 -0.36874849068E+01  0.16923945349E+02  0.28742142447E+02  0.00000000000E+00 0.  1.
</event>
<event>
 7    1  0.1339094E-013  0.7246160E+02  0.7816164E-02  0.1226708E+00
        -11   -1    0    0    0    0  0.00000000000E+00  0.00000000000E+00  0.45593999997E+02  0.45594000000E+02  0.51100000000E-03 0.  1.
         11   -1    0    0    0    0 -0.00000000000E+00 -0.00000000000E+00 -0.45593999997E+02  0.45594000000E+02  0.51100000000E-03 0. -1.
    9900012    2    1    2    0    0 -0.24505757730E+01  0.82076950624E+01  0.16652524543E+02  0.72461597422E+02  0.70000035339E+02 0.  0.
         12    1    1    2    0    0  0.24505757730E+01 -0.82076950624E+01 -0.16652524543E+02  0.18726402578E+02  0.00000000000E+00 0. -1.
         11    1    3    3    0    0  0.82333353036E+01 -0.12209910936E+02 -0.15575105788E+02  0.21434870091E+02  0.51100000000E-03 0. -1.
        -11    1    3    3    0    0 -0.97861516675E+00  0.26723692751E+02  0.16230517016E+02  0.31281673944E+02  0.51100000000E-03 0.  1.
        -12    1    3    3    0    0 -0.97052959099E+01 -0.63060867529E+01  0.15997113315E+02  0.19745053387E+02  0.00000000000E+00 0.  1.
</event>
<event>
 7    1  0.1339094E-013  0.7246158E+02  0.7816164E-02  0.1226708E+00
        -11   -1    0    0    0    0  0.00000000000E+00  0.00000000000E+00  0.45593999997E+02  0.45594000000E+02  0.51100000000E-03 0.  1.
         11   -1    0    0    0    0 -0.00000000000E+00 -0.00000000000E+00 -0.45593999997E+02  0.45594000000E+02  0.51100000000E-03 0. -1.
    9900012    2    1    2    0    0  0.15168627496E+02 -0.10974140785E+02  0.39962956766E+00  0.72461582034E+02  0.70000015293E+02 0.  0.
         12    1    1    2    0    0 -0.15168627496E+02  0.10974140785E+02 -0.39962956766E+00  0.18726417966E+02  0.00000000000E+00 0. -1.
         11    1    3    3    0    0  0.10230803305E+02 -0.38688300350E+02 -0.59052910285E+01  0.40451531277E+02  0.51100000000E-03 0.  1.
        -11    1    3    3    0    0  0.24770092883E+01  0.28081798142E+02  0.76107017591E+01  0.29200098346E+02  0.51100000000E-03 0. -1.
        -12    1    3    3    0    0  0.24608149021E+01 -0.36763857641E+00 -0.13057811629E+01  0.28099524108E+01  0.00000000000E+00 0.  1.
</event>
<event>
 7    1  0.1339094E-013  0.7246159E+02  0.7816164E-02  0.1226708E+00
        -11   -1    0    0    0    0  0.00000000000E+00  0.00000000000E+00  0.45593999997E+02  0.45594000000E+02  0.51100000000E-03 0. -1.
         11   -1    0    0    0    0 -0.00000000000E+00 -0.00000000000E+00 -0.45593999997E+02  0.45594000000E+02  0.51100000000E-03 0.  1.
    9900012    2    1    2    0    0  0.81759935292E+01 -0.33384529259E+01 -0.16513217544E+02  0.72461588390E+02  0.70000023573E+02 0.  0.
         12    1    1    2    0    0 -0.81759935292E+01  0.33384529259E+01  0.16513217544E+02  0.18726411610E+02  0.00000000000E+00 0. -1.
         11    1    3    3    0    0 -0.13549376031E+02 -0.53215988624E+01 -0.50640711690E+01  0.15412651373E+02  0.51100000000E-03 0.  1.
        -11    1    3    3    0    0  0.21533676216E+02  0.24856798385E+02 -0.48590015251E+01  0.33244090203E+02  0.51100000000E-03 0. -1.
        -12    1    3    3    0    0  0.19169334380E+00 -0.22873652448E+02 -0.65901448503E+01  0.23804846814E+02  0.00000000000E+00 0.  1.
</event>
<event>
 7    1  0.1339094E-013  0.7246165E+02  0.7816164E-02  0.1226708E+00
        -11   -1    0    0    0    0  0.00000000000E+00  0.00000000000E+00  0.45593999997E+02  0.45594000000E+02  0.51100000000E-03 0.  1.
         11   -1    0    0    0    0 -0.00000000000E+00 -0.00000000000E+00 -0.45593999997E+02  0.45594000000E+02  0.51100000000E-03 0. -1.
    9900012    2    1    2    0    0 -0.60864217149E+00  0.12836774458E+02  0.13620687555E+02  0.72461645490E+02  0.70000097956E+02 0.  0.
         12    1    1    2    0    0  0.60864217149E+00 -0.12836774458E+02 -0.13620687555E+02  0.18726354510E+02  0.00000000000E+00 0. -1.
         11    1    3    3    0    0  0.16915407013E+02  0.27122008855E+02  0.22995849987E+02  0.39376940913E+02  0.51100000000E-03 0. -1.
        -11    1    3    3    0    0  0.17448976069E+01 -0.12208018524E+02 -0.41577139343E+01  0.13014106553E+02  0.51100000000E-03 0.  1.
         12    1    3    3    0    0 -0.19268946791E+02 -0.20772158735E+01 -0.52174484978E+01  0.20070598024E+02  0.00000000000E+00 0. -1.
</event>
<event>
 7    1  0.1339094E-013  0.7246142E+02  0.7816164E-02  0.1226708E+00
        -11   -1    0    0    0    0  0.00000000000E+00  0.00000000000E+00  0.45593999997E+02  0.45594000000E+02  0.51100000000E-03 0.  1.
         11   -1    0    0    0    0 -0.00000000000E+00 -0.00000000000E+00 -0.45593999997E+02  0.45594000000E+02  0.51100000000E-03 0. -1.
    9900012    2    1    2    0    0 -0.14318295208E+01 -0.47220547330E+01  0.18064797479E+02  0.72461418768E+02  0.69999802608E+02 0.  0.
         12    1    1    2    0    0  0.14318295208E+01  0.47220547330E+01 -0.18064797479E+02  0.18726581232E+02  0.00000000000E+00 0. -1.
         11    1    3    3    0    0  0.24091084238E+01 -0.12493126060E+02 -0.96245024334E+00  0.12759636080E+02  0.51100000000E-03 0.  1.
        -11    1    3    3    0    0  0.19265567896E+02  0.77213631783E+01  0.28051865059E+02  0.34895396391E+02  0.51100000000E-03 0. -1.
        -12    1    3    3    0    0 -0.23106505841E+02  0.49708148731E-01 -0.90246173364E+01  0.24806386298E+02  0.00000000000E+00 0.  1.
</event>
<event>
 7    1  0.1339094E-013  0.7246171E+02  0.7816164E-02  0.1226708E+00
        -11   -1    0    0    0    0  0.00000000000E+00  0.00000000000E+00  0.45593999997E+02  0.45594000000E+02  0.51100000000E-03 0.  1.
         11   -1    0    0    0    0 -0.00000000000E+00 -0.00000000000E+00 -0.45593999997E+02  0.45594000000E+02  0.51100000000E-03 0. -1.
    9900012    2    1    2    0    0  0.11887791334E+02 -0.32414804402E+00  0.14465450784E+02  0.72461710428E+02  0.70000182550E+02 0.  0.
         12    1    1    2    0    0 -0.11887791334E+02  0.32414804402E+00 -0.14465450784E+02  0.18726289572E+02  0.00000000000E+00 0. -1.
         11    1    3    3    0    0  0.97650875750E+01 -0.65446676527E+01  0.25721911599E+01  0.12033527233E+02  0.51100000000E-03 0. -1.
        -11    1    3    3    0    0  0.46099368142E+01  0.31656625530E+02 -0.56603536703E+00  0.31995528652E+02  0.51100000000E-03 0.  1.
        -12    1    3    3    0    0 -0.24872330554E+01 -0.25436105922E+02  0.12459294991E+02  0.28432654544E+02  0.00000000000E+00 0.  1.
</event>
<event>
 7    1  0.1339094E-013  0.7246153E+02  0.7816164E-02  0.1226708E+00
        -11   -1    0    0    0    0  0.00000000000E+00  0.00000000000E+00  0.45593999997E+02  0.45594000000E+02  0.51100000000E-03 0.  1.
         11   -1    0    0    0    0 -0.00000000000E+00 -0.00000000000E+00 -0.45593999997E+02  0.45594000000E+02  0.51100000000E-03 0. -1.
    9900012    2    1    2    0    0  0.12016880376E+00  0.17890263467E+02  0.55321496666E+01  0.72461530834E+02  0.69999948596E+02 0.  0.
         12    1    1    2    0    0 -0.12016880376E+00 -0.17890263467E+02 -0.55321496666E+01  0.18726469166E+02  0.00000000000E+00 0. -1.
         11    1    3    3    0    0  0.71033146893E+01  0.40580577723E+01  0.65938400789E+00  0.82072955345E+01  0.51100000000E-03 0. -1.
        -11    1    3    3    0    0 -0.20619457267E+02 -0.16358355183E+02  0.14109072546E+02  0.29863417933E+02  0.51100000000E-03 0.  1.
        -12    1    3    3    0    0  0.13636311382E+02  0.30190560878E+02 -0.92363068876E+01  0.34390817367E+02  0.00000000000E+00 0.  1.
</event>
<event>
 7    1  0.1339094E-013  0.7246163E+02  0.7816164E-02  0.1226708E+00
        -11   -1    0    0    0    0  0.00000000000E+00  0.00000000000E+00  0.45593999997E+02  0.45594000000E+02  0.51100000000E-03 0. -1.
         11   -1    0    0    0    0 -0.00000000000E+00 -0.00000000000E+00 -0.45593999997E+02  0.45594000000E+02  0.51100000000E-03 0.  1.
    9900012    2    1    2    0    0 -0.15048804978E+02 -0.30267747328E+01 -0.10726094482E+02  0.72461628238E+02  0.70000075482E+02 0.  0.
         12    1    1    2    0    0  0.15048804978E+02  0.30267747328E+01  0.10726094482E+02  0.18726371762E+02  0.00000000000E+00 0. -1.
         11    1    3    3    0    0  0.16659660440E+02  0.43525129955E+01 -0.96295003356E+01  0.19728556265E+02  0.51100000000E-03 0. -1.
        -11    1    3    3    0    0 -0.41373677127E+02 -0.78419814679E+01  0.30179812532E+01  0.42218314076E+02  0.51100000000E-03 0.  1.
        -12    1    3    3    0    0  0.96652117096E+01  0.46269373963E+00 -0.41145754000E+01  0.10514757896E+02  0.00000000000E+00 0.  1.
</event>
<event>
 7    1  0.1339094E-013  0.7246158E+02  0.7816164E-02  0.1226708E+00
        -11   -1    0    0    0    0  0.00000000000E+00  0.00000000000E+00  0.45593999997E+02  0.45594000000E+02  0.51100000000E-03 0. -1.
         11   -1    0    0    0    0 -0.00000000000E+00 -0.00000000000E+00 -0.45593999997E+02  0.45594000000E+02  0.51100000000E-03 0.  1.
    9900012    2    1    2    0    0  0.70194657259E+01 -0.18179794437E+01 -0.17265592350E+02  0.72461584766E+02  0.70000018851E+02 0.  0.
         12    1    1    2    0    0 -0.70194657259E+01  0.18179794437E+01  0.17265592350E+02  0.18726415234E+02  0.00000000000E+00 0. -1.
         11    1    3    3    0    0  0.20725099439E+01  0.20277387071E+02  0.30640891996E+01  0.20612044216E+02  0.51100000000E-03 0. -1.
        -11    1    3    3    0    0 -0.14827169447E+02 -0.99671980170E+01 -0.22293911143E+02  0.28569362338E+02  0.51100000000E-03 0.  1.
        -12    1    3    3    0    0  0.19774125229E+02 -0.12128168497E+02  0.19642295929E+01  0.23280178211E+02  0.00000000000E+00 0.  1.
</event>
<event>
 7    1  0.1339094E-013  0.7246161E+02  0.7816164E-02  0.1226708E+00
        -11   -1    0    0    0    0  0.00000000000E+00  0.00000000000E+00  0.45593999997E+02  0.45594000000E+02  0.51100000000E-03 0.  1.
         11   -1    0    0    0    0 -0.00000000000E+00 -0.00000000000E+00 -0.45593999997E+02  0.45594000000E+02  0.51100000000E-03 0. -1.
    9900012    2    1    2    0    0  0.10339214509E+02  0.15612741346E+02  0.14425802312E+00  0.72461605276E+02  0.70000045570E+02 0.  0.
         12    1    1    2    0    0 -0.10339214509E+02 -0.15612741346E+02 -0.14425802312E+00  0.18726394724E+02  0.00000000000E+00 0. -1.
         11    1    3    3    0    0  0.85856836435E+00 -0.49331267407E+01  0.15225144606E+02  0.16027411132E+02  0.51100000000E-03 0.  1.
        -11    1    3    3    0    0  0.46776928658E+00 -0.78035721391E+01 -0.24110573109E+02  0.25346287345E+02  0.51100000000E-03 0. -1.
        -12    1    3    3    0    0  0.90128768582E+01  0.28349440225E+02  0.90296865267E+01  0.31087906799E+02  0.00000000000E+00 0.  1.
</event>
<event>
 7    1  0.1339094E-013  0.7246157E+02  0.7816164E-02  0.1226708E+00
        -11   -1    0    0    0    0  0.00000000000E+00  0.00000000000E+00  0.45593999997E+02  0.45594000000E+02  0.51100000000E-03 0. -1.
         11   -1    0    0    0    0 -0.00000000000E+00 -0.00000000000E+00 -0.45593999997E+02  0.45594000000E+02  0.51100000000E-03 0.  1.
    9900012    2    1    2    0    0  0.26790699543E+01  0.15425805822E+02 -0.10273568579E+02  0.72461571818E+02  0.70000001985E+02 0.  0.
         12    1    1    2    0    0 -0.26790699543E+01 -0.15425805822E+02  0.10273568579E+02  0.18726428182E+02  0.00000000000E+00 0. -1.
         11    1    3    3    0    0  0.21422618680E+02  0.11035129665E+02  0.94721662982E+01  0.25892559017E+02  0.51100000000E-03 0. -1.
        -11    1    3    3    0    0 -0.15359896887E+02  0.19771693358E+02 -0.17758230622E+02  0.30695293543E+02  0.51100000000E-03 0.  1.
        -12    1    3    3    0    0 -0.33836518384E+01 -0.15381017201E+02 -0.19875042557E+01  0.15873719258E+02  0.00000000000E+00 0.  1.
</event>
<event>
 7    1  0.1339094E-013  0.7246182E+02  0.7816164E-02  0.1226707E+00
        -11   -1    0    0    0    0  0.00000000000E+00  0.00000000000E+00  0.45593999997E+02  0.45594000000E+02  0.51100000000E-03 0.  1.
         11   -1    0    0    0    0 -0.00000000000E+00 -0.00000000000E+00 -0.45593999997E+02  0.45594000000E+02  0.51100000000E-03 0. -1.
    9900012    2    1    2    0    0  0.17008523631E+02  0.75719624254E+01  0.20112691210E+01  0.72461823279E+02  0.70000329559E+02 0.  0.
         12    1    1    2    0    0 -0.17008523631E+02 -0.75719624254E+01 -0.20112691210E+01  0.18726176721E+02  0.00000000000E+00 0. -1.
         11    1    3    3    0    0  0.56726931025E+01  0.29033039341E+02 -0.12146636466E+01  0.29606962500E+02  0.51100000000E-03 0. -1.
        -11    1    3    3    0    0 -0.16222747578E+01 -0.28113915848E+02  0.17734242561E+01  0.28216468127E+02  0.51100000000E-03 0.  1.
        -12    1    3    3    0    0  0.12958105287E+02  0.66528389321E+01  0.14525085114E+01  0.14638392653E+02  0.00000000000E+00 0.  1.
</event>
<event>
 7    1  0.1339094E-013  0.7246158E+02  0.7816164E-02  0.1226708E+00
        -11   -1    0    0    0    0  0.00000000000E+00  0.00000000000E+00  0.45593999997E+02  0.45594000000E+02  0.51100000000E-03 0. -1.
         11   -1    0    0    0    0 -0.00000000000E+00 -0.00000000000E+00 -0.45593999997E+02  0.45594000000E+02  0.51100000000E-03 0.  1.
    9900012    2    1    2    0    0 -0.15559694454E+02 -0.10141146217E+02  0.23941558399E+01  0.72461576949E+02  0.70000008669E+02 0.  0.
         12    1    1    2    0    0  0.15559694454E+02  0.10141146217E+02 -0.23941558399E+01  0.18726423051E+02  0.00000000000E+00 0. -1.
         11    1    3    3    0    0  0.14043551967E+02 -0.17124566815E+02 -0.10177742509E+01  0.22169979818E+02  0.51100000000E-03 0.  1.
        -11    1    3    3    0    0 -0.37476908836E+02  0.11045942708E+02  0.86253452213E+01  0.40011599901E+02  0.51100000000E-03 0. -1.
         12    1    3    3    0    0  0.78736624145E+01 -0.40625221097E+01 -0.52134151305E+01  0.10279997229E+02  0.00000000000E+00 0. -1.
</event>
<event>
 7    1  0.1339094E-013  0.7246096E+02  0.7816164E-02  0.1226710E+00
        -11   -1    0    0    0    0  0.00000000000E+00  0.00000000000E+00  0.45593999997E+02  0.45594000000E+02  0.51100000000E-03 0.  1.
         11   -1    0    0    0    0 -0.00000000000E+00 -0.00000000000E+00 -0.45593999997E+02  0.45594000000E+02  0.51100000000E-03 0. -1.
    9900012    2    1    2    0    0  0.31468243103E+01 -0.73883333170E+01  0.16917807258E+02  0.72460956057E+02  0.69999199837E+02 0.  0.
         12    1    1    2    0    0 -0.31468243103E+01  0.73883333170E+01 -0.16917807258E+02  0.18727043943E+02  0.00000000000E+00 0. -1.
         11    1    3    3    0    0 -0.18204000000E+02 -0.25643089512E+02  0.32827557620E+01  0.31618509475E+02  0.51100000000E-03 0. -1.
        -11    1    3    3    0    0  0.10495125881E+02  0.23810305773E+02  0.11557787183E+02  0.28472105175E+02  0.51100000000E-03 0.  1.
         12    1    3    3    0    0  0.10855698430E+02 -0.55555495777E+01  0.20772643123E+01  0.12370341407E+02  0.00000000000E+00 0. -1.
</event>
<event>
 7    1  0.1339094E-013  0.7246156E+02  0.7816164E-02  0.1226708E+00
        -11   -1    0    0    0    0  0.00000000000E+00  0.00000000000E+00  0.45593999997E+02  0.45594000000E+02  0.51100000000E-03 0. -1.
         11   -1    0    0    0    0 -0.00000000000E+00 -0.00000000000E+00 -0.45593999997E+02  0.45594000000E+02  0.51100000000E-03 0.  1.
    9900012    2    1    2    0    0  0.99518831481E+01 -0.82695151249E+01  0.13537156862E+02  0.72461562151E+02  0.69999989392E+02 0.  0.
         12    1    1    2    0    0 -0.99518831481E+01  0.82695151249E+01 -0.13537156862E+02  0.18726437849E+02  0.00000000000E+00 0. -1.
         11    1    3    3    0    0 -0.24131140660E+01 -0.12045339669E+02 -0.20827056907E+02  0.24180149439E+02  0.51100000000E-03 0.  1.
        -11    1    3    3    0    0  0.10549544767E+02  0.17302720525E+02  0.20732481017E+02  0.28991598813E+02  0.51100000000E-03 0. -1.
         12    1    3    3    0    0  0.18154524471E+01 -0.13526895980E+02  0.13631732752E+02  0.19289813899E+02  0.00000000000E+00 0. -1.
</event>
<event>
 7    1  0.1339094E-013  0.7246161E+02  0.7816164E-02  0.1226708E+00
        -11   -1    0    0    0    0  0.00000000000E+00  0.00000000000E+00  0.45593999997E+02  0.45594000000E+02  0.51100000000E-03 0. -1.
         11   -1    0    0    0    0 -0.00000000000E+00 -0.00000000000E+00 -0.45593999997E+02  0.45594000000E+02  0.51100000000E-03 0.  1.
    9900012    2    1    2    0    0 -0.69588159335E+01  0.43588467981E-01 -0.17385362070E+02  0.72461605968E+02  0.70000046472E+02 0.  0.
         12    1    1    2    0    0  0.69588159335E+01 -0.43588467981E-01  0.17385362070E+02  0.18726394032E+02  0.00000000000E+00 0. -1.
         11    1    3    3    0    0  0.11732237137E+02 -0.11351558274E+02 -0.19408894680E+02  0.25361554693E+02  0.51100000000E-03 0.  1.
        -11    1    3    3    0    0 -0.81939351196E+01  0.21487832183E+02  0.15114037547E+02  0.27519114010E+02  0.51100000000E-03 0. -1.
        -12    1    3    3    0    0 -0.10497117950E+02 -0.10092685441E+02 -0.13090504936E+02  0.19580937265E+02  0.00000000000E+00 0.  1.
</event>
<event>
 7    1  0.1339094E-013  0.7246158E+02  0.7816164E-02  0.1226708E+00
        -11   -1    0    0    0    0  0.00000000000E+00  0.00000000000E+00  0.45593999997E+02  0.45594000000E+02  0.51100000000E-03 0.  1.
         11   -1    0    0    0    0 -0.00000000000E+00 -0.00000000000E+00 -0.45593999997E+02  0.45594000000E+02  0.51100000000E-03 0. -1.
    9900012    2    1    2    0    0  0.99093092009E+01  0.64654341943E+01  0.14514909299E+02  0.72461579090E+02  0.70000011457E+02 0.  0.
         12    1    1    2    0    0 -0.99093092009E+01 -0.64654341943E+01 -0.14514909299E+02  0.18726420910E+02  0.00000000000E+00 0. -1.
         11    1    3    3    0    0  0.31251757520E+02 -0.42163645357E+01 -0.10899660876E+02  0.33365441485E+02  0.51100000000E-03 0. -1.
        -11    1    3    3    0    0 -0.66725784484E+01  0.59875260635E-01  0.18573152938E+02  0.19735473101E+02  0.51100000000E-03 0.  1.
         12    1    3    3    0    0 -0.14669869871E+02  0.10621923469E+02  0.68414172371E+01  0.19360664504E+02  0.00000000000E+00 0. -1.
</event>
<event>
 7    1  0.1339094E-013  0.7246118E+02  0.7816164E-02  0.1226709E+00
        -11   -1    0    0    0    0  0.00000000000E+00  0.00000000000E+00  0.45593999997E+02  0.45594000000E+02  0.51100000000E-03 0.  1.
         11   -1    0    0    0    0 -0.00000000000E+00 -0.00000000000E+00 -0.45593999997E+02  0.45594000000E+02  0.51100000000E-03 0. -1.
    9900012    2    1    2    0    0 -0.13739998910E+02  0.12178341159E+02 -0.36870176189E+01  0.72461183336E+02  0.69999495914E+02 0.  0.
         12    1    1    2    0    0  0.13739998910E+02 -0.12178341159E+02  0.36870176189E+01  0.18726816664E+02  0.00000000000E+00 0. -1.
         11    1    3    3    0    0  0.78708440047E+01  0.74170399009E+01 -0.89197960115E+01  0.14018752704E+02  0.51100000000E-03 0. -1.
        -11    1    3    3    0    0 -0.33063563601E+02 -0.43416820204E+01  0.18977254865E+02  0.38369071441E+02  0.51100000000E-03 0.  1.
        -12    1    3    3    0    0  0.11452720687E+02  0.91029832784E+01 -0.13744476473E+02  0.20073359191E+02  0.00000000000E+00 0.  1.
</event>
<event>
 7    1  0.1339094E-013  0.7246159E+02  0.7816164E-02  0.1226708E+00
        -11   -1    0    0    0    0  0.00000000000E+00  0.00000000000E+00  0.45593999997E+02  0.45594000000E+02  0.51100000000E-03 0.  1.
         11   -1    0    0    0    0 -0.00000000000E+00 -0.00000000000E+00 -0.45593999997E+02  0.45594000000E+02  0.51100000000E-03 0. -1.
    9900012    2    1    2    0    0 -0.74171488629E+00 -0.18341148243E+02 -0.37054551714E+01  0.72461594635E+02  0.70000031708E+02 0.  0.
         12    1    1    2    0    0  0.74171488629E+00  0.18341148243E+02  0.37054551714E+01  0.18726405365E+02  0.00000000000E+00 0. -1.
         11    1    3    3    0    0  0.68171153562E+01  0.19225625798E+02  0.74155123751E+01  0.21704551899E+02  0.51100000000E-03 0. -1.
        -11    1    3    3    0    0  0.47970519863E+01 -0.32381255738E+02  0.91196669231E+00  0.32747352786E+02  0.51100000000E-03 0.  1.
        -12    1    3    3    0    0 -0.12355882229E+02 -0.51855183027E+01 -0.12032934239E+02  0.18009689951E+02  0.00000000000E+00 0.  1.
</event>
<event>
 7    1  0.1339094E-013  0.7246160E+02  0.7816164E-02  0.1226708E+00
        -11   -1    0    0    0    0  0.00000000000E+00  0.00000000000E+00  0.45593999997E+02  0.45594000000E+02  0.51100000000E-03 0. -1.
         11   -1    0    0    0    0 -0.00000000000E+00 -0.00000000000E+00 -0.45593999997E+02  0.45594000000E+02  0.51100000000E-03 0.  1.
    9900012    2    1    2    0    0 -0.40901302488E+01 -0.16322504708E+01 -0.18201228666E+02  0.72461597997E+02  0.70000036088E+02 0.  0.
         12    1    1    2    0    0  0.40901302488E+01  0.16322504708E+01  0.18201228666E+02  0.18726402003E+02  0.00000000000E+00 0. -1.
         11    1    3    3    0    0  0.21699914793E+02  0.11424581885E+02  0.15224946730E+01  0.24570823420E+02  0.51100000000E-03 0. -1.
        -11    1    3    3    0    0 -0.19966585209E+02 -0.95962120232E+01 -0.28944525437E+02  0.36449106480E+02  0.51100000000E-03 0.  1.
         12    1    3    3    0    0 -0.58234598324E+01 -0.34606203321E+01  0.92208020989E+01  0.11441668097E+02  0.00000000000E+00 0. -1.
</event>
<event>
 7    1  0.1339094E-013  0.7246157E+02  0.7816164E-02  0.1226708E+00
        -11   -1    0    0    0    0  0.00000000000E+00  0.00000000000E+00  0.45593999997E+02  0.45594000000E+02  0.51100000000E-03 0. -1.
         11   -1    0    0    0    0 -0.00000000000E+00 -0.00000000000E+00 -0.45593999997E+02  0.45594000000E+02  0.51100000000E-03 0.  1.
    9900012    2    1    2    0    0 -0.15293857251E+02  0.56946231793E+01  0.91841285538E+01  0.72461574285E+02  0.70000005198E+02 0.  0.
         12    1    1    2    0    0  0.15293857251E+02 -0.56946231793E+01 -0.91841285538E+01  0.18726425715E+02  0.00000000000E+00 0. -1.
         11    1    3    3    0    0 -0.18828524098E+02  0.86363010706E+01  0.28832150565E+02  0.35501998851E+02  0.51100000000E-03 0. -1.
        -11    1    3    3    0    0  0.60098543881E+01  0.58501453766E+01 -0.25002810601E+02  0.26372013365E+02  0.51100000000E-03 0.  1.
        -12    1    3    3    0    0 -0.24751875410E+01 -0.87918232679E+01  0.53547885895E+01  0.10587562069E+02  0.00000000000E+00 0.  1.
</event>
<event>
 7    1  0.1339094E-013  0.7246156E+02  0.7816164E-02  0.1226708E+00
        -11   -1    0    0    0    0  0.00000000000E+00  0.00000000000E+00  0.45593999997E+02  0.45594000000E+02  0.51100000000E-03 0. -1.
         11   -1    0    0    0    0 -0.00000000000E+00 -0.00000000000E+00 -0.45593999997E+02  0.45594000000E+02  0.51100000000E-03 0.  1.
    9900012    2    1    2    0    0  0.10244366823E+02 -0.76960255569E+01  0.13656633072E+02  0.72461561795E+02  0.69999988929E+02 0.  0.
         12    1    1    2    0    0 -0.10244366823E+02  0.76960255569E+01 -0.13656633072E+02  0.18726438205E+02  0.00000000000E+00 0. -1.
         11    1    3    3    0    0  0.23283263866E+02  0.16096069332E+01  0.20227918322E+01  0.23426329157E+02  0.51100000000E-03 0. -1.
        -11    1    3    3    0    0  0.27423718987E+01 -0.13848974194E+02 -0.13157151341E+02  0.19298324319E+02  0.51100000000E-03 0.  1.
         12    1    3    3    0    0 -0.15781268942E+02  0.45433417042E+01  0.24790992581E+02  0.29736908319E+02  0.00000000000E+00 0. -1.
</event>
<event>
 7    1  0.1339094E-013  0.7246165E+02  0.7816164E-02  0.1226708E+00
        -11   -1    0    0    0    0  0.00000000000E+00  0.00000000000E+00  0.45593999997E+02  0.45594000000E+02  0.51100000000E-03 0. -1.
         11   -1    0    0    0    0 -0.00000000000E+00 -0.00000000000E+00 -0.45593999997E+02  0.45594000000E+02  0.51100000000E-03 0.  1.
    9900012    2    1    2    0    0  0.18365913149E+02  0.29867509019E+01  0.21092253242E+01  0.72461647493E+02  0.70000100565E+02 0.  0.
         12    1    1    2    0    0 -0.18365913149E+02 -0.29867509019E+01 -0.21092253242E+01  0.18726352507E+02  0.00000000000E+00 0. -1.
         11    1    3    3    0    0  0.18861631297E+02  0.28531856735E+02 -0.77259509446E+01  0.35064487765E+02  0.51100000000E-03 0. -1.
        -11    1    3    3    0    0 -0.12291703127E+02 -0.71388171372E+01  0.35851436302E+01  0.14659533792E+02  0.51100000000E-03 0.  1.
         12    1    3    3    0    0  0.11795984979E+02 -0.18406288696E+02  0.62500326386E+01  0.22737625936E+02  0.00000000000E+00 0. -1.
</event>
<event>
 7    1  0.1339094E-013  0.7246153E+02  0.7816164E-02  0.1226708E+00
        -11   -1    0    0    0    0  0.00000000000E+00  0.00000000000E+00  0.45593999997E+02  0.45594000000E+02  0.51100000000E-03 0.  1.
         11   -1    0    0    0    0 -0.00000000000E+00 -0.00000000000E+00 -0.45593999997E+02  0.45594000000E+02  0.51100000000E-03 0. -1.
    9900012    2    1    2    0    0  0.51713867368E+01  0.17793530972E+02  0.27070041446E+01  0.72461525247E+02  0.69999941318E+02 0.  0.
         12    1    1    2    0    0 -0.51713867368E+01 -0.17793530972E+02 -0.27070041446E+01  0.18726474753E+02  0.00000000000E+00 0. -1.
         11    1    3    3    0    0  0.13847345535E+02  0.21611077734E+02  0.17414617802E+02  0.31017036813E+02  0.51100000000E-03 0. -1.
        -11    1    3    3    0    0 -0.38809974412E+01 -0.19765381211E+02 -0.15162444812E+01  0.20199787948E+02  0.51100000000E-03 0.  1.
         12    1    3    3    0    0 -0.47949613573E+01  0.15947834448E+02 -0.13191369176E+02  0.21244700486E+02  0.00000000000E+00 0. -1.
</event>
<event>
 7    1  0.1339094E-013  0.7246149E+02  0.7816164E-02  0.1226708E+00
        -11   -1    0    0    0    0  0.00000000000E+00  0.00000000000E+00  0.45593999997E+02  0.45594000000E+02  0.51100000000E-03 0.  1.
         11   -1    0    0    0    0 -0.00000000000E+00 -0.00000000000E+00 -0.45593999997E+02  0.45594000000E+02  0.51100000000E-03 0. -1.
    9900012    2    1    2    0    0  0.12848595420E+02  0.96101485953E+01  0.96561311551E+01  0.72461488601E+02  0.69999893579E+02 0.  0.
         12    1    1    2    0    0 -0.12848595420E+02 -0.96101485953E+01 -0.96561311551E+01  0.18726511399E+02  0.00000000000E+00 0. -1.
         11    1    3    3    0    0  0.15932036075E+02 -0.14589973071E+01 -0.42786472905E+01  0.16560956178E+02  0.51100000000E-03 0. -1.
        -11    1    3    3    0    0 -0.48044872281E+00  0.32516527408E+02  0.89243413162E+01  0.33722385055E+02  0.51100000000E-03 0.  1.
        -12    1    3    3    0    0 -0.26029919319E+01 -0.21447381505E+02  0.50104371293E+01  0.22178147367E+02  0.00000000000E+00 0.  1.
</event>
<event>
 7    1  0.1339094E-013  0.7246159E+02  0.7816164E-02  0.1226708E+00
        -11   -1    0    0    0    0  0.00000000000E+00  0.00000000000E+00  0.45593999997E+02  0.45594000000E+02  0.51100000000E-03 0.  1.
         11   -1    0    0    0    0 -0.00000000000E+00 -0.00000000000E+00 -0.45593999997E+02  0.45594000000E+02  0.51100000000E-03 0. -1.
    9900012    2    1    2    0    0 -0.62808917784E+01 -0.41658150353E+01  0.17142776348E+02  0.72461590911E+02  0.70000026858E+02 0.  0.
         12    1    1    2    0    0  0.62808917784E+01  0.41658150353E+01 -0.17142776348E+02  0.18726409089E+02  0.00000000000E+00 0. -1.
         11    1    3    3    0    0 -0.16461560895E+02 -0.63640394224E+01  0.14816349377E+02  0.23043615037E+02  0.51100000000E-03 0. -1.
        -11    1    3    3    0    0  0.96648824392E-01 -0.95668362767E+01 -0.20041013264E+02  0.22207564258E+02  0.51100000000E-03 0.  1.
        -12    1    3    3    0    0  0.10084020292E+02  0.11765060664E+02  0.22367440235E+02  0.27210411617E+02  0.00000000000E+00 0.  1.
</event>
<event>
 7    1  0.1339094E-013  0.7246158E+02  0.7816164E-02  0.1226708E+00
        -11   -1    0    0    0    0  0.00000000000E+00  0.00000000000E+00  0.45593999997E+02  0.45594000000E+02  0.51100000000E-03 0.  1.
         11   -1    0    0    0    0 -0.00000000000E+00 -0.00000000000E+00 -0.45593999997E+02  0.45594000000E+02  0.51100000000E-03 0. -1.
    9900012    2    1    2    0    0 -0.96903017789E+01  0.15447345641E+02 -0.42610427180E+01  0.72461576931E+02  0.70000008645E+02 0.  0.
         12    1    1    2    0    0  0.96903017789E+01 -0.15447345641E+02  0.42610427180E+01  0.18726423069E+02  0.00000000000E+00 0. -1.
         11    1    3    3    0    0  0.24377595941E+02  0.14264063583E+02 -0.15114462761E+02  0.32034008157E+02  0.51100000000E-03 0. -1.
        -11    1    3    3    0    0 -0.31804394979E+02 -0.46162196862E+01  0.63886405728E+01  0.32766503518E+02  0.51100000000E-03 0.  1.
         12    1    3    3    0    0 -0.22635027409E+01  0.57995017438E+01  0.44647794700E+01  0.76610652555E+01  0.00000000000E+00 0. -1.
</event>
<event>
 7    1  0.1339094E-013  0.7246157E+02  0.7816164E-02  0.1226708E+00
        -11   -1    0    0    0    0  0.00000000000E+00  0.00000000000E+00  0.45593999997E+02  0.45594000000E+02  0.51100000000E-03 0. -1.
         11   -1    0    0    0    0 -0.00000000000E+00 -0.00000000000E+00 -0.45593999997E+02  0.45594000000E+02  0.51100000000E-03 0.  1.
    9900012    2    1    2    0    0  0.12957442578E+02  0.12562333052E+02  0.49971544493E+01  0.72461572619E+02  0.70000003028E+02 0.  0.
         12    1    1    2    0    0 -0.12957442578E+02 -0.12562333052E+02 -0.49971544493E+01  0.18726427381E+02  0.00000000000E+00 0. -1.
         11    1    3    3    0    0 -0.16092107026E+02 -0.14017439893E+02 -0.14377412520E+02  0.25732363294E+02  0.51100000000E-03 0. -1.
        -11    1    3    3    0    0  0.96883972341E+01  0.16450420008E+02  0.27830755743E+01  0.19293181939E+02  0.51100000000E-03 0.  1.
         12    1    3    3    0    0  0.19361152370E+02  0.10129352937E+02  0.16591491395E+02  0.27436027386E+02  0.00000000000E+00 0. -1.
</event>
<event>
 7    1  0.1339094E-013  0.7246155E+02  0.7816164E-02  0.1226708E+00
        -11   -1    0    0    0    0  0.00000000000E+00  0.00000000000E+00  0.45593999997E+02  0.45594000000E+02  0.51100000000E-03 0.  1.
         11   -1    0    0    0    0 -0.00000000000E+00 -0.00000000000E+00 -0.45593999997E+02  0.45594000000E+02  0.51100000000E-03 0. -1.
    9900012    2    1    2    0    0 -0.12044912349E+02 -0.65234609299E+01  0.12768888333E+02  0.72461549048E+02  0.69999972322E+02 0.  0.
         12    1    1    2    0    0  0.12044912349E+02  0.65234609299E+01 -0.12768888333E+02  0.18726450952E+02  0.00000000000E+00 0. -1.
         11    1    3    3    0    0 -0.25948723400E+02  0.22243792523E+02 -0.57498195672E+01  0.34658086751E+02  0.51100000000E-03 0. -1.
        -11    1    3    3    0    0  0.42084164613E+01 -0.14172207831E+02  0.47793015385E+01  0.15537180162E+02  0.51100000000E-03 0.  1.
         12    1    3    3    0    0  0.96953945898E+01 -0.14595045622E+02  0.13739406362E+02  0.22266282135E+02  0.00000000000E+00 0. -1.
</event>
<event>
 7    1  0.1339094E-013  0.7246163E+02  0.7816164E-02  0.1226708E+00
        -11   -1    0    0    0    0  0.00000000000E+00  0.00000000000E+00  0.45593999997E+02  0.45594000000E+02  0.51100000000E-03 0.  1.
         11   -1    0    0    0    0 -0.00000000000E+00 -0.00000000000E+00 -0.45593999997E+02  0.45594000000E+02  0.51100000000E-03 0. -1.
    9900012    2    1    2    0    0  0.11796344511E+02  0.11065951060E+02  0.94375878758E+01  0.72461626043E+02  0.70000072622E+02 0.  0.
         12    1    1    2    0    0 -0.11796344511E+02 -0.11065951060E+02 -0.94375878758E+01  0.18726373957E+02  0.00000000000E+00 0. -1.
         11    1    3    3    0    0 -0.13224267046E+02  0.13370214102E+02  0.16830956694E+02  0.25237372437E+02  0.51100000000E-03 0. -1.
        -11    1    3    3    0    0  0.11691992240E+02 -0.40190073424E+01 -0.23314500251E+02  0.26389790161E+02  0.51100000000E-03 0.  1.
        -12    1    3    3    0    0  0.13328619317E+02  0.17147443005E+01  0.15921131432E+02  0.20834463444E+02  0.00000000000E+00 0.  1.
</event>
<event>
 7    1  0.1339094E-013  0.7246161E+02  0.7816164E-02  0.1226708E+00
        -11   -1    0    0    0    0  0.00000000000E+00  0.00000000000E+00  0.45593999997E+02  0.45594000000E+02  0.51100000000E-03 0. -1.
         11   -1    0    0    0    0 -0.00000000000E+00 -0.00000000000E+00 -0.45593999997E+02  0.45594000000E+02  0.51100000000E-03 0.  1.
    9900012    2    1    2    0    0 -0.91416728667E+01  0.89738734784E+01 -0.13659327412E+02  0.72461606504E+02  0.70000047170E+02 0.  0.
         12    1    1    2    0    0  0.91416728667E+01 -0.89738734784E+01  0.13659327412E+02  0.18726393496E+02  0.00000000000E+00 0. -1.
         11    1    3    3    0    0 -0.38695113059E+00 -0.18077164208E+02 -0.12333017442E+02  0.21886911990E+02  0.51100000000E-03 0. -1.
        -11    1    3    3    0    0 -0.25021244731E+02  0.19689898225E+02  0.36278531278E+01  0.32045531648E+02  0.51100000000E-03 0.  1.
         12    1    3    3    0    0  0.16266522995E+02  0.73611394620E+01 -0.49541630978E+01  0.18529162867E+02  0.00000000000E+00 0. -1.
</event>
<event>
 7    1  0.1339094E-013  0.7246172E+02  0.7816164E-02  0.1226708E+00
        -11   -1    0    0    0    0  0.00000000000E+00  0.00000000000E+00  0.45593999997E+02  0.45594000000E+02  0.51100000000E-03 0.  1.
         11   -1    0    0    0    0 -0.00000000000E+00 -0.00000000000E+00 -0.45593999997E+02  0.45594000000E+02  0.51100000000E-03 0. -1.
    9900012    2    1    2    0    0 -0.46297457311E+01  0.10080683205E+02 -0.15087048108E+02  0.72461715264E+02  0.70000188850E+02 0.  0.
         12    1    1    2    0    0  0.46297457311E+01 -0.10080683205E+02  0.15087048108E+02  0.18726284736E+02  0.00000000000E+00 0. -1.
         11    1    3    3    0    0  0.15765568174E+02  0.16111397642E+01 -0.14229584416E+02  0.21298591129E+02  0.51100000000E-03 0. -1.
        -11    1    3    3    0    0 -0.58013390231E+01 -0.15138442259E+02  0.12394414993E+02  0.20407094153E+02  0.51100000000E-03 0.  1.
        -12    1    3    3    0    0 -0.14593974881E+02  0.23607985699E+02 -0.13251878685E+02  0.30756029982E+02  0.00000000000E+00 0.  1.
</event>
<event>
 7    1  0.1339094E-013  0.7246145E+02  0.7816164E-02  0.1226708E+00
        -11   -1    0    0    0    0  0.00000000000E+00  0.00000000000E+00  0.45593999997E+02  0.45594000000E+02  0.51100000000E-03 0. -1.
         11   -1    0    0    0    0 -0.00000000000E+00 -0.00000000000E+00 -0.45593999997E+02  0.45594000000E+02  0.51100000000E-03 0.  1.
    9900012    2    1    2    0    0 -0.70890489260E+01 -0.75262249384E+01 -0.15613620379E+02  0.72461446184E+02  0.69999838323E+02 0.  0.
         12    1    1    2    0    0  0.70890489260E+01  0.75262249384E+01  0.15613620379E+02  0.18726553816E+02  0.00000000000E+00 0. -1.
         11    1    3    3    0    0  0.11478407580E+02  0.57168743437E+01  0.63325557402E+01  0.14301669668E+02  0.51100000000E-03 0. -1.
        -11    1    3    3    0    0 -0.14286858785E+02 -0.18663613607E+02 -0.35715288484E+02  0.42755428177E+02  0.51100000000E-03 0.  1.
        -12    1    3    3    0    0 -0.42805977209E+01  0.54205143250E+01  0.13769112365E+02  0.15404348338E+02  0.00000000000E+00 0.  1.
</event>
<event>
 7    1  0.1339094E-013  0.7246158E+02  0.7816164E-02  0.1226708E+00
        -11   -1    0    0    0    0  0.00000000000E+00  0.00000000000E+00  0.45593999997E+02  0.45594000000E+02  0.51100000000E-03 0.  1.
         11   -1    0    0    0    0 -0.00000000000E+00 -0.00000000000E+00 -0.45593999997E+02  0.45594000000E+02  0.51100000000E-03 0. -1.
    9900012    2    1    2    0    0 -0.13852882161E+02 -0.11911422040E+02 -0.41102739207E+01  0.72461583608E+02  0.70000017344E+02 0.  0.
         12    1    1    2    0    0  0.13852882161E+02  0.11911422040E+02  0.41102739207E+01  0.18726416392E+02  0.00000000000E+00 0. -1.
         11    1    3    3    0    0  0.20835710771E+01 -0.30554467035E+02 -0.60867715656E+00  0.30631474212E+02  0.51100000000E-03 0. -1.
        -11    1    3    3    0    0 -0.14221913266E+02  0.23221755454E+02  0.87799245648E+01  0.28611183459E+02  0.51100000000E-03 0.  1.
         12    1    3    3    0    0 -0.17145399718E+01 -0.45787104586E+01 -0.12281521329E+02  0.13218925937E+02  0.00000000000E+00 0. -1.
</event>
<event>
 7    1  0.1339094E-013  0.7246154E+02  0.7816164E-02  0.1226708E+00
        -11   -1    0    0    0    0  0.00000000000E+00  0.00000000000E+00  0.45593999997E+02  0.45594000000E+02  0.51100000000E-03 0. -1.
         11   -1    0    0    0    0 -0.00000000000E+00 -0.00000000000E+00 -0.45593999997E+02  0.45594000000E+02  0.51100000000E-03 0.  1.
    9900012    2    1    2    0    0 -0.11091332364E+02  0.10423535740E+02 -0.10909292818E+02  0.72461536887E+02  0.69999956480E+02 0.  0.
         12    1    1    2    0    0  0.11091332364E+02 -0.10423535740E+02  0.10909292818E+02  0.18726463113E+02  0.00000000000E+00 0. -1.
         11    1    3    3    0    0 -0.30580121162E+02  0.13769618204E+01 -0.15689919393E+02  0.34397869192E+02  0.51100000000E-03 0. -1.
        -11    1    3    3    0    0  0.13902266638E+02 -0.53466001157E+01 -0.89711786624E+01  0.17387961275E+02  0.51100000000E-03 0.  1.
         12    1    3    3    0    0  0.55865221600E+01  0.14393174035E+02  0.13751805237E+02  0.20675706419E+02  0.00000000000E+00 0. -1.
</event>
<event>
 7    1  0.1339094E-013  0.7246159E+02  0.7816164E-02  0.1226708E+00
        -11   -1    0    0    0    0  0.00000000000E+00  0.00000000000E+00  0.45593999997E+02  0.45594000000E+02  0.51100000000E-03 0. -1.
         11   -1    0    0    0    0 -0.00000000000E+00 -0.00000000000E+00 -0.45593999997E+02  0.45594000000E+02  0.51100000000E-03 0.  1.
    9900012    2    1    2    0    0 -0.56966058453E+01  0.17536128312E+02 -0.32728335427E+01  0.72461586736E+02  0.70000021419E+02 0.  0.
         12    1    1    2    0    0  0.56966058453E+01 -0.17536128312E+02  0.32728335427E+01  0.18726413264E+02  0.00000000000E+00 0. -1.
         11    1    3    3    0    0  0.72934891906E+01  0.25634323508E+02  0.57593301763E+01  0.27266892207E+02  0.51100000000E-03 0. -1.
        -11    1    3    3    0    0 -0.16274638270E+02 -0.75373269612E+01  0.13480639009E+02  0.22436639162E+02  0.51100000000E-03 0.  1.
         12    1    3    3    0    0  0.32845432342E+01 -0.56086823523E+00 -0.22512802728E+02  0.22758055367E+02  0.00000000000E+00 0. -1.
</event>
<event>
 7    1  0.1339094E-013  0.7246156E+02  0.7816164E-02  0.1226708E+00
        -11   -1    0    0    0    0  0.00000000000E+00  0.00000000000E+00  0.45593999997E+02  0.45594000000E+02  0.51100000000E-03 0.  1.
         11   -1    0    0    0    0 -0.00000000000E+00 -0.00000000000E+00 -0.45593999997E+02  0.45594000000E+02  0.51100000000E-03 0. -1.
    9900012    2    1    2    0    0 -0.18348218857E+02  0.91260948242E+00  0.36317642513E+01  0.72461556054E+02  0.69999981450E+02 0.  0.
         12    1    1    2    0    0  0.18348218857E+02 -0.91260948242E+00 -0.36317642513E+01  0.18726443946E+02  0.00000000000E+00 0. -1.
         11    1    3    3    0    0  0.10649342142E+02  0.12672326487E+02 -0.12279640742E+02  0.20610335360E+02  0.51100000000E-03 0. -1.
        -11    1    3    3    0    0 -0.36905635517E+02 -0.70131186150E+01  0.55406925510E+01  0.37972477400E+02  0.51100000000E-03 0.  1.
        -12    1    3    3    0    0  0.79080745186E+01 -0.47465983892E+01  0.10370712443E+02  0.13878743294E+02  0.00000000000E+00 0.  1.
</event>
<event>
 7    1  0.1339094E-013  0.7246158E+02  0.7816164E-02  0.1226708E+00
        -11   -1    0    0    0    0  0.00000000000E+00  0.00000000000E+00  0.45593999997E+02  0.45594000000E+02  0.51100000000E-03 0.  1.
         11   -1    0    0    0    0 -0.00000000000E+00 -0.00000000000E+00 -0.45593999997E+02  0.45594000000E+02  0.51100000000E-03 0. -1.
    9900012    2    1    2    0    0 -0.93963126853E+01 -0.11836720885E+02  0.11058031140E+02  0.72461582668E+02  0.70000016120E+02 0.  0.
         12    1    1    2    0    0  0.93963126853E+01  0.11836720885E+02 -0.11058031140E+02  0.18726417332E+02  0.00000000000E+00 0. -1.
         11    1    3    3    0    0  0.74687006277E+01 -0.11226936576E+02 -0.20166758729E+02  0.24259508483E+02  0.51100000000E-03 0. -1.
        -11    1    3    3    0    0 -0.13586616150E+02  0.14760697404E+02  0.22801958648E+02  0.30371098839E+02  0.51100000000E-03 0.  1.
         12    1    3    3    0    0 -0.32783971631E+01 -0.15370481712E+02  0.84228312212E+01  0.17830975346E+02  0.00000000000E+00 0. -1.
</event>
<event>
 7    1  0.1339094E-013  0.7246164E+02  0.7816164E-02  0.1226708E+00
        -11   -1    0    0    0    0  0.00000000000E+00  0.00000000000E+00  0.45593999997E+02  0.45594000000E+02  0.51100000000E-03 0. -1.
         11   -1    0    0    0    0 -0.00000000000E+00 -0.00000000000E+00 -0.45593999997E+02  0.45594000000E+02  0.51100000000E-03 0.  1.
    9900012    2    1    2    0    0 -0.17394299079E+02 -0.52302357366E+01 -0.45562594918E+01  0.72461641388E+02  0.70000092613E+02 0.  0.
         12    1    1    2    0    0  0.17394299079E+02  0.52302357366E+01  0.45562594918E+01  0.18726358612E+02  0.00000000000E+00 0. -1.
         11    1    3    3    0    0 -0.63759431694E+01 -0.14739598201E+02  0.14666832646E+02  0.21749123811E+02  0.51100000000E-03 0. -1.
        -11    1    3    3    0    0 -0.86567249812E+01 -0.74326121271E+01 -0.28891912568E+02  0.31063245524E+02  0.51100000000E-03 0.  1.
        -12    1    3    3    0    0 -0.23616309283E+01  0.16941974591E+02  0.96688204298E+01  0.19649272053E+02  0.00000000000E+00 0.  1.
</event>
<event>
 7    1  0.1339094E-013  0.7246223E+02  0.7816164E-02  0.1226706E+00
        -11   -1    0    0    0    0  0.00000000000E+00  0.00000000000E+00  0.45593999997E+02  0.45594000000E+02  0.51100000000E-03 0. -1.
         11   -1    0    0    0    0 -0.00000000000E+00 -0.00000000000E+00 -0.45593999997E+02  0.45594000000E+02  0.51100000000E-03 0.  1.
    9900012    2    1    2    0    0 -0.60487699268E+01  0.58777253053E+01 -0.16718831052E+02  0.72462226742E+02  0.70000855139E+02 0.  0.
         12    1    1    2    0    0  0.60487699268E+01 -0.58777253053E+01  0.16718831052E+02  0.18725773258E+02  0.00000000000E+00 0. -1.
         11    1    3    3    0    0  0.79965532573E+01  0.11419524574E+02 -0.23041142316E+02  0.26930366595E+02  0.51100000000E-03 0. -1.
        -11    1    3    3    0    0  0.95057694587E+01  0.21685461134E+01  0.16156728481E+02  0.18870668264E+02  0.51100000000E-03 0.  1.
        -12    1    3    3    0    0 -0.23551092643E+02 -0.77103453821E+01 -0.98344172173E+01  0.26661191882E+02  0.00000000000E+00 0.  1.
</event>
<event>
 7    1  0.1339094E-013  0.7246159E+02  0.7816164E-02  0.1226708E+00
        -11   -1    0    0    0    0  0.00000000000E+00  0.00000000000E+00  0.45593999997E+02  0.45594000000E+02  0.51100000000E-03 0. -1.
         11   -1    0    0    0    0 -0.00000000000E+00 -0.00000000000E+00 -0.45593999997E+02  0.45594000000E+02  0.51100000000E-03 0.  1.
    9900012    2    1    2    0    0 -0.77725380820E+01 -0.16558664540E+02  0.40095869412E+01  0.72461587983E+02  0.70000023043E+02 0.  0.
         12    1    1    2    0    0  0.77725380820E+01  0.16558664540E+02 -0.40095869412E+01  0.18726412017E+02  0.00000000000E+00 0. -1.
         11    1    3    3    0    0 -0.14307434246E+01  0.11554924486E+02  0.11938373504E+02  0.16675972799E+02  0.51100000000E-03 0. -1.
        -11    1    3    3    0    0 -0.16788014589E+02 -0.35699229891E+02 -0.13540603256E+02  0.41708756700E+02  0.51100000000E-03 0.  1.
        -12    1    3    3    0    0  0.10446219931E+02  0.75856408655E+01  0.56118166933E+01  0.14076858484E+02  0.00000000000E+00 0.  1.
</event>
<event>
 7    1  0.1339094E-013  0.7246157E+02  0.7816164E-02  0.1226708E+00
        -11   -1    0    0    0    0  0.00000000000E+00  0.00000000000E+00  0.45593999997E+02  0.45594000000E+02  0.51100000000E-03 0.  1.
         11   -1    0    0    0    0 -0.00000000000E+00 -0.00000000000E+00 -0.45593999997E+02  0.45594000000E+02  0.51100000000E-03 0. -1.
    9900012    2    1    2    0    0  0.17694044969E+02 -0.73183800820E+00  0.60880539331E+01  0.72461569082E+02  0.69999998421E+02 0.  0.
         12    1    1    2    0    0 -0.17694044969E+02  0.73183800820E+00 -0.60880539331E+01  0.18726430918E+02  0.00000000000E+00 0. -1.
         11    1    3    3    0    0 -0.22142018837E+01  0.90356024736E+01 -0.23780571674E+02  0.25535473198E+02  0.51100000000E-03 0. -1.
        -11    1    3    3    0    0 -0.22596058071E+01  0.34184309619E+01  0.18130317735E+02  0.18587627877E+02  0.51100000000E-03 0.  1.
        -12    1    3    3    0    0  0.22167852660E+02 -0.13185871444E+02  0.11738307872E+02  0.28338468007E+02  0.00000000000E+00 0.  1.
</event>
<event>
 7    1  0.1339094E-013  0.7246209E+02  0.7816164E-02  0.1226707E+00
        -11   -1    0    0    0    0  0.00000000000E+00  0.00000000000E+00  0.45593999997E+02  0.45594000000E+02  0.51100000000E-03 0. -1.
         11   -1    0    0    0    0 -0.00000000000E+00 -0.00000000000E+00 -0.45593999997E+02  0.45594000000E+02  0.51100000000E-03 0.  1.
    9900012    2    1    2    0    0  0.13997723457E+02  0.12153216489E+02 -0.26500407164E+01  0.72462091509E+02  0.70000678976E+02 0.  0.
         12    1    1    2    0    0 -0.13997723457E+02 -0.12153216489E+02  0.26500407164E+01  0.18725908491E+02  0.00000000000E+00 0. -1.
         11    1    3    3    0    0 -0.18588040488E+02  0.14906284150E+02 -0.47401727462E+01  0.24293657490E+02  0.51100000000E-03 0. -1.
        -11    1    3    3    0    0  0.18669568366E+02 -0.76488616204E+01  0.17592557516E+02  0.26768562668E+02  0.51100000000E-03 0.  1.
         12    1    3    3    0    0  0.13916195578E+02  0.48957939598E+01 -0.15502425487E+02  0.21399871351E+02  0.00000000000E+00 0. -1.
</event>
<event>
 7    1  0.1339094E-013  0.7246159E+02  0.7816164E-02  0.1226708E+00
        -11   -1    0    0    0    0  0.00000000000E+00  0.00000000000E+00  0.45593999997E+02  0.45594000000E+02  0.51100000000E-03 0.  1.
         11   -1    0    0    0    0 -0.00000000000E+00 -0.00000000000E+00 -0.45593999997E+02  0.45594000000E+02  0.51100000000E-03 0. -1.
    9900012    2    1    2    0    0  0.17086591317E+02 -0.44571115736E-01  0.76632183123E+01  0.72461588055E+02  0.70000023137E+02 0.  0.
         12    1    1    2    0    0 -0.17086591317E+02  0.44571115736E-01 -0.76632183123E+01  0.18726411945E+02  0.00000000000E+00 0. -1.
         11    1    3    3    0    0 -0.24477125395E+01  0.25789809171E+02 -0.10846467227E+02  0.28084718359E+02  0.51100000000E-03 0. -1.
        -11    1    3    3    0    0  0.83207828736E+01 -0.18420383273E+02  0.22605245950E+02  0.30323968940E+02  0.51100000000E-03 0.  1.
        -12    1    3    3    0    0  0.11213520983E+02 -0.74139970142E+01 -0.40955604114E+01  0.14052900756E+02  0.00000000000E+00 0.  1.
</event>
<event>
 7    1  0.1339094E-013  0.7246157E+02  0.7816164E-02  0.1226708E+00
        -11   -1    0    0    0    0  0.00000000000E+00  0.00000000000E+00  0.45593999997E+02  0.45594000000E+02  0.51100000000E-03 0.  1.
         11   -1    0    0    0    0 -0.00000000000E+00 -0.00000000000E+00 -0.45593999997E+02  0.45594000000E+02  0.51100000000E-03 0. -1.
    9900012    2    1    2    0    0 -0.11664308349E+02 -0.13480632375E+02  0.57354675174E+01  0.72461571453E+02  0.70000001509E+02 0.  0.
         12    1    1    2    0    0  0.11664308349E+02  0.13480632375E+02 -0.57354675174E+01  0.18726428547E+02  0.00000000000E+00 0. -1.
         11    1    3    3    0    0  0.18995730899E+02  0.97187656414E+01 -0.10564639406E+01  0.21363714899E+02  0.51100000000E-03 0. -1.
        -11    1    3    3    0    0 -0.15883064853E+02 -0.30253468235E+02  0.30786245693E+01  0.34307754500E+02  0.51100000000E-03 0.  1.
         12    1    3    3    0    0 -0.14776974395E+02  0.70540702187E+01  0.37133068887E+01  0.16790102053E+02  0.00000000000E+00 0. -1.
</event>
<event>
 7    1  0.1339094E-013  0.7246127E+02  0.7816164E-02  0.1226709E+00
        -11   -1    0    0    0    0  0.00000000000E+00  0.00000000000E+00  0.45593999997E+02  0.45594000000E+02  0.51100000000E-03 0. -1.
         11   -1    0    0    0    0 -0.00000000000E+00 -0.00000000000E+00 -0.45593999997E+02  0.45594000000E+02  0.51100000000E-03 0.  1.
    9900012    2    1    2    0    0 -0.14578942256E+02  0.11267884874E+02  0.33436077256E+01  0.72461267784E+02  0.69999605923E+02 0.  0.
         12    1    1    2    0    0  0.14578942256E+02 -0.11267884874E+02 -0.33436077256E+01  0.18726732216E+02  0.00000000000E+00 0. -1.
         11    1    3    3    0    0  0.76949637852E+01  0.28056680150E+02  0.21759220565E+01  0.29174036500E+02  0.51100000000E-03 0. -1.
        -11    1    3    3    0    0 -0.19065624706E+02 -0.16959538713E+02  0.14652601457E+02  0.29424865820E+02  0.51100000000E-03 0.  1.
         12    1    3    3    0    0 -0.32082813357E+01  0.17074343786E+00 -0.13484915788E+02  0.13862365464E+02  0.00000000000E+00 0. -1.
</event>
<event>
 7    1  0.1339094E-013  0.7246162E+02  0.7816164E-02  0.1226708E+00
        -11   -1    0    0    0    0  0.00000000000E+00  0.00000000000E+00  0.45593999997E+02  0.45594000000E+02  0.51100000000E-03 0.  1.
         11   -1    0    0    0    0 -0.00000000000E+00 -0.00000000000E+00 -0.45593999997E+02  0.45594000000E+02  0.51100000000E-03 0. -1.
    9900012    2    1    2    0    0  0.36525721413E+01  0.11196790218E+02  0.14559119081E+02  0.72461619067E+02  0.70000063535E+02 0.  0.
         12    1    1    2    0    0 -0.36525721413E+01 -0.11196790218E+02 -0.14559119081E+02  0.18726380933E+02  0.00000000000E+00 0. -1.
         11    1    3    3    0    0 -0.15881685706E+02  0.10251110278E+02 -0.68501224154E+00  0.18915137981E+02  0.51100000000E-03 0. -1.
        -11    1    3    3    0    0  0.27571368501E+02  0.72921358815E+01  0.26073591913E+02  0.38641788290E+02  0.51100000000E-03 0.  1.
        -12    1    3    3    0    0 -0.80371106540E+01 -0.63464559410E+01 -0.10829460590E+02  0.14904692796E+02  0.00000000000E+00 0.  1.
</event>
<event>
 7    1  0.2044636E-013  0.7246157E+02  0.7816164E-02  0.1226708E+00
        -11   -1    0    0    0    0  0.00000000000E+00  0.00000000000E+00  0.45593999997E+02  0.45594000000E+02  0.51100000000E-03 0. -1.
         11   -1    0    0    0    0 -0.00000000000E+00 -0.00000000000E+00 -0.45593999997E+02  0.45594000000E+02  0.51100000000E-03 0.  1.
    9900012    2    1    2    0    0  0.10519400097E+02 -0.10107588912E+01 -0.15459613614E+02  0.72461573085E+02  0.70000003635E+02 0.  0.
         12    1    1    2    0    0 -0.10519400097E+02  0.10107588912E+01  0.15459613614E+02  0.18726426915E+02  0.00000000000E+00 0. -1.
         11    1    3    3    0    0  0.18751547688E+01  0.11617384491E+02  0.19030641225E+02  0.22375100749E+02  0.51100000000E-03 0. -1.
        -11    1    3    3    0    0  0.10015778671E+02  0.68132030886E+01 -0.26281241532E+02  0.28938542040E+02  0.51100000000E-03 0.  1.
         12    1    3    3    0    0 -0.13715333425E+01 -0.19441346471E+02 -0.82090133068E+01  0.21147930296E+02  0.00000000000E+00 0. -1.
</event>
<event>
 7    1  0.1339094E-013  0.7246158E+02  0.7816164E-02  0.1226708E+00
        -11   -1    0    0    0    0  0.00000000000E+00  0.00000000000E+00  0.45593999997E+02  0.45594000000E+02  0.51100000000E-03 0. -1.
         11   -1    0    0    0    0 -0.00000000000E+00 -0.00000000000E+00 -0.45593999997E+02  0.45594000000E+02  0.51100000000E-03 0.  1.
    9900012    2    1    2    0    0 -0.10052392831E+02 -0.13491119805E+02 -0.82230203393E+01  0.72461575389E+02  0.70000006637E+02 0.  0.
         12    1    1    2    0    0  0.10052392831E+02  0.13491119805E+02  0.82230203393E+01  0.18726424611E+02  0.00000000000E+00 0. -1.
         11    1    3    3    0    0 -0.63310426277E+01  0.10953421806E+02  0.82140821253E+01  0.15084120638E+02  0.51100000000E-03 0. -1.
        -11    1    3    3    0    0  0.48833713428E+01  0.11239038156E+01 -0.27695346308E+02  0.28145029452E+02  0.51100000000E-03 0.  1.
        -12    1    3    3    0    0 -0.86047215458E+01 -0.25568445426E+02  0.11258243844E+02  0.29232425299E+02  0.00000000000E+00 0.  1.
</event>
<event>
 7    1  0.1339094E-013  0.7246157E+02  0.7816164E-02  0.1226708E+00
        -11   -1    0    0    0    0  0.00000000000E+00  0.00000000000E+00  0.45593999997E+02  0.45594000000E+02  0.51100000000E-03 0. -1.
         11   -1    0    0    0    0 -0.00000000000E+00 -0.00000000000E+00 -0.45593999997E+02  0.45594000000E+02  0.51100000000E-03 0.  1.
    9900012    2    1    2    0    0  0.15215828267E+02  0.32229396717E+01  0.10429312786E+02  0.72461565872E+02  0.69999994239E+02 0.  0.
         12    1    1    2    0    0 -0.15215828267E+02 -0.32229396717E+01 -0.10429312786E+02  0.18726434128E+02  0.00000000000E+00 0. -1.
         11    1    3    3    0    0  0.81357970365E+01 -0.18175858645E+02 -0.13072642151E+02  0.23821146151E+02  0.51100000000E-03 0.  1.
        -11    1    3    3    0    0 -0.90813382781E+01  0.24309950401E+02  0.16737848159E+02  0.30880413771E+02  0.51100000000E-03 0. -1.
        -12    1    3    3    0    0  0.16161369508E+02 -0.29111520843E+01  0.67641067777E+01  0.17760005950E+02  0.00000000000E+00 0.  1.
</event>
<event>
 7    1  0.1339094E-013  0.7246156E+02  0.7816164E-02  0.1226708E+00
        -11   -1    0    0    0    0  0.00000000000E+00  0.00000000000E+00  0.45593999997E+02  0.45594000000E+02  0.51100000000E-03 0. -1.
         11   -1    0    0    0    0 -0.00000000000E+00 -0.00000000000E+00 -0.45593999997E+02  0.45594000000E+02  0.51100000000E-03 0.  1.
    9900012    2    1    2    0    0 -0.91403721505E+01  0.13642840174E+02 -0.90003269169E+01  0.72461564790E+02  0.69999992830E+02 0.  0.
         12    1    1    2    0    0  0.91403721505E+01 -0.13642840174E+02  0.90003269169E+01  0.18726435210E+02  0.00000000000E+00 0. -1.
         11    1    3    3    0    0 -0.29702031336E+02 -0.97008145626E+01 -0.17435531524E+02  0.35781478846E+02  0.51100000000E-03 0.  1.
        -11    1    3    3    0    0  0.23344773173E+02  0.20539982790E+02  0.50999948486E+01  0.31509986913E+02  0.51100000000E-03 0. -1.
        -12    1    3    3    0    0 -0.27831139879E+01  0.28036719465E+01  0.33352097589E+01  0.51700990308E+01  0.00000000000E+00 0.  1.
</event>
<event>
 7    1  0.1339094E-013  0.7246157E+02  0.7816164E-02  0.1226708E+00
        -11   -1    0    0    0    0  0.00000000000E+00  0.00000000000E+00  0.45593999997E+02  0.45594000000E+02  0.51100000000E-03 0. -1.
         11   -1    0    0    0    0 -0.00000000000E+00 -0.00000000000E+00 -0.45593999997E+02  0.45594000000E+02  0.51100000000E-03 0.  1.
    9900012    2    1    2    0    0 -0.31270013747E+00 -0.13081232098E+02 -0.13396376896E+02  0.72461566049E+02  0.69999994470E+02 0.  0.
         12    1    1    2    0    0  0.31270013747E+00  0.13081232098E+02  0.13396376896E+02  0.18726433951E+02  0.00000000000E+00 0. -1.
         11    1    3    3    0    0 -0.97538046657E+01 -0.10806322781E+02  0.20877666405E+02  0.25451724348E+02  0.51100000000E-03 0. -1.
        -11    1    3    3    0    0 -0.33351901454E+01  0.49342964844E+01 -0.31527411050E+02  0.32085018667E+02  0.51100000000E-03 0.  1.
        -12    1    3    3    0    0  0.12776294674E+02 -0.72092058012E+01 -0.27466322508E+01  0.14924823034E+02  0.00000000000E+00 0.  1.
</event>
<event>
 7    1  0.1339094E-013  0.7246157E+02  0.7816164E-02  0.1226708E+00
        -11   -1    0    0    0    0  0.00000000000E+00  0.00000000000E+00  0.45593999997E+02  0.45594000000E+02  0.51100000000E-03 0.  1.
         11   -1    0    0    0    0 -0.00000000000E+00 -0.00000000000E+00 -0.45593999997E+02  0.45594000000E+02  0.51100000000E-03 0. -1.
    9900012    2    1    2    0    0  0.18483254274E+02 -0.89685010372E+00 -0.28712388188E+01  0.72461573725E+02  0.70000004469E+02 0.  0.
         12    1    1    2    0    0 -0.18483254274E+02  0.89685010372E+00  0.28712388188E+01  0.18726426275E+02  0.00000000000E+00 0. -1.
         11    1    3    3    0    0  0.27851674471E+02  0.42365094070E+01 -0.99108054699E+01  0.29864491425E+02  0.51100000000E-03 0. -1.
        -11    1    3    3    0    0  0.47909554613E+00 -0.22252088883E+02  0.33987739717E+01  0.22515253873E+02  0.51100000000E-03 0.  1.
        -12    1    3    3    0    0 -0.98475157426E+01  0.17118729372E+02  0.36407926793E+01  0.20081828427E+02  0.00000000000E+00 0.  1.
</event>
<event>
 7    1  0.1339094E-013  0.7246159E+02  0.7816164E-02  0.1226708E+00
        -11   -1    0    0    0    0  0.00000000000E+00  0.00000000000E+00  0.45593999997E+02  0.45594000000E+02  0.51100000000E-03 0.  1.
         11   -1    0    0    0    0 -0.00000000000E+00 -0.00000000000E+00 -0.45593999997E+02  0.45594000000E+02  0.51100000000E-03 0. -1.
    9900012    2    1    2    0    0  0.16928412354E+02 -0.57969368979E+01  0.55229190779E+01  0.72461594649E+02  0.70000031726E+02 0.  0.
         12    1    1    2    0    0 -0.16928412354E+02  0.57969368979E+01 -0.55229190779E+01  0.18726405351E+02  0.00000000000E+00 0. -1.
         11    1    3    3    0    0 -0.12537681533E+02 -0.35739534403E+01  0.26975448660E+01  0.13313277207E+02  0.51100000000E-03 0. -1.
        -11    1    3    3    0    0  0.42122978744E+02 -0.73053654951E+01 -0.55995053415E+01  0.43116912733E+02  0.51100000000E-03 0.  1.
        -12    1    3    3    0    0 -0.12656884856E+02  0.50823820376E+01  0.84248795534E+01  0.16031404709E+02  0.00000000000E+00 0.  1.
</event>
<event>
 7    1  0.1339094E-013  0.7246157E+02  0.7816164E-02  0.1226708E+00
        -11   -1    0    0    0    0  0.00000000000E+00  0.00000000000E+00  0.45593999997E+02  0.45594000000E+02  0.51100000000E-03 0. -1.
         11   -1    0    0    0    0 -0.00000000000E+00 -0.00000000000E+00 -0.45593999997E+02  0.45594000000E+02  0.51100000000E-03 0.  1.
    9900012    2    1    2    0    0  0.13801217400E+02 -0.25435323595E+01 -0.12399033817E+02  0.72461569530E+02  0.69999999004E+02 0.  0.
         12    1    1    2    0    0 -0.13801217400E+02  0.25435323595E+01  0.12399033817E+02  0.18726430470E+02  0.00000000000E+00 0. -1.
         11    1    3    3    0    0  0.25758781323E+02  0.59335228730E+01  0.74128240080E+01  0.27453077586E+02  0.51100000000E-03 0. -1.
        -11    1    3    3    0    0 -0.21675207361E+02 -0.16299544971E+02 -0.17623367300E+02  0.32343049572E+02  0.51100000000E-03 0.  1.
        -12    1    3    3    0    0  0.97176434376E+01  0.78224897381E+01 -0.21884905242E+01  0.12665442371E+02  0.00000000000E+00 0.  1.
</event>
<event>
 7    1  0.1339094E-013  0.7246155E+02  0.7816164E-02  0.1226708E+00
        -11   -1    0    0    0    0  0.00000000000E+00  0.00000000000E+00  0.45593999997E+02  0.45594000000E+02  0.51100000000E-03 0.  1.
         11   -1    0    0    0    0 -0.00000000000E+00 -0.00000000000E+00 -0.45593999997E+02  0.45594000000E+02  0.51100000000E-03 0. -1.
    9900012    2    1    2    0    0  0.10650149615E+02  0.31174468206E+01  0.15084292851E+02  0.72461546724E+02  0.69999969295E+02 0.  0.
         12    1    1    2    0    0 -0.10650149615E+02 -0.31174468206E+01 -0.15084292851E+02  0.18726453276E+02  0.00000000000E+00 0. -1.
         11    1    3    3    0    0 -0.82165505216E+01 -0.48122818493E+01 -0.21517290560E+02  0.23530056361E+02  0.51100000000E-03 0. -1.
        -11    1    3    3    0    0  0.20978787807E+02  0.39718536012E+01  0.13196743941E+02  0.25100581862E+02  0.51100000000E-03 0.  1.
         12    1    3    3    0    0 -0.21120876707E+01  0.39578750688E+01  0.23404839470E+02  0.23830908501E+02  0.00000000000E+00 0. -1.
</event>
<event>
 7    1  0.1339094E-013  0.7246156E+02  0.7816164E-02  0.1226708E+00
        -11   -1    0    0    0    0  0.00000000000E+00  0.00000000000E+00  0.45593999997E+02  0.45594000000E+02  0.51100000000E-03 0.  1.
         11   -1    0    0    0    0 -0.00000000000E+00 -0.00000000000E+00 -0.45593999997E+02  0.45594000000E+02  0.51100000000E-03 0. -1.
    9900012    2    1    2    0    0  0.12327349499E+01 -0.45680426720E+01  0.18118850568E+02  0.72461564268E+02  0.69999992149E+02 0.  0.
         12    1    1    2    0    0 -0.12327349499E+01  0.45680426720E+01 -0.18118850568E+02  0.18726435732E+02  0.00000000000E+00 0. -1.
         11    1    3    3    0    0 -0.16520647327E+02 -0.27826423648E+02  0.33982101788E+01  0.32539045374E+02  0.51100000000E-03 0. -1.
        -11    1    3    3    0    0  0.61854204887E+01  0.20080299651E+02  0.10201967520E+00  0.21011622235E+02  0.51100000000E-03 0.  1.
         12    1    3    3    0    0  0.11567961788E+02  0.31780813255E+01  0.14618620714E+02  0.18910896659E+02  0.00000000000E+00 0. -1.
</event>
<event>
 7    1  0.1339094E-013  0.7246157E+02  0.7816164E-02  0.1226708E+00
        -11   -1    0    0    0    0  0.00000000000E+00  0.00000000000E+00  0.45593999997E+02  0.45594000000E+02  0.51100000000E-03 0. -1.
         11   -1    0    0    0    0 -0.00000000000E+00 -0.00000000000E+00 -0.45593999997E+02  0.45594000000E+02  0.51100000000E-03 0.  1.
    9900012    2    1    2    0    0  0.43035466729E+01 -0.82959046553E+01 -0.16227652577E+02  0.72461567981E+02  0.69999996986E+02 0.  0.
         12    1    1    2    0    0 -0.43035466729E+01  0.82959046553E+01  0.16227652577E+02  0.18726432019E+02  0.00000000000E+00 0. -1.
         11    1    3    3    0    0  0.82212435758E+01 -0.24732246518E+02 -0.18157061310E+02  0.31764000683E+02  0.51100000000E-03 0. -1.
        -11    1    3    3    0    0  0.16517844515E+02  0.70011105029E+01  0.28747324208E+01  0.18169172310E+02  0.51100000000E-03 0.  1.
         12    1    3    3    0    0 -0.20435541417E+02  0.94352313596E+01 -0.94532368772E+00  0.22528394987E+02  0.00000000000E+00 0. -1.
</event>
<event>
 7    1  0.1339094E-013  0.7246158E+02  0.7816164E-02  0.1226708E+00
        -11   -1    0    0    0    0  0.00000000000E+00  0.00000000000E+00  0.45593999997E+02  0.45594000000E+02  0.51100000000E-03 0.  1.
         11   -1    0    0    0    0 -0.00000000000E+00 -0.00000000000E+00 -0.45593999997E+02  0.45594000000E+02  0.51100000000E-03 0. -1.
    9900012    2    1    2    0    0 -0.20106990830E+01  0.17244897018E+02  0.70177935855E+01  0.72461579873E+02  0.70000012478E+02 0.  0.
         12    1    1    2    0    0  0.20106990830E+01 -0.17244897018E+02 -0.70177935855E+01  0.18726420127E+02  0.00000000000E+00 0. -1.
         11    1    3    3    0    0  0.57173082102E+01 -0.54587378367E+01 -0.19909473204E+02  0.21421310779E+02  0.51100000000E-03 0. -1.
        -11    1    3    3    0    0 -0.19579423638E+02  0.24104882646E+02  0.22338362455E+02  0.38254432878E+02  0.51100000000E-03 0.  1.
         12    1    3    3    0    0  0.11851416345E+02 -0.14012477910E+01  0.45889043349E+01  0.12785836216E+02  0.00000000000E+00 0. -1.
</event>
<event>
 7    1  0.1339094E-013  0.7246156E+02  0.7816164E-02  0.1226708E+00
        -11   -1    0    0    0    0  0.00000000000E+00  0.00000000000E+00  0.45593999997E+02  0.45594000000E+02  0.51100000000E-03 0.  1.
         11   -1    0    0    0    0 -0.00000000000E+00 -0.00000000000E+00 -0.45593999997E+02  0.45594000000E+02  0.51100000000E-03 0. -1.
    9900012    2    1    2    0    0  0.18336255367E+02 -0.23759820489E+01  0.29691519143E+01  0.72461563748E+02  0.69999991473E+02 0.  0.
         12    1    1    2    0    0 -0.18336255367E+02  0.23759820489E+01 -0.29691519143E+01  0.18726436252E+02  0.00000000000E+00 0. -1.
         11    1    3    3    0    0  0.10721812648E+02  0.84619102579E+01 -0.10057611625E+02  0.16962215171E+02  0.51100000000E-03 0. -1.
        -11    1    3    3    0    0 -0.37568041619E+01  0.13454315742E+02  0.22977991472E+02  0.26890895894E+02  0.51100000000E-03 0.  1.
        -12    1    3    3    0    0  0.11371246882E+02 -0.24292208049E+02 -0.99512279332E+01  0.28608452683E+02  0.00000000000E+00 0.  1.
</event>
<event>
 8    1  0.1339094E-013  0.7246170E+02  0.7816164E-02  0.1226708E+00
        -11   -1    0    0    0    0  0.00000000000E+00  0.00000000000E+00  0.45593999997E+02  0.45594000000E+02  0.51100000000E-03 0.  1.
         11   -1    0    0    0    0 -0.00000000000E+00 -0.00000000000E+00 -0.45593999997E+02  0.45594000000E+02  0.51100000000E-03 0. -1.
    9900012    2    1    2    0    0  0.17496553693E+02 -0.11260519822E+01  0.65785318116E+01  0.72461695907E+02  0.70000163633E+02 0.  0.
        -24    2    3    3    0    0 -0.40265654967E+00 -0.12654691631E+02  0.76708153813E+01  0.51143057509E+02  0.48953728869E+02 0.  0.
         12    1    1    2    0    0 -0.17496553693E+02  0.11260519822E+01 -0.65785318116E+01  0.18726304093E+02  0.00000000000E+00 0. -1.
         11    1    4    4    0    0  0.27311175571E+01 -0.18780004835E+02 -0.17032128792E+02  0.25499823454E+02  0.51100000000E-03 0. -1.
        -11    1    3    3    0    0  0.17899210243E+02  0.11528639649E+02 -0.10922835697E+01  0.21318638397E+02  0.51100000000E-03 0.  1.
        -12    1    4    4    0    0 -0.31337741067E+01  0.61253132037E+01  0.24702944174E+02  0.25643234056E+02  0.00000000000E+00 0.  1.
</event>
<event>
 7    1  0.1339094E-013  0.7246153E+02  0.7816164E-02  0.1226708E+00
        -11   -1    0    0    0    0  0.00000000000E+00  0.00000000000E+00  0.45593999997E+02  0.45594000000E+02  0.51100000000E-03 0.  1.
         11   -1    0    0    0    0 -0.00000000000E+00 -0.00000000000E+00 -0.45593999997E+02  0.45594000000E+02  0.51100000000E-03 0. -1.
    9900012    2    1    2    0    0  0.84205612399E+01 -0.35287107300E+01  0.16350017464E+02  0.72461528840E+02  0.69999945998E+02 0.  0.
         12    1    1    2    0    0 -0.84205612399E+01  0.35287107300E+01 -0.16350017464E+02  0.18726471160E+02  0.00000000000E+00 0. -1.
         11    1    3    3    0    0  0.27700551922E+02 -0.11276452433E+02 -0.66827901280E+00  0.29915306339E+02  0.51100000000E-03 0. -1.
        -11    1    3    3    0    0 -0.70659790415E+01  0.10959980296E+02 -0.74445437816E+01  0.15015673821E+02  0.51100000000E-03 0.  1.
         12    1    3    3    0    0 -0.12214011641E+02 -0.32122385937E+01  0.24462840259E+02  0.27530548681E+02  0.00000000000E+00 0. -1.
</event>
<event>
 7    1  0.1339094E-013  0.7246158E+02  0.7816164E-02  0.1226708E+00
        -11   -1    0    0    0    0  0.00000000000E+00  0.00000000000E+00  0.45593999997E+02  0.45594000000E+02  0.51100000000E-03 0.  1.
         11   -1    0    0    0    0 -0.00000000000E+00 -0.00000000000E+00 -0.45593999997E+02  0.45594000000E+02  0.51100000000E-03 0. -1.
    9900012    2    1    2    0    0 -0.13948494689E+02 -0.30207244061E+00  0.12491085944E+02  0.72461575357E+02  0.70000006595E+02 0.  0.
         12    1    1    2    0    0  0.13948494689E+02  0.30207244061E+00 -0.12491085944E+02  0.18726424643E+02  0.00000000000E+00 0. -1.
         11    1    3    3    0    0  0.40535727087E+01  0.12665930700E+02 -0.13041078855E+02  0.18625976220E+02  0.51100000000E-03 0. -1.
        -11    1    3    3    0    0  0.12767770823E+02 -0.75827331589E+01  0.14368371532E+02  0.20663105156E+02  0.51100000000E-03 0.  1.
        -12    1    3    3    0    0 -0.30769838220E+02 -0.53852699812E+01  0.11163793267E+02  0.33172493982E+02  0.00000000000E+00 0.  1.
</event>
<event>
 7    1  0.1339094E-013  0.7246153E+02  0.7816164E-02  0.1226708E+00
        -11   -1    0    0    0    0  0.00000000000E+00  0.00000000000E+00  0.45593999997E+02  0.45594000000E+02  0.51100000000E-03 0. -1.
         11   -1    0    0    0    0 -0.00000000000E+00 -0.00000000000E+00 -0.45593999997E+02  0.45594000000E+02  0.51100000000E-03 0.  1.
    9900012    2    1    2    0    0  0.97519661448E+01  0.77555267353E+00 -0.15968037864E+02  0.72461533199E+02  0.69999951676E+02 0.  0.
         12    1    1    2    0    0 -0.97519661448E+01 -0.77555267353E+00  0.15968037864E+02  0.18726466801E+02  0.00000000000E+00 0. -1.
         11    1    3    3    0    0 -0.17438299824E+02 -0.20533092769E+02 -0.12168682820E+02  0.29559753742E+02  0.51100000000E-03 0. -1.
        -11    1    3    3    0    0  0.99928685864E+01  0.18143710269E+02 -0.11615635090E+02  0.23748149901E+02  0.51100000000E-03 0.  1.
         12    1    3    3    0    0  0.17197397383E+02  0.31649351736E+01  0.78162800466E+01  0.19153629556E+02  0.00000000000E+00 0. -1.
</event>
<event>
 7    1  0.1339094E-013  0.7246156E+02  0.7816164E-02  0.1226708E+00
        -11   -1    0    0    0    0  0.00000000000E+00  0.00000000000E+00  0.45593999997E+02  0.45594000000E+02  0.51100000000E-03 0.  1.
         11   -1    0    0    0    0 -0.00000000000E+00 -0.00000000000E+00 -0.45593999997E+02  0.45594000000E+02  0.51100000000E-03 0. -1.
    9900012    2    1    2    0    0 -0.13297868268E+02 -0.13179747607E+02  0.37483754698E+00  0.72461560118E+02  0.69999986744E+02 0.  0.
         12    1    1    2    0    0  0.13297868268E+02  0.13179747607E+02 -0.37483754698E+00  0.18726439882E+02  0.00000000000E+00 0. -1.
         11    1    3    3    0    0 -0.84736639824E+01 -0.31632046242E+02  0.20045762899E+02  0.38395597940E+02  0.51100000000E-03 0.  1.
        -11    1    3    3    0    0  0.25970246907E+01 -0.12159597651E+01 -0.10929031158E+02  0.11298974188E+02  0.51100000000E-03 0. -1.
         12    1    3    3    0    0 -0.74212289768E+01  0.19668258400E+02 -0.87418941941E+01  0.22766987990E+02  0.00000000000E+00 0. -1.
</event>
<event>
 7    1  0.1339094E-013  0.7246156E+02  0.7816164E-02  0.1226708E+00
        -11   -1    0    0    0    0  0.00000000000E+00  0.00000000000E+00  0.45593999997E+02  0.45594000000E+02  0.51100000000E-03 0. -1.
         11   -1    0    0    0    0 -0.00000000000E+00 -0.00000000000E+00 -0.45593999997E+02  0.45594000000E+02  0.51100000000E-03 0.  1.
    9900012    2    1    2    0    0 -0.16511212834E+02 -0.44289524309E+01 -0.76448653064E+01  0.72461555211E+02  0.69999980351E+02 0.  0.
         12    1    1    2    0    0  0.16511212834E+02  0.44289524309E+01  0.76448653064E+01  0.18726444789E+02  0.00000000000E+00 0. -1.
         11    1    3    3    0    0  0.42240153605E+01 -0.22372400364E+02  0.12035581225E+02  0.25753093397E+02  0.51100000000E-03 0. -1.
        -11    1    3    3    0    0 -0.11573620483E+02  0.69222255403E+01 -0.27320325711E+02  0.30467459604E+02  0.51100000000E-03 0.  1.
         12    1    3    3    0    0 -0.91616077110E+01  0.11021222393E+02  0.76398791801E+01  0.16241002210E+02  0.00000000000E+00 0. -1.
</event>
<event>
 7    1  0.1339094E-013  0.7246162E+02  0.7816164E-02  0.1226708E+00
        -11   -1    0    0    0    0  0.00000000000E+00  0.00000000000E+00  0.45593999997E+02  0.45594000000E+02  0.51100000000E-03 0.  1.
         11   -1    0    0    0    0 -0.00000000000E+00 -0.00000000000E+00 -0.45593999997E+02  0.45594000000E+02  0.51100000000E-03 0. -1.
    9900012    2    1    2    0    0 -0.69770153044E+01  0.44123003641E+01  0.16808631280E+02  0.72461622278E+02  0.70000067719E+02 0.  0.
         12    1    1    2    0    0  0.69770153044E+01 -0.44123003641E+01 -0.16808631280E+02  0.18726377722E+02  0.00000000000E+00 0. -1.
         11    1    3    3    0    0  0.85604506894E+00 -0.15589850125E+02  0.38985566285E+01  0.16092699715E+02  0.51100000000E-03 0. -1.
        -11    1    3    3    0    0 -0.17060628646E+02  0.24899347617E+02 -0.95003184079E+01  0.31643302793E+02  0.51100000000E-03 0.  1.
        -12    1    3    3    0    0  0.92275682725E+01 -0.48971971283E+01  0.22410393060E+02  0.24725619770E+02  0.00000000000E+00 0.  1.
</event>
<event>
 7    1  0.1339094E-013  0.7246154E+02  0.7816164E-02  0.1226708E+00
        -11   -1    0    0    0    0  0.00000000000E+00  0.00000000000E+00  0.45593999997E+02  0.45594000000E+02  0.51100000000E-03 0.  1.
         11   -1    0    0    0    0 -0.00000000000E+00 -0.00000000000E+00 -0.45593999997E+02  0.45594000000E+02  0.51100000000E-03 0. -1.
    9900012    2    1    2    0    0  0.15206581069E+02  0.88713969903E+01  0.63826602980E+01  0.72461544253E+02  0.69999966076E+02 0.  0.
         12    1    1    2    0    0 -0.15206581069E+02 -0.88713969903E+01 -0.63826602980E+01  0.18726455747E+02  0.00000000000E+00 0. -1.
         11    1    3    3    0    0 -0.30244005231E+01 -0.17193674169E+01 -0.25804121183E+02  0.26037586162E+02  0.51100000000E-03 0. -1.
        -11    1    3    3    0    0  0.21674416275E+02  0.12128111719E+02  0.15411133304E+02  0.29229684307E+02  0.51100000000E-03 0.  1.
        -12    1    3    3    0    0 -0.34434346826E+01 -0.15373473121E+01  0.16775648177E+02  0.17194273784E+02  0.00000000000E+00 0.  1.
</event>
<event>
 7    1  0.1339094E-013  0.7246148E+02  0.7816164E-02  0.1226708E+00
        -11   -1    0    0    0    0  0.00000000000E+00  0.00000000000E+00  0.45593999997E+02  0.45594000000E+02  0.51100000000E-03 0. -1.
         11   -1    0    0    0    0 -0.00000000000E+00 -0.00000000000E+00 -0.45593999997E+02  0.45594000000E+02  0.51100000000E-03 0.  1.
    9900012    2    1    2    0    0  0.65855316354E+01 -0.17527957909E+02  0.28981414622E+00  0.72461480633E+02  0.69999883199E+02 0.  0.
         12    1    1    2    0    0 -0.65855316354E+01  0.17527957909E+02 -0.28981414622E+00  0.18726519367E+02  0.00000000000E+00 0. -1.
         11    1    3    3    0    0  0.20701445471E+02  0.57741367656E+01  0.16386613465E+02  0.27026128119E+02  0.51100000000E-03 0. -1.
        -11    1    3    3    0    0 -0.22885017121E+02 -0.75569718149E+01 -0.62467424170E+01  0.24896859696E+02  0.51100000000E-03 0.  1.
        -12    1    3    3    0    0  0.87691032854E+01 -0.15745122859E+02 -0.98500569017E+01  0.20538492818E+02  0.00000000000E+00 0.  1.
</event>
<event>
 7    1  0.1339094E-013  0.7246128E+02  0.7816164E-02  0.1226709E+00
        -11   -1    0    0    0    0  0.00000000000E+00  0.00000000000E+00  0.45593999997E+02  0.45594000000E+02  0.51100000000E-03 0.  1.
         11   -1    0    0    0    0 -0.00000000000E+00 -0.00000000000E+00 -0.45593999997E+02  0.45594000000E+02  0.51100000000E-03 0. -1.
    9900012    2    1    2    0    0  0.38908528960E+01  0.17605217354E+02 -0.50604155578E+01  0.72461275247E+02  0.69999615645E+02 0.  0.
         12    1    1    2    0    0 -0.38908528960E+01 -0.17605217354E+02  0.50604155578E+01  0.18726724753E+02  0.00000000000E+00 0. -1.
         11    1    3    3    0    0  0.30931193743E+02 -0.10515876359E-01 -0.27693746901E+01  0.31054923818E+02  0.51100000000E-03 0. -1.
        -11    1    3    3    0    0 -0.20316380103E+02  0.22876281351E+01 -0.10252378170E+02  0.22871375153E+02  0.51100000000E-03 0.  1.
        -12    1    3    3    0    0 -0.67239607436E+01  0.15328105096E+02  0.79613373023E+01  0.18534976276E+02  0.00000000000E+00 0.  1.
</event>
<event>
 7    1  0.1339094E-013  0.7246158E+02  0.7816164E-02  0.1226708E+00
        -11   -1    0    0    0    0  0.00000000000E+00  0.00000000000E+00  0.45593999997E+02  0.45594000000E+02  0.51100000000E-03 0. -1.
         11   -1    0    0    0    0 -0.00000000000E+00 -0.00000000000E+00 -0.45593999997E+02  0.45594000000E+02  0.51100000000E-03 0.  1.
    9900012    2    1    2    0    0  0.75703569734E+01  0.15680868873E+02 -0.68905025064E+01  0.72461575405E+02  0.70000006658E+02 0.  0.
         12    1    1    2    0    0 -0.75703569734E+01 -0.15680868873E+02  0.68905025064E+01  0.18726424595E+02  0.00000000000E+00 0. -1.
         11    1    3    3    0    0  0.14693467188E+02 -0.17540017679E+01  0.20339829802E+01  0.14936920272E+02  0.51100000000E-03 0. -1.
        -11    1    3    3    0    0 -0.21278485241E+02 -0.81178043803E+01  0.75432235795E+01  0.23991100523E+02  0.51100000000E-03 0.  1.
        -12    1    3    3    0    0  0.14155375026E+02  0.25552675021E+02 -0.16467709066E+02  0.33533554609E+02  0.00000000000E+00 0.  1.
</event>
<event>
 7    1  0.1339094E-013  0.7246187E+02  0.7816164E-02  0.1226707E+00
        -11   -1    0    0    0    0  0.00000000000E+00  0.00000000000E+00  0.45593999997E+02  0.45594000000E+02  0.51100000000E-03 0.  1.
         11   -1    0    0    0    0 -0.00000000000E+00 -0.00000000000E+00 -0.45593999997E+02  0.45594000000E+02  0.51100000000E-03 0. -1.
    9900012    2    1    2    0    0  0.13415719734E+02 -0.12731486383E+02  0.29318113467E+01  0.72461873885E+02  0.70000395482E+02 0.  0.
         12    1    1    2    0    0 -0.13415719734E+02  0.12731486383E+02 -0.29318113467E+01  0.18726126115E+02  0.00000000000E+00 0. -1.
         11    1    3    3    0    0 -0.19559520642E+02 -0.15899705785E+02  0.21599217914E+02  0.33194904828E+02  0.51100000000E-03 0.  1.
        -11    1    3    3    0    0  0.28145895866E+02  0.61221671412E+01 -0.16568195752E+02  0.33229166336E+02  0.51100000000E-03 0. -1.
        -12    1    3    3    0    0  0.48293445101E+01 -0.29539477398E+01 -0.20992108154E+01  0.60378027207E+01  0.00000000000E+00 0.  1.
</event>
<event>
 7    1  0.1339094E-013  0.7246101E+02  0.7816164E-02  0.1226709E+00
        -11   -1    0    0    0    0  0.00000000000E+00  0.00000000000E+00  0.45593999997E+02  0.45594000000E+02  0.51100000000E-03 0.  1.
         11   -1    0    0    0    0 -0.00000000000E+00 -0.00000000000E+00 -0.45593999997E+02  0.45594000000E+02  0.51100000000E-03 0. -1.
    9900012    2    1    2    0    0 -0.11051492169E+02 -0.43327900667E+01  0.14484182864E+02  0.72461011397E+02  0.69999271928E+02 0.  0.
         12    1    1    2    0    0  0.11051492169E+02  0.43327900667E+01 -0.14484182864E+02  0.18726988603E+02  0.00000000000E+00 0. -1.
         11    1    3    3    0    0 -0.25246558900E+02 -0.81493927944E+01  0.32258370738E+01  0.26724658357E+02  0.51100000000E-03 0. -1.
        -11    1    3    3    0    0  0.19068144364E+02  0.29632289435E+01  0.24739891251E+02  0.31375740224E+02  0.51100000000E-03 0.  1.
        -12    1    3    3    0    0 -0.48730776334E+01  0.85337378425E+00 -0.13481545461E+02  0.14360612816E+02  0.00000000000E+00 0.  1.
</event>
<event>
 7    1  0.1339094E-013  0.7246157E+02  0.7816164E-02  0.1226708E+00
        -11   -1    0    0    0    0  0.00000000000E+00  0.00000000000E+00  0.45593999997E+02  0.45594000000E+02  0.51100000000E-03 0.  1.
         11   -1    0    0    0    0 -0.00000000000E+00 -0.00000000000E+00 -0.45593999997E+02  0.45594000000E+02  0.51100000000E-03 0. -1.
    9900012    2    1    2    0    0  0.27347592123E+01  0.18504474538E+02 -0.88588466478E+00  0.72461567410E+02  0.69999996243E+02 0.  0.
         12    1    1    2    0    0 -0.27347592123E+01 -0.18504474538E+02  0.88588466478E+00  0.18726432590E+02  0.00000000000E+00 0. -1.
         11    1    3    3    0    0  0.22746119353E+01 -0.13482967484E+02 -0.25017747409E+02  0.28510558698E+02  0.51100000000E-03 0. -1.
        -11    1    3    3    0    0  0.35611420353E+01  0.26151857467E+01  0.10559009065E+02  0.11446117324E+02  0.51100000000E-03 0.  1.
         12    1    3    3    0    0 -0.31009947584E+01  0.29372256276E+02  0.13572853678E+02  0.32504891389E+02  0.00000000000E+00 0. -1.
</event>
<event>
 7    1  0.1339094E-013  0.7246157E+02  0.7816164E-02  0.1226708E+00
        -11   -1    0    0    0    0  0.00000000000E+00  0.00000000000E+00  0.45593999997E+02  0.45594000000E+02  0.51100000000E-03 0.  1.
         11   -1    0    0    0    0 -0.00000000000E+00 -0.00000000000E+00 -0.45593999997E+02  0.45594000000E+02  0.51100000000E-03 0. -1.
    9900012    2    1    2    0    0  0.18214432198E+02  0.43070411941E+01 -0.60238062548E+00  0.72461574645E+02  0.70000005668E+02 0.  0.
         12    1    1    2    0    0 -0.18214432198E+02 -0.43070411941E+01  0.60238062548E+00  0.18726425355E+02  0.00000000000E+00 0. -1.
         11    1    3    3    0    0 -0.12009783428E+02 -0.12654139963E+02  0.11324827024E+02  0.20799371711E+02  0.51100000000E-03 0.  1.
        -11    1    3    3    0    0  0.33727257703E+02  0.23045642388E+02 -0.15615136806E+02  0.43731705237E+02  0.51100000000E-03 0. -1.
         12    1    3    3    0    0 -0.35030420768E+01 -0.60844612308E+01  0.36879291572E+01  0.79304976975E+01  0.00000000000E+00 0. -1.
</event>
<event>
 7    1  0.1339094E-013  0.7246157E+02  0.7816164E-02  0.1226708E+00
        -11   -1    0    0    0    0  0.00000000000E+00  0.00000000000E+00  0.45593999997E+02  0.45594000000E+02  0.51100000000E-03 0. -1.
         11   -1    0    0    0    0 -0.00000000000E+00 -0.00000000000E+00 -0.45593999997E+02  0.45594000000E+02  0.51100000000E-03 0.  1.
    9900012    2    1    2    0    0  0.92817722789E+01  0.15950377852E+02 -0.31801735926E+01  0.72461565360E+02  0.69999993572E+02 0.  0.
         12    1    1    2    0    0 -0.92817722789E+01 -0.15950377852E+02  0.31801735926E+01  0.18726434640E+02  0.00000000000E+00 0. -1.
         11    1    3    3    0    0  0.24514757906E+02  0.16560412348E+02  0.14176484208E+02  0.32805385489E+02  0.51100000000E-03 0. -1.
        -11    1    3    3    0    0 -0.21208417258E+01 -0.19495811626E+01 -0.24497095428E+02  0.24665897936E+02  0.51100000000E-03 0.  1.
         12    1    3    3    0    0 -0.13112143901E+02  0.13395466663E+01  0.71404376274E+01  0.14990281934E+02  0.00000000000E+00 0. -1.
</event>
<event>
 7    1  0.1339094E-013  0.7246160E+02  0.7816164E-02  0.1226708E+00
        -11   -1    0    0    0    0  0.00000000000E+00  0.00000000000E+00  0.45593999997E+02  0.45594000000E+02  0.51100000000E-03 0. -1.
         11   -1    0    0    0    0 -0.00000000000E+00 -0.00000000000E+00 -0.45593999997E+02  0.45594000000E+02  0.51100000000E-03 0.  1.
    9900012    2    1    2    0    0  0.10959607546E+02 -0.98343607205E+01 -0.11569372071E+02  0.72461601028E+02  0.70000040037E+02 0.  0.
         12    1    1    2    0    0 -0.10959607546E+02  0.98343607205E+01  0.11569372071E+02  0.18726398972E+02  0.00000000000E+00 0. -1.
         11    1    3    3    0    0  0.58126910335E+01 -0.29122763138E+02 -0.46197750708E+01  0.30054367932E+02  0.51100000000E-03 0. -1.
        -11    1    3    3    0    0  0.24816644839E+01  0.20774552999E+02 -0.20036662909E+02  0.28969096840E+02  0.51100000000E-03 0.  1.
         12    1    3    3    0    0  0.26652520285E+01 -0.14861505818E+01  0.13087065909E+02  0.13438136256E+02  0.00000000000E+00 0. -1.
</event>
<event>
 7    1  0.1339094E-013  0.7246158E+02  0.7816164E-02  0.1226708E+00
        -11   -1    0    0    0    0  0.00000000000E+00  0.00000000000E+00  0.45593999997E+02  0.45594000000E+02  0.51100000000E-03 0.  1.
         11   -1    0    0    0    0 -0.00000000000E+00 -0.00000000000E+00 -0.45593999997E+02  0.45594000000E+02  0.51100000000E-03 0. -1.
    9900012    2    1    2    0    0  0.16134747779E+02  0.57175178553E+01  0.75933248000E+01  0.72461583422E+02  0.70000017101E+02 0.  0.
         12    1    1    2    0    0 -0.16134747779E+02 -0.57175178553E+01 -0.75933248000E+01  0.18726416578E+02  0.00000000000E+00 0. -1.
         11    1    3    3    0    0  0.32457185041E+02  0.10123494189E+02 -0.10655316089E+02  0.35629899756E+02  0.51100000000E-03 0. -1.
        -11    1    3    3    0    0  0.63081605933E+00  0.96612832843E+01  0.78834560375E+01  0.12485479685E+02  0.51100000000E-03 0.  1.
         12    1    3    3    0    0 -0.16953253321E+02 -0.14067259618E+02  0.10365184852E+02  0.24346203982E+02  0.00000000000E+00 0. -1.
</event>
<event>
 7    1  0.1339094E-013  0.7246159E+02  0.7816164E-02  0.1226708E+00
        -11   -1    0    0    0    0  0.00000000000E+00  0.00000000000E+00  0.45593999997E+02  0.45594000000E+02  0.51100000000E-03 0.  1.
         11   -1    0    0    0    0 -0.00000000000E+00 -0.00000000000E+00 -0.45593999997E+02  0.45594000000E+02  0.51100000000E-03 0. -1.
    9900012    2    1    2    0    0  0.11014296258E+02  0.95637020036E+01 -0.11743051533E+02  0.72461591445E+02  0.70000027552E+02 0.  0.
         12    1    1    2    0    0 -0.11014296258E+02 -0.95637020036E+01  0.11743051533E+02  0.18726408555E+02  0.00000000000E+00 0. -1.
         11    1    3    3    0    0  0.36949502031E+01 -0.22214653408E+02 -0.12174403425E+02  0.25599991837E+02  0.51100000000E-03 0. -1.
        -11    1    3    3    0    0  0.85404605571E+01  0.32263780258E+02  0.11813316368E+02  0.35404031225E+02  0.51100000000E-03 0.  1.
         12    1    3    3    0    0 -0.12211145018E+01 -0.48542484677E+00 -0.11381964477E+02  0.11457568383E+02  0.00000000000E+00 0. -1.
</event>
<event>
 7    1  0.1339094E-013  0.7246124E+02  0.7816164E-02  0.1226709E+00
        -11   -1    0    0    0    0  0.00000000000E+00  0.00000000000E+00  0.45593999997E+02  0.45594000000E+02  0.51100000000E-03 0.  1.
         11   -1    0    0    0    0 -0.00000000000E+00 -0.00000000000E+00 -0.45593999997E+02  0.45594000000E+02  0.51100000000E-03 0. -1.
    9900012    2    1    2    0    0  0.10503446655E+02  0.11292642421E+02  0.10622863609E+02  0.72461243854E+02  0.69999574750E+02 0.  0.
         12    1    1    2    0    0 -0.10503446655E+02 -0.11292642421E+02 -0.10622863609E+02  0.18726756146E+02  0.00000000000E+00 0. -1.
         11    1    3    3    0    0  0.17935434021E+02  0.14663643319E+02 -0.11098988317E+02  0.25688319736E+02  0.51100000000E-03 0. -1.
        -11    1    3    3    0    0  0.50782769610E+01 -0.50413120499E+01  0.30545937758E+02  0.31372886987E+02  0.51100000000E-03 0.  1.
        -12    1    3    3    0    0 -0.12510264327E+02  0.16703111516E+01 -0.88240858324E+01  0.15400037132E+02  0.00000000000E+00 0.  1.
</event>
<event>
 7    1  0.1339094E-013  0.7246157E+02  0.7816164E-02  0.1226708E+00
        -11   -1    0    0    0    0  0.00000000000E+00  0.00000000000E+00  0.45593999997E+02  0.45594000000E+02  0.51100000000E-03 0.  1.
         11   -1    0    0    0    0 -0.00000000000E+00 -0.00000000000E+00 -0.45593999997E+02  0.45594000000E+02  0.51100000000E-03 0. -1.
    9900012    2    1    2    0    0  0.19339552782E+01  0.35051085181E+01  0.18293528402E+02  0.72461570812E+02  0.70000000674E+02 0.  0.
         12    1    1    2    0    0 -0.19339552782E+01 -0.35051085181E+01 -0.18293528402E+02  0.18726429188E+02  0.00000000000E+00 0. -1.
         11    1    3    3    0    0  0.23979197464E+02  0.12026451390E+02 -0.64810309369E+01  0.27597847856E+02  0.51100000000E-03 0.  1.
        -11    1    3    3    0    0 -0.19043186945E+02 -0.18622971505E+02  0.15448967256E+02  0.30791697359E+02  0.51100000000E-03 0. -1.
         12    1    3    3    0    0 -0.30020552406E+01  0.10101628633E+02  0.93255920829E+01  0.14072025597E+02  0.00000000000E+00 0. -1.
</event>
<event>
 7    1  0.1339094E-013  0.7246153E+02  0.7816164E-02  0.1226708E+00
        -11   -1    0    0    0    0  0.00000000000E+00  0.00000000000E+00  0.45593999997E+02  0.45594000000E+02  0.51100000000E-03 0. -1.
         11   -1    0    0    0    0 -0.00000000000E+00 -0.00000000000E+00 -0.45593999997E+02  0.45594000000E+02  0.51100000000E-03 0.  1.
    9900012    2    1    2    0    0  0.15385218180E+02 -0.60099448625E+01  0.88236155289E+01  0.72461532990E+02  0.69999951404E+02 0.  0.
         12    1    1    2    0    0 -0.15385218180E+02  0.60099448625E+01 -0.88236155289E+01  0.18726467010E+02  0.00000000000E+00 0. -1.
         11    1    3    3    0    0  0.65309255013E+01  0.16282894488E+02  0.21011965348E+02  0.27373131513E+02  0.51100000000E-03 0. -1.
        -11    1    3    3    0    0  0.10008502639E+02 -0.27389521717E+02 -0.20234964671E+02  0.35493799747E+02  0.51100000000E-03 0.  1.
        -12    1    3    3    0    0 -0.11542099610E+01  0.50966823669E+01  0.80466148517E+01  0.95946017299E+01  0.00000000000E+00 0.  1.
</event>
<event>
 7    1  0.1339094E-013  0.7246154E+02  0.7816164E-02  0.1226708E+00
        -11   -1    0    0    0    0  0.00000000000E+00  0.00000000000E+00  0.45593999997E+02  0.45594000000E+02  0.51100000000E-03 0.  1.
         11   -1    0    0    0    0 -0.00000000000E+00 -0.00000000000E+00 -0.45593999997E+02  0.45594000000E+02  0.51100000000E-03 0. -1.
    9900012    2    1    2    0    0 -0.30139922325E+00 -0.94995918060E+01  0.16135283674E+02  0.72461535699E+02  0.69999954933E+02 0.  0.
         12    1    1    2    0    0  0.30139922325E+00  0.94995918060E+01 -0.16135283674E+02  0.18726464301E+02  0.00000000000E+00 0. -1.
         11    1    3    3    0    0  0.24377210508E+02  0.19921974335E+02  0.34254672600E+01  0.31668079824E+02  0.51100000000E-03 0.  1.
        -11    1    3    3    0    0 -0.12155202368E+02 -0.18234208384E+02  0.61065473339E+01  0.22749180658E+02  0.51100000000E-03 0. -1.
        -12    1    3    3    0    0 -0.12523407363E+02 -0.11187357757E+02  0.66032690800E+01  0.18044275217E+02  0.00000000000E+00 0.  1.
</event>
<event>
 7    1  0.1339094E-013  0.7246168E+02  0.7816164E-02  0.1226708E+00
        -11   -1    0    0    0    0  0.00000000000E+00  0.00000000000E+00  0.45593999997E+02  0.45594000000E+02  0.51100000000E-03 0.  1.
         11   -1    0    0    0    0 -0.00000000000E+00 -0.00000000000E+00 -0.45593999997E+02  0.45594000000E+02  0.51100000000E-03 0. -1.
    9900012    2    1    2    0    0  0.13275989842E+02  0.10615325469E+02 -0.78573501495E+01  0.72461681823E+02  0.70000145287E+02 0.  0.
         12    1    1    2    0    0 -0.13275989842E+02 -0.10615325469E+02  0.78573501495E+01  0.18726318177E+02  0.00000000000E+00 0. -1.
         11    1    3    3    0    0  0.54283862036E+01 -0.21723926284E+02  0.11113989258E+02  0.24998342094E+02  0.51100000000E-03 0. -1.
        -11    1    3    3    0    0  0.53864716298E+01  0.10869130082E+02 -0.22504510422E+02  0.25565700752E+02  0.51100000000E-03 0.  1.
        -12    1    3    3    0    0  0.24611320081E+01  0.21470121671E+02  0.35331710146E+01  0.21897638977E+02  0.00000000000E+00 0.  1.
</event>
<event>
 7    1  0.1339094E-013  0.7246163E+02  0.7816164E-02  0.1226708E+00
        -11   -1    0    0    0    0  0.00000000000E+00  0.00000000000E+00  0.45593999997E+02  0.45594000000E+02  0.51100000000E-03 0.  1.
         11   -1    0    0    0    0 -0.00000000000E+00 -0.00000000000E+00 -0.45593999997E+02  0.45594000000E+02  0.51100000000E-03 0. -1.
    9900012    2    1    2    0    0 -0.83020446092E+01  0.16631229053E+02 -0.22705374429E+01  0.72461626491E+02  0.70000073207E+02 0.  0.
         12    1    1    2    0    0  0.83020446092E+01 -0.16631229053E+02  0.22705374429E+01  0.18726373509E+02  0.00000000000E+00 0. -1.
         11    1    3    3    0    0 -0.19715159597E+02 -0.70296636438E+01 -0.42065059623E+01  0.21349435157E+02  0.51100000000E-03 0. -1.
        -11    1    3    3    0    0 -0.93916286018E+00  0.24622132940E+02 -0.15951678037E+02  0.29352810595E+02  0.51100000000E-03 0.  1.
        -12    1    3    3    0    0  0.12352277848E+02 -0.96124024285E+00  0.17887646556E+02  0.21759380739E+02  0.00000000000E+00 0.  1.
</event>
<event>
 7    1  0.1339094E-013  0.7246155E+02  0.7816164E-02  0.1226708E+00
        -11   -1    0    0    0    0  0.00000000000E+00  0.00000000000E+00  0.45593999997E+02  0.45594000000E+02  0.51100000000E-03 0.  1.
         11   -1    0    0    0    0 -0.00000000000E+00 -0.00000000000E+00 -0.45593999997E+02  0.45594000000E+02  0.51100000000E-03 0. -1.
    9900012    2    1    2    0    0 -0.13399798098E+01  0.12021132902E+02  0.14296034014E+02  0.72461554244E+02  0.69999979091E+02 0.  0.
         12    1    1    2    0    0  0.13399798098E+01 -0.12021132902E+02 -0.14296034014E+02  0.18726445756E+02  0.00000000000E+00 0. -1.
         11    1    3    3    0    0 -0.22810223236E+02 -0.76418191261E+00 -0.28588428027E+01  0.23001374753E+02  0.51100000000E-03 0. -1.
        -11    1    3    3    0    0  0.29783019088E+02  0.10022719091E+02  0.22988859171E+02  0.38935469308E+02  0.51100000000E-03 0.  1.
        -12    1    3    3    0    0 -0.83127756615E+01  0.27625957241E+01 -0.58339823546E+01  0.10524710183E+02  0.00000000000E+00 0.  1.
</event>
<event>
 7    1  0.1339094E-013  0.7246159E+02  0.7816164E-02  0.1226708E+00
        -11   -1    0    0    0    0  0.00000000000E+00  0.00000000000E+00  0.45593999997E+02  0.45594000000E+02  0.51100000000E-03 0. -1.
         11   -1    0    0    0    0 -0.00000000000E+00 -0.00000000000E+00 -0.45593999997E+02  0.45594000000E+02  0.51100000000E-03 0.  1.
    9900012    2    1    2    0    0  0.10761149354E+02 -0.85484973678E+01 -0.12720035103E+02  0.72461589888E+02  0.70000025524E+02 0.  0.
         12    1    1    2    0    0 -0.10761149354E+02  0.85484973678E+01  0.12720035103E+02  0.18726410112E+02  0.00000000000E+00 0. -1.
         11    1    3    3    0    0 -0.71315583316E+01 -0.25366247234E+02 -0.17844128149E+02  0.31823238877E+02  0.51100000000E-03 0.  1.
        -11    1    3    3    0    0  0.47603473675E+01  0.12877571039E+02  0.17448731862E+02  0.22202499562E+02  0.51100000000E-03 0. -1.
        -12    1    3    3    0    0  0.13132360318E+02  0.39401788270E+01 -0.12324638816E+02  0.18435851449E+02  0.00000000000E+00 0.  1.
</event>
<event>
 7    1  0.1339094E-013  0.7246157E+02  0.7816164E-02  0.1226708E+00
        -11   -1    0    0    0    0  0.00000000000E+00  0.00000000000E+00  0.45593999997E+02  0.45594000000E+02  0.51100000000E-03 0.  1.
         11   -1    0    0    0    0 -0.00000000000E+00 -0.00000000000E+00 -0.45593999997E+02  0.45594000000E+02  0.51100000000E-03 0. -1.
    9900012    2    1    2    0    0  0.77354352365E+01  0.15384656858E+02  0.73589816448E+01  0.72461568525E+02  0.69999997695E+02 0.  0.
         12    1    1    2    0    0 -0.77354352365E+01 -0.15384656858E+02 -0.73589816448E+01  0.18726431475E+02  0.00000000000E+00 0. -1.
         11    1    3    3    0    0  0.11949850212E+02 -0.10361845746E+02  0.15020183187E+02  0.21812213794E+02  0.51100000000E-03 0.  1.
        -11    1    3    3    0    0  0.12508761254E+01  0.33764303357E+02 -0.16430404260E+02  0.37570614271E+02  0.51100000000E-03 0. -1.
         12    1    3    3    0    0 -0.54652911007E+01 -0.80178007527E+01  0.87692027182E+01  0.13078740461E+02  0.00000000000E+00 0. -1.
</event>
<event>
 7    1  0.1339094E-013  0.7246166E+02  0.7816164E-02  0.1226708E+00
        -11   -1    0    0    0    0  0.00000000000E+00  0.00000000000E+00  0.45593999997E+02  0.45594000000E+02  0.51100000000E-03 0.  1.
         11   -1    0    0    0    0 -0.00000000000E+00 -0.00000000000E+00 -0.45593999997E+02  0.45594000000E+02  0.51100000000E-03 0. -1.
    9900012    2    1    2    0    0  0.15917481628E+00 -0.54544726844E+00  0.18717719140E+02  0.72461658683E+02  0.70000115142E+02 0.  0.
         12    1    1    2    0    0 -0.15917481628E+00  0.54544726844E+00 -0.18717719140E+02  0.18726341317E+02  0.00000000000E+00 0. -1.
         11    1    3    3    0    0  0.11026954669E+01  0.20505028292E+02  0.12930176053E+02  0.24266470192E+02  0.51100000000E-03 0. -1.
        -11    1    3    3    0    0 -0.15755311034E+02 -0.24325546520E+02 -0.52255620557E+01  0.29449423395E+02  0.51100000000E-03 0.  1.
         12    1    3    3    0    0  0.14811790383E+02  0.32750709593E+01  0.11013105142E+02  0.18745765095E+02  0.00000000000E+00 0. -1.
</event>
<event>
 7    1  0.1339094E-013  0.7246174E+02  0.7816164E-02  0.1226708E+00
        -11   -1    0    0    0    0  0.00000000000E+00  0.00000000000E+00  0.45593999997E+02  0.45594000000E+02  0.51100000000E-03 0.  1.
         11   -1    0    0    0    0 -0.00000000000E+00 -0.00000000000E+00 -0.45593999997E+02  0.45594000000E+02  0.51100000000E-03 0. -1.
    9900012    2    1    2    0    0 -0.17758462517E+02 -0.41117242521E+01  0.42899224029E+01  0.72461742992E+02  0.70000224970E+02 0.  0.
         12    1    1    2    0    0  0.17758462517E+02  0.41117242521E+01 -0.42899224029E+01  0.18726257008E+02  0.00000000000E+00 0. -1.
         11    1    3    3    0    0 -0.23479364296E+02  0.18563991603E+02  0.12079607649E+02  0.32277224992E+02  0.51100000000E-03 0. -1.
        -11    1    3    3    0    0  0.44324514570E+01  0.51512003528E+01  0.60326297866E+01  0.90870299546E+01  0.51100000000E-03 0.  1.
         12    1    3    3    0    0  0.12884503220E+01 -0.27826916208E+02 -0.13822315032E+02  0.31097488045E+02  0.00000000000E+00 0. -1.
</event>
<event>
 7    1  0.1339094E-013  0.7246157E+02  0.7816164E-02  0.1226708E+00
        -11   -1    0    0    0    0  0.00000000000E+00  0.00000000000E+00  0.45593999997E+02  0.45594000000E+02  0.51100000000E-03 0.  1.
         11   -1    0    0    0    0 -0.00000000000E+00 -0.00000000000E+00 -0.45593999997E+02  0.45594000000E+02  0.51100000000E-03 0. -1.
    9900012    2    1    2    0    0 -0.16446293417E+01 -0.16499249482E+02  0.87033875477E+01  0.72461574982E+02  0.70000006106E+02 0.  0.
         12    1    1    2    0    0  0.16446293417E+01  0.16499249482E+02 -0.87033875477E+01  0.18726425018E+02  0.00000000000E+00 0. -1.
         11    1    3    3    0    0  0.30771853393E+01  0.18100520186E+01 -0.10369967517E+02  0.10967296134E+02  0.51100000000E-03 0. -1.
        -11    1    3    3    0    0  0.10785423765E+02  0.15951071188E+02  0.13407851404E+02  0.23463429361E+02  0.51100000000E-03 0.  1.
        -12    1    3    3    0    0 -0.15507238446E+02 -0.34260372689E+02  0.56655036610E+01  0.38030849487E+02  0.00000000000E+00 0.  1.
</event>
<event>
 7    1  0.1339094E-013  0.7246153E+02  0.7816164E-02  0.1226708E+00
        -11   -1    0    0    0    0  0.00000000000E+00  0.00000000000E+00  0.45593999997E+02  0.45594000000E+02  0.51100000000E-03 0.  1.
         11   -1    0    0    0    0 -0.00000000000E+00 -0.00000000000E+00 -0.45593999997E+02  0.45594000000E+02  0.51100000000E-03 0. -1.
    9900012    2    1    2    0    0  0.32222178001E+01 -0.77039316974E+01  0.16761489747E+02  0.72461527035E+02  0.69999943647E+02 0.  0.
         12    1    1    2    0    0 -0.32222178001E+01  0.77039316974E+01 -0.16761489747E+02  0.18726472965E+02  0.00000000000E+00 0. -1.
         11    1    3    3    0    0 -0.35214918296E+01 -0.16162786450E+02 -0.11238592524E+02  0.19998563266E+02  0.51100000000E-03 0. -1.
        -11    1    3    3    0    0 -0.10971121971E+02  0.10031205771E+02  0.31044100233E+02  0.34419860053E+02  0.51100000000E-03 0.  1.
        -12    1    3    3    0    0  0.17714831601E+02 -0.15723510184E+01 -0.30440179621E+01  0.18043103716E+02  0.00000000000E+00 0.  1.
</event>
<event>
 7    1  0.1339094E-013  0.7246155E+02  0.7816164E-02  0.1226708E+00
        -11   -1    0    0    0    0  0.00000000000E+00  0.00000000000E+00  0.45593999997E+02  0.45594000000E+02  0.51100000000E-03 0. -1.
         11   -1    0    0    0    0 -0.00000000000E+00 -0.00000000000E+00 -0.45593999997E+02  0.45594000000E+02  0.51100000000E-03 0.  1.
    9900012    2    1    2    0    0 -0.10394714885E+02 -0.17159790277E+01 -0.15481770618E+02  0.72461550709E+02  0.69999974487E+02 0.  0.
         12    1    1    2    0    0  0.10394714885E+02  0.17159790277E+01  0.15481770618E+02  0.18726449291E+02  0.00000000000E+00 0. -1.
         11    1    3    3    0    0 -0.13677952725E+02 -0.48220699229E+01  0.17359982776E+02  0.22620958232E+02  0.51100000000E-03 0. -1.
        -11    1    3    3    0    0  0.10671260519E+02  0.17584457767E+02 -0.13630079531E+02  0.24675251251E+02  0.51100000000E-03 0.  1.
        -12    1    3    3    0    0 -0.73880226787E+01 -0.14478366872E+02 -0.19211673864E+02  0.25165341226E+02  0.00000000000E+00 0.  1.
</event>
<event>
 7    1  0.1339094E-013  0.7246157E+02  0.7816164E-02  0.1226708E+00
        -11   -1    0    0    0    0  0.00000000000E+00  0.00000000000E+00  0.45593999997E+02  0.45594000000E+02  0.51100000000E-03 0.  1.
         11   -1    0    0    0    0 -0.00000000000E+00 -0.00000000000E+00 -0.45593999997E+02  0.45594000000E+02  0.51100000000E-03 0. -1.
    9900012    2    1    2    0    0 -0.16338920437E+02  0.86593641676E+01  0.29553544531E+01  0.72461574053E+02  0.70000004896E+02 0.  0.
         12    1    1    2    0    0  0.16338920437E+02 -0.86593641676E+01 -0.29553544531E+01  0.18726425947E+02  0.00000000000E+00 0. -1.
         11    1    3    3    0    0 -0.29927186187E+02  0.43775754483E+01 -0.10524363125E+02  0.32024394753E+02  0.51100000000E-03 0. -1.
        -11    1    3    3    0    0 -0.46880025814E+01 -0.19924181815E+01  0.19534359761E+02  0.20187578110E+02  0.51100000000E-03 0.  1.
         12    1    3    3    0    0  0.18276268332E+02  0.62742069008E+01 -0.60546421826E+01  0.20249601189E+02  0.00000000000E+00 0. -1.
</event>
<event>
 7    1  0.1555920E-013  0.7246153E+02  0.7816164E-02  0.1226708E+00
        -11   -1    0    0    0    0  0.00000000000E+00  0.00000000000E+00  0.45593999997E+02  0.45594000000E+02  0.51100000000E-03 0. -1.
         11   -1    0    0    0    0 -0.00000000000E+00 -0.00000000000E+00 -0.45593999997E+02  0.45594000000E+02  0.51100000000E-03 0.  1.
    9900012    2    1    2    0    0  0.13143301868E+02 -0.30185667625E+01 -0.12993171522E+02  0.72461531153E+02  0.69999949011E+02 0.  0.
         12    1    1    2    0    0 -0.13143301868E+02  0.30185667625E+01  0.12993171522E+02  0.18726468847E+02  0.00000000000E+00 0. -1.
         11    1    3    3    0    0 -0.60940517160E+00 -0.29598423756E+02 -0.60604269809E+01  0.30218650515E+02  0.51100000000E-03 0. -1.
        -11    1    3    3    0    0  0.17305282211E+02  0.10166269892E+02 -0.13524339806E+02  0.24201933877E+02  0.51100000000E-03 0.  1.
         12    1    3    3    0    0 -0.35525751716E+01  0.16413587101E+02  0.65915952655E+01  0.18040946761E+02  0.00000000000E+00 0. -1.
</event>
<event>
 7    1  0.1339094E-013  0.7246155E+02  0.7816164E-02  0.1226708E+00
        -11   -1    0    0    0    0  0.00000000000E+00  0.00000000000E+00  0.45593999997E+02  0.45594000000E+02  0.51100000000E-03 0.  1.
         11   -1    0    0    0    0 -0.00000000000E+00 -0.00000000000E+00 -0.45593999997E+02  0.45594000000E+02  0.51100000000E-03 0. -1.
    9900012    2    1    2    0    0  0.34004671206E+01 -0.10003358254E+01  0.18387927999E+02  0.72461554942E+02  0.69999980001E+02 0.  0.
         12    1    1    2    0    0 -0.34004671206E+01  0.10003358254E+01 -0.18387927999E+02  0.18726445058E+02  0.00000000000E+00 0. -1.
         11    1    3    3    0    0 -0.13489812694E+02 -0.14884261373E+02  0.13197022418E+02  0.24034926339E+02  0.51100000000E-03 0. -1.
        -11    1    3    3    0    0  0.31203109008E+02  0.76761429580E+01  0.50638290065E+00  0.32137417544E+02  0.51100000000E-03 0.  1.
        -12    1    3    3    0    0 -0.14312829194E+02  0.62077825895E+01  0.46845226800E+01  0.16289211060E+02  0.00000000000E+00 0.  1.
</event>
<event>
 7    1  0.1339094E-013  0.7246152E+02  0.7816164E-02  0.1226708E+00
        -11   -1    0    0    0    0  0.00000000000E+00  0.00000000000E+00  0.45593999997E+02  0.45594000000E+02  0.51100000000E-03 0. -1.
         11   -1    0    0    0    0 -0.00000000000E+00 -0.00000000000E+00 -0.45593999997E+02  0.45594000000E+02  0.51100000000E-03 0.  1.
    9900012    2    1    2    0    0 -0.34860278846E+01  0.14191356052E+02 -0.11710428369E+02  0.72461518494E+02  0.69999932521E+02 0.  0.
         12    1    1    2    0    0  0.34860278846E+01 -0.14191356052E+02  0.11710428369E+02  0.18726481506E+02  0.00000000000E+00 0. -1.
         11    1    3    3    0    0  0.12885148192E+02  0.90441845478E+01  0.18698590267E+02  0.24443027560E+02  0.51100000000E-03 0. -1.
        -11    1    3    3    0    0 -0.36584861308E+01 -0.13545692745E+02 -0.78307894292E+01  0.16068340800E+02  0.51100000000E-03 0.  1.
         12    1    3    3    0    0 -0.12712689945E+02  0.18692864249E+02 -0.22578229207E+02  0.31950150134E+02  0.00000000000E+00 0. -1.
</event>
<event>
 7    1  0.1339094E-013  0.7246157E+02  0.7816164E-02  0.1226708E+00
        -11   -1    0    0    0    0  0.00000000000E+00  0.00000000000E+00  0.45593999997E+02  0.45594000000E+02  0.51100000000E-03 0.  1.
         11   -1    0    0    0    0 -0.00000000000E+00 -0.00000000000E+00 -0.45593999997E+02  0.45594000000E+02  0.51100000000E-03 0. -1.
    9900012    2    1    2    0    0  0.11339418156E+02  0.63954312134E+01  0.13460878259E+02  0.72461569801E+02  0.69999999357E+02 0.  0.
         12    1    1    2    0    0 -0.11339418156E+02 -0.63954312134E+01 -0.13460878259E+02  0.18726430199E+02  0.00000000000E+00 0. -1.
         11    1    3    3    0    0 -0.70665538543E+01  0.87661029751E+01  0.14486721511E+02  0.18347911193E+02  0.51100000000E-03 0. -1.
        -11    1    3    3    0    0  0.13244203429E+02 -0.23590760828E+02 -0.12089105479E+02  0.29632404433E+02  0.51100000000E-03 0.  1.
        -12    1    3    3    0    0  0.51617685813E+01  0.21220089066E+02  0.11063262227E+02  0.24481254175E+02  0.00000000000E+00 0.  1.
</event>
<event>
 7    1  0.1339094E-013  0.7246161E+02  0.7816164E-02  0.1226708E+00
        -11   -1    0    0    0    0  0.00000000000E+00  0.00000000000E+00  0.45593999997E+02  0.45594000000E+02  0.51100000000E-03 0. -1.
         11   -1    0    0    0    0 -0.00000000000E+00 -0.00000000000E+00 -0.45593999997E+02  0.45594000000E+02  0.51100000000E-03 0.  1.
    9900012    2    1    2    0    0  0.14975174911E+02 -0.39178398751E+01 -0.10539079487E+02  0.72461614088E+02  0.70000057049E+02 0.  0.
         12    1    1    2    0    0 -0.14975174911E+02  0.39178398751E+01  0.10539079487E+02  0.18726385912E+02  0.00000000000E+00 0. -1.
         11    1    3    3    0    0  0.66192925792E+01  0.42931638510E+01  0.26171664420E+02  0.27335001534E+02  0.51100000000E-03 0. -1.
        -11    1    3    3    0    0 -0.59315133493E+01 -0.95774835626E+01 -0.11384288138E+02  0.16016025059E+02  0.51100000000E-03 0.  1.
         12    1    3    3    0    0  0.14287395681E+02  0.13664798365E+01 -0.25326455769E+02  0.29110587495E+02  0.00000000000E+00 0. -1.
</event>
<event>
 7    1  0.1339094E-013  0.7246159E+02  0.7816164E-02  0.1226708E+00
        -11   -1    0    0    0    0  0.00000000000E+00  0.00000000000E+00  0.45593999997E+02  0.45594000000E+02  0.51100000000E-03 0.  1.
         11   -1    0    0    0    0 -0.00000000000E+00 -0.00000000000E+00 -0.45593999997E+02  0.45594000000E+02  0.51100000000E-03 0. -1.
    9900012    2    1    2    0    0  0.14147424801E+01  0.16925248911E+02  0.78875169357E+01  0.72461588961E+02  0.70000024317E+02 0.  0.
         12    1    1    2    0    0 -0.14147424801E+01 -0.16925248911E+02 -0.78875169357E+01  0.18726411039E+02  0.00000000000E+00 0. -1.
         11    1    3    3    0    0  0.13130647279E+02  0.14538943310E+02 -0.18918215952E+02  0.27234053419E+02  0.51100000000E-03 0. -1.
        -11    1    3    3    0    0  0.97820908450E+01  0.87293250054E+01  0.14902183552E+02  0.19848563959E+02  0.51100000000E-03 0.  1.
         12    1    3    3    0    0 -0.21497995644E+02 -0.63430194047E+01  0.11903549336E+02  0.25378971584E+02  0.00000000000E+00 0. -1.
</event>
<event>
 7    1  0.1339094E-013  0.7246203E+02  0.7816164E-02  0.1226707E+00
        -11   -1    0    0    0    0  0.00000000000E+00  0.00000000000E+00  0.45593999997E+02  0.45594000000E+02  0.51100000000E-03 0.  1.
         11   -1    0    0    0    0 -0.00000000000E+00 -0.00000000000E+00 -0.45593999997E+02  0.45594000000E+02  0.51100000000E-03 0. -1.
    9900012    2    1    2    0    0  0.43217676197E+00 -0.13671412978E+02  0.12789356308E+02  0.72462030217E+02  0.70000599132E+02 0.  0.
         12    1    1    2    0    0 -0.43217676197E+00  0.13671412978E+02 -0.12789356308E+02  0.18725969783E+02  0.00000000000E+00 0. -1.
         11    1    3    3    0    0  0.50024872374E+00  0.14807873061E+01 -0.13100042321E+02  0.13192956034E+02  0.51100000000E-03 0. -1.
        -11    1    3    3    0    0  0.16719608078E+02 -0.27387015182E+02  0.11891218236E+02  0.34219803715E+02  0.51100000000E-03 0.  1.
        -12    1    3    3    0    0 -0.16787680039E+02  0.12234814898E+02  0.13998180393E+02  0.25049270468E+02  0.00000000000E+00 0.  1.
</event>
<event>
 7    1  0.1339094E-013  0.7246166E+02  0.7816164E-02  0.1226708E+00
        -11   -1    0    0    0    0  0.00000000000E+00  0.00000000000E+00  0.45593999997E+02  0.45594000000E+02  0.51100000000E-03 0. -1.
         11   -1    0    0    0    0 -0.00000000000E+00 -0.00000000000E+00 -0.45593999997E+02  0.45594000000E+02  0.51100000000E-03 0.  1.
    9900012    2    1    2    0    0 -0.10347360843E+02  0.11732695323E+02 -0.10293284946E+02  0.72461662106E+02  0.70000119602E+02 0.  0.
         12    1    1    2    0    0  0.10347360843E+02 -0.11732695323E+02  0.10293284946E+02  0.18726337894E+02  0.00000000000E+00 0. -1.
         11    1    3    3    0    0  0.10602111718E+02 -0.15506833061E+02 -0.25097043434E+02  0.31348496517E+02  0.51100000000E-03 0.  1.
        -11    1    3    3    0    0 -0.12735383723E+02  0.21918890628E+02  0.17687073563E+02  0.30910521452E+02  0.51100000000E-03 0. -1.
         12    1    3    3    0    0 -0.82140888382E+01  0.53206377559E+01 -0.28833150749E+01  0.10202644137E+02  0.00000000000E+00 0. -1.
</event>
<event>
 7    1  0.1339094E-013  0.7246156E+02  0.7816164E-02  0.1226708E+00
        -11   -1    0    0    0    0  0.00000000000E+00  0.00000000000E+00  0.45593999997E+02  0.45594000000E+02  0.51100000000E-03 0.  1.
         11   -1    0    0    0    0 -0.00000000000E+00 -0.00000000000E+00 -0.45593999997E+02  0.45594000000E+02  0.51100000000E-03 0. -1.
    9900012    2    1    2    0    0  0.74270191135E+00 -0.94795868855E+01  0.16132737906E+02  0.72461563981E+02  0.69999991776E+02 0.  0.
         12    1    1    2    0    0 -0.74270191135E+00  0.94795868855E+01 -0.16132737906E+02  0.18726436019E+02  0.00000000000E+00 0. -1.
         11    1    3    3    0    0 -0.24550957552E+02 -0.50464602559E+01 -0.16061443752E+02  0.29768880622E+02  0.51100000000E-03 0. -1.
        -11    1    3    3    0    0  0.63935814992E+01 -0.52965564722E+01  0.14913800124E+02  0.17069060585E+02  0.51100000000E-03 0.  1.
         12    1    3    3    0    0  0.18900077964E+02  0.86342984264E+00  0.17280381534E+02  0.25623622774E+02  0.00000000000E+00 0. -1.
</event>
<event>
 7    1  0.1339094E-013  0.7246154E+02  0.7816164E-02  0.1226708E+00
        -11   -1    0    0    0    0  0.00000000000E+00  0.00000000000E+00  0.45593999997E+02  0.45594000000E+02  0.51100000000E-03 0.  1.
         11   -1    0    0    0    0 -0.00000000000E+00 -0.00000000000E+00 -0.45593999997E+02  0.45594000000E+02  0.51100000000E-03 0. -1.
    9900012    2    1    2    0    0 -0.59608388887E+00  0.18458870420E+02  0.30975772778E+01  0.72461542829E+02  0.69999964221E+02 0.  0.
         12    1    1    2    0    0  0.59608388887E+00 -0.18458870420E+02 -0.30975772778E+01  0.18726457171E+02  0.00000000000E+00 0. -1.
         11    1    3    3    0    0 -0.61044274853E+01  0.18824484860E+02  0.17086116289E+02  0.26144992547E+02  0.51100000000E-03 0.  1.
        -11    1    3    3    0    0  0.62844208783E+01 -0.55708841082E+01 -0.29114319838E+02  0.30301358310E+02  0.51100000000E-03 0. -1.
         12    1    3    3    0    0 -0.77607728183E+00  0.52052696689E+01  0.15125780827E+02  0.16015191972E+02  0.00000000000E+00 0. -1.
</event>
<event>
 7    1  0.1339094E-013  0.7246161E+02  0.7816164E-02  0.1226708E+00
        -11   -1    0    0    0    0  0.00000000000E+00  0.00000000000E+00  0.45593999997E+02  0.45594000000E+02  0.51100000000E-03 0.  1.
         11   -1    0    0    0    0 -0.00000000000E+00 -0.00000000000E+00 -0.45593999997E+02  0.45594000000E+02  0.51100000000E-03 0. -1.
    9900012    2    1    2    0    0 -0.10003523322E+02  0.13768912113E+02  0.78118032105E+01  0.72461609824E+02  0.70000051494E+02 0.  0.
         12    1    1    2    0    0  0.10003523322E+02 -0.13768912113E+02 -0.78118032105E+01  0.18726390176E+02  0.00000000000E+00 0. -1.
         11    1    3    3    0    0 -0.80797261058E+01  0.31638844042E+01 -0.14760768259E+02  0.17122278421E+02  0.51100000000E-03 0. -1.
        -11    1    3    3    0    0  0.18548522427E+02  0.11189913327E+02  0.26766050609E+02  0.34433752481E+02  0.51100000000E-03 0.  1.
        -12    1    3    3    0    0 -0.20472319643E+02 -0.58488561772E+00 -0.41934791391E+01  0.20905578921E+02  0.00000000000E+00 0.  1.
</event>
<event>
 7    1  0.1339094E-013  0.7246151E+02  0.7816164E-02  0.1226708E+00
        -11   -1    0    0    0    0  0.00000000000E+00  0.00000000000E+00  0.45593999997E+02  0.45594000000E+02  0.51100000000E-03 0. -1.
         11   -1    0    0    0    0 -0.00000000000E+00 -0.00000000000E+00 -0.45593999997E+02  0.45594000000E+02  0.51100000000E-03 0.  1.
    9900012    2    1    2    0    0 -0.13313173034E+02  0.10077286424E+02  0.84787376466E+01  0.72461514212E+02  0.69999926942E+02 0.  0.
         12    1    1    2    0    0  0.13313173034E+02 -0.10077286424E+02 -0.84787376466E+01  0.18726485788E+02  0.00000000000E+00 0. -1.
         11    1    3    3    0    0 -0.14724278749E+02  0.15204725401E+02  0.34893500627E+02  0.40811082385E+02  0.51100000000E-03 0. -1.
        -11    1    3    3    0    0  0.63059912878E+01  0.20099483027E+01 -0.19437963444E+02  0.20533870590E+02  0.51100000000E-03 0.  1.
        -12    1    3    3    0    0 -0.48948855728E+01 -0.71373872790E+01 -0.69767995367E+01  0.11116561236E+02  0.00000000000E+00 0.  1.
</event>
<event>
 7    1  0.1339094E-013  0.7246171E+02  0.7816164E-02  0.1226708E+00
        -11   -1    0    0    0    0  0.00000000000E+00  0.00000000000E+00  0.45593999997E+02  0.45594000000E+02  0.51100000000E-03 0.  1.
         11   -1    0    0    0    0 -0.00000000000E+00 -0.00000000000E+00 -0.45593999997E+02  0.45594000000E+02  0.51100000000E-03 0. -1.
    9900012    2    1    2    0    0 -0.11389666747E+02 -0.68503547006E+01  0.13191740492E+02  0.72461711384E+02  0.70000183795E+02 0.  0.
         12    1    1    2    0    0  0.11389666747E+02  0.68503547006E+01 -0.13191740492E+02  0.18726288616E+02  0.00000000000E+00 0. -1.
         11    1    3    3    0    0 -0.34930932055E+02  0.69265792126E+01  0.16628713198E+02  0.39302183358E+02  0.51100000000E-03 0. -1.
        -11    1    3    3    0    0  0.89016355397E+01 -0.14586399877E+02 -0.63152361879E+01  0.18217694284E+02  0.51100000000E-03 0.  1.
         12    1    3    3    0    0  0.14639629768E+02  0.80946596343E+00  0.28782634819E+01  0.14941833742E+02  0.00000000000E+00 0. -1.
</event>
<event>
 7    1  0.1339094E-013  0.7246159E+02  0.7816164E-02  0.1226708E+00
        -11   -1    0    0    0    0  0.00000000000E+00  0.00000000000E+00  0.45593999997E+02  0.45594000000E+02  0.51100000000E-03 0. -1.
         11   -1    0    0    0    0 -0.00000000000E+00 -0.00000000000E+00 -0.45593999997E+02  0.45594000000E+02  0.51100000000E-03 0.  1.
    9900012    2    1    2    0    0 -0.45785502841E+01 -0.11118683430E+01 -0.18123995059E+02  0.72461586280E+02  0.70000020825E+02 0.  0.
         12    1    1    2    0    0  0.45785502841E+01  0.11118683430E+01  0.18123995059E+02  0.18726413720E+02  0.00000000000E+00 0. -1.
         11    1    3    3    0    0  0.15270259762E+02 -0.50863173733E+01  0.11036078181E+02  0.19515288353E+02  0.51100000000E-03 0. -1.
        -11    1    3    3    0    0 -0.46684252023E+01  0.20641966628E+02 -0.18039041418E+02  0.27808128231E+02  0.51100000000E-03 0.  1.
         12    1    3    3    0    0 -0.15180384844E+02 -0.16667517598E+02 -0.11121031822E+02  0.25138169696E+02  0.00000000000E+00 0. -1.
</event>
<event>
 7    1  0.1339094E-013  0.7246166E+02  0.7816164E-02  0.1226708E+00
        -11   -1    0    0    0    0  0.00000000000E+00  0.00000000000E+00  0.45593999997E+02  0.45594000000E+02  0.51100000000E-03 0.  1.
         11   -1    0    0    0    0 -0.00000000000E+00 -0.00000000000E+00 -0.45593999997E+02  0.45594000000E+02  0.51100000000E-03 0. -1.
    9900012    2    1    2    0    0  0.63956184233E+01 -0.17366785896E+02  0.28577485107E+01  0.72461657220E+02  0.70000113237E+02 0.  0.
         12    1    1    2    0    0 -0.63956184233E+01  0.17366785896E+02 -0.28577485107E+01  0.18726342780E+02  0.00000000000E+00 0. -1.
         11    1    3    3    0    0  0.10647419313E+02 -0.27185251394E+02 -0.41055602919E+01  0.29483233488E+02  0.51100000000E-03 0. -1.
        -11    1    3    3    0    0 -0.11754283973E+02  0.19453918609E+02  0.15991973458E+02  0.27791389968E+02  0.51100000000E-03 0.  1.
        -12    1    3    3    0    0  0.75024830835E+01 -0.96354531115E+01 -0.90286646556E+01  0.15187033764E+02  0.00000000000E+00 0.  1.
</event>
<event>
 7    1  0.1339094E-013  0.7246156E+02  0.7816164E-02  0.1226708E+00
        -11   -1    0    0    0    0  0.00000000000E+00  0.00000000000E+00  0.45593999997E+02  0.45594000000E+02  0.51100000000E-03 0.  1.
         11   -1    0    0    0    0 -0.00000000000E+00 -0.00000000000E+00 -0.45593999997E+02  0.45594000000E+02  0.51100000000E-03 0. -1.
    9900012    2    1    2    0    0 -0.17455538677E+02 -0.23628800101E+00  0.67770065667E+01  0.72461561990E+02  0.69999989182E+02 0.  0.
         12    1    1    2    0    0  0.17455538677E+02  0.23628800101E+00 -0.67770065667E+01  0.18726438010E+02  0.00000000000E+00 0. -1.
         11    1    3    3    0    0  0.35533258612E+01  0.11738859852E+02 -0.24456073021E+02  0.27359211669E+02  0.51100000000E-03 0. -1.
        -11    1    3    3    0    0 -0.19846004194E+02 -0.12637027739E+01  0.26984645571E+02  0.33520619386E+02  0.51100000000E-03 0.  1.
        -12    1    3    3    0    0 -0.11628603444E+01 -0.10711445079E+02  0.42484340168E+01  0.11581730935E+02  0.00000000000E+00 0.  1.
</event>
<event>
 7    1  0.1339094E-013  0.7246156E+02  0.7816164E-02  0.1226708E+00
        -11   -1    0    0    0    0  0.00000000000E+00  0.00000000000E+00  0.45593999997E+02  0.45594000000E+02  0.51100000000E-03 0. -1.
         11   -1    0    0    0    0 -0.00000000000E+00 -0.00000000000E+00 -0.45593999997E+02  0.45594000000E+02  0.51100000000E-03 0.  1.
    9900012    2    1    2    0    0  0.13377348870E+02  0.43326873703E+01 -0.12367459323E+02  0.72461556324E+02  0.69999981801E+02 0.  0.
         12    1    1    2    0    0 -0.13377348870E+02 -0.43326873703E+01  0.12367459323E+02  0.18726443676E+02  0.00000000000E+00 0. -1.
         11    1    3    3    0    0  0.13719190436E+02 -0.18495588965E+02 -0.20253994720E+02  0.30668017539E+02  0.51100000000E-03 0.  1.
        -11    1    3    3    0    0 -0.12330372896E+01  0.29056524734E+02 -0.29821075553E+01  0.29235166774E+02  0.51100000000E-03 0. -1.
        -12    1    3    3    0    0  0.89119572319E+00 -0.62282483993E+01  0.10868642952E+02  0.12558372011E+02  0.00000000000E+00 0.  1.
</event>
<event>
 7    1  0.1339094E-013  0.7246147E+02  0.7816164E-02  0.1226708E+00
        -11   -1    0    0    0    0  0.00000000000E+00  0.00000000000E+00  0.45593999997E+02  0.45594000000E+02  0.51100000000E-03 0.  1.
         11   -1    0    0    0    0 -0.00000000000E+00 -0.00000000000E+00 -0.45593999997E+02  0.45594000000E+02  0.51100000000E-03 0. -1.
    9900012    2    1    2    0    0  0.98992088332E+01  0.42018786995E+01  0.15330778183E+02  0.72461471229E+02  0.69999870948E+02 0.  0.
         12    1    1    2    0    0 -0.98992088332E+01 -0.42018786995E+01 -0.15330778183E+02  0.18726528771E+02  0.00000000000E+00 0. -1.
         11    1    3    3    0    0  0.31148283231E+02  0.74569473742E+01  0.16905829050E+02  0.36216414352E+02  0.51100000000E-03 0. -1.
        -11    1    3    3    0    0 -0.20859385442E+02 -0.74176707801E+01  0.97366298784E+01  0.24185486608E+02  0.51100000000E-03 0.  1.
         12    1    3    3    0    0 -0.38968895575E+00  0.41626021055E+01 -0.11311680745E+02  0.12059570268E+02  0.00000000000E+00 0. -1.
</event>
<event>
 7    1  0.1339094E-013  0.7246157E+02  0.7816164E-02  0.1226708E+00
        -11   -1    0    0    0    0  0.00000000000E+00  0.00000000000E+00  0.45593999997E+02  0.45594000000E+02  0.51100000000E-03 0.  1.
         11   -1    0    0    0    0 -0.00000000000E+00 -0.00000000000E+00 -0.45593999997E+02  0.45594000000E+02  0.51100000000E-03 0. -1.
    9900012    2    1    2    0    0 -0.18496757344E+02 -0.23677849818E+01 -0.17154691775E+01  0.72461567546E+02  0.69999996420E+02 0.  0.
         12    1    1    2    0    0  0.18496757344E+02  0.23677849818E+01  0.17154691775E+01  0.18726432454E+02  0.00000000000E+00 0. -1.
         11    1    3    3    0    0 -0.12268393527E+02  0.19850801076E+01 -0.11829018900E+02  0.17157497229E+02  0.51100000000E-03 0. -1.
        -11    1    3    3    0    0  0.11846618092E+02 -0.24248797019E+02  0.88201174714E+01  0.28392622097E+02  0.51100000000E-03 0.  1.
        -12    1    3    3    0    0 -0.18074981909E+02  0.19895931929E+02  0.12934322509E+01  0.26911448220E+02  0.00000000000E+00 0.  1.
</event>
<event>
 7    1  0.1339094E-013  0.7246096E+02  0.7816164E-02  0.1226710E+00
        -11   -1    0    0    0    0  0.00000000000E+00  0.00000000000E+00  0.45593999997E+02  0.45594000000E+02  0.51100000000E-03 0. -1.
         11   -1    0    0    0    0 -0.00000000000E+00 -0.00000000000E+00 -0.45593999997E+02  0.45594000000E+02  0.51100000000E-03 0.  1.
    9900012    2    1    2    0    0  0.45889884597E+00 -0.81033530323E+01 -0.16876827000E+02  0.72460955169E+02  0.69999198681E+02 0.  0.
         12    1    1    2    0    0 -0.45889884597E+00  0.81033530323E+01  0.16876827000E+02  0.18727044831E+02  0.00000000000E+00 0. -1.
         11    1    3    3    0    0 -0.19880217443E+02  0.13085873198E+02 -0.14084308034E+02  0.27655575495E+02  0.51100000000E-03 0.  1.
        -11    1    3    3    0    0  0.10203063006E+02 -0.29483030222E+02  0.85439524091E+00  0.31210279673E+02  0.51100000000E-03 0. -1.
         12    1    3    3    0    0  0.10136053283E+02  0.82938039918E+01 -0.36469142072E+01  0.13595100001E+02  0.00000000000E+00 0. -1.
</event>
<event>
 7    1  0.1339094E-013  0.7246157E+02  0.7816164E-02  0.1226708E+00
        -11   -1    0    0    0    0  0.00000000000E+00  0.00000000000E+00  0.45593999997E+02  0.45594000000E+02  0.51100000000E-03 0. -1.
         11   -1    0    0    0    0 -0.00000000000E+00 -0.00000000000E+00 -0.45593999997E+02  0.45594000000E+02  0.51100000000E-03 0.  1.
    9900012    2    1    2    0    0 -0.11011267582E+02 -0.13292204122E+02 -0.72628270188E+01  0.72461565196E+02  0.69999993358E+02 0.  0.
         12    1    1    2    0    0  0.11011267582E+02  0.13292204122E+02  0.72628270188E+01  0.18726434804E+02  0.00000000000E+00 0. -1.
         11    1    3    3    0    0 -0.12733801621E+02 -0.25833486512E+02 -0.26866303207E+01  0.28926401640E+02  0.51100000000E-03 0. -1.
        -11    1    3    3    0    0 -0.85978858826E+01  0.10180205923E+02 -0.20477821908E+02  0.24431566152E+02  0.51100000000E-03 0.  1.
         12    1    3    3    0    0  0.10320419922E+02  0.23610764673E+01  0.15901625210E+02  0.19103597404E+02  0.00000000000E+00 0. -1.
</event>
<event>
 7    1  0.1339094E-013  0.7246155E+02  0.7816164E-02  0.1226708E+00
        -11   -1    0    0    0    0  0.00000000000E+00  0.00000000000E+00  0.45593999997E+02  0.45594000000E+02  0.51100000000E-03 0.  1.
         11   -1    0    0    0    0 -0.00000000000E+00 -0.00000000000E+00 -0.45593999997E+02  0.45594000000E+02  0.51100000000E-03 0. -1.
    9900012    2    1    2    0    0 -0.14329785888E+02  0.88522906849E+01  0.81837718288E+01  0.72461549848E+02  0.69999973365E+02 0.  0.
         12    1    1    2    0    0  0.14329785888E+02 -0.88522906849E+01 -0.81837718288E+01  0.18726450152E+02  0.00000000000E+00 0. -1.
         11    1    3    3    0    0  0.23309192118E+01  0.25920440213E+02 -0.11097922903E+02  0.28292513113E+02  0.51100000000E-03 0. -1.
        -11    1    3    3    0    0 -0.27203984933E+00  0.51378479092E+01  0.15476285414E+02  0.16309104736E+02  0.51100000000E-03 0.  1.
         12    1    3    3    0    0 -0.16388665250E+02 -0.22205997438E+02  0.38054093173E+01  0.27859931998E+02  0.00000000000E+00 0. -1.
</event>
<event>
 7    1  0.1339094E-013  0.7246152E+02  0.7816164E-02  0.1226708E+00
        -11   -1    0    0    0    0  0.00000000000E+00  0.00000000000E+00  0.45593999997E+02  0.45594000000E+02  0.51100000000E-03 0.  1.
         11   -1    0    0    0    0 -0.00000000000E+00 -0.00000000000E+00 -0.45593999997E+02  0.45594000000E+02  0.51100000000E-03 0. -1.
    9900012    2    1    2    0    0  0.11383189577E+02  0.11974260904E+02  0.88159480341E+01  0.72461524921E+02  0.69999940892E+02 0.  0.
         12    1    1    2    0    0 -0.11383189577E+02 -0.11974260904E+02 -0.88159480341E+01  0.18726475079E+02  0.00000000000E+00 0. -1.
         11    1    3    3    0    0  0.21918444438E+02  0.35542141289E+02  0.32582220024E+01  0.41884102293E+02  0.51100000000E-03 0. -1.
        -11    1    3    3    0    0  0.13832901915E+01 -0.16511223806E+01  0.51983732025E+01  0.56269690850E+01  0.51100000000E-03 0.  1.
         12    1    3    3    0    0 -0.11918545052E+02 -0.21916758004E+02  0.35935282921E+00  0.24950453543E+02  0.00000000000E+00 0. -1.
</event>
<event>
 7    1  0.1339094E-013  0.7246154E+02  0.7816164E-02  0.1226708E+00
        -11   -1    0    0    0    0  0.00000000000E+00  0.00000000000E+00  0.45593999997E+02  0.45594000000E+02  0.51100000000E-03 0.  1.
         11   -1    0    0    0    0 -0.00000000000E+00 -0.00000000000E+00 -0.45593999997E+02  0.45594000000E+02  0.51100000000E-03 0. -1.
    9900012    2    1    2    0    0  0.27373686432E+01 -0.18524272926E+02 -0.19625032979E+00  0.72461537742E+02  0.69999957594E+02 0.  0.
         12    1    1    2    0    0 -0.27373686432E+01  0.18524272926E+02  0.19625032979E+00  0.18726462258E+02  0.00000000000E+00 0. -1.
         11    1    3    3    0    0 -0.57172968025E+01 -0.10189756505E+02 -0.88147835189E+01  0.14636223184E+02  0.51100000000E-03 0. -1.
        -11    1    3    3    0    0  0.13960426021E+02  0.19475051514E+01  0.30181119115E+02  0.33310452148E+02  0.51100000000E-03 0.  1.
        -12    1    3    3    0    0 -0.55057605751E+01 -0.10282021572E+02 -0.21562585926E+02  0.24514862409E+02  0.00000000000E+00 0.  1.
</event>
<event>
 7    1  0.1339094E-013  0.7246157E+02  0.7816164E-02  0.1226708E+00
        -11   -1    0    0    0    0  0.00000000000E+00  0.00000000000E+00  0.45593999997E+02  0.45594000000E+02  0.51100000000E-03 0.  1.
         11   -1    0    0    0    0 -0.00000000000E+00 -0.00000000000E+00 -0.45593999997E+02  0.45594000000E+02  0.51100000000E-03 0. -1.
    9900012    2    1    2    0    0 -0.66489501587E+01  0.10820470415E+02  0.13761838015E+02  0.72461566710E+02  0.69999995331E+02 0.  0.
         12    1    1    2    0    0  0.66489501587E+01 -0.10820470415E+02 -0.13761838015E+02  0.18726433290E+02  0.00000000000E+00 0. -1.
         11    1    3    3    0    0 -0.47887754332E+01  0.37840161556E+01 -0.10115013853E+02  0.11813748513E+02  0.51100000000E-03 0. -1.
        -11    1    3    3    0    0 -0.22254233042E+01  0.20783986981E+02  0.36447399571E+02  0.42015944110E+02  0.51100000000E-03 0.  1.
        -12    1    3    3    0    0  0.36524857868E+00 -0.13747532722E+02 -0.12570547702E+02  0.18631874087E+02  0.00000000000E+00 0.  1.
</event>
<event>
 7    1  0.1339094E-013  0.7246157E+02  0.7816164E-02  0.1226708E+00
        -11   -1    0    0    0    0  0.00000000000E+00  0.00000000000E+00  0.45593999997E+02  0.45594000000E+02  0.51100000000E-03 0.  1.
         11   -1    0    0    0    0 -0.00000000000E+00 -0.00000000000E+00 -0.45593999997E+02  0.45594000000E+02  0.51100000000E-03 0. -1.
    9900012    2    1    2    0    0  0.12504942189E+02  0.13788980708E+02 -0.20420000622E+01  0.72461565946E+02  0.69999994335E+02 0.  0.
         12    1    1    2    0    0 -0.12504942189E+02 -0.13788980708E+02  0.20420000622E+01  0.18726434054E+02  0.00000000000E+00 0. -1.
         11    1    3    3    0    0 -0.24531752031E+01  0.83614756163E+00 -0.29407369810E+02  0.29521358552E+02  0.51100000000E-03 0. -1.
        -11    1    3    3    0    0  0.17922373906E+01  0.18588933595E+02  0.13873810088E+02  0.23264633539E+02  0.51100000000E-03 0.  1.
         12    1    3    3    0    0  0.13165880002E+02 -0.56361004483E+01  0.13491559660E+02  0.19675573855E+02  0.00000000000E+00 0. -1.
</event>
<event>
 7    1  0.1339094E-013  0.7246161E+02  0.7816164E-02  0.1226708E+00
        -11   -1    0    0    0    0  0.00000000000E+00  0.00000000000E+00  0.45593999997E+02  0.45594000000E+02  0.51100000000E-03 0. -1.
         11   -1    0    0    0    0 -0.00000000000E+00 -0.00000000000E+00 -0.45593999997E+02  0.45594000000E+02  0.51100000000E-03 0.  1.
    9900012    2    1    2    0    0  0.82095642220E+01  0.10014144816E+02 -0.13527667311E+02  0.72461606221E+02  0.70000046801E+02 0.  0.
         12    1    1    2    0    0 -0.82095642220E+01 -0.10014144816E+02  0.13527667311E+02  0.18726393779E+02  0.00000000000E+00 0. -1.
         11    1    3    3    0    0  0.12913040944E+02  0.12310762338E+02 -0.41513852815E+01  0.18317628007E+02  0.51100000000E-03 0. -1.
        -11    1    3    3    0    0 -0.30263346075E+01 -0.18895671171E+02  0.15200865979E+02  0.24439136993E+02  0.51100000000E-03 0.  1.
        -12    1    3    3    0    0 -0.16771421147E+01  0.16599053649E+02 -0.24577148009E+02  0.29704841221E+02  0.00000000000E+00 0.  1.
</event>
<event>
 7    1  0.1339094E-013  0.7246153E+02  0.7816164E-02  0.1226708E+00
        -11   -1    0    0    0    0  0.00000000000E+00  0.00000000000E+00  0.45593999997E+02  0.45594000000E+02  0.51100000000E-03 0.  1.
         11   -1    0    0    0    0 -0.00000000000E+00 -0.00000000000E+00 -0.45593999997E+02  0.45594000000E+02  0.51100000000E-03 0. -1.
    9900012    2    1    2    0    0 -0.98034963637E+01 -0.15096270009E+02  0.51647670068E+01  0.72461528700E+02  0.69999945815E+02 0.  0.
         12    1    1    2    0    0  0.98034963637E+01  0.15096270009E+02 -0.51647670068E+01  0.18726471300E+02  0.00000000000E+00 0. -1.
         11    1    3    3    0    0 -0.56473653957E+01 -0.47413353002E+01 -0.21753213171E+02  0.22969006941E+02  0.51100000000E-03 0. -1.
        -11    1    3    3    0    0 -0.75857561320E+01  0.12409758459E+02  0.21305431338E+02  0.25796651059E+02  0.51100000000E-03 0.  1.
         12    1    3    3    0    0  0.34296251640E+01 -0.22764693167E+02  0.56125488393E+01  0.23695870700E+02  0.00000000000E+00 0. -1.
</event>
<event>
 7    1  0.1339094E-013  0.7246157E+02  0.7816164E-02  0.1226708E+00
        -11   -1    0    0    0    0  0.00000000000E+00  0.00000000000E+00  0.45593999997E+02  0.45594000000E+02  0.51100000000E-03 0.  1.
         11   -1    0    0    0    0 -0.00000000000E+00 -0.00000000000E+00 -0.45593999997E+02  0.45594000000E+02  0.51100000000E-03 0. -1.
    9900012    2    1    2    0    0 -0.98665724889E+00 -0.17993404482E+02  0.50934245034E+01  0.72461572937E+02  0.70000003442E+02 0.  0.
         12    1    1    2    0    0  0.98665724889E+00  0.17993404482E+02 -0.50934245034E+01  0.18726427063E+02  0.00000000000E+00 0. -1.
         11    1    3    3    0    0 -0.16669348680E+02 -0.15270851970E+02  0.31731609910E+02  0.38961021202E+02  0.51100000000E-03 0.  1.
        -11    1    3    3    0    0  0.13438801341E+02  0.98163130598E+00 -0.25774880292E+02  0.29084522273E+02  0.51100000000E-03 0. -1.
        -12    1    3    3    0    0  0.22438900903E+01 -0.37041838177E+01 -0.86330511481E+00  0.44160294626E+01  0.00000000000E+00 0.  1.
</event>
<event>
 7    1  0.1339094E-013  0.7246158E+02  0.7816164E-02  0.1226708E+00
        -11   -1    0    0    0    0  0.00000000000E+00  0.00000000000E+00  0.45593999997E+02  0.45594000000E+02  0.51100000000E-03 0.  1.
         11   -1    0    0    0    0 -0.00000000000E+00 -0.00000000000E+00 -0.45593999997E+02  0.45594000000E+02  0.51100000000E-03 0. -1.
    9900012    2    1    2    0    0  0.65510755766E+01 -0.18966992479E+01  0.17440320849E+02  0.72461578811E+02  0.70000011094E+02 0.  0.
         12    1    1    2    0    0 -0.65510755766E+01  0.18966992479E+01 -0.17440320849E+02  0.18726421189E+02  0.00000000000E+00 0. -1.
         11    1    3    3    0    0  0.17545052627E+02  0.16275867172E+02 -0.18454430616E+02  0.30220832773E+02  0.51100000000E-03 0. -1.
        -11    1    3    3    0    0 -0.85660993565E+01 -0.12433456933E+02  0.19231058793E+02  0.24450000656E+02  0.51100000000E-03 0.  1.
         12    1    3    3    0    0 -0.24278776935E+01 -0.57391094867E+01  0.16663692672E+02  0.17790745382E+02  0.00000000000E+00 0. -1.
</event>
<event>
 7    1  0.1339094E-013  0.7246155E+02  0.7816164E-02  0.1226708E+00
        -11   -1    0    0    0    0  0.00000000000E+00  0.00000000000E+00  0.45593999997E+02  0.45594000000E+02  0.51100000000E-03 0. -1.
         11   -1    0    0    0    0 -0.00000000000E+00 -0.00000000000E+00 -0.45593999997E+02  0.45594000000E+02  0.51100000000E-03 0.  1.
    9900012    2    1    2    0    0  0.96554713279E+01 -0.11981597481E+02 -0.10672070413E+02  0.72461551013E+02  0.69999974882E+02 0.  0.
         12    1    1    2    0    0 -0.96554713279E+01  0.11981597481E+02  0.10672070413E+02  0.18726448987E+02  0.00000000000E+00 0. -1.
         11    1    3    3    0    0  0.33435598416E+02  0.85579534608E+01 -0.19069114094E+02  0.39431065437E+02  0.51100000000E-03 0. -1.
        -11    1    3    3    0    0 -0.14120014728E+02 -0.15732420552E+02  0.60459721486E+01  0.21987215645E+02  0.51100000000E-03 0.  1.
         12    1    3    3    0    0 -0.96601123605E+01 -0.48071303903E+01  0.23510715324E+01  0.11043269931E+02  0.00000000000E+00 0. -1.
</event>
<event>
 7    1  0.1339094E-013  0.7246159E+02  0.7816164E-02  0.1226708E+00
        -11   -1    0    0    0    0  0.00000000000E+00  0.00000000000E+00  0.45593999997E+02  0.45594000000E+02  0.51100000000E-03 0.  1.
         11   -1    0    0    0    0 -0.00000000000E+00 -0.00000000000E+00 -0.45593999997E+02  0.45594000000E+02  0.51100000000E-03 0. -1.
    9900012    2    1    2    0    0  0.47607734172E+01  0.17736619668E+02  0.36641424946E+01  0.72461586008E+02  0.70000020470E+02 0.  0.
         12    1    1    2    0    0 -0.47607734172E+01 -0.17736619668E+02 -0.36641424946E+01  0.18726413992E+02  0.00000000000E+00 0. -1.
         11    1    3    3    0    0  0.21142457746E+02 -0.12182701412E+02 -0.15605817610E+02  0.28964862796E+02  0.51100000000E-03 0. -1.
        -11    1    3    3    0    0 -0.10811188782E+02  0.19409991393E+02  0.17045763114E+01  0.22283068672E+02  0.51100000000E-03 0.  1.
        -12    1    3    3    0    0 -0.55704955461E+01  0.10509329687E+02  0.17565383794E+02  0.21213654540E+02  0.00000000000E+00 0.  1.
</event>
<event>
 7    1  0.1339094E-013  0.7246156E+02  0.7816164E-02  0.1226708E+00
        -11   -1    0    0    0    0  0.00000000000E+00  0.00000000000E+00  0.45593999997E+02  0.45594000000E+02  0.51100000000E-03 0.  1.
         11   -1    0    0    0    0 -0.00000000000E+00 -0.00000000000E+00 -0.45593999997E+02  0.45594000000E+02  0.51100000000E-03 0. -1.
    9900012    2    1    2    0    0 -0.23806170281E+00  0.15028438870E+02  0.11169998543E+02  0.72461561052E+02  0.69999987960E+02 0.  0.
         12    1    1    2    0    0  0.23806170281E+00 -0.15028438870E+02 -0.11169998543E+02  0.18726438948E+02  0.00000000000E+00 0. -1.
         11    1    3    3    0    0  0.26818056936E+02  0.17834144299E+02 -0.95810311923E+01  0.33601503533E+02  0.51100000000E-03 0. -1.
        -11    1    3    3    0    0 -0.26171668115E+02  0.36627863548E+00  0.23023304114E+02  0.34859186803E+02  0.51100000000E-03 0.  1.
        -12    1    3    3    0    0 -0.88445052407E+00 -0.31719840646E+01 -0.22722743790E+01  0.40008707164E+01  0.00000000000E+00 0.  1.
</event>
<event>
 7    1  0.1339094E-013  0.7246155E+02  0.7816164E-02  0.1226708E+00
        -11   -1    0    0    0    0  0.00000000000E+00  0.00000000000E+00  0.45593999997E+02  0.45594000000E+02  0.51100000000E-03 0.  1.
         11   -1    0    0    0    0 -0.00000000000E+00 -0.00000000000E+00 -0.45593999997E+02  0.45594000000E+02  0.51100000000E-03 0. -1.
    9900012    2    1    2    0    0  0.13770413119E+02  0.10790698757E+02  0.66795552945E+01  0.72461550361E+02  0.69999974034E+02 0.  0.
         12    1    1    2    0    0 -0.13770413119E+02 -0.10790698757E+02 -0.66795552945E+01  0.18726449639E+02  0.00000000000E+00 0. -1.
         11    1    3    3    0    0 -0.13696421131E+02  0.10347536499E+02  0.24650005820E+02  0.30038080008E+02  0.51100000000E-03 0. -1.
        -11    1    3    3    0    0  0.21696244020E+02 -0.11935548913E+02 -0.11139258911E+02  0.27152668778E+02  0.51100000000E-03 0.  1.
         12    1    3    3    0    0  0.57705902300E+01  0.12378711171E+02 -0.68311916145E+01  0.15270801575E+02  0.00000000000E+00 0. -1.
</event>
<event>
 7    1  0.1339094E-013  0.7246154E+02  0.7816164E-02  0.1226708E+00
        -11   -1    0    0    0    0  0.00000000000E+00  0.00000000000E+00  0.45593999997E+02  0.45594000000E+02  0.51100000000E-03 0.  1.
         11   -1    0    0    0    0 -0.00000000000E+00 -0.00000000000E+00 -0.45593999997E+02  0.45594000000E+02  0.51100000000E-03 0. -1.
    9900012    2    1    2    0    0  0.25790220952E+01  0.17174285260E+02  0.70052146970E+01  0.72461535782E+02  0.69999955042E+02 0.  0.
         12    1    1    2    0    0 -0.25790220952E+01 -0.17174285260E+02 -0.70052146970E+01  0.18726464218E+02  0.00000000000E+00 0. -1.
         11    1    3    3    0    0 -0.18611784230E+02 -0.39524411279E+01 -0.32283400516E+01  0.19298768946E+02  0.51100000000E-03 0. -1.
        -11    1    3    3    0    0  0.27633960673E+02  0.21392889001E+02 -0.62149657403E+01  0.35495313518E+02  0.51100000000E-03 0.  1.
         12    1    3    3    0    0 -0.64431543486E+01 -0.26616261310E+00  0.16448520489E+02  0.17667453319E+02  0.00000000000E+00 0. -1.
</event>
<event>
 7    1  0.1339094E-013  0.7246159E+02  0.7816164E-02  0.1226708E+00
        -11   -1    0    0    0    0  0.00000000000E+00  0.00000000000E+00  0.45593999997E+02  0.45594000000E+02  0.51100000000E-03 0.  1.
         11   -1    0    0    0    0 -0.00000000000E+00 -0.00000000000E+00 -0.45593999997E+02  0.45594000000E+02  0.51100000000E-03 0. -1.
    9900012    2    1    2    0    0  0.16960954916E+02 -0.52406098631E+01  0.59615812213E+01  0.72461589931E+02  0.70000025581E+02 0.  0.
         12    1    1    2    0    0 -0.16960954916E+02  0.52406098631E+01 -0.59615812213E+01  0.18726410069E+02  0.00000000000E+00 0. -1.
         11    1    3    3    0    0  0.56004792156E+01 -0.48075639376E+01 -0.20978475842E+01  0.76732654852E+01  0.51100000000E-03 0. -1.
        -11    1    3    3    0    0 -0.26234985300E+02  0.22982925684E+01  0.61580490008E+01  0.27045853105E+02  0.51100000000E-03 0.  1.
        -12    1    3    3    0    0  0.37595461000E+02 -0.27313384939E+01  0.19013798046E+01  0.37742471341E+02  0.00000000000E+00 0.  1.
</event>
<event>
 7    1  0.1339094E-013  0.7246158E+02  0.7816164E-02  0.1226708E+00
        -11   -1    0    0    0    0  0.00000000000E+00  0.00000000000E+00  0.45593999997E+02  0.45594000000E+02  0.51100000000E-03 0. -1.
         11   -1    0    0    0    0 -0.00000000000E+00 -0.00000000000E+00 -0.45593999997E+02  0.45594000000E+02  0.51100000000E-03 0.  1.
    9900012    2    1    2    0    0 -0.38013336795E+01  0.13419815313E+02 -0.12495481401E+02  0.72461584533E+02  0.70000018549E+02 0.  0.
         12    1    1    2    0    0  0.38013336795E+01 -0.13419815313E+02  0.12495481401E+02  0.18726415467E+02  0.00000000000E+00 0. -1.
         11    1    3    3    0    0  0.23573706262E+02  0.21237156339E+02  0.12772087608E+02  0.34203255086E+02  0.51100000000E-03 0. -1.
        -11    1    3    3    0    0 -0.18911822407E+02 -0.35523478508E+01 -0.16517509342E+02  0.25359501516E+02  0.51100000000E-03 0.  1.
         12    1    3    3    0    0 -0.84632175348E+01 -0.42649931756E+01 -0.87500596679E+01  0.12898827932E+02  0.00000000000E+00 0. -1.
</event>
<event>
 7    1  0.1339094E-013  0.7246159E+02  0.7816164E-02  0.1226708E+00
        -11   -1    0    0    0    0  0.00000000000E+00  0.00000000000E+00  0.45593999997E+02  0.45594000000E+02  0.51100000000E-03 0.  1.
         11   -1    0    0    0    0 -0.00000000000E+00 -0.00000000000E+00 -0.45593999997E+02  0.45594000000E+02  0.51100000000E-03 0. -1.
    9900012    2    1    2    0    0  0.16397609797E+02 -0.96465197727E+00  0.89925758144E+01  0.72461586027E+02  0.70000020495E+02 0.  0.
         12    1    1    2    0    0 -0.16397609797E+02  0.96465197727E+00 -0.89925758144E+01  0.18726413973E+02  0.00000000000E+00 0. -1.
         11    1    3    3    0    0  0.31554054927E+02 -0.79924926714E+01 -0.24252329824E+01  0.32640773225E+02  0.51100000000E-03 0. -1.
        -11    1    3    3    0    0 -0.20012005841E+02  0.25236903081E+01  0.20382027402E+02  0.28675362802E+02  0.51100000000E-03 0.  1.
        -12    1    3    3    0    0  0.48555607105E+01  0.45041503859E+01 -0.89642186049E+01  0.11145450000E+02  0.00000000000E+00 0.  1.
</event>
<event>
 7    1  0.1339094E-013  0.7246155E+02  0.7816164E-02  0.1226708E+00
        -11   -1    0    0    0    0  0.00000000000E+00  0.00000000000E+00  0.45593999997E+02  0.45594000000E+02  0.51100000000E-03 0. -1.
         11   -1    0    0    0    0 -0.00000000000E+00 -0.00000000000E+00 -0.45593999997E+02  0.45594000000E+02  0.51100000000E-03 0.  1.
    9900012    2    1    2    0    0 -0.13088706907E+02  0.13295290600E+02 -0.16127903330E+01  0.72461545629E+02  0.69999967869E+02 0.  0.
         12    1    1    2    0    0  0.13088706907E+02 -0.13295290600E+02  0.16127903330E+01  0.18726454371E+02  0.00000000000E+00 0. -1.
         11    1    3    3    0    0 -0.81243557155E+01  0.93161363923E+00  0.70030419603E+01  0.10766413364E+02  0.51100000000E-03 0. -1.
        -11    1    3    3    0    0  0.20174954999E+01  0.36090096490E+02 -0.76310935711E+01  0.36943185327E+02  0.51100000000E-03 0.  1.
        -12    1    3    3    0    0 -0.69818466916E+01 -0.23726419529E+02 -0.98473872221E+00  0.24751946939E+02  0.00000000000E+00 0.  1.
</event>
<event>
 7    1  0.1339094E-013  0.7246155E+02  0.7816164E-02  0.1226708E+00
        -11   -1    0    0    0    0  0.00000000000E+00  0.00000000000E+00  0.45593999997E+02  0.45594000000E+02  0.51100000000E-03 0.  1.
         11   -1    0    0    0    0 -0.00000000000E+00 -0.00000000000E+00 -0.45593999997E+02  0.45594000000E+02  0.51100000000E-03 0. -1.
    9900012    2    1    2    0    0  0.38748354560E+00 -0.11656579443E+02  0.14651072959E+02  0.72461550079E+02  0.69999973666E+02 0.  0.
         12    1    1    2    0    0 -0.38748354560E+00  0.11656579443E+02 -0.14651072959E+02  0.18726449921E+02  0.00000000000E+00 0. -1.
         11    1    3    3    0    0 -0.11662608760E+02 -0.36242397523E+02  0.21750906189E+02  0.43847802016E+02  0.51100000000E-03 0. -1.
        -11    1    3    3    0    0  0.95522269657E+01  0.21264617785E+02 -0.45905799478E+01  0.23759259964E+02  0.51100000000E-03 0.  1.
         12    1    3    3    0    0  0.24978653395E+01  0.33212002960E+01 -0.25092532828E+01  0.48544880984E+01  0.00000000000E+00 0. -1.
</event>
<event>
 7    1  0.1339094E-013  0.7246158E+02  0.7816164E-02  0.1226708E+00
        -11   -1    0    0    0    0  0.00000000000E+00  0.00000000000E+00  0.45593999997E+02  0.45594000000E+02  0.51100000000E-03 0. -1.
         11   -1    0    0    0    0 -0.00000000000E+00 -0.00000000000E+00 -0.45593999997E+02  0.45594000000E+02  0.51100000000E-03 0.  1.
    9900012    2    1    2    0    0  0.12025312146E+02 -0.48739202415E+00 -0.14346889191E+02  0.72461577153E+02  0.70000008935E+02 0.  0.
         12    1    1    2    0    0 -0.12025312146E+02  0.48739202415E+00  0.14346889191E+02  0.18726422847E+02  0.00000000000E+00 0. -1.
         11    1    3    3    0    0  0.18396323391E+02 -0.28361826961E+02 -0.82185703019E+01  0.34790269343E+02  0.51100000000E-03 0. -1.
        -11    1    3    3    0    0 -0.91782445197E+01  0.17694987308E+02 -0.14120528580E+02  0.24428304811E+02  0.51100000000E-03 0.  1.
         12    1    3    3    0    0  0.28072332742E+01  0.10179447629E+02  0.79922096915E+01  0.13243002999E+02  0.00000000000E+00 0. -1.
</event>
<event>
 7    1  0.1339094E-013  0.7246158E+02  0.7816164E-02  0.1226708E+00
        -11   -1    0    0    0    0  0.00000000000E+00  0.00000000000E+00  0.45593999997E+02  0.45594000000E+02  0.51100000000E-03 0.  1.
         11   -1    0    0    0    0 -0.00000000000E+00 -0.00000000000E+00 -0.45593999997E+02  0.45594000000E+02  0.51100000000E-03 0. -1.
    9900012    2    1    2    0    0 -0.90307050392E+01  0.14871722560E+02  0.69251051207E+01  0.72461578923E+02  0.70000011241E+02 0.  0.
         12    1    1    2    0    0  0.90307050392E+01 -0.14871722560E+02 -0.69251051207E+01  0.18726421077E+02  0.00000000000E+00 0. -1.
         11    1    3    3    0    0 -0.19336847961E+02 -0.78588066895E+01  0.45067805869E+01  0.21353819404E+02  0.51100000000E-03 0. -1.
        -11    1    3    3    0    0  0.14470642188E+02  0.12909990262E+02 -0.19019534682E+02  0.27162658811E+02  0.51100000000E-03 0.  1.
        -12    1    3    3    0    0 -0.41644992663E+01  0.98205389878E+01  0.21437859216E+02  0.23945100708E+02  0.00000000000E+00 0.  1.
</event>
<event>
 7    1  0.1339094E-013  0.7246158E+02  0.7816164E-02  0.1226708E+00
        -11   -1    0    0    0    0  0.00000000000E+00  0.00000000000E+00  0.45593999997E+02  0.45594000000E+02  0.51100000000E-03 0. -1.
         11   -1    0    0    0    0 -0.00000000000E+00 -0.00000000000E+00 -0.45593999997E+02  0.45594000000E+02  0.51100000000E-03 0.  1.
    9900012    2    1    2    0    0 -0.18153342609E+02 -0.42330117210E+01 -0.17934979676E+01  0.72461578263E+02  0.70000010381E+02 0.  0.
         12    1    1    2    0    0  0.18153342609E+02  0.42330117210E+01  0.17934979676E+01  0.18726421737E+02  0.00000000000E+00 0. -1.
         11    1    3    3    0    0 -0.29241832096E+02 -0.12052528072E+02  0.22224331812E+02  0.38655777084E+02  0.51100000000E-03 0. -1.
        -11    1    3    3    0    0  0.23559845928E+01 -0.65566340775E+01 -0.68062363262E+01  0.97398648356E+01  0.51100000000E-03 0.  1.
         12    1    3    3    0    0  0.87325048938E+01  0.14376150428E+02 -0.17211593454E+02  0.24065936343E+02  0.00000000000E+00 0. -1.
</event>
<event>
 7    1  0.1339094E-013  0.7246158E+02  0.7816164E-02  0.1226708E+00
        -11   -1    0    0    0    0  0.00000000000E+00  0.00000000000E+00  0.45593999997E+02  0.45594000000E+02  0.51100000000E-03 0.  1.
         11   -1    0    0    0    0 -0.00000000000E+00 -0.00000000000E+00 -0.45593999997E+02  0.45594000000E+02  0.51100000000E-03 0. -1.
    9900012    2    1    2    0    0 -0.13220505283E+02  0.11805583830E+01 -0.13209969826E+02  0.72461580673E+02  0.70000013520E+02 0.  0.
         12    1    1    2    0    0  0.13220505283E+02 -0.11805583830E+01  0.13209969826E+02  0.18726419327E+02  0.00000000000E+00 0. -1.
         11    1    3    3    0    0  0.18367620362E+02 -0.18752005544E+01  0.16045547033E+02  0.24461100440E+02  0.51100000000E-03 0. -1.
        -11    1    3    3    0    0 -0.29607819543E+02 -0.31176202605E+01 -0.17387416989E+02  0.34477018490E+02  0.51100000000E-03 0.  1.
        -12    1    3    3    0    0 -0.19803061019E+01  0.61733791979E+01 -0.11868099870E+02  0.13523461742E+02  0.00000000000E+00 0.  1.
</event>
<event>
 7    1  0.1339094E-013  0.7246154E+02  0.7816164E-02  0.1226708E+00
        -11   -1    0    0    0    0  0.00000000000E+00  0.00000000000E+00  0.45593999997E+02  0.45594000000E+02  0.51100000000E-03 0.  1.
         11   -1    0    0    0    0 -0.00000000000E+00 -0.00000000000E+00 -0.45593999997E+02  0.45594000000E+02  0.51100000000E-03 0. -1.
    9900012    2    1    2    0    0  0.11832257220E+02  0.98423584325E+01 -0.10667986914E+02  0.72461540771E+02  0.69999961541E+02 0.  0.
         12    1    1    2    0    0 -0.11832257220E+02 -0.98423584325E+01  0.10667986914E+02  0.18726459229E+02  0.00000000000E+00 0. -1.
         11    1    3    3    0    0  0.69012453526E+01  0.13683751250E+02 -0.22171700794E+02  0.26952857957E+02  0.51100000000E-03 0. -1.
        -11    1    3    3    0    0  0.13094080254E+02 -0.80110146283E+01  0.24915034978E+02  0.29264146345E+02  0.51100000000E-03 0.  1.
        -12    1    3    3    0    0 -0.81630683858E+01  0.41696218108E+01 -0.13411321098E+02  0.16244536470E+02  0.00000000000E+00 0.  1.
</event>
<event>
 7    1  0.1339094E-013  0.7246157E+02  0.7816164E-02  0.1226708E+00
        -11   -1    0    0    0    0  0.00000000000E+00  0.00000000000E+00  0.45593999997E+02  0.45594000000E+02  0.51100000000E-03 0. -1.
         11   -1    0    0    0    0 -0.00000000000E+00 -0.00000000000E+00 -0.45593999997E+02  0.45594000000E+02  0.51100000000E-03 0.  1.
    9900012    2    1    2    0    0  0.13558551745E+02 -0.88520084788E+01 -0.94067411291E+01  0.72461570597E+02  0.70000000394E+02 0.  0.
         12    1    1    2    0    0 -0.13558551745E+02  0.88520084788E+01  0.94067411291E+01  0.18726429403E+02  0.00000000000E+00 0. -1.
         11    1    3    3    0    0  0.21224848865E+01  0.46925260216E+01  0.23125989797E+02  0.23692533569E+02  0.51100000000E-03 0. -1.
        -11    1    3    3    0    0 -0.37970928441E+01  0.20026357739E+01 -0.25553183629E+02  0.25911265078E+02  0.51100000000E-03 0.  1.
        -12    1    3    3    0    0  0.15233159702E+02 -0.15547170274E+02 -0.69795472970E+01  0.22857771950E+02  0.00000000000E+00 0.  1.
</event>
<event>
 7    1  0.1339094E-013  0.7246151E+02  0.7816164E-02  0.1226708E+00
        -11   -1    0    0    0    0  0.00000000000E+00  0.00000000000E+00  0.45593999997E+02  0.45594000000E+02  0.51100000000E-03 0. -1.
         11   -1    0    0    0    0 -0.00000000000E+00 -0.00000000000E+00 -0.45593999997E+02  0.45594000000E+02  0.51100000000E-03 0.  1.
    9900012    2    1    2    0    0  0.16023525691E+02  0.26934821480E+01 -0.93098351843E+01  0.72461514670E+02  0.69999927539E+02 0.  0.
         12    1    1    2    0    0 -0.16023525691E+02 -0.26934821480E+01  0.93098351843E+01  0.18726485330E+02  0.00000000000E+00 0. -1.
         11    1    3    3    0    0  0.11378527611E+01 -0.30642470135E+02  0.25610939214E+01  0.30770357281E+02  0.51100000000E-03 0. -1.
        -11    1    3    3    0    0  0.25274275343E+01  0.53831888590E+01  0.40841818232E+01  0.72143713280E+01  0.51100000000E-03 0.  1.
         12    1    3    3    0    0  0.12358245396E+02  0.27952763424E+02 -0.15955110929E+02  0.34476786060E+02  0.00000000000E+00 0. -1.
</event>
<event>
 7    1  0.1339094E-013  0.7246219E+02  0.7816164E-02  0.1226706E+00
        -11   -1    0    0    0    0  0.00000000000E+00  0.00000000000E+00  0.45593999997E+02  0.45594000000E+02  0.51100000000E-03 0. -1.
         11   -1    0    0    0    0 -0.00000000000E+00 -0.00000000000E+00 -0.45593999997E+02  0.45594000000E+02  0.51100000000E-03 0.  1.
    9900012    2    1    2    0    0 -0.12528685415E+02 -0.58775094984E+01 -0.12615187044E+02  0.72462188395E+02  0.70000805186E+02 0.  0.
         12    1    1    2    0    0  0.12528685415E+02  0.58775094984E+01  0.12615187044E+02  0.18725811605E+02  0.00000000000E+00 0. -1.
         11    1    3    3    0    0 -0.32303309691E+02 -0.71962003398E+01 -0.34894518919E+01  0.33278602601E+02  0.51100000000E-03 0. -1.
        -11    1    3    3    0    0  0.11931345237E+01 -0.13699240427E+02 -0.62995480844E+01  0.15125378164E+02  0.51100000000E-03 0.  1.
         12    1    3    3    0    0  0.18581489752E+02  0.15017931269E+02 -0.28261870674E+01  0.24058207630E+02  0.00000000000E+00 0. -1.
</event>
<event>
 7    1  0.1339094E-013  0.7246164E+02  0.7816164E-02  0.1226708E+00
        -11   -1    0    0    0    0  0.00000000000E+00  0.00000000000E+00  0.45593999997E+02  0.45594000000E+02  0.51100000000E-03 0.  1.
         11   -1    0    0    0    0 -0.00000000000E+00 -0.00000000000E+00 -0.45593999997E+02  0.45594000000E+02  0.51100000000E-03 0. -1.
    9900012    2    1    2    0    0  0.46933172604E+01 -0.17464364705E+02 -0.48626477374E+01  0.72461638782E+02  0.70000089217E+02 0.  0.
         12    1    1    2    0    0 -0.46933172604E+01  0.17464364705E+02  0.48626477374E+01  0.18726361218E+02  0.00000000000E+00 0. -1.
         11    1    3    3    0    0 -0.91887534124E+00 -0.35209327694E+02 -0.71261364287E+01  0.35934981692E+02  0.51100000000E-03 0.  1.
        -11    1    3    3    0    0  0.36292177923E+01  0.13492047962E+02  0.16450937308E+02  0.21583325012E+02  0.51100000000E-03 0. -1.
         12    1    3    3    0    0  0.19829748093E+01  0.42529150273E+01 -0.14187448617E+02  0.14943332078E+02  0.00000000000E+00 0. -1.
</event>
<event>
 7    1  0.1339094E-013  0.7246160E+02  0.7816164E-02  0.1226708E+00
        -11   -1    0    0    0    0  0.00000000000E+00  0.00000000000E+00  0.45593999997E+02  0.45594000000E+02  0.51100000000E-03 0. -1.
         11   -1    0    0    0    0 -0.00000000000E+00 -0.00000000000E+00 -0.45593999997E+02  0.45594000000E+02  0.51100000000E-03 0.  1.
    9900012    2    1    2    0    0 -0.35136943330E+01  0.11729112613E+00 -0.18393425117E+02  0.72461604388E+02  0.70000044414E+02 0.  0.
         12    1    1    2    0    0  0.35136943330E+01 -0.11729112613E+00  0.18393425117E+02  0.18726395612E+02  0.00000000000E+00 0. -1.
         11    1    3    3    0    0  0.38815945196E+01 -0.14714743399E+02 -0.12979059828E+02  0.20001161056E+02  0.51100000000E-03 0. -1.
        -11    1    3    3    0    0 -0.15118935468E+02  0.24620265071E+02 -0.18561969597E+02  0.34340739325E+02  0.51100000000E-03 0.  1.
        -12    1    3    3    0    0  0.77236466151E+01 -0.97882305456E+01  0.13147604308E+02  0.18119704007E+02  0.00000000000E+00 0.  1.
</event>
<event>
 7    1  0.1339094E-013  0.7246148E+02  0.7816164E-02  0.1226708E+00
        -11   -1    0    0    0    0  0.00000000000E+00  0.00000000000E+00  0.45593999997E+02  0.45594000000E+02  0.51100000000E-03 0. -1.
         11   -1    0    0    0    0 -0.00000000000E+00 -0.00000000000E+00 -0.45593999997E+02  0.45594000000E+02  0.51100000000E-03 0.  1.
    9900012    2    1    2    0    0 -0.16616011474E+02  0.73423402588E+01 -0.45476111449E+01  0.72461479637E+02  0.69999881902E+02 0.  0.
         12    1    1    2    0    0  0.16616011474E+02 -0.73423402588E+01  0.45476111449E+01  0.18726520363E+02  0.00000000000E+00 0. -1.
         11    1    3    3    0    0 -0.28459741160E+02 -0.60174184039E+01 -0.77470244836E+01  0.30102866637E+02  0.51100000000E-03 0. -1.
        -11    1    3    3    0    0  0.15590204956E+02  0.18041095517E+02 -0.11508086349E+02  0.26475869574E+02  0.51100000000E-03 0.  1.
         12    1    3    3    0    0 -0.37464752693E+01 -0.46813368542E+01  0.14707499688E+02  0.15882743427E+02  0.00000000000E+00 0. -1.
</event>
<event>
 7    1  0.1339094E-013  0.7246163E+02  0.7816164E-02  0.1226708E+00
        -11   -1    0    0    0    0  0.00000000000E+00  0.00000000000E+00  0.45593999997E+02  0.45594000000E+02  0.51100000000E-03 0.  1.
         11   -1    0    0    0    0 -0.00000000000E+00 -0.00000000000E+00 -0.45593999997E+02  0.45594000000E+02  0.51100000000E-03 0. -1.
    9900012    2    1    2    0    0 -0.17648481341E+02  0.98181649045E+00  0.61841878290E+01  0.72461627250E+02  0.70000074195E+02 0.  0.
         12    1    1    2    0    0  0.17648481341E+02 -0.98181649045E+00 -0.61841878290E+01  0.18726372750E+02  0.00000000000E+00 0. -1.
         11    1    3    3    0    0 -0.30255430050E+01  0.20751538252E+02 -0.10119824982E+02  0.23284997493E+02  0.51100000000E-03 0. -1.
        -11    1    3    3    0    0  0.15733066333E+01 -0.22560471386E+02 -0.40925832811E+01  0.22982589086E+02  0.51100000000E-03 0.  1.
         12    1    3    3    0    0 -0.16196244969E+02  0.27907496241E+01  0.20396596092E+02  0.26194040672E+02  0.00000000000E+00 0. -1.
</event>
<event>
 7    1  0.1339094E-013  0.7246157E+02  0.7816164E-02  0.1226708E+00
        -11   -1    0    0    0    0  0.00000000000E+00  0.00000000000E+00  0.45593999997E+02  0.45594000000E+02  0.51100000000E-03 0. -1.
         11   -1    0    0    0    0 -0.00000000000E+00 -0.00000000000E+00 -0.45593999997E+02  0.45594000000E+02  0.51100000000E-03 0.  1.
    9900012    2    1    2    0    0 -0.16352742868E+02  0.10944459346E+01 -0.90591949357E+01  0.72461574177E+02  0.70000005058E+02 0.  0.
         12    1    1    2    0    0  0.16352742868E+02 -0.10944459346E+01  0.90591949357E+01  0.18726425823E+02  0.00000000000E+00 0. -1.
         11    1    3    3    0    0 -0.74742082870E+01 -0.16467410196E+02 -0.26874997386E+02  0.32392975671E+02  0.51100000000E-03 0. -1.
        -11    1    3    3    0    0  0.13374521109E+01  0.13138190851E+02  0.23956023250E+02  0.27354924369E+02  0.51100000000E-03 0.  1.
         12    1    3    3    0    0 -0.10215986692E+02  0.44236652798E+01 -0.61402208005E+01  0.12713674138E+02  0.00000000000E+00 0. -1.
</event>
<event>
 7    1  0.1339094E-013  0.7246156E+02  0.7816164E-02  0.1226708E+00
        -11   -1    0    0    0    0  0.00000000000E+00  0.00000000000E+00  0.45593999997E+02  0.45594000000E+02  0.51100000000E-03 0.  1.
         11   -1    0    0    0    0 -0.00000000000E+00 -0.00000000000E+00 -0.45593999997E+02  0.45594000000E+02  0.51100000000E-03 0. -1.
    9900012    2    1    2    0    0 -0.72434053181E+01 -0.11448789128E+02  0.12928183783E+02  0.72461558026E+02  0.69999984018E+02 0.  0.
         12    1    1    2    0    0  0.72434053181E+01  0.11448789128E+02 -0.12928183783E+02  0.18726441974E+02  0.00000000000E+00 0. -1.
         11    1    3    3    0    0 -0.60858060459E+01  0.26222400039E+02  0.28663422867E+01  0.27071520411E+02  0.51100000000E-03 0. -1.
        -11    1    3    3    0    0 -0.78667925133E+00 -0.57216739182E+01  0.12064498647E+02  0.13375669872E+02  0.51100000000E-03 0.  1.
         12    1    3    3    0    0 -0.37092002087E+00 -0.31949515248E+02 -0.20026571509E+01  0.32014367742E+02  0.00000000000E+00 0. -1.
</event>
<event>
 7    1  0.1339094E-013  0.7246157E+02  0.7816164E-02  0.1226708E+00
        -11   -1    0    0    0    0  0.00000000000E+00  0.00000000000E+00  0.45593999997E+02  0.45594000000E+02  0.51100000000E-03 0.  1.
         11   -1    0    0    0    0 -0.00000000000E+00 -0.00000000000E+00 -0.45593999997E+02  0.45594000000E+02  0.51100000000E-03 0. -1.
    9900012    2    1    2    0    0 -0.25557292371E+01 -0.14773744325E+02 -0.11219799431E+02  0.72461570212E+02  0.69999999893E+02 0.  0.
         12    1    1    2    0    0  0.25557292371E+01  0.14773744325E+02  0.11219799431E+02  0.18726429788E+02  0.00000000000E+00 0. -1.
         11    1    3    3    0    0  0.28019308374E+02 -0.22028405733E+01  0.10380484560E+02  0.29961452040E+02  0.51100000000E-03 0. -1.
        -11    1    3    3    0    0 -0.23459676990E+02 -0.68837283280E+01 -0.72466067553E+01  0.25500107252E+02  0.51100000000E-03 0.  1.
         12    1    3    3    0    0 -0.71153606215E+01 -0.56871754241E+01 -0.14353677236E+02  0.17000010920E+02  0.00000000000E+00 0. -1.
</event>
<event>
 7    1  0.1339094E-013  0.7246154E+02  0.7816164E-02  0.1226708E+00
        -11   -1    0    0    0    0  0.00000000000E+00  0.00000000000E+00  0.45593999997E+02  0.45594000000E+02  0.51100000000E-03 0.  1.
         11   -1    0    0    0    0 -0.00000000000E+00 -0.00000000000E+00 -0.45593999997E+02  0.45594000000E+02  0.51100000000E-03 0. -1.
    9900012    2    1    2    0    0  0.18217617435E+02  0.28829248048E+01  0.32384428699E+01  0.72461538704E+02  0.69999958848E+02 0.  0.
         12    1    1    2    0    0 -0.18217617435E+02 -0.28829248048E+01 -0.32384428699E+01  0.18726461296E+02  0.00000000000E+00 0. -1.
         11    1    3    3    0    0  0.24010385507E+02  0.24037409909E+02 -0.10823048631E+02  0.35657174163E+02  0.51100000000E-03 0. -1.
        -11    1    3    3    0    0  0.84961862978E+01 -0.10498867917E+02  0.13312521232E+02  0.18964035197E+02  0.51100000000E-03 0.  1.
         12    1    3    3    0    0 -0.14288954370E+02 -0.10655617187E+02  0.74897026886E+00  0.17840329344E+02  0.00000000000E+00 0. -1.
</event>
<event>
 7    1  0.1339094E-013  0.7246156E+02  0.7816164E-02  0.1226708E+00
        -11   -1    0    0    0    0  0.00000000000E+00  0.00000000000E+00  0.45593999997E+02  0.45594000000E+02  0.51100000000E-03 0. -1.
         11   -1    0    0    0    0 -0.00000000000E+00 -0.00000000000E+00 -0.45593999997E+02  0.45594000000E+02  0.51100000000E-03 0.  1.
    9900012    2    1    2    0    0 -0.65822292135E+01  0.14545479977E+02 -0.97868637526E+01  0.72461563305E+02  0.69999990895E+02 0.  0.
         12    1    1    2    0    0  0.65822292135E+01 -0.14545479977E+02  0.97868637526E+01  0.18726436695E+02  0.00000000000E+00 0. -1.
         11    1    3    3    0    0  0.15150909830E+02 -0.25484698375E+01  0.17417867896E+02  0.23225565429E+02  0.51100000000E-03 0. -1.
        -11    1    3    3    0    0 -0.20701081545E+02 -0.16033503808E+01 -0.75610608890E+01  0.22096948920E+02  0.51100000000E-03 0.  1.
        -12    1    3    3    0    0 -0.10320574993E+01  0.18697300196E+02 -0.19643670760E+02  0.27139048955E+02  0.00000000000E+00 0.  1.
</event>
<event>
 7    1  0.1339094E-013  0.7246159E+02  0.7816164E-02  0.1226708E+00
        -11   -1    0    0    0    0  0.00000000000E+00  0.00000000000E+00  0.45593999997E+02  0.45594000000E+02  0.51100000000E-03 0.  1.
         11   -1    0    0    0    0 -0.00000000000E+00 -0.00000000000E+00 -0.45593999997E+02  0.45594000000E+02  0.51100000000E-03 0. -1.
    9900012    2    1    2    0    0  0.17600184880E+02  0.22894919610E+01  0.59724445552E+01  0.72461591503E+02  0.70000027628E+02 0.  0.
         12    1    1    2    0    0 -0.17600184880E+02 -0.22894919610E+01 -0.59724445552E+01  0.18726408497E+02  0.00000000000E+00 0. -1.
         11    1    3    3    0    0  0.34311596366E+02 -0.17541129447E+02  0.53970787488E+01  0.38911506354E+02  0.51100000000E-03 0. -1.
        -11    1    3    3    0    0 -0.69354720671E+00  0.87750503902E+01  0.87763702854E+01  0.12430092225E+02  0.51100000000E-03 0.  1.
         12    1    3    3    0    0 -0.16017864280E+02  0.11055571018E+02 -0.82010044790E+01  0.21119992923E+02  0.00000000000E+00 0. -1.
</event>
<event>
 7    1  0.1339094E-013  0.7246172E+02  0.7816164E-02  0.1226708E+00
        -11   -1    0    0    0    0  0.00000000000E+00  0.00000000000E+00  0.45593999997E+02  0.45594000000E+02  0.51100000000E-03 0.  1.
         11   -1    0    0    0    0 -0.00000000000E+00 -0.00000000000E+00 -0.45593999997E+02  0.45594000000E+02  0.51100000000E-03 0. -1.
    9900012    2    1    2    0    0  0.79692909106E+01  0.20671437649E+01  0.16819365122E+02  0.72461715690E+02  0.70000189405E+02 0.  0.
         12    1    1    2    0    0 -0.79692909106E+01 -0.20671437649E+01 -0.16819365122E+02  0.18726284310E+02  0.00000000000E+00 0. -1.
         11    1    3    3    0    0 -0.68772245095E+00  0.24177361062E+02 -0.43983304470E-01  0.24187180177E+02  0.51100000000E-03 0. -1.
        -11    1    3    3    0    0 -0.15033583690E+02 -0.12873817475E+02  0.79645441994E+01  0.21334895817E+02  0.51100000000E-03 0.  1.
         12    1    3    3    0    0  0.23690597051E+02 -0.92363998220E+01  0.88988042266E+01  0.26939639697E+02  0.00000000000E+00 0. -1.
</event>
<event>
 7    1  0.1339094E-013  0.7246129E+02  0.7816164E-02  0.1226709E+00
        -11   -1    0    0    0    0  0.00000000000E+00  0.00000000000E+00  0.45593999997E+02  0.45594000000E+02  0.51100000000E-03 0.  1.
         11   -1    0    0    0    0 -0.00000000000E+00 -0.00000000000E+00 -0.45593999997E+02  0.45594000000E+02  0.51100000000E-03 0. -1.
    9900012    2    1    2    0    0  0.61870443837E+01 -0.13375234754E+02  0.11554789903E+02  0.72461291997E+02  0.69999637465E+02 0.  0.
         12    1    1    2    0    0 -0.61870443837E+01  0.13375234754E+02 -0.11554789903E+02  0.18726708003E+02  0.00000000000E+00 0. -1.
         11    1    3    3    0    0  0.13250577916E+02  0.22145120168E+02  0.17868771693E+02  0.31389124939E+02  0.51100000000E-03 0. -1.
        -11    1    3    3    0    0 -0.14309866094E+01 -0.18866736656E+02  0.57211091914E+01  0.19766956401E+02  0.51100000000E-03 0.  1.
         12    1    3    3    0    0 -0.56325469226E+01 -0.16653618265E+02 -0.12035090982E+02  0.21305210656E+02  0.00000000000E+00 0. -1.
</event>
<event>
 7    1  0.1339094E-013  0.7246159E+02  0.7816164E-02  0.1226708E+00
        -11   -1    0    0    0    0  0.00000000000E+00  0.00000000000E+00  0.45593999997E+02  0.45594000000E+02  0.51100000000E-03 0.  1.
         11   -1    0    0    0    0 -0.00000000000E+00 -0.00000000000E+00 -0.45593999997E+02  0.45594000000E+02  0.51100000000E-03 0. -1.
    9900012    2    1    2    0    0 -0.88683854164E+01 -0.95010916791E+01  0.13481819887E+02  0.72461588960E+02  0.70000024315E+02 0.  0.
         12    1    1    2    0    0  0.88683854164E+01  0.95010916791E+01 -0.13481819887E+02  0.18726411040E+02  0.00000000000E+00 0. -1.
         11    1    3    3    0    0 -0.10743135464E+02  0.24776753571E+02  0.82036752076E+01  0.28224152144E+02  0.51100000000E-03 0. -1.
        -11    1    3    3    0    0  0.11788746686E+02 -0.23590368869E+02  0.11003851346E+02  0.28575597920E+02  0.51100000000E-03 0.  1.
         12    1    3    3    0    0 -0.99139966387E+01 -0.10687476381E+02 -0.57257066667E+01  0.15661838895E+02  0.00000000000E+00 0. -1.
</event>
<event>
 7    1  0.1339094E-013  0.7246161E+02  0.7816164E-02  0.1226708E+00
        -11   -1    0    0    0    0  0.00000000000E+00  0.00000000000E+00  0.45593999997E+02  0.45594000000E+02  0.51100000000E-03 0.  1.
         11   -1    0    0    0    0 -0.00000000000E+00 -0.00000000000E+00 -0.45593999997E+02  0.45594000000E+02  0.51100000000E-03 0. -1.
    9900012    2    1    2    0    0 -0.46542704080E+01 -0.13514616234E+02 -0.12098368883E+02  0.72461611811E+02  0.70000054083E+02 0.  0.
         12    1    1    2    0    0  0.46542704080E+01  0.13514616234E+02  0.12098368883E+02  0.18726388189E+02  0.00000000000E+00 0. -1.
         11    1    3    3    0    0  0.28184544048E+02 -0.76415871930E+01 -0.69253841226E+01  0.30012052971E+02  0.51100000000E-03 0. -1.
        -11    1    3    3    0    0 -0.24016145061E+02 -0.14849583725E+02  0.13593785200E+01  0.28268945340E+02  0.51100000000E-03 0.  1.
        -12    1    3    3    0    0 -0.88226693947E+01  0.89765546839E+01 -0.65323632801E+01  0.14180613501E+02  0.00000000000E+00 0.  1.
</event>
<event>
 7    1  0.1339094E-013  0.7246158E+02  0.7816164E-02  0.1226708E+00
        -11   -1    0    0    0    0  0.00000000000E+00  0.00000000000E+00  0.45593999997E+02  0.45594000000E+02  0.51100000000E-03 0. -1.
         11   -1    0    0    0    0 -0.00000000000E+00 -0.00000000000E+00 -0.45593999997E+02  0.45594000000E+02  0.51100000000E-03 0.  1.
    9900012    2    1    2    0    0 -0.13412520616E+01 -0.11752989611E+02 -0.14517126786E+02  0.72461583044E+02  0.70000016608E+02 0.  0.
         12    1    1    2    0    0  0.13412520616E+01  0.11752989611E+02  0.14517126786E+02  0.18726416956E+02  0.00000000000E+00 0. -1.
         11    1    3    3    0    0  0.23063864425E+02 -0.71460702366E+01  0.15817049636E+02  0.28864982617E+02  0.51100000000E-03 0. -1.
        -11    1    3    3    0    0 -0.43803085177E+00  0.52485289515E+01 -0.37056678676E+01  0.64397905081E+01  0.51100000000E-03 0.  1.
         12    1    3    3    0    0 -0.23967085634E+02 -0.98554483260E+01 -0.26628508555E+02  0.37156809919E+02  0.00000000000E+00 0. -1.
</event>
<event>
 7    1  0.1339094E-013  0.7246157E+02  0.7816164E-02  0.1226708E+00
        -11   -1    0    0    0    0  0.00000000000E+00  0.00000000000E+00  0.45593999997E+02  0.45594000000E+02  0.51100000000E-03 0. -1.
         11   -1    0    0    0    0 -0.00000000000E+00 -0.00000000000E+00 -0.45593999997E+02  0.45594000000E+02  0.51100000000E-03 0.  1.
    9900012    2    1    2    0    0  0.18247538454E+02 -0.37088227491E+01  0.19877923021E+01  0.72461565635E+02  0.69999993930E+02 0.  0.
         12    1    1    2    0    0 -0.18247538454E+02  0.37088227491E+01 -0.19877923021E+01  0.18726434365E+02  0.00000000000E+00 0. -1.
         11    1    3    3    0    0  0.17910262313E+01 -0.17825994625E+02 -0.11803559277E+02  0.21454553623E+02  0.51100000000E-03 0.  1.
        -11    1    3    3    0    0  0.23551990610E+02  0.83152844465E+01  0.25793973776E+02  0.35905003837E+02  0.51100000000E-03 0. -1.
         12    1    3    3    0    0 -0.70954783872E+01  0.58018874291E+01 -0.12002622197E+02  0.15102008174E+02  0.00000000000E+00 0. -1.
</event>
<event>
 7    1  0.1339094E-013  0.7246154E+02  0.7816164E-02  0.1226708E+00
        -11   -1    0    0    0    0  0.00000000000E+00  0.00000000000E+00  0.45593999997E+02  0.45594000000E+02  0.51100000000E-03 0. -1.
         11   -1    0    0    0    0 -0.00000000000E+00 -0.00000000000E+00 -0.45593999997E+02  0.45594000000E+02  0.51100000000E-03 0.  1.
    9900012    2    1    2    0    0 -0.17170534061E+02 -0.46203789291E+01  0.58740990723E+01  0.72461543280E+02  0.69999964809E+02 0.  0.
         12    1    1    2    0    0  0.17170534061E+02  0.46203789291E+01 -0.58740990723E+01  0.18726456720E+02  0.00000000000E+00 0. -1.
         11    1    3    3    0    0 -0.37235278143E+01  0.48591035433E+01  0.18824710700E+02  0.19795082213E+02  0.51100000000E-03 0. -1.
        -11    1    3    3    0    0 -0.21448976148E+02 -0.24175344680E+02 -0.15320571347E+02  0.35766265878E+02  0.51100000000E-03 0.  1.
        -12    1    3    3    0    0  0.80019699020E+01  0.14695862207E+02  0.23699597193E+01  0.16900195188E+02  0.00000000000E+00 0.  1.
</event>
<event>
 7    1  0.1339094E-013  0.7246160E+02  0.7816164E-02  0.1226708E+00
        -11   -1    0    0    0    0  0.00000000000E+00  0.00000000000E+00  0.45593999997E+02  0.45594000000E+02  0.51100000000E-03 0. -1.
         11   -1    0    0    0    0 -0.00000000000E+00 -0.00000000000E+00 -0.45593999997E+02  0.45594000000E+02  0.51100000000E-03 0.  1.
    9900012    2    1    2    0    0 -0.52044396278E+01  0.45917865828E+01 -0.17392741674E+02  0.72461597281E+02  0.70000035155E+02 0.  0.
         12    1    1    2    0    0  0.52044396278E+01 -0.45917865828E+01  0.17392741674E+02  0.18726402719E+02  0.00000000000E+00 0. -1.
         11    1    3    3    0    0  0.93553519634E+01  0.22867367145E+02  0.72414647977E+01  0.25746415347E+02  0.51100000000E-03 0. -1.
        -11    1    3    3    0    0 -0.21991228167E+02 -0.89795009909E+01 -0.25415917708E+02  0.34788136305E+02  0.51100000000E-03 0.  1.
        -12    1    3    3    0    0  0.74314365761E+01 -0.92960795718E+01  0.78171123646E+00  0.11927045630E+02  0.00000000000E+00 0.  1.
</event>
<event>
 7    1  0.1339094E-013  0.7246150E+02  0.7816164E-02  0.1226708E+00
        -11   -1    0    0    0    0  0.00000000000E+00  0.00000000000E+00  0.45593999997E+02  0.45594000000E+02  0.51100000000E-03 0.  1.
         11   -1    0    0    0    0 -0.00000000000E+00 -0.00000000000E+00 -0.45593999997E+02  0.45594000000E+02  0.51100000000E-03 0. -1.
    9900012    2    1    2    0    0  0.60622063877E+01  0.77188722488E+01  0.15948371190E+02  0.72461497959E+02  0.69999905770E+02 0.  0.
         12    1    1    2    0    0 -0.60622063877E+01 -0.77188722488E+01 -0.15948371190E+02  0.18726502041E+02  0.00000000000E+00 0. -1.
         11    1    3    3    0    0  0.19609602974E+02  0.64032822194E+01  0.32072125699E+01  0.20876416471E+02  0.51100000000E-03 0. -1.
        -11    1    3    3    0    0 -0.87644303879E+01  0.26954314992E+01 -0.18129050342E+02  0.20316078794E+02  0.51100000000E-03 0.  1.
        -12    1    3    3    0    0 -0.47829661979E+01 -0.13798414698E+01  0.30870208962E+02  0.31269002694E+02  0.00000000000E+00 0.  1.
</event>
<event>
 7    1  0.1339094E-013  0.7246158E+02  0.7816164E-02  0.1226708E+00
        -11   -1    0    0    0    0  0.00000000000E+00  0.00000000000E+00  0.45593999997E+02  0.45594000000E+02  0.51100000000E-03 0.  1.
         11   -1    0    0    0    0 -0.00000000000E+00 -0.00000000000E+00 -0.45593999997E+02  0.45594000000E+02  0.51100000000E-03 0. -1.
    9900012    2    1    2    0    0  0.14110965808E+02 -0.90829993072E+01  0.83101583121E+01  0.72461575792E+02  0.70000007162E+02 0.  0.
         12    1    1    2    0    0 -0.14110965808E+02  0.90829993072E+01 -0.83101583121E+01  0.18726424208E+02  0.00000000000E+00 0. -1.
         11    1    3    3    0    0  0.19614710527E+02 -0.15262338564E+02 -0.77206178935E+00  0.24865074445E+02  0.51100000000E-03 0. -1.
        -11    1    3    3    0    0 -0.21990503765E+02  0.15783025381E+01 -0.79622812899E+01  0.23440802425E+02  0.51100000000E-03 0.  1.
        -12    1    3    3    0    0  0.16486759045E+02  0.46010367188E+01  0.17044501391E+02  0.24155698922E+02  0.00000000000E+00 0.  1.
</event>
<event>
 7    1  0.1339094E-013  0.7246159E+02  0.7816164E-02  0.1226708E+00
        -11   -1    0    0    0    0  0.00000000000E+00  0.00000000000E+00  0.45593999997E+02  0.45594000000E+02  0.51100000000E-03 0.  1.
         11   -1    0    0    0    0 -0.00000000000E+00 -0.00000000000E+00 -0.45593999997E+02  0.45594000000E+02  0.51100000000E-03 0. -1.
    9900012    2    1    2    0    0  0.99443170461E+01 -0.11888664449E+01  0.15823260605E+02  0.72461590277E+02  0.70000026031E+02 0.  0.
         12    1    1    2    0    0 -0.99443170461E+01  0.11888664449E+01 -0.15823260605E+02  0.18726409723E+02  0.00000000000E+00 0. -1.
         11    1    3    3    0    0  0.22766365160E+02  0.10830536709E+02  0.19560060013E+02  0.31909306730E+02  0.51100000000E-03 0. -1.
        -11    1    3    3    0    0 -0.83319826087E+01  0.12725883847E+02 -0.20201042459E+01  0.15344408601E+02  0.51100000000E-03 0.  1.
         12    1    3    3    0    0 -0.44900655054E+01 -0.24745287001E+02 -0.17166951618E+01  0.25207874946E+02  0.00000000000E+00 0. -1.
</event>
<event>
 7    1  0.1339094E-013  0.7246157E+02  0.7816164E-02  0.1226708E+00
        -11   -1    0    0    0    0  0.00000000000E+00  0.00000000000E+00  0.45593999997E+02  0.45594000000E+02  0.51100000000E-03 0.  1.
         11   -1    0    0    0    0 -0.00000000000E+00 -0.00000000000E+00 -0.45593999997E+02  0.45594000000E+02  0.51100000000E-03 0. -1.
    9900012    2    1    2    0    0  0.94867489519E+01 -0.15755941464E+02  0.35257514144E+01  0.72461574283E+02  0.70000005196E+02 0.  0.
         12    1    1    2    0    0 -0.94867489519E+01  0.15755941464E+02 -0.35257514144E+01  0.18726425717E+02  0.00000000000E+00 0. -1.
         11    1    3    3    0    0 -0.13004810308E+02  0.21090485264E+02  0.58806636326E+01  0.25465974650E+02  0.51100000000E-03 0. -1.
        -11    1    3    3    0    0 -0.83387025714E+00 -0.76660388822E+01  0.46248481219E+01  0.89918136191E+01  0.51100000000E-03 0.  1.
         12    1    3    3    0    0  0.23325429517E+02 -0.29180387846E+02 -0.69797603401E+01  0.38003786014E+02  0.00000000000E+00 0. -1.
</event>
<event>
 7    1  0.1339094E-013  0.7246209E+02  0.7816164E-02  0.1226707E+00
        -11   -1    0    0    0    0  0.00000000000E+00  0.00000000000E+00  0.45593999997E+02  0.45594000000E+02  0.51100000000E-03 0.  1.
         11   -1    0    0    0    0 -0.00000000000E+00 -0.00000000000E+00 -0.45593999997E+02  0.45594000000E+02  0.51100000000E-03 0. -1.
    9900012    2    1    2    0    0  0.69972521249E+01  0.70194055831E+01  0.15887923250E+02  0.72462090216E+02  0.70000677292E+02 0.  0.
         12    1    1    2    0    0 -0.69972521249E+01 -0.70194055831E+01 -0.15887923250E+02  0.18725909784E+02  0.00000000000E+00 0. -1.
         11    1    3    3    0    0 -0.19999144883E+02 -0.13581414067E+00 -0.15660295660E+02  0.25401360238E+02  0.51100000000E-03 0. -1.
        -11    1    3    3    0    0  0.13850693565E+02  0.60223630519E+01  0.30239638035E+02  0.33801572119E+02  0.51100000000E-03 0.  1.
         12    1    3    3    0    0  0.13145703443E+02  0.11328566719E+01  0.13085808750E+01  0.13259157860E+02  0.00000000000E+00 0. -1.
</event>
<event>
 7    1  0.1339094E-013  0.7246156E+02  0.7816164E-02  0.1226708E+00
        -11   -1    0    0    0    0  0.00000000000E+00  0.00000000000E+00  0.45593999997E+02  0.45594000000E+02  0.51100000000E-03 0.  1.
         11   -1    0    0    0    0 -0.00000000000E+00 -0.00000000000E+00 -0.45593999997E+02  0.45594000000E+02  0.51100000000E-03 0. -1.
    9900012    2    1    2    0    0  0.89485076690E+01  0.27865402975E+01  0.16212304396E+02  0.72461563870E+02  0.69999991631E+02 0.  0.
         12    1    1    2    0    0 -0.89485076690E+01 -0.27865402975E+01 -0.16212304396E+02  0.18726436130E+02  0.00000000000E+00 0. -1.
         11    1    3    3    0    0  0.48569268331E+01  0.13459106635E+02 -0.32778159871E+00  0.14312397797E+02  0.51100000000E-03 0. -1.
        -11    1    3    3    0    0 -0.19063955406E+02 -0.14889478433E+02  0.23377413988E+02  0.33639774803E+02  0.51100000000E-03 0.  1.
        -12    1    3    3    0    0  0.23155536242E+02  0.42169120956E+01 -0.68373279940E+01  0.24509391269E+02  0.00000000000E+00 0.  1.
</event>
<event>
 7    1  0.1339094E-013  0.7246158E+02  0.7816164E-02  0.1226708E+00
        -11   -1    0    0    0    0  0.00000000000E+00  0.00000000000E+00  0.45593999997E+02  0.45594000000E+02  0.51100000000E-03 0. -1.
         11   -1    0    0    0    0 -0.00000000000E+00 -0.00000000000E+00 -0.45593999997E+02  0.45594000000E+02  0.51100000000E-03 0.  1.
    9900012    2    1    2    0    0 -0.31247302316E+01  0.14085652721E+02 -0.11937729642E+02  0.72461576407E+02  0.70000007962E+02 0.  0.
         12    1    1    2    0    0  0.31247302316E+01 -0.14085652721E+02  0.11937729642E+02  0.18726423593E+02  0.00000000000E+00 0. -1.
         11    1    3    3    0    0  0.12007773519E+02  0.12381509661E+02  0.16174316944E+02  0.23645230708E+02  0.51100000000E-03 0. -1.
        -11    1    3    3    0    0 -0.11881503879E+02 -0.12122373722E+02  0.38198112198E+00  0.16978456612E+02  0.51100000000E-03 0.  1.
         12    1    3    3    0    0 -0.32509998714E+01  0.13826516782E+02 -0.28494027707E+02  0.31837889087E+02  0.00000000000E+00 0. -1.
</event>
<event>
 7    1  0.1339094E-013  0.7246159E+02  0.7816164E-02  0.1226708E+00
        -11   -1    0    0    0    0  0.00000000000E+00  0.00000000000E+00  0.45593999997E+02  0.45594000000E+02  0.51100000000E-03 0.  1.
         11   -1    0    0    0    0 -0.00000000000E+00 -0.00000000000E+00 -0.45593999997E+02  0.45594000000E+02  0.51100000000E-03 0. -1.
    9900012    2    1    2    0    0  0.13434203821E+02  0.13033025975E+02  0.58365346514E+00  0.72461594853E+02  0.70000031992E+02 0.  0.
         12    1    1    2    0    0 -0.13434203821E+02 -0.13033025975E+02 -0.58365346514E+00  0.18726405147E+02  0.00000000000E+00 0. -1.
         11    1    3    3    0    0  0.32385548117E+02  0.59605260320E+01 -0.11366835065E+02  0.34836138378E+02  0.51100000000E-03 0.  1.
        -11    1    3    3    0    0 -0.18112234330E+02 -0.82361086490E+01  0.37804508895E+01  0.20252859731E+02  0.51100000000E-03 0. -1.
        -12    1    3    3    0    0 -0.83910996634E+00  0.15308608592E+02  0.81700376409E+01  0.17372596744E+02  0.00000000000E+00 0.  1.
</event>
<event>
 7    1  0.1339094E-013  0.7246192E+02  0.7816164E-02  0.1226707E+00
        -11   -1    0    0    0    0  0.00000000000E+00  0.00000000000E+00  0.45593999997E+02  0.45594000000E+02  0.51100000000E-03 0. -1.
         11   -1    0    0    0    0 -0.00000000000E+00 -0.00000000000E+00 -0.45593999997E+02  0.45594000000E+02  0.51100000000E-03 0.  1.
    9900012    2    1    2    0    0  0.41174508666E+01  0.58079617465E+01 -0.17319937164E+02  0.72461920735E+02  0.70000456513E+02 0.  0.
         12    1    1    2    0    0 -0.41174508666E+01 -0.58079617465E+01  0.17319937164E+02  0.18726079265E+02  0.00000000000E+00 0. -1.
         11    1    3    3    0    0 -0.11192991740E+02 -0.68544899620E+01  0.13828471350E+02  0.19065511188E+02  0.51100000000E-03 0. -1.
        -11    1    3    3    0    0  0.88144673039E+01 -0.11342965269E+02 -0.23201745620E+02  0.27288801642E+02  0.51100000000E-03 0.  1.
         12    1    3    3    0    0  0.64959753031E+01  0.24005416977E+02 -0.79466628930E+01  0.26107607905E+02  0.00000000000E+00 0. -1.
</event>
<event>
 7    1  0.1339094E-013  0.7246148E+02  0.7816164E-02  0.1226708E+00
        -11   -1    0    0    0    0  0.00000000000E+00  0.00000000000E+00  0.45593999997E+02  0.45594000000E+02  0.51100000000E-03 0. -1.
         11   -1    0    0    0    0 -0.00000000000E+00 -0.00000000000E+00 -0.45593999997E+02  0.45594000000E+02  0.51100000000E-03 0.  1.
    9900012    2    1    2    0    0  0.46581918512E+01  0.63608736882E+01 -0.16985965079E+02  0.72461482035E+02  0.69999885026E+02 0.  0.
         12    1    1    2    0    0 -0.46581918512E+01 -0.63608736882E+01  0.16985965079E+02  0.18726517965E+02  0.00000000000E+00 0. -1.
         11    1    3    3    0    0  0.16788580923E+02  0.25147627212E+02 -0.51146521631E+01  0.30666256224E+02  0.51100000000E-03 0. -1.
        -11    1    3    3    0    0 -0.13818070627E+02 -0.92609827565E+01 -0.22136456098E+02  0.27689845906E+02  0.51100000000E-03 0.  1.
        -12    1    3    3    0    0  0.16876815558E+01 -0.95257707668E+01  0.10265143182E+02  0.14105379905E+02  0.00000000000E+00 0.  1.
</event>
<event>
 7    1  0.1868413E-013  0.7246154E+02  0.7816164E-02  0.1226708E+00
        -11   -1    0    0    0    0  0.00000000000E+00  0.00000000000E+00  0.45593999997E+02  0.45594000000E+02  0.51100000000E-03 0. -1.
         11   -1    0    0    0    0 -0.00000000000E+00 -0.00000000000E+00 -0.45593999997E+02  0.45594000000E+02  0.51100000000E-03 0.  1.
    9900012    2    1    2    0    0 -0.24176664910E+01 -0.86080549521E+01 -0.16454070613E+02  0.72461543820E+02  0.69999965512E+02 0.  0.
         12    1    1    2    0    0  0.24176664910E+01  0.86080549521E+01  0.16454070613E+02  0.18726456180E+02  0.00000000000E+00 0. -1.
         11    1    3    3    0    0  0.14855376811E+02  0.10764469051E+02  0.13123859676E+02  0.22556411665E+02  0.51100000000E-03 0. -1.
        -11    1    3    3    0    0 -0.20444591746E+02  0.12066930474E+00 -0.14876568186E+02  0.25284544172E+02  0.51100000000E-03 0.  1.
        -12    1    3    3    0    0  0.31715484445E+01 -0.19493193308E+02 -0.14701362104E+02  0.24620587982E+02  0.00000000000E+00 0.  1.
</event>
<event>
 7    1  0.1339094E-013  0.7246158E+02  0.7816164E-02  0.1226708E+00
        -11   -1    0    0    0    0  0.00000000000E+00  0.00000000000E+00  0.45593999997E+02  0.45594000000E+02  0.51100000000E-03 0. -1.
         11   -1    0    0    0    0 -0.00000000000E+00 -0.00000000000E+00 -0.45593999997E+02  0.45594000000E+02  0.51100000000E-03 0.  1.
    9900012    2    1    2    0    0 -0.11638782596E+01  0.13880682957E+02 -0.12516020441E+02  0.72461581773E+02  0.70000014952E+02 0.  0.
         12    1    1    2    0    0  0.11638782596E+01 -0.13880682957E+02  0.12516020441E+02  0.18726418227E+02  0.00000000000E+00 0. -1.
         11    1    3    3    0    0 -0.15517916289E+02 -0.22324989388E+01 -0.10876108544E+02  0.19080867769E+02  0.51100000000E-03 0. -1.
        -11    1    3    3    0    0  0.14551435520E+02  0.12077927309E+02  0.22221882924E+02  0.29179319470E+02  0.51100000000E-03 0.  1.
        -12    1    3    3    0    0 -0.19739749036E+00  0.40352545866E+01 -0.23861794820E+02  0.24201394534E+02  0.00000000000E+00 0.  1.
</event>
<event>
 7    1  0.1339094E-013  0.7246157E+02  0.7816164E-02  0.1226708E+00
        -11   -1    0    0    0    0  0.00000000000E+00  0.00000000000E+00  0.45593999997E+02  0.45594000000E+02  0.51100000000E-03 0.  1.
         11   -1    0    0    0    0 -0.00000000000E+00 -0.00000000000E+00 -0.45593999997E+02  0.45594000000E+02  0.51100000000E-03 0. -1.
    9900012    2    1    2    0    0  0.63270893496E+01 -0.48238054546E+01  0.16952232285E+02  0.72461565792E+02  0.69999994135E+02 0.  0.
         12    1    1    2    0    0 -0.63270893496E+01  0.48238054546E+01 -0.16952232285E+02  0.18726434208E+02  0.00000000000E+00 0. -1.
         11    1    3    3    0    0  0.30833691352E+01 -0.46486278917E+01 -0.23543846270E+02  0.24195652583E+02  0.51100000000E-03 0. -1.
        -11    1    3    3    0    0 -0.11309064631E+02  0.10035743173E+01  0.21428154320E+02  0.24250111383E+02  0.51100000000E-03 0.  1.
        -12    1    3    3    0    0  0.14552784846E+02 -0.11787518802E+01  0.19067924234E+02  0.24015801826E+02  0.00000000000E+00 0.  1.
</event>
<event>
 7    1  0.1339094E-013  0.7246174E+02  0.7816164E-02  0.1226708E+00
        -11   -1    0    0    0    0  0.00000000000E+00  0.00000000000E+00  0.45593999997E+02  0.45594000000E+02  0.51100000000E-03 0.  1.
         11   -1    0    0    0    0 -0.00000000000E+00 -0.00000000000E+00 -0.45593999997E+02  0.45594000000E+02  0.51100000000E-03 0. -1.
    9900012    2    1    2    0    0  0.13143666200E+02 -0.12706201293E+02  0.40582420755E+01  0.72461739262E+02  0.70000220111E+02 0.  0.
         12    1    1    2    0    0 -0.13143666200E+02  0.12706201293E+02 -0.40582420755E+01  0.18726260738E+02  0.00000000000E+00 0. -1.
         11    1    3    3    0    0  0.33330300358E+02  0.37213601918E+01 -0.69393718321E+01  0.34247807599E+02  0.51100000000E-03 0. -1.
        -11    1    3    3    0    0 -0.10171216490E+02 -0.17455028892E+02 -0.35604396096E+01  0.20513615210E+02  0.51100000000E-03 0.  1.
         12    1    3    3    0    0 -0.10015417668E+02  0.10274674067E+01  0.14558053517E+02  0.17700316453E+02  0.00000000000E+00 0. -1.
</event>
<event>
 7    1  0.1339094E-013  0.7246161E+02  0.7816164E-02  0.1226708E+00
        -11   -1    0    0    0    0  0.00000000000E+00  0.00000000000E+00  0.45593999997E+02  0.45594000000E+02  0.51100000000E-03 0. -1.
         11   -1    0    0    0    0 -0.00000000000E+00 -0.00000000000E+00 -0.45593999997E+02  0.45594000000E+02  0.51100000000E-03 0.  1.
    9900012    2    1    2    0    0  0.13008988865E+01  0.44441576487E+01 -0.18144831551E+02  0.72461607204E+02  0.70000048082E+02 0.  0.
         12    1    1    2    0    0 -0.13008988865E+01 -0.44441576487E+01  0.18144831551E+02  0.18726392796E+02  0.00000000000E+00 0. -1.
         11    1    3    3    0    0 -0.10424711204E+02  0.22074008991E+01  0.46349996886E+01  0.11620260100E+02  0.51100000000E-03 0. -1.
        -11    1    3    3    0    0  0.18725670046E+02 -0.22861206254E+02 -0.17207610282E+02  0.34196305676E+02  0.51100000000E-03 0.  1.
        -12    1    3    3    0    0 -0.70000599561E+01  0.25097963003E+02 -0.55722209582E+01  0.26645041428E+02  0.00000000000E+00 0.  1.
</event>
<event>
 7    1  0.1339094E-013  0.7246164E+02  0.7816164E-02  0.1226708E+00
        -11   -1    0    0    0    0  0.00000000000E+00  0.00000000000E+00  0.45593999997E+02  0.45594000000E+02  0.51100000000E-03 0. -1.
         11   -1    0    0    0    0 -0.00000000000E+00 -0.00000000000E+00 -0.45593999997E+02  0.45594000000E+02  0.51100000000E-03 0.  1.
    9900012    2    1    2    0    0 -0.69465932624E+01  0.42687650447E+01 -0.16858209530E+02  0.72461635123E+02  0.70000084451E+02 0.  0.
         12    1    1    2    0    0  0.69465932624E+01 -0.42687650447E+01  0.16858209530E+02  0.18726364877E+02  0.00000000000E+00 0. -1.
         11    1    3    3    0    0 -0.29302306576E+02  0.11868800104E+02  0.99175030412E+01  0.33133826423E+02  0.51100000000E-03 0. -1.
        -11    1    3    3    0    0  0.17150323128E+02  0.23859279934E+01 -0.18595736737E+02  0.25409204254E+02  0.51100000000E-03 0.  1.
         12    1    3    3    0    0  0.52053901857E+01 -0.99859630532E+01 -0.81799758338E+01  0.13918604446E+02  0.00000000000E+00 0. -1.
</event>
<event>
 7    1  0.1339094E-013  0.7246160E+02  0.7816164E-02  0.1226708E+00
        -11   -1    0    0    0    0  0.00000000000E+00  0.00000000000E+00  0.45593999997E+02  0.45594000000E+02  0.51100000000E-03 0.  1.
         11   -1    0    0    0    0 -0.00000000000E+00 -0.00000000000E+00 -0.45593999997E+02  0.45594000000E+02  0.51100000000E-03 0. -1.
    9900012    2    1    2    0    0  0.17452724020E+02  0.39284905447E+00 -0.67768811167E+01  0.72461600887E+02  0.70000039852E+02 0.  0.
         12    1    1    2    0    0 -0.17452724020E+02 -0.39284905447E+00  0.67768811167E+01  0.18726399113E+02  0.00000000000E+00 0. -1.
         11    1    3    3    0    0 -0.12763298424E+01 -0.82635798840E+01  0.23567915653E+02  0.25007247327E+02  0.51100000000E-03 0. -1.
        -11    1    3    3    0    0 -0.25148897882E+01  0.14260967900E+02 -0.13041171088E+02  0.19487740241E+02  0.51100000000E-03 0.  1.
         12    1    3    3    0    0  0.21243943650E+02 -0.56045389618E+01 -0.17303625681E+02  0.27966613319E+02  0.00000000000E+00 0. -1.
</event>
<event>
 7    1  0.1339094E-013  0.7246161E+02  0.7816164E-02  0.1226708E+00
        -11   -1    0    0    0    0  0.00000000000E+00  0.00000000000E+00  0.45593999997E+02  0.45594000000E+02  0.51100000000E-03 0.  1.
         11   -1    0    0    0    0 -0.00000000000E+00 -0.00000000000E+00 -0.45593999997E+02  0.45594000000E+02  0.51100000000E-03 0. -1.
    9900012    2    1    2    0    0  0.88724689570E+01  0.13744270446E+02  0.91132876849E+01  0.72461609853E+02  0.70000051533E+02 0.  0.
         12    1    1    2    0    0 -0.88724689570E+01 -0.13744270446E+02 -0.91132876849E+01  0.18726390147E+02  0.00000000000E+00 0. -1.
         11    1    3    3    0    0  0.19279930282E+02  0.22672686760E+02  0.13867384795E+02  0.32833988456E+02  0.51100000000E-03 0. -1.
        -11    1    3    3    0    0  0.11516090287E+02 -0.11162855759E+02  0.29012661220E+01  0.16298681835E+02  0.51100000000E-03 0.  1.
         12    1    3    3    0    0 -0.21923551612E+02  0.22344394452E+01 -0.76553632322E+01  0.23328939563E+02  0.00000000000E+00 0. -1.
</event>
<event>
 7    1  0.1339094E-013  0.7246156E+02  0.7816164E-02  0.1226708E+00
        -11   -1    0    0    0    0  0.00000000000E+00  0.00000000000E+00  0.45593999997E+02  0.45594000000E+02  0.51100000000E-03 0.  1.
         11   -1    0    0    0    0 -0.00000000000E+00 -0.00000000000E+00 -0.45593999997E+02  0.45594000000E+02  0.51100000000E-03 0. -1.
    9900012    2    1    2    0    0  0.15344539455E+02 -0.59772468753E+00  0.10717625565E+02  0.72461557101E+02  0.69999982813E+02 0.  0.
         12    1    1    2    0    0 -0.15344539455E+02  0.59772468753E+00 -0.10717625565E+02  0.18726442899E+02  0.00000000000E+00 0. -1.
         11    1    3    3    0    0 -0.25528322714E+02  0.42221111919E+00 -0.31401102735E+01  0.25724187365E+02  0.51100000000E-03 0. -1.
        -11    1    3    3    0    0  0.17740655098E+02 -0.71915624936E+01  0.12282134376E+02  0.22744235302E+02  0.51100000000E-03 0.  1.
         12    1    3    3    0    0  0.23132207072E+02  0.61716266869E+01  0.15756014624E+01  0.23993134433E+02  0.00000000000E+00 0. -1.
</event>
<event>
 7    1  0.1339094E-013  0.7246162E+02  0.7816164E-02  0.1226708E+00
        -11   -1    0    0    0    0  0.00000000000E+00  0.00000000000E+00  0.45593999997E+02  0.45594000000E+02  0.51100000000E-03 0.  1.
         11   -1    0    0    0    0 -0.00000000000E+00 -0.00000000000E+00 -0.45593999997E+02  0.45594000000E+02  0.51100000000E-03 0. -1.
    9900012    2    1    2    0    0  0.15004019334E+02 -0.43719300064E+01  0.10317110758E+02  0.72461624415E+02  0.70000070502E+02 0.  0.
         12    1    1    2    0    0 -0.15004019334E+02  0.43719300064E+01 -0.10317110758E+02  0.18726375585E+02  0.00000000000E+00 0. -1.
         11    1    3    3    0    0  0.87281633668E+01  0.18485274923E+01 -0.49553217508E+01  0.10205542786E+02  0.51100000000E-03 0. -1.
        -11    1    3    3    0    0  0.69564638820E+01 -0.65913622063E+01  0.38165309564E+02  0.39350086403E+02  0.51100000000E-03 0.  1.
        -12    1    3    3    0    0 -0.68060791510E+00  0.37090470766E+00 -0.22892877055E+02  0.22905995226E+02  0.00000000000E+00 0.  1.
</event>
<event>
 7    1  0.1339094E-013  0.7246157E+02  0.7816164E-02  0.1226708E+00
        -11   -1    0    0    0    0  0.00000000000E+00  0.00000000000E+00  0.45593999997E+02  0.45594000000E+02  0.51100000000E-03 0.  1.
         11   -1    0    0    0    0 -0.00000000000E+00 -0.00000000000E+00 -0.45593999997E+02  0.45594000000E+02  0.51100000000E-03 0. -1.
    9900012    2    1    2    0    0 -0.34528219595E+01 -0.11851448757E+02  0.14081920181E+02  0.72461566994E+02  0.69999995701E+02 0.  0.
         12    1    1    2    0    0  0.34528219595E+01  0.11851448757E+02 -0.14081920181E+02  0.18726433006E+02  0.00000000000E+00 0. -1.
         11    1    3    3    0    0  0.80312015280E+01 -0.12687865314E+02 -0.38296953881E+01  0.15496731631E+02  0.51100000000E-03 0. -1.
        -11    1    3    3    0    0 -0.98602192227E+01  0.17493629918E+02  0.30154239174E+02  0.36228844189E+02  0.51100000000E-03 0.  1.
        -12    1    3    3    0    0 -0.16238042648E+01 -0.16657213361E+02 -0.12242623605E+02  0.20735991174E+02  0.00000000000E+00 0.  1.
</event>
<event>
 7    1  0.1339094E-013  0.7246156E+02  0.7816164E-02  0.1226708E+00
        -11   -1    0    0    0    0  0.00000000000E+00  0.00000000000E+00  0.45593999997E+02  0.45594000000E+02  0.51100000000E-03 0.  1.
         11   -1    0    0    0    0 -0.00000000000E+00 -0.00000000000E+00 -0.45593999997E+02  0.45594000000E+02  0.51100000000E-03 0. -1.
    9900012    2    1    2    0    0 -0.49355272671E+01  0.44482145809E+01  0.17508094632E+02  0.72461563606E+02  0.69999991287E+02 0.  0.
         12    1    1    2    0    0  0.49355272671E+01 -0.44482145809E+01 -0.17508094632E+02  0.18726436394E+02  0.00000000000E+00 0. -1.
         11    1    3    3    0    0  0.11457164450E+02 -0.66552441136E+01  0.12829586974E+02  0.18443350932E+02  0.51100000000E-03 0. -1.
        -11    1    3    3    0    0 -0.92145312176E+01  0.26431301373E+02  0.17298958121E+02  0.32905550142E+02  0.51100000000E-03 0.  1.
        -12    1    3    3    0    0 -0.71781604993E+01 -0.15327842678E+02 -0.12620450462E+02  0.21112662532E+02  0.00000000000E+00 0.  1.
</event>
<event>
 7    1  0.1339094E-013  0.7246160E+02  0.7816164E-02  0.1226708E+00
        -11   -1    0    0    0    0  0.00000000000E+00  0.00000000000E+00  0.45593999997E+02  0.45594000000E+02  0.51100000000E-03 0. -1.
         11   -1    0    0    0    0 -0.00000000000E+00 -0.00000000000E+00 -0.45593999997E+02  0.45594000000E+02  0.51100000000E-03 0.  1.
    9900012    2    1    2    0    0  0.96649670778E+00 -0.13328229960E+02 -0.13118774473E+02  0.72461599561E+02  0.70000038125E+02 0.  0.
         12    1    1    2    0    0 -0.96649670778E+00  0.13328229960E+02  0.13118774473E+02  0.18726400439E+02  0.00000000000E+00 0. -1.
         11    1    3    3    0    0 -0.22814685696E+02  0.18544175952E+02 -0.24694280166E+01  0.29504142423E+02  0.51100000000E-03 0. -1.
        -11    1    3    3    0    0  0.28415559236E+01 -0.28588991688E+01 -0.54838660651E+01  0.68059188803E+01  0.51100000000E-03 0.  1.
         12    1    3    3    0    0  0.20939626480E+02 -0.29013506743E+02 -0.51654803911E+01  0.36151538257E+02  0.00000000000E+00 0. -1.
</event>
<event>
 7    1  0.1339094E-013  0.7246158E+02  0.7816164E-02  0.1226708E+00
        -11   -1    0    0    0    0  0.00000000000E+00  0.00000000000E+00  0.45593999997E+02  0.45594000000E+02  0.51100000000E-03 0.  1.
         11   -1    0    0    0    0 -0.00000000000E+00 -0.00000000000E+00 -0.45593999997E+02  0.45594000000E+02  0.51100000000E-03 0. -1.
    9900012    2    1    2    0    0 -0.40110545628E+01 -0.69037656812E+01  0.16938954566E+02  0.72461582268E+02  0.70000015598E+02 0.  0.
         12    1    1    2    0    0  0.40110545628E+01  0.69037656812E+01 -0.16938954566E+02  0.18726417732E+02  0.00000000000E+00 0. -1.
         11    1    3    3    0    0  0.31542041827E+02 -0.32000361370E+01  0.29726442735E+01  0.31843009407E+02  0.51100000000E-03 0.  1.
        -11    1    3    3    0    0 -0.31608865888E+02 -0.57019513820E+01  0.78377258412E+01  0.33061497228E+02  0.51100000000E-03 0. -1.
        -12    1    3    3    0    0 -0.39442305010E+01  0.19982218378E+01  0.61285844509E+01  0.75570756335E+01  0.00000000000E+00 0.  1.
</event>
<event>
 7    1  0.1339094E-013  0.7246165E+02  0.7816164E-02  0.1226708E+00
        -11   -1    0    0    0    0  0.00000000000E+00  0.00000000000E+00  0.45593999997E+02  0.45594000000E+02  0.51100000000E-03 0.  1.
         11   -1    0    0    0    0 -0.00000000000E+00 -0.00000000000E+00 -0.45593999997E+02  0.45594000000E+02  0.51100000000E-03 0. -1.
    9900012    2    1    2    0    0 -0.10817229984E+02 -0.12691112810E+02  0.85205314428E+01  0.72461647847E+02  0.70000101027E+02 0.  0.
         12    1    1    2    0    0  0.10817229984E+02  0.12691112810E+02 -0.85205314428E+01  0.18726352153E+02  0.00000000000E+00 0. -1.
         11    1    3    3    0    0  0.80583071074E+01  0.14688872245E+02 -0.59936039246E+01  0.17793891354E+02  0.51100000000E-03 0. -1.
        -11    1    3    3    0    0 -0.19572403899E+02 -0.26336185550E+02 -0.66388476905E+01  0.33477574026E+02  0.51100000000E-03 0.  1.
        -12    1    3    3    0    0  0.69686680721E+00 -0.10437995043E+01  0.21152983058E+02  0.21190182467E+02  0.00000000000E+00 0.  1.
</event>
<event>
 7    1  0.1339094E-013  0.7246155E+02  0.7816164E-02  0.1226708E+00
        -11   -1    0    0    0    0  0.00000000000E+00  0.00000000000E+00  0.45593999997E+02  0.45594000000E+02  0.51100000000E-03 0. -1.
         11   -1    0    0    0    0 -0.00000000000E+00 -0.00000000000E+00 -0.45593999997E+02  0.45594000000E+02  0.51100000000E-03 0.  1.
    9900012    2    1    2    0    0  0.13343852235E+02 -0.38425513606E+01 -0.12564086338E+02  0.72461551887E+02  0.69999976021E+02 0.  0.
         12    1    1    2    0    0 -0.13343852235E+02  0.38425513606E+01  0.12564086338E+02  0.18726448113E+02  0.00000000000E+00 0. -1.
         11    1    3    3    0    0  0.93693054302E+01 -0.30494909701E+02 -0.82298870268E+01  0.32946235637E+02  0.51100000000E-03 0.  1.
        -11    1    3    3    0    0  0.72375167796E+01  0.23580183096E+02  0.83672003791E+01  0.26046434044E+02  0.51100000000E-03 0. -1.
        -12    1    3    3    0    0 -0.32629699747E+01  0.30721752440E+01 -0.12701399690E+02  0.13468882206E+02  0.00000000000E+00 0.  1.
</event>
<event>
 7    1  0.1339094E-013  0.7246157E+02  0.7816164E-02  0.1226708E+00
        -11   -1    0    0    0    0  0.00000000000E+00  0.00000000000E+00  0.45593999997E+02  0.45594000000E+02  0.51100000000E-03 0.  1.
         11   -1    0    0    0    0 -0.00000000000E+00 -0.00000000000E+00 -0.45593999997E+02  0.45594000000E+02  0.51100000000E-03 0. -1.
    9900012    2    1    2    0    0 -0.10038745264E+02  0.58461523251E+01  0.14687583556E+02  0.72461574441E+02  0.70000005402E+02 0.  0.
         12    1    1    2    0    0  0.10038745264E+02 -0.58461523251E+01 -0.14687583556E+02  0.18726425559E+02  0.00000000000E+00 0. -1.
         11    1    3    3    0    0  0.68261792639E+01 -0.68382125653E+01 -0.71936851712E+01  0.12046035905E+02  0.51100000000E-03 0. -1.
        -11    1    3    3    0    0 -0.30776554958E+02 -0.17853745081E+01  0.14471097992E+00  0.30828636667E+02  0.51100000000E-03 0.  1.
        -12    1    3    3    0    0  0.13911630430E+02  0.14469739398E+02  0.21736557747E+02  0.29586901869E+02  0.00000000000E+00 0.  1.
</event>
<event>
 7    1  0.1339094E-013  0.7246159E+02  0.7816164E-02  0.1226708E+00
        -11   -1    0    0    0    0  0.00000000000E+00  0.00000000000E+00  0.45593999997E+02  0.45594000000E+02  0.51100000000E-03 0.  1.
         11   -1    0    0    0    0 -0.00000000000E+00 -0.00000000000E+00 -0.45593999997E+02  0.45594000000E+02  0.51100000000E-03 0. -1.
    9900012    2    1    2    0    0 -0.41934910814E+01 -0.72198128792E+00  0.18236554108E+02  0.72461587365E+02  0.70000022238E+02 0.  0.
         12    1    1    2    0    0  0.41934910814E+01  0.72198128792E+00 -0.18236554108E+02  0.18726412635E+02  0.00000000000E+00 0. -1.
         11    1    3    3    0    0 -0.83238945653E+01 -0.27807165836E+01 -0.68622613664E+01  0.11140477403E+02  0.51100000000E-03 0. -1.
        -11    1    3    3    0    0  0.16879091822E+02  0.18721149988E+02 -0.39227626737E+01  0.25510258032E+02  0.51100000000E-03 0.  1.
        -12    1    3    3    0    0 -0.12748688338E+02 -0.16662414692E+02  0.29021578149E+02  0.35810851930E+02  0.00000000000E+00 0.  1.
</event>
<event>
 7    1  0.1339094E-013  0.7246159E+02  0.7816164E-02  0.1226708E+00
        -11   -1    0    0    0    0  0.00000000000E+00  0.00000000000E+00  0.45593999997E+02  0.45594000000E+02  0.51100000000E-03 0.  1.
         11   -1    0    0    0    0 -0.00000000000E+00 -0.00000000000E+00 -0.45593999997E+02  0.45594000000E+02  0.51100000000E-03 0. -1.
    9900012    2    1    2    0    0 -0.88155233402E+01 -0.49053062044E+01  0.15776663119E+02  0.72461586038E+02  0.70000020509E+02 0.  0.
         12    1    1    2    0    0  0.88155233402E+01  0.49053062044E+01 -0.15776663119E+02  0.18726413962E+02  0.00000000000E+00 0. -1.
         11    1    3    3    0    0 -0.16155189217E+02 -0.73405909585E+01 -0.43562291749E+01  0.18271593996E+02  0.51100000000E-03 0. -1.
        -11    1    3    3    0    0  0.24226800305E+02  0.13253846714E+02  0.20064002756E+02  0.34134535482E+02  0.51100000000E-03 0.  1.
        -12    1    3    3    0    0 -0.16887134427E+02 -0.10818561960E+02  0.68889537165E-01  0.20055456560E+02  0.00000000000E+00 0.  1.
</event>
<event>
 7    1  0.1339094E-013  0.7246153E+02  0.7816164E-02  0.1226708E+00
        -11   -1    0    0    0    0  0.00000000000E+00  0.00000000000E+00  0.45593999997E+02  0.45594000000E+02  0.51100000000E-03 0.  1.
         11   -1    0    0    0    0 -0.00000000000E+00 -0.00000000000E+00 -0.45593999997E+02  0.45594000000E+02  0.51100000000E-03 0. -1.
    9900012    2    1    2    0    0 -0.78898922046E+00  0.70572027440E+01  0.17327846052E+02  0.72461525068E+02  0.69999941085E+02 0.  0.
         12    1    1    2    0    0  0.78898922046E+00 -0.70572027440E+01 -0.17327846052E+02  0.18726474932E+02  0.00000000000E+00 0. -1.
         11    1    3    3    0    0  0.70964419892E+01  0.40812822734E+01 -0.15418945049E+02  0.17457382982E+02  0.51100000000E-03 0. -1.
        -11    1    3    3    0    0 -0.24141240688E+02 -0.58538545916E+01  0.24002338559E+02  0.34542428578E+02  0.51100000000E-03 0.  1.
         12    1    3    3    0    0  0.16255809478E+02  0.88297750623E+01  0.87444525421E+01  0.20461713508E+02  0.00000000000E+00 0. -1.
</event>
<event>
 7    1  0.1339094E-013  0.7246157E+02  0.7816164E-02  0.1226708E+00
        -11   -1    0    0    0    0  0.00000000000E+00  0.00000000000E+00  0.45593999997E+02  0.45594000000E+02  0.51100000000E-03 0.  1.
         11   -1    0    0    0    0 -0.00000000000E+00 -0.00000000000E+00 -0.45593999997E+02  0.45594000000E+02  0.51100000000E-03 0. -1.
    9900012    2    1    2    0    0  0.25858658778E+01 -0.11372516054E+02  0.14651219955E+02  0.72461572954E+02  0.70000003464E+02 0.  0.
         12    1    1    2    0    0 -0.25858658778E+01  0.11372516054E+02 -0.14651219955E+02  0.18726427046E+02  0.00000000000E+00 0. -1.
         11    1    3    3    0    0  0.13158335831E+02  0.72646493152E+01 -0.12354122281E+02  0.19456137055E+02  0.51100000000E-03 0. -1.
        -11    1    3    3    0    0 -0.25164634629E+02 -0.54903414406E+01  0.17837167431E+02  0.31329973306E+02  0.51100000000E-03 0.  1.
        -12    1    3    3    0    0  0.14592164676E+02 -0.13146823929E+02  0.91681748047E+01  0.21675462593E+02  0.00000000000E+00 0.  1.
</event>
<event>
 7    1  0.1339094E-013  0.7246140E+02  0.7816164E-02  0.1226708E+00
        -11   -1    0    0    0    0  0.00000000000E+00  0.00000000000E+00  0.45593999997E+02  0.45594000000E+02  0.51100000000E-03 0.  1.
         11   -1    0    0    0    0 -0.00000000000E+00 -0.00000000000E+00 -0.45593999997E+02  0.45594000000E+02  0.51100000000E-03 0. -1.
    9900012    2    1    2    0    0 -0.33115605846E+01 -0.10780607518E+00  0.18431155843E+02  0.72461399631E+02  0.69999777679E+02 0.  0.
         12    1    1    2    0    0  0.33115605846E+01  0.10780607518E+00 -0.18431155843E+02  0.18726600369E+02  0.00000000000E+00 0. -1.
         11    1    3    3    0    0  0.48014891799E+01  0.17453286362E+01 -0.14215165324E+02  0.15105343288E+02  0.51100000000E-03 0. -1.
        -11    1    3    3    0    0 -0.24282318406E+02 -0.10888511088E+02  0.10814169266E+02  0.28725196571E+02  0.51100000000E-03 0.  1.
        -12    1    3    3    0    0  0.16169268641E+02  0.90353763764E+01  0.21832151902E+02  0.28630859772E+02  0.00000000000E+00 0.  1.
</event>
<event>
 7    1  0.1339094E-013  0.7246152E+02  0.7816164E-02  0.1226708E+00
        -11   -1    0    0    0    0  0.00000000000E+00  0.00000000000E+00  0.45593999997E+02  0.45594000000E+02  0.51100000000E-03 0.  1.
         11   -1    0    0    0    0 -0.00000000000E+00 -0.00000000000E+00 -0.45593999997E+02  0.45594000000E+02  0.51100000000E-03 0. -1.
    9900012    2    1    2    0    0 -0.38901201303E+00  0.25623025786E+01  0.18546279224E+02  0.72461516136E+02  0.69999929449E+02 0.  0.
         12    1    1    2    0    0  0.38901201303E+00 -0.25623025786E+01 -0.18546279224E+02  0.18726483864E+02  0.00000000000E+00 0. -1.
         11    1    3    3    0    0 -0.12154957557E+02 -0.19347277299E+02  0.24554317991E+02  0.33540641978E+02  0.51100000000E-03 0.  1.
        -11    1    3    3    0    0  0.19829182733E+02  0.70951313125E+01 -0.65199103965E+01  0.22046464751E+02  0.51100000000E-03 0. -1.
         12    1    3    3    0    0 -0.80632371892E+01  0.14814448565E+02  0.51187162995E+00  0.16874409406E+02  0.00000000000E+00 0. -1.
</event>
<event>
 7    1  0.1339094E-013  0.7246177E+02  0.7816164E-02  0.1226707E+00
        -11   -1    0    0    0    0  0.00000000000E+00  0.00000000000E+00  0.45593999997E+02  0.45594000000E+02  0.51100000000E-03 0.  1.
         11   -1    0    0    0    0 -0.00000000000E+00 -0.00000000000E+00 -0.45593999997E+02  0.45594000000E+02  0.51100000000E-03 0. -1.
    9900012    2    1    2    0    0  0.14697448223E+01  0.16712318541E+02 -0.83192573241E+01  0.72461767509E+02  0.70000256909E+02 0.  0.
         12    1    1    2    0    0 -0.14697448223E+01 -0.16712318541E+02  0.83192573241E+01  0.18726232491E+02  0.00000000000E+00 0. -1.
         11    1    3    3    0    0  0.50964337474E+01 -0.85216195830E+01 -0.20973384940E+02  0.23205053617E+02  0.51100000000E-03 0. -1.
        -11    1    3    3    0    0 -0.16473864564E+02  0.22209820323E+02  0.20022984838E+02  0.34140653985E+02  0.51100000000E-03 0.  1.
        -12    1    3    3    0    0  0.12847175639E+02  0.30241178013E+01 -0.73688572219E+01  0.15116059908E+02  0.00000000000E+00 0.  1.
</event>
<event>
 7    1  0.1558077E-013  0.7246158E+02  0.7816164E-02  0.1226708E+00
        -11   -1    0    0    0    0  0.00000000000E+00  0.00000000000E+00  0.45593999997E+02  0.45594000000E+02  0.51100000000E-03 0. -1.
         11   -1    0    0    0    0 -0.00000000000E+00 -0.00000000000E+00 -0.45593999997E+02  0.45594000000E+02  0.51100000000E-03 0.  1.
    9900012    2    1    2    0    0  0.56069360930E+01 -0.76880690198E+01 -0.16128688464E+02  0.72461582052E+02  0.70000015316E+02 0.  0.
         12    1    1    2    0    0 -0.56069360930E+01  0.76880690198E+01  0.16128688464E+02  0.18726417948E+02  0.00000000000E+00 0. -1.
         11    1    3    3    0    0 -0.11653276621E+00 -0.29398994564E+02  0.46841893839E+01  0.29770053606E+02  0.51100000000E-03 0. -1.
        -11    1    3    3    0    0  0.11553173944E+02  0.36312211355E+01 -0.20360371203E+02  0.23689793391E+02  0.51100000000E-03 0.  1.
         12    1    3    3    0    0 -0.58297050849E+01  0.18079704408E+02 -0.45250664508E+00  0.19001735056E+02  0.00000000000E+00 0. -1.
</event>
<event>
 7    1  0.1469089E-013  0.7246157E+02  0.7816164E-02  0.1226708E+00
        -11   -1    0    0    0    0  0.00000000000E+00  0.00000000000E+00  0.45593999997E+02  0.45594000000E+02  0.51100000000E-03 0. -1.
         11   -1    0    0    0    0 -0.00000000000E+00 -0.00000000000E+00 -0.45593999997E+02  0.45594000000E+02  0.51100000000E-03 0.  1.
    9900012    2    1    2    0    0 -0.76467611652E+01 -0.56217367986E+00 -0.17084796611E+02  0.72461567590E+02  0.69999996477E+02 0.  0.
         12    1    1    2    0    0  0.76467611652E+01  0.56217367986E+00  0.17084796611E+02  0.18726432410E+02  0.00000000000E+00 0. -1.
         11    1    3    3    0    0  0.57796585241E+01 -0.94111997638E+00  0.17046736802E+02  0.18024466575E+02  0.51100000000E-03 0. -1.
        -11    1    3    3    0    0 -0.52951080613E+01  0.18578533297E+02 -0.27139406912E+02  0.33312872537E+02  0.51100000000E-03 0.  1.
        -12    1    3    3    0    0 -0.81313116280E+01 -0.18199587000E+02 -0.69921265009E+01  0.21124228478E+02  0.00000000000E+00 0.  1.
</event>
<event>
 7    1  0.1339094E-013  0.7246159E+02  0.7816164E-02  0.1226708E+00
        -11   -1    0    0    0    0  0.00000000000E+00  0.00000000000E+00  0.45593999997E+02  0.45594000000E+02  0.51100000000E-03 0. -1.
         11   -1    0    0    0    0 -0.00000000000E+00 -0.00000000000E+00 -0.45593999997E+02  0.45594000000E+02  0.51100000000E-03 0.  1.
    9900012    2    1    2    0    0 -0.15421295086E+02  0.86388328414E+01 -0.61832576053E+01  0.72461589516E+02  0.70000025040E+02 0.  0.
         12    1    1    2    0    0  0.15421295086E+02 -0.86388328414E+01  0.61832576053E+01  0.18726410484E+02  0.00000000000E+00 0. -1.
         11    1    3    3    0    0 -0.86665660491E+01  0.24225128339E+02  0.11784757031E+02  0.28299235125E+02  0.51100000000E-03 0. -1.
        -11    1    3    3    0    0  0.60775815720E+01 -0.15657409534E+02  0.52815790922E+01  0.17606434876E+02  0.51100000000E-03 0.  1.
        -12    1    3    3    0    0 -0.12832310609E+02  0.71114036921E-01 -0.23249593728E+02  0.26555919515E+02  0.00000000000E+00 0.  1.
</event>
<event>
 7    1  0.1339094E-013  0.7246164E+02  0.7816164E-02  0.1226708E+00
        -11   -1    0    0    0    0  0.00000000000E+00  0.00000000000E+00  0.45593999997E+02  0.45594000000E+02  0.51100000000E-03 0.  1.
         11   -1    0    0    0    0 -0.00000000000E+00 -0.00000000000E+00 -0.45593999997E+02  0.45594000000E+02  0.51100000000E-03 0. -1.
    9900012    2    1    2    0    0 -0.14345206183E+02 -0.11877409228E+02  0.19541856259E+01  0.72461638051E+02  0.70000088265E+02 0.  0.
         12    1    1    2    0    0  0.14345206183E+02  0.11877409228E+02 -0.19541856259E+01  0.18726361949E+02  0.00000000000E+00 0. -1.
         11    1    3    3    0    0  0.10174136560E+02  0.15962019350E+01 -0.26375079670E+02  0.28314408757E+02  0.51100000000E-03 0. -1.
        -11    1    3    3    0    0 -0.61030586799E-01 -0.22459016102E+01  0.12964568764E+02  0.13157805375E+02  0.51100000000E-03 0.  1.
         12    1    3    3    0    0 -0.24458312156E+02 -0.11227709553E+02  0.15364696532E+02  0.30989423919E+02  0.00000000000E+00 0. -1.
</event>
<event>
 7    1  0.1339094E-013  0.7246154E+02  0.7816164E-02  0.1226708E+00
        -11   -1    0    0    0    0  0.00000000000E+00  0.00000000000E+00  0.45593999997E+02  0.45594000000E+02  0.51100000000E-03 0. -1.
         11   -1    0    0    0    0 -0.00000000000E+00 -0.00000000000E+00 -0.45593999997E+02  0.45594000000E+02  0.51100000000E-03 0.  1.
    9900012    2    1    2    0    0 -0.57192271956E+01  0.22024829010E+01 -0.17695187701E+02  0.72461543891E+02  0.69999965605E+02 0.  0.
         12    1    1    2    0    0  0.57192271956E+01 -0.22024829010E+01  0.17695187701E+02  0.18726456109E+02  0.00000000000E+00 0. -1.
         11    1    3    3    0    0 -0.14294522449E+02  0.13186494956E+02 -0.28928665737E+01  0.19661782690E+02  0.51100000000E-03 0. -1.
        -11    1    3    3    0    0  0.25029325378E+02 -0.14000930312E+02  0.24317548425E+01  0.28782053616E+02  0.51100000000E-03 0.  1.
        -12    1    3    3    0    0 -0.16454030124E+02  0.30169182563E+01 -0.17234075969E+02  0.24017707585E+02  0.00000000000E+00 0.  1.
</event>
<event>
 7    1  0.1339094E-013  0.7246156E+02  0.7816164E-02  0.1226708E+00
        -11   -1    0    0    0    0  0.00000000000E+00  0.00000000000E+00  0.45593999997E+02  0.45594000000E+02  0.51100000000E-03 0.  1.
         11   -1    0    0    0    0 -0.00000000000E+00 -0.00000000000E+00 -0.45593999997E+02  0.45594000000E+02  0.51100000000E-03 0. -1.
    9900012    2    1    2    0    0  0.78227020723E+01 -0.16670937369E+02  0.34007234844E+01  0.72461555044E+02  0.69999980133E+02 0.  0.
         12    1    1    2    0    0 -0.78227020723E+01  0.16670937369E+02 -0.34007234844E+01  0.18726444956E+02  0.00000000000E+00 0. -1.
         11    1    3    3    0    0 -0.21367888964E+02 -0.31233497299E+02 -0.22766679932E+01  0.37911756089E+02  0.51100000000E-03 0.  1.
        -11    1    3    3    0    0  0.21666308203E+02  0.63513674747E+01  0.61560524544E+01  0.23402259764E+02  0.51100000000E-03 0. -1.
         12    1    3    3    0    0  0.75242828331E+01  0.82111924554E+01 -0.47866097675E+00  0.11147539191E+02  0.00000000000E+00 0. -1.
</event>
<event>
 7    1  0.1339094E-013  0.7246153E+02  0.7816164E-02  0.1226708E+00
        -11   -1    0    0    0    0  0.00000000000E+00  0.00000000000E+00  0.45593999997E+02  0.45594000000E+02  0.51100000000E-03 0.  1.
         11   -1    0    0    0    0 -0.00000000000E+00 -0.00000000000E+00 -0.45593999997E+02  0.45594000000E+02  0.51100000000E-03 0. -1.
    9900012    2    1    2    0    0 -0.59087968464E+01  0.17245858894E+02 -0.42833735984E+01  0.72461526265E+02  0.69999942644E+02 0.  0.
         12    1    1    2    0    0  0.59087968464E+01 -0.17245858894E+02  0.42833735984E+01  0.18726473735E+02  0.00000000000E+00 0. -1.
         11    1    3    3    0    0 -0.66610064939E+01 -0.44083115390E+01 -0.10495179999E+02  0.13189049307E+02  0.51100000000E-03 0. -1.
        -11    1    3    3    0    0 -0.81526475875E+01  0.38772478718E+02  0.50609226339E+01  0.39942254653E+02  0.51100000000E-03 0.  1.
        -12    1    3    3    0    0  0.89048572350E+01 -0.17118308285E+02  0.11508837670E+01  0.19330222305E+02  0.00000000000E+00 0.  1.
</event>
<event>
 7    1  0.1339094E-013  0.7246154E+02  0.7816164E-02  0.1226708E+00
        -11   -1    0    0    0    0  0.00000000000E+00  0.00000000000E+00  0.45593999997E+02  0.45594000000E+02  0.51100000000E-03 0.  1.
         11   -1    0    0    0    0 -0.00000000000E+00 -0.00000000000E+00 -0.45593999997E+02  0.45594000000E+02  0.51100000000E-03 0. -1.
    9900012    2    1    2    0    0  0.55151790934E+01  0.16611092573E+02  0.66584250472E+01  0.72461542219E+02  0.69999963427E+02 0.  0.
         12    1    1    2    0    0 -0.55151790934E+01 -0.16611092573E+02 -0.66584250472E+01  0.18726457781E+02  0.00000000000E+00 0. -1.
         11    1    3    3    0    0 -0.10936623395E+02 -0.21570074980E+02  0.12973598873E+02  0.27444346119E+02  0.51100000000E-03 0. -1.
        -11    1    3    3    0    0  0.18719726183E+01  0.24304550817E+02 -0.22244417808E+01  0.24477818804E+02  0.51100000000E-03 0.  1.
         12    1    3    3    0    0  0.14579829870E+02  0.13876616736E+02 -0.40907320447E+01  0.20539377297E+02  0.00000000000E+00 0. -1.
</event>
<event>
 7    1  0.1339094E-013  0.7246162E+02  0.7816164E-02  0.1226708E+00
        -11   -1    0    0    0    0  0.00000000000E+00  0.00000000000E+00  0.45593999997E+02  0.45594000000E+02  0.51100000000E-03 0.  1.
         11   -1    0    0    0    0 -0.00000000000E+00 -0.00000000000E+00 -0.45593999997E+02  0.45594000000E+02  0.51100000000E-03 0. -1.
    9900012    2    1    2    0    0  0.12902531928E+02 -0.12360645669E+02  0.56050346501E+01  0.72461620079E+02  0.70000064854E+02 0.  0.
         12    1    1    2    0    0 -0.12902531928E+02  0.12360645669E+02 -0.56050346501E+01  0.18726379921E+02  0.00000000000E+00 0. -1.
         11    1    3    3    0    0 -0.24440566799E+02 -0.10280330273E+02 -0.11973683724E+02  0.29092878822E+02  0.51100000000E-03 0. -1.
        -11    1    3    3    0    0  0.13192171318E+02 -0.67148762795E+01  0.89984571173E+01  0.17323255418E+02  0.51100000000E-03 0.  1.
         12    1    3    3    0    0  0.24150927410E+02  0.46345608836E+01  0.85802612568E+01  0.26045485839E+02  0.00000000000E+00 0. -1.
</event>
<event>
 7    1  0.1339094E-013  0.7246165E+02  0.7816164E-02  0.1226708E+00
        -11   -1    0    0    0    0  0.00000000000E+00  0.00000000000E+00  0.45593999997E+02  0.45594000000E+02  0.51100000000E-03 0.  1.
         11   -1    0    0    0    0 -0.00000000000E+00 -0.00000000000E+00 -0.45593999997E+02  0.45594000000E+02  0.51100000000E-03 0. -1.
    9900012    2    1    2    0    0  0.84750392930E+00  0.88300296008E+01  0.16492075731E+02  0.72461648311E+02  0.70000101631E+02 0.  0.
         12    1    1    2    0    0 -0.84750392930E+00 -0.88300296008E+01 -0.16492075731E+02  0.18726351689E+02  0.00000000000E+00 0. -1.
         11    1    3    3    0    0 -0.19166591580E+02  0.16553453135E+02 -0.72745468716E+00  0.25335829058E+02  0.51100000000E-03 0.  1.
        -11    1    3    3    0    0  0.29485383435E+02  0.22957922697E+01  0.83456226691E+01  0.30729593497E+02  0.51100000000E-03 0. -1.
         12    1    3    3    0    0 -0.94712879259E+01 -0.10019215804E+02  0.88739077491E+01  0.16396225756E+02  0.00000000000E+00 0. -1.
</event>
<event>
 7    1  0.1339094E-013  0.7246152E+02  0.7816164E-02  0.1226708E+00
        -11   -1    0    0    0    0  0.00000000000E+00  0.00000000000E+00  0.45593999997E+02  0.45594000000E+02  0.51100000000E-03 0.  1.
         11   -1    0    0    0    0 -0.00000000000E+00 -0.00000000000E+00 -0.45593999997E+02  0.45594000000E+02  0.51100000000E-03 0. -1.
    9900012    2    1    2    0    0  0.42360059733E+00  0.12864282245E+02  0.13601907294E+02  0.72461519359E+02  0.69999933648E+02 0.  0.
         12    1    1    2    0    0 -0.42360059733E+00 -0.12864282245E+02 -0.13601907294E+02  0.18726480641E+02  0.00000000000E+00 0. -1.
         11    1    3    3    0    0  0.13010272717E+02 -0.15479104650E+02  0.19710484647E+02  0.28237795279E+02  0.51100000000E-03 0. -1.
        -11    1    3    3    0    0 -0.17603005980E+02  0.20442374072E+02  0.72303013529E+01  0.27929084037E+02  0.51100000000E-03 0.  1.
        -12    1    3    3    0    0  0.50163338610E+01  0.79010128232E+01 -0.13338878705E+02  0.16294640044E+02  0.00000000000E+00 0.  1.
</event>
<event>
 7    1  0.1339094E-013  0.7246160E+02  0.7816164E-02  0.1226708E+00
        -11   -1    0    0    0    0  0.00000000000E+00  0.00000000000E+00  0.45593999997E+02  0.45594000000E+02  0.51100000000E-03 0. -1.
         11   -1    0    0    0    0 -0.00000000000E+00 -0.00000000000E+00 -0.45593999997E+02  0.45594000000E+02  0.51100000000E-03 0.  1.
    9900012    2    1    2    0    0 -0.33492594300E-01 -0.89515814174E+01 -0.16448290241E+02  0.72461596622E+02  0.70000034297E+02 0.  0.
         12    1    1    2    0    0  0.33492594300E-01  0.89515814174E+01  0.16448290241E+02  0.18726403378E+02  0.00000000000E+00 0. -1.
         11    1    3    3    0    0  0.29707565337E+02  0.11880506778E+02 -0.14774591891E+01  0.32029186151E+02  0.51100000000E-03 0. -1.
        -11    1    3    3    0    0 -0.12916942977E+02 -0.11496126603E+02 -0.11794109785E+02  0.20931062291E+02  0.51100000000E-03 0.  1.
         12    1    3    3    0    0 -0.16824114955E+02 -0.93359615918E+01 -0.31767212663E+01  0.19501348180E+02  0.00000000000E+00 0. -1.
</event>
<event>
 7    1  0.1339094E-013  0.7246164E+02  0.7816164E-02  0.1226708E+00
        -11   -1    0    0    0    0  0.00000000000E+00  0.00000000000E+00  0.45593999997E+02  0.45594000000E+02  0.51100000000E-03 0.  1.
         11   -1    0    0    0    0 -0.00000000000E+00 -0.00000000000E+00 -0.45593999997E+02  0.45594000000E+02  0.51100000000E-03 0. -1.
    9900012    2    1    2    0    0  0.86123598074E+01  0.15880873024E+02  0.49296749549E+01  0.72461639846E+02  0.70000090604E+02 0.  0.
         12    1    1    2    0    0 -0.86123598074E+01 -0.15880873024E+02 -0.49296749549E+01  0.18726360154E+02  0.00000000000E+00 0. -1.
         11    1    3    3    0    0 -0.22084863783E+02 -0.12655630350E+02 -0.37881196775E+01  0.25734335795E+02  0.51100000000E-03 0. -1.
        -11    1    3    3    0    0  0.10711726012E+02  0.21570569019E+02  0.69746279251E+00  0.24093919909E+02  0.51100000000E-03 0.  1.
         12    1    3    3    0    0  0.19985497578E+02  0.69659343551E+01  0.80203318399E+01  0.22633384142E+02  0.00000000000E+00 0. -1.
</event>
<event>
 7    1  0.1339094E-013  0.7246157E+02  0.7816164E-02  0.1226708E+00
        -11   -1    0    0    0    0  0.00000000000E+00  0.00000000000E+00  0.45593999997E+02  0.45594000000E+02  0.51100000000E-03 0.  1.
         11   -1    0    0    0    0 -0.00000000000E+00 -0.00000000000E+00 -0.45593999997E+02  0.45594000000E+02  0.51100000000E-03 0. -1.
    9900012    2    1    2    0    0 -0.17540069335E+02  0.13136095856E+01  0.64264848277E+01  0.72461566553E+02  0.69999995126E+02 0.  0.
         12    1    1    2    0    0  0.17540069335E+02 -0.13136095856E+01 -0.64264848277E+01  0.18726433447E+02  0.00000000000E+00 0. -1.
         11    1    3    3    0    0  0.11194086857E+02 -0.17153033259E+02 -0.20377475616E+02  0.28892484201E+02  0.51100000000E-03 0. -1.
        -11    1    3    3    0    0 -0.13904103599E+02  0.85937725730E+01  0.10563358835E+02  0.19461797811E+02  0.51100000000E-03 0.  1.
         12    1    3    3    0    0 -0.14830052593E+02  0.98728702720E+01  0.16240601609E+02  0.24107284541E+02  0.00000000000E+00 0. -1.
</event>
<event>
 7    1  0.1339094E-013  0.7246148E+02  0.7816164E-02  0.1226708E+00
        -11   -1    0    0    0    0  0.00000000000E+00  0.00000000000E+00  0.45593999997E+02  0.45594000000E+02  0.51100000000E-03 0. -1.
         11   -1    0    0    0    0 -0.00000000000E+00 -0.00000000000E+00 -0.45593999997E+02  0.45594000000E+02  0.51100000000E-03 0.  1.
    9900012    2    1    2    0    0 -0.16890244551E+02  0.45257691571E+01 -0.67022071247E+01  0.72461480627E+02  0.69999883192E+02 0.  0.
         12    1    1    2    0    0  0.16890244551E+02 -0.45257691571E+01  0.67022071247E+01  0.18726519373E+02  0.00000000000E+00 0. -1.
         11    1    3    3    0    0 -0.10356213761E+01  0.59857328472E+01  0.26965759871E+02  0.27641521576E+02  0.51100000000E-03 0. -1.
        -11    1    3    3    0    0 -0.27109579776E+01 -0.99198138705E+01 -0.35351608155E+01  0.10874252279E+02  0.51100000000E-03 0.  1.
         12    1    3    3    0    0 -0.13143665198E+02  0.84598501804E+01 -0.30132806181E+02  0.33945706772E+02  0.00000000000E+00 0. -1.
</event>
<event>
 7    1  0.1420939E-013  0.7246162E+02  0.7816164E-02  0.1226708E+00
        -11   -1    0    0    0    0  0.00000000000E+00  0.00000000000E+00  0.45593999997E+02  0.45594000000E+02  0.51100000000E-03 0. -1.
         11   -1    0    0    0    0 -0.00000000000E+00 -0.00000000000E+00 -0.45593999997E+02  0.45594000000E+02  0.51100000000E-03 0.  1.
    9900012    2    1    2    0    0 -0.11027369268E+01  0.13178369909E+02 -0.13258645367E+02  0.72461624506E+02  0.70000070620E+02 0.  0.
         12    1    1    2    0    0  0.11027369268E+01 -0.13178369909E+02  0.13258645367E+02  0.18726375494E+02  0.00000000000E+00 0. -1.
         11    1    3    3    0    0 -0.10695398168E+01 -0.20042338757E+02 -0.50638160285E+01  0.20699794475E+02  0.51100000000E-03 0. -1.
        -11    1    3    3    0    0  0.20931752449E+01  0.18154404064E+02 -0.23773336127E+02  0.29985584543E+02  0.51100000000E-03 0.  1.
        -12    1    3    3    0    0 -0.21263723549E+01  0.15066304602E+02  0.15578506788E+02  0.21776245487E+02  0.00000000000E+00 0.  1.
</event>
<event>
 7    1  0.1339094E-013  0.7246150E+02  0.7816164E-02  0.1226708E+00
        -11   -1    0    0    0    0  0.00000000000E+00  0.00000000000E+00  0.45593999997E+02  0.45594000000E+02  0.51100000000E-03 0.  1.
         11   -1    0    0    0    0 -0.00000000000E+00 -0.00000000000E+00 -0.45593999997E+02  0.45594000000E+02  0.51100000000E-03 0. -1.
    9900012    2    1    2    0    0  0.25203070266E+01  0.71414054162E+01  0.17126887386E+02  0.72461497648E+02  0.69999905364E+02 0.  0.
         12    1    1    2    0    0 -0.25203070266E+01 -0.71414054162E+01 -0.17126887386E+02  0.18726502352E+02  0.00000000000E+00 0. -1.
         11    1    3    3    0    0 -0.24122963816E+01 -0.21620633444E+02 -0.99934627104E+00  0.21777733068E+02  0.51100000000E-03 0. -1.
        -11    1    3    3    0    0  0.19180423158E+02  0.10763769216E+02  0.16825222050E+02  0.27691794047E+02  0.51100000000E-03 0.  1.
        -12    1    3    3    0    0 -0.14247819749E+02  0.17998269643E+02  0.13010116066E+01  0.22991970533E+02  0.00000000000E+00 0.  1.
</event>
<event>
 7    1  0.1339094E-013  0.7246158E+02  0.7816164E-02  0.1226708E+00
        -11   -1    0    0    0    0  0.00000000000E+00  0.00000000000E+00  0.45593999997E+02  0.45594000000E+02  0.51100000000E-03 0. -1.
         11   -1    0    0    0    0 -0.00000000000E+00 -0.00000000000E+00 -0.45593999997E+02  0.45594000000E+02  0.51100000000E-03 0.  1.
    9900012    2    1    2    0    0 -0.89608003116E+01  0.27276509040E+01 -0.16215513252E+02  0.72461577712E+02  0.70000009663E+02 0.  0.
         12    1    1    2    0    0  0.89608003116E+01 -0.27276509040E+01  0.16215513252E+02  0.18726422288E+02  0.00000000000E+00 0. -1.
         11    1    3    3    0    0  0.65499791446E+01 -0.25684206549E+01 -0.23374057239E+02  0.24409948044E+02  0.51100000000E-03 0. -1.
        -11    1    3    3    0    0 -0.78257506140E+01 -0.17619957276E+02  0.12914529011E+02  0.23205394350E+02  0.51100000000E-03 0.  1.
        -12    1    3    3    0    0 -0.76850288423E+01  0.22916028835E+02 -0.57559850247E+01  0.24846235318E+02  0.00000000000E+00 0.  1.
</event>
<event>
 7    1  0.1339094E-013  0.7246163E+02  0.7816164E-02  0.1226708E+00
        -11   -1    0    0    0    0  0.00000000000E+00  0.00000000000E+00  0.45593999997E+02  0.45594000000E+02  0.51100000000E-03 0.  1.
         11   -1    0    0    0    0 -0.00000000000E+00 -0.00000000000E+00 -0.45593999997E+02  0.45594000000E+02  0.51100000000E-03 0. -1.
    9900012    2    1    2    0    0  0.12914420890E+02 -0.13088373063E+02  0.35480956828E+01  0.72461634647E+02  0.70000083831E+02 0.  0.
         12    1    1    2    0    0 -0.12914420890E+02  0.13088373063E+02 -0.35480956828E+01  0.18726365353E+02  0.00000000000E+00 0. -1.
         11    1    3    3    0    0  0.37329488037E+01 -0.47235637954E+00 -0.10762126272E+02  0.11400938096E+02  0.51100000000E-03 0. -1.
        -11    1    3    3    0    0  0.68420697682E+01 -0.29059770195E+02  0.26926176194E+02  0.40203272593E+02  0.51100000000E-03 0.  1.
        -12    1    3    3    0    0  0.23394023184E+01  0.16443753512E+02 -0.12615954239E+02  0.20857423957E+02  0.00000000000E+00 0.  1.
</event>
<event>
 7    1  0.1339094E-013  0.7246159E+02  0.7816164E-02  0.1226708E+00
        -11   -1    0    0    0    0  0.00000000000E+00  0.00000000000E+00  0.45593999997E+02  0.45594000000E+02  0.51100000000E-03 0. -1.
         11   -1    0    0    0    0 -0.00000000000E+00 -0.00000000000E+00 -0.45593999997E+02  0.45594000000E+02  0.51100000000E-03 0.  1.
    9900012    2    1    2    0    0  0.17888567117E+02 -0.50280512991E+01  0.23229995042E+01  0.72461589237E+02  0.70000024677E+02 0.  0.
         12    1    1    2    0    0 -0.17888567117E+02  0.50280512991E+01 -0.23229995042E+01  0.18726410763E+02  0.00000000000E+00 0. -1.
         11    1    3    3    0    0  0.18882351421E+02 -0.11456320293E+02 -0.21026777787E+02  0.30494521708E+02  0.51100000000E-03 0.  1.
        -11    1    3    3    0    0  0.84915906722E+01 -0.47393535712E+01  0.25375860571E+02  0.27175409554E+02  0.51100000000E-03 0. -1.
         12    1    3    3    0    0 -0.94853749761E+01  0.11167622565E+02 -0.20260832798E+01  0.14791657975E+02  0.00000000000E+00 0. -1.
</event>
<event>
 7    1  0.1339094E-013  0.7246155E+02  0.7816164E-02  0.1226708E+00
        -11   -1    0    0    0    0  0.00000000000E+00  0.00000000000E+00  0.45593999997E+02  0.45594000000E+02  0.51100000000E-03 0.  1.
         11   -1    0    0    0    0 -0.00000000000E+00 -0.00000000000E+00 -0.45593999997E+02  0.45594000000E+02  0.51100000000E-03 0. -1.
    9900012    2    1    2    0    0 -0.75219956211E+01  0.67766988899E+01  0.15753592536E+02  0.72461554963E+02  0.69999980027E+02 0.  0.
         12    1    1    2    0    0  0.75219956211E+01 -0.67766988899E+01 -0.15753592536E+02  0.18726445037E+02  0.00000000000E+00 0. -1.
         11    1    3    3    0    0  0.18322479430E+00 -0.15786858003E+02 -0.16972592287E+02  0.23180322390E+02  0.51100000000E-03 0. -1.
        -11    1    3    3    0    0 -0.53166847519E+01  0.13021918213E+01  0.26412840457E+02  0.26974079809E+02  0.51100000000E-03 0.  1.
         12    1    3    3    0    0 -0.23885356635E+01  0.21261365071E+02  0.63133443659E+01  0.22307152763E+02  0.00000000000E+00 0. -1.
</event>
<event>
 7    1  0.1339094E-013  0.7246161E+02  0.7816164E-02  0.1226708E+00
        -11   -1    0    0    0    0  0.00000000000E+00  0.00000000000E+00  0.45593999997E+02  0.45594000000E+02  0.51100000000E-03 0. -1.
         11   -1    0    0    0    0 -0.00000000000E+00 -0.00000000000E+00 -0.45593999997E+02  0.45594000000E+02  0.51100000000E-03 0.  1.
    9900012    2    1    2    0    0 -0.46279379759E+01 -0.17643030050E+02 -0.42406825385E+01  0.72461609327E+02  0.70000050847E+02 0.  0.
         12    1    1    2    0    0  0.46279379759E+01  0.17643030050E+02  0.42406825385E+01  0.18726390673E+02  0.00000000000E+00 0. -1.
         11    1    3    3    0    0 -0.15701606295E+02  0.12946669396E+02 -0.26197107299E+02  0.33172957658E+02  0.51100000000E-03 0. -1.
        -11    1    3    3    0    0  0.52571972360E+01 -0.12111148899E+02  0.92562812403E+01  0.16124416055E+02  0.51100000000E-03 0.  1.
         12    1    3    3    0    0  0.58164710832E+01 -0.18478550546E+02  0.12700143520E+02  0.23164235614E+02  0.00000000000E+00 0. -1.
</event>
<event>
 7    1  0.1339094E-013  0.7246147E+02  0.7816164E-02  0.1226708E+00
        -11   -1    0    0    0    0  0.00000000000E+00  0.00000000000E+00  0.45593999997E+02  0.45594000000E+02  0.51100000000E-03 0. -1.
         11   -1    0    0    0    0 -0.00000000000E+00 -0.00000000000E+00 -0.45593999997E+02  0.45594000000E+02  0.51100000000E-03 0.  1.
    9900012    2    1    2    0    0  0.83033193857E+01  0.74529120431E+01 -0.15039682609E+02  0.72461466318E+02  0.69999864552E+02 0.  0.
         12    1    1    2    0    0 -0.83033193857E+01 -0.74529120431E+01  0.15039682609E+02  0.18726533682E+02  0.00000000000E+00 0. -1.
         11    1    3    3    0    0  0.17929502592E+01 -0.26237432765E+02 -0.56961782934E+01  0.26908437267E+02  0.51100000000E-03 0. -1.
        -11    1    3    3    0    0  0.45874387283E+01  0.16007443828E+02  0.98804668492E+01  0.19362501838E+02  0.51100000000E-03 0.  1.
         12    1    3    3    0    0  0.19229303982E+01  0.17682900980E+02 -0.19223971165E+02  0.26190527214E+02  0.00000000000E+00 0. -1.
</event>
<event>
 7    1  0.1339094E-013  0.7246148E+02  0.7816164E-02  0.1226708E+00
        -11   -1    0    0    0    0  0.00000000000E+00  0.00000000000E+00  0.45593999997E+02  0.45594000000E+02  0.51100000000E-03 0.  1.
         11   -1    0    0    0    0 -0.00000000000E+00 -0.00000000000E+00 -0.45593999997E+02  0.45594000000E+02  0.51100000000E-03 0. -1.
    9900012    2    1    2    0    0 -0.10699093688E+02 -0.94605127352E+01 -0.12112412506E+02  0.72461482874E+02  0.69999886119E+02 0.  0.
         12    1    1    2    0    0  0.10699093688E+02  0.94605127352E+01  0.12112412506E+02  0.18726517126E+02  0.00000000000E+00 0. -1.
         11    1    3    3    0    0 -0.69324252870E+01 -0.76916949603E+00 -0.12661816353E+02  0.14455854720E+02  0.51100000000E-03 0. -1.
        -11    1    3    3    0    0 -0.76215184670E+01  0.13835775397E+02  0.21717191425E+02  0.26854285100E+02  0.51100000000E-03 0.  1.
        -12    1    3    3    0    0  0.38548500659E+01 -0.22527118636E+02 -0.21167787578E+02  0.31151343054E+02  0.00000000000E+00 0.  1.
</event>
<event>
 7    1  0.1339094E-013  0.7246139E+02  0.7816164E-02  0.1226709E+00
        -11   -1    0    0    0    0  0.00000000000E+00  0.00000000000E+00  0.45593999997E+02  0.45594000000E+02  0.51100000000E-03 0.  1.
         11   -1    0    0    0    0 -0.00000000000E+00 -0.00000000000E+00 -0.45593999997E+02  0.45594000000E+02  0.51100000000E-03 0. -1.
    9900012    2    1    2    0    0  0.11581164379E+02 -0.13412294913E+02 -0.60558292417E+01  0.72461385490E+02  0.69999759257E+02 0.  0.
         12    1    1    2    0    0 -0.11581164379E+02  0.13412294913E+02  0.60558292417E+01  0.18726614510E+02  0.00000000000E+00 0. -1.
         11    1    3    3    0    0  0.29070069734E+02 -0.19801527557E+02 -0.22586735838E+02  0.41801077546E+02  0.51100000000E-03 0. -1.
        -11    1    3    3    0    0 -0.45478924818E+00 -0.37684361099E+01  0.84144528522E+01  0.92309783359E+01  0.51100000000E-03 0.  1.
         12    1    3    3    0    0 -0.17034116107E+02  0.10157668754E+02  0.81164537439E+01  0.21429329608E+02  0.00000000000E+00 0. -1.
</event>
<event>
 7    1  0.1339094E-013  0.7246156E+02  0.7816164E-02  0.1226708E+00
        -11   -1    0    0    0    0  0.00000000000E+00  0.00000000000E+00  0.45593999997E+02  0.45594000000E+02  0.51100000000E-03 0.  1.
         11   -1    0    0    0    0 -0.00000000000E+00 -0.00000000000E+00 -0.45593999997E+02  0.45594000000E+02  0.51100000000E-03 0. -1.
    9900012    2    1    2    0    0  0.17343166128E+02 -0.45699407526E+01  0.53860561790E+01  0.72461564915E+02  0.69999992993E+02 0.  0.
         12    1    1    2    0    0 -0.17343166128E+02  0.45699407526E+01 -0.53860561790E+01  0.18726435085E+02  0.00000000000E+00 0. -1.
         11    1    3    3    0    0  0.36725241078E+02  0.57975963766E+01  0.15618792817E+02  0.40327436632E+02  0.51100000000E-03 0.  1.
        -11    1    3    3    0    0 -0.97276214645E+01 -0.13455564751E+01 -0.15133739683E+02  0.18040710037E+02  0.51100000000E-03 0. -1.
         12    1    3    3    0    0 -0.96544534856E+01 -0.90219806541E+01  0.49010030442E+01  0.14093418246E+02  0.00000000000E+00 0. -1.
</event>
<event>
 7    1  0.1339094E-013  0.7246149E+02  0.7816164E-02  0.1226708E+00
        -11   -1    0    0    0    0  0.00000000000E+00  0.00000000000E+00  0.45593999997E+02  0.45594000000E+02  0.51100000000E-03 0.  1.
         11   -1    0    0    0    0 -0.00000000000E+00 -0.00000000000E+00 -0.45593999997E+02  0.45594000000E+02  0.51100000000E-03 0. -1.
    9900012    2    1    2    0    0  0.16346903442E+02  0.58216648971E+01  0.70405312340E+01  0.72461491666E+02  0.69999897572E+02 0.  0.
         12    1    1    2    0    0 -0.16346903442E+02 -0.58216648971E+01 -0.70405312340E+01  0.18726508334E+02  0.00000000000E+00 0. -1.
         11    1    3    3    0    0 -0.19261956908E+02  0.10435927474E+02  0.11287288562E+02  0.24644156498E+02  0.51100000000E-03 0. -1.
        -11    1    3    3    0    0  0.52363733533E+01  0.55242851978E-01 -0.14504715270E+02  0.15421070747E+02  0.51100000000E-03 0.  1.
         12    1    3    3    0    0  0.30372486996E+02 -0.46695054285E+01  0.10257957942E+02  0.32396264421E+02  0.00000000000E+00 0. -1.
</event>
<event>
 7    1  0.1339094E-013  0.7246156E+02  0.7816164E-02  0.1226708E+00
        -11   -1    0    0    0    0  0.00000000000E+00  0.00000000000E+00  0.45593999997E+02  0.45594000000E+02  0.51100000000E-03 0. -1.
         11   -1    0    0    0    0 -0.00000000000E+00 -0.00000000000E+00 -0.45593999997E+02  0.45594000000E+02  0.51100000000E-03 0.  1.
    9900012    2    1    2    0    0 -0.17307723504E+02  0.27957762542E+01 -0.65807204568E+01  0.72461560417E+02  0.69999987132E+02 0.  0.
         12    1    1    2    0    0  0.17307723504E+02 -0.27957762542E+01  0.65807204568E+01  0.18726439583E+02  0.00000000000E+00 0. -1.
         11    1    3    3    0    0 -0.31995318412E+02  0.12572570952E+02  0.17684995963E+02  0.38659138933E+02  0.51100000000E-03 0. -1.
        -11    1    3    3    0    0 -0.25730353000E+01 -0.48157585327E+01 -0.43175540443E+01  0.69608414784E+01  0.51100000000E-03 0.  1.
         12    1    3    3    0    0  0.17260630208E+02 -0.49610361652E+01 -0.19948162375E+02  0.26841580005E+02  0.00000000000E+00 0. -1.
</event>
<event>
 7    1  0.1339094E-013  0.7246169E+02  0.7816164E-02  0.1226708E+00
        -11   -1    0    0    0    0  0.00000000000E+00  0.00000000000E+00  0.45593999997E+02  0.45594000000E+02  0.51100000000E-03 0.  1.
         11   -1    0    0    0    0 -0.00000000000E+00 -0.00000000000E+00 -0.45593999997E+02  0.45594000000E+02  0.51100000000E-03 0. -1.
    9900012    2    1    2    0    0 -0.83247917495E+01 -0.14242479536E+02  0.88613933031E+01  0.72461690372E+02  0.70000156424E+02 0.  0.
         12    1    1    2    0    0  0.83247917495E+01  0.14242479536E+02 -0.88613933031E+01  0.18726309628E+02  0.00000000000E+00 0. -1.
         11    1    3    3    0    0 -0.13883720793E+02 -0.11752220172E+02  0.26814033251E+02  0.32401616649E+02  0.51100000000E-03 0.  1.
        -11    1    3    3    0    0  0.13402482162E+02  0.12683018361E+02 -0.11812078122E+02  0.21909145868E+02  0.51100000000E-03 0. -1.
         12    1    3    3    0    0 -0.78435531189E+01 -0.15173277725E+02 -0.61405618265E+01  0.18150927855E+02  0.00000000000E+00 0. -1.
</event>
<event>
 7    1  0.1339094E-013  0.7246156E+02  0.7816164E-02  0.1226708E+00
        -11   -1    0    0    0    0  0.00000000000E+00  0.00000000000E+00  0.45593999997E+02  0.45594000000E+02  0.51100000000E-03 0.  1.
         11   -1    0    0    0    0 -0.00000000000E+00 -0.00000000000E+00 -0.45593999997E+02  0.45594000000E+02  0.51100000000E-03 0. -1.
    9900012    2    1    2    0    0 -0.94885963236E+01 -0.84909250534E+01  0.13731366788E+02  0.72461556069E+02  0.69999981469E+02 0.  0.
         12    1    1    2    0    0  0.94885963236E+01  0.84909250534E+01 -0.13731366788E+02  0.18726443931E+02  0.00000000000E+00 0. -1.
         11    1    3    3    0    0  0.27143971908E+02  0.18423418416E+01  0.77196927811E+00  0.27217372600E+02  0.51100000000E-03 0. -1.
        -11    1    3    3    0    0 -0.14559466496E+02 -0.68048464263E+01  0.16008526947E+02  0.22683847443E+02  0.51100000000E-03 0.  1.
         12    1    3    3    0    0 -0.22073101736E+02 -0.35284204686E+01 -0.30491294380E+01  0.22560336025E+02  0.00000000000E+00 0. -1.
</event>
<event>
 7    1  0.1339094E-013  0.7246156E+02  0.7816164E-02  0.1226708E+00
        -11   -1    0    0    0    0  0.00000000000E+00  0.00000000000E+00  0.45593999997E+02  0.45594000000E+02  0.51100000000E-03 0.  1.
         11   -1    0    0    0    0 -0.00000000000E+00 -0.00000000000E+00 -0.45593999997E+02  0.45594000000E+02  0.51100000000E-03 0. -1.
    9900012    2    1    2    0    0  0.16805365346E+02 -0.80200573136E+01  0.19844463909E+01  0.72461557433E+02  0.69999983246E+02 0.  0.
         12    1    1    2    0    0 -0.16805365346E+02  0.80200573136E+01 -0.19844463909E+01  0.18726442567E+02  0.00000000000E+00 0. -1.
         11    1    3    3    0    0  0.24378557805E+02  0.20690845300E+02  0.25731929443E+01  0.32078754373E+02  0.51100000000E-03 0. -1.
        -11    1    3    3    0    0 -0.13898391406E+02 -0.65836150973E+01 -0.63831874301E+01  0.16650956533E+02  0.51100000000E-03 0.  1.
         12    1    3    3    0    0  0.63251989468E+01 -0.22127287516E+02  0.57944408768E+01  0.23731846528E+02  0.00000000000E+00 0. -1.
</event>
<event>
 7    1  0.1339094E-013  0.7246161E+02  0.7816164E-02  0.1226708E+00
        -11   -1    0    0    0    0  0.00000000000E+00  0.00000000000E+00  0.45593999997E+02  0.45594000000E+02  0.51100000000E-03 0. -1.
         11   -1    0    0    0    0 -0.00000000000E+00 -0.00000000000E+00 -0.45593999997E+02  0.45594000000E+02  0.51100000000E-03 0.  1.
    9900012    2    1    2    0    0  0.13963194626E+02 -0.41313219490E+01 -0.11774510732E+02  0.72461608778E+02  0.70000050132E+02 0.  0.
         12    1    1    2    0    0 -0.13963194626E+02  0.41313219490E+01  0.11774510732E+02  0.18726391222E+02  0.00000000000E+00 0. -1.
         11    1    3    3    0    0 -0.17810956700E+02  0.77868514032E+01  0.17116867372E+02  0.25900818177E+02  0.51100000000E-03 0. -1.
        -11    1    3    3    0    0  0.17330094268E+02  0.47092693743E+00 -0.11693987067E+02  0.20911797467E+02  0.51100000000E-03 0.  1.
         12    1    3    3    0    0  0.14444057059E+02 -0.12389100290E+02 -0.17197391037E+02  0.25648993134E+02  0.00000000000E+00 0. -1.
</event>
<event>
 7    1  0.1339094E-013  0.7246156E+02  0.7816164E-02  0.1226708E+00
        -11   -1    0    0    0    0  0.00000000000E+00  0.00000000000E+00  0.45593999997E+02  0.45594000000E+02  0.51100000000E-03 0.  1.
         11   -1    0    0    0    0 -0.00000000000E+00 -0.00000000000E+00 -0.45593999997E+02  0.45594000000E+02  0.51100000000E-03 0. -1.
    9900012    2    1    2    0    0 -0.45215891516E+01 -0.17651503077E+02 -0.43196130228E+01  0.72461564514E+02  0.69999992470E+02 0.  0.
         12    1    1    2    0    0  0.45215891516E+01  0.17651503077E+02  0.43196130228E+01  0.18726435486E+02  0.00000000000E+00 0. -1.
         11    1    3    3    0    0 -0.21811883365E+02  0.59092405510E+01 -0.14965704690E+02  0.27104422092E+02  0.51100000000E-03 0. -1.
        -11    1    3    3    0    0 -0.14038262322E+01 -0.63800853282E+00  0.15331865551E+02  0.15409214273E+02  0.51100000000E-03 0.  1.
         12    1    3    3    0    0  0.18694120446E+02 -0.22922735096E+02 -0.46857738834E+01  0.29947928149E+02  0.00000000000E+00 0. -1.
</event>
<event>
 7    1  0.1339094E-013  0.7246157E+02  0.7816164E-02  0.1226708E+00
        -11   -1    0    0    0    0  0.00000000000E+00  0.00000000000E+00  0.45593999997E+02  0.45594000000E+02  0.51100000000E-03 0. -1.
         11   -1    0    0    0    0 -0.00000000000E+00 -0.00000000000E+00 -0.45593999997E+02  0.45594000000E+02  0.51100000000E-03 0.  1.
    9900012    2    1    2    0    0  0.72945524605E+01  0.43802697088E+00 -0.17241718863E+02  0.72461568610E+02  0.69999997806E+02 0.  0.
         12    1    1    2    0    0 -0.72945524605E+01 -0.43802697088E+00  0.17241718863E+02  0.18726431390E+02  0.00000000000E+00 0. -1.
         11    1    3    3    0    0 -0.78139050589E+01 -0.14207001550E+02  0.81856446917E+01  0.18163171105E+02  0.51100000000E-03 0. -1.
        -11    1    3    3    0    0  0.26816695573E+02  0.10784145446E+02 -0.29514404028E+02  0.41310204549E+02  0.51100000000E-03 0.  1.
        -12    1    3    3    0    0 -0.11708238054E+02  0.38608830746E+01  0.40870404730E+01  0.12988192956E+02  0.00000000000E+00 0.  1.
</event>
<event>
 7    1  0.1339094E-013  0.7246157E+02  0.7816164E-02  0.1226708E+00
        -11   -1    0    0    0    0  0.00000000000E+00  0.00000000000E+00  0.45593999997E+02  0.45594000000E+02  0.51100000000E-03 0. -1.
         11   -1    0    0    0    0 -0.00000000000E+00 -0.00000000000E+00 -0.45593999997E+02  0.45594000000E+02  0.51100000000E-03 0.  1.
    9900012    2    1    2    0    0  0.71948936504E+00  0.10904729063E+02 -0.15206855536E+02  0.72461568515E+02  0.69999997682E+02 0.  0.
         12    1    1    2    0    0 -0.71948936504E+00 -0.10904729063E+02  0.15206855536E+02  0.18726431485E+02  0.00000000000E+00 0. -1.
         11    1    3    3    0    0  0.10899793714E+02  0.24086468046E+02  0.81194710060E+01  0.27656631313E+02  0.51100000000E-03 0. -1.
        -11    1    3    3    0    0  0.11171905083E+01 -0.79341806100E+01  0.78592673435E+01  0.11223520839E+02  0.51100000000E-03 0.  1.
         12    1    3    3    0    0 -0.11297494857E+02 -0.52475583724E+01 -0.31185593885E+02  0.33581416362E+02  0.00000000000E+00 0. -1.
</event>
<event>
 7    1  0.1339094E-013  0.7246160E+02  0.7816164E-02  0.1226708E+00
        -11   -1    0    0    0    0  0.00000000000E+00  0.00000000000E+00  0.45593999997E+02  0.45594000000E+02  0.51100000000E-03 0.  1.
         11   -1    0    0    0    0 -0.00000000000E+00 -0.00000000000E+00 -0.45593999997E+02  0.45594000000E+02  0.51100000000E-03 0. -1.
    9900012    2    1    2    0    0  0.73034735336E+01  0.17228067640E+02 -0.72879801043E+00  0.72461596533E+02  0.70000034180E+02 0.  0.
         12    1    1    2    0    0 -0.73034735336E+01 -0.17228067640E+02  0.72879801043E+00  0.18726403467E+02  0.00000000000E+00 0. -1.
         11    1    3    3    0    0  0.72118547970E+01 -0.20494751828E+02 -0.12617256881E+02  0.25124507429E+02  0.51100000000E-03 0. -1.
        -11    1    3    3    0    0  0.36488984962E+01  0.23838185507E+02  0.19586348255E+02  0.31067645336E+02  0.51100000000E-03 0.  1.
         12    1    3    3    0    0 -0.35572797597E+01  0.13884633961E+02 -0.76978893847E+01  0.16269443768E+02  0.00000000000E+00 0. -1.
</event>
<event>
 7    1  0.1339094E-013  0.7246156E+02  0.7816164E-02  0.1226708E+00
        -11   -1    0    0    0    0  0.00000000000E+00  0.00000000000E+00  0.45593999997E+02  0.45594000000E+02  0.51100000000E-03 0.  1.
         11   -1    0    0    0    0 -0.00000000000E+00 -0.00000000000E+00 -0.45593999997E+02  0.45594000000E+02  0.51100000000E-03 0. -1.
    9900012    2    1    2    0    0  0.10238367740E+02  0.13901791690E+02  0.72522791558E+01  0.72461560426E+02  0.69999987144E+02 0.  0.
         12    1    1    2    0    0 -0.10238367740E+02 -0.13901791690E+02 -0.72522791558E+01  0.18726439574E+02  0.00000000000E+00 0. -1.
         11    1    3    3    0    0 -0.20345892721E+02  0.20465216736E+02  0.64461277489E+00  0.28865134203E+02  0.51100000000E-03 0. -1.
        -11    1    3    3    0    0  0.19466929027E+02  0.83158197925E+01  0.11898809148E+02  0.24283653843E+02  0.51100000000E-03 0.  1.
         12    1    3    3    0    0  0.11117331435E+02 -0.14879244838E+02 -0.52911427670E+01  0.19312772379E+02  0.00000000000E+00 0. -1.
</event>
<event>
 7    1  0.1339094E-013  0.7246157E+02  0.7816164E-02  0.1226708E+00
        -11   -1    0    0    0    0  0.00000000000E+00  0.00000000000E+00  0.45593999997E+02  0.45594000000E+02  0.51100000000E-03 0.  1.
         11   -1    0    0    0    0 -0.00000000000E+00 -0.00000000000E+00 -0.45593999997E+02  0.45594000000E+02  0.51100000000E-03 0. -1.
    9900012    2    1    2    0    0 -0.43496795816E+01 -0.14255039603E+01  0.18158396724E+02  0.72461570934E+02  0.70000000833E+02 0.  0.
         12    1    1    2    0    0  0.43496795816E+01  0.14255039603E+01 -0.18158396724E+02  0.18726429066E+02  0.00000000000E+00 0. -1.
         11    1    3    3    0    0 -0.22102445476E+02  0.18320056121E+01  0.17683311531E+02  0.28365010974E+02  0.51100000000E-03 0.  1.
        -11    1    3    3    0    0  0.22947598638E+02  0.11080612373E+02 -0.79240832385E+01  0.26686388838E+02  0.51100000000E-03 0. -1.
        -12    1    3    3    0    0 -0.51948327435E+01 -0.14338121946E+02  0.83991684310E+01  0.17410171122E+02  0.00000000000E+00 0.  1.
</event>
<event>
 7    1  0.1339094E-013  0.7246159E+02  0.7816164E-02  0.1226708E+00
        -11   -1    0    0    0    0  0.00000000000E+00  0.00000000000E+00  0.45593999997E+02  0.45594000000E+02  0.51100000000E-03 0. -1.
         11   -1    0    0    0    0 -0.00000000000E+00 -0.00000000000E+00 -0.45593999997E+02  0.45594000000E+02  0.51100000000E-03 0.  1.
    9900012    2    1    2    0    0 -0.11798586422E+02  0.52158739090E+01 -0.13574477591E+02  0.72461590198E+02  0.70000025928E+02 0.  0.
         12    1    1    2    0    0  0.11798586422E+02 -0.52158739090E+01  0.13574477591E+02  0.18726409802E+02  0.00000000000E+00 0. -1.
         11    1    3    3    0    0  0.10859580423E+02 -0.17294073054E+02 -0.55085272063E+01  0.21150870479E+02  0.51100000000E-03 0. -1.
        -11    1    3    3    0    0 -0.14196996542E+02  0.15889867599E+02  0.14869687271E+02  0.25983652610E+02  0.51100000000E-03 0.  1.
        -12    1    3    3    0    0 -0.84611703031E+01  0.66200793639E+01 -0.22935637657E+02  0.25327067110E+02  0.00000000000E+00 0.  1.
</event>
<event>
 7    1  0.1339094E-013  0.7246154E+02  0.7816164E-02  0.1226708E+00
        -11   -1    0    0    0    0  0.00000000000E+00  0.00000000000E+00  0.45593999997E+02  0.45594000000E+02  0.51100000000E-03 0. -1.
         11   -1    0    0    0    0 -0.00000000000E+00 -0.00000000000E+00 -0.45593999997E+02  0.45594000000E+02  0.51100000000E-03 0.  1.
    9900012    2    1    2    0    0  0.26017561233E+01 -0.34516363771E+01 -0.18220796738E+02  0.72461538445E+02  0.69999958510E+02 0.  0.
         12    1    1    2    0    0 -0.26017561233E+01  0.34516363771E+01  0.18220796738E+02  0.18726461555E+02  0.00000000000E+00 0. -1.
         11    1    3    3    0    0  0.43007502485E+01  0.40489560376E+01  0.18415948962E+02  0.19340053623E+02  0.51100000000E-03 0. -1.
        -11    1    3    3    0    0 -0.25128647263E+01 -0.17789136803E+02 -0.38636145450E+02  0.42608914711E+02  0.51100000000E-03 0.  1.
        -12    1    3    3    0    0  0.81387060113E+00  0.10288544389E+02  0.19993997494E+01  0.10512570112E+02  0.00000000000E+00 0.  1.
</event>
<event>
 7    1  0.1339094E-013  0.7246185E+02  0.7816164E-02  0.1226707E+00
        -11   -1    0    0    0    0  0.00000000000E+00  0.00000000000E+00  0.45593999997E+02  0.45594000000E+02  0.51100000000E-03 0.  1.
         11   -1    0    0    0    0 -0.00000000000E+00 -0.00000000000E+00 -0.45593999997E+02  0.45594000000E+02  0.51100000000E-03 0. -1.
    9900012    2    1    2    0    0 -0.26508706293E+01  0.15420577234E+02  0.10288216791E+02  0.72461849246E+02  0.70000363385E+02 0.  0.
         12    1    1    2    0    0  0.26508706293E+01 -0.15420577234E+02 -0.10288216791E+02  0.18726150754E+02  0.00000000000E+00 0. -1.
         11    1    3    3    0    0  0.10655751948E+02  0.23530273460E+02  0.10315614923E+01  0.25851168988E+02  0.51100000000E-03 0. -1.
        -11    1    3    3    0    0 -0.92037389076E+01  0.46660467794E+01  0.24331319876E+02  0.26429035730E+02  0.51100000000E-03 0.  1.
        -12    1    3    3    0    0 -0.41028836697E+01 -0.12775743005E+02 -0.15074664577E+02  0.20181644528E+02  0.00000000000E+00 0.  1.
</event>
<event>
 7    1  0.1339094E-013  0.7246147E+02  0.7816164E-02  0.1226708E+00
        -11   -1    0    0    0    0  0.00000000000E+00  0.00000000000E+00  0.45593999997E+02  0.45594000000E+02  0.51100000000E-03 0.  1.
         11   -1    0    0    0    0 -0.00000000000E+00 -0.00000000000E+00 -0.45593999997E+02  0.45594000000E+02  0.51100000000E-03 0. -1.
    9900012    2    1    2    0    0 -0.16926367420E+02  0.68141014344E+01  0.42129692728E+01  0.72461467954E+02  0.69999866682E+02 0.  0.
         12    1    1    2    0    0  0.16926367420E+02 -0.68141014344E+01 -0.42129692728E+01  0.18726532046E+02  0.00000000000E+00 0. -1.
         11    1    3    3    0    0 -0.57695653747E+01  0.87802105717E+01 -0.17571982465E+02  0.20473264281E+02  0.51100000000E-03 0. -1.
        -11    1    3    3    0    0 -0.21394262207E+02 -0.12521311932E+02  0.26748328076E+02  0.36468764209E+02  0.51100000000E-03 0.  1.
        -12    1    3    3    0    0  0.10237460161E+02  0.10555202794E+02 -0.49633763374E+01  0.15519439463E+02  0.00000000000E+00 0.  1.
</event>
<event>
 7    1  0.1339094E-013  0.7246162E+02  0.7816164E-02  0.1226708E+00
        -11   -1    0    0    0    0  0.00000000000E+00  0.00000000000E+00  0.45593999997E+02  0.45594000000E+02  0.51100000000E-03 0.  1.
         11   -1    0    0    0    0 -0.00000000000E+00 -0.00000000000E+00 -0.45593999997E+02  0.45594000000E+02  0.51100000000E-03 0. -1.
    9900012    2    1    2    0    0  0.42272966638E+01 -0.70210597814E+01  0.16837811084E+02  0.72461622891E+02  0.70000068517E+02 0.  0.
         12    1    1    2    0    0 -0.42272966638E+01  0.70210597814E+01 -0.16837811084E+02  0.18726377109E+02  0.00000000000E+00 0. -1.
         11    1    3    3    0    0  0.10007441787E+02  0.74110498744E+01 -0.96431593915E+01  0.15750018243E+02  0.51100000000E-03 0. -1.
        -11    1    3    3    0    0 -0.11938625677E+01 -0.29525668081E+02  0.28196029804E+02  0.40843683483E+02  0.51100000000E-03 0.  1.
        -12    1    3    3    0    0 -0.45862825552E+01  0.15093558425E+02 -0.17150593290E+01  0.15867921165E+02  0.00000000000E+00 0.  1.
</event>
<event>
 7    1  0.1339094E-013  0.7246159E+02  0.7816164E-02  0.1226708E+00
        -11   -1    0    0    0    0  0.00000000000E+00  0.00000000000E+00  0.45593999997E+02  0.45594000000E+02  0.51100000000E-03 0.  1.
         11   -1    0    0    0    0 -0.00000000000E+00 -0.00000000000E+00 -0.45593999997E+02  0.45594000000E+02  0.51100000000E-03 0. -1.
    9900012    2    1    2    0    0 -0.58400179124E+01  0.13990718729E+02 -0.10992379250E+02  0.72461590271E+02  0.70000026023E+02 0.  0.
         12    1    1    2    0    0  0.58400179124E+01 -0.13990718729E+02  0.10992379250E+02  0.18726409729E+02  0.00000000000E+00 0. -1.
         11    1    3    3    0    0 -0.26817443399E+02  0.22535145683E+02 -0.14362336983E+02  0.37858747804E+02  0.51100000000E-03 0. -1.
        -11    1    3    3    0    0  0.16567574879E+02 -0.17283077158E+02  0.55465435477E+01  0.24575464167E+02  0.51100000000E-03 0.  1.
        -12    1    3    3    0    0  0.44098506071E+01  0.87386502046E+01 -0.21765858143E+01  0.10027378301E+02  0.00000000000E+00 0.  1.
</event>
<event>
 7    1  0.1339094E-013  0.7246152E+02  0.7816164E-02  0.1226708E+00
        -11   -1    0    0    0    0  0.00000000000E+00  0.00000000000E+00  0.45593999997E+02  0.45594000000E+02  0.51100000000E-03 0.  1.
         11   -1    0    0    0    0 -0.00000000000E+00 -0.00000000000E+00 -0.45593999997E+02  0.45594000000E+02  0.51100000000E-03 0. -1.
    9900012    2    1    2    0    0  0.18055108320E+02 -0.41233745880E+01  0.27734532670E+01  0.72461516148E+02  0.69999929465E+02 0.  0.
         12    1    1    2    0    0 -0.18055108320E+02  0.41233745880E+01 -0.27734532670E+01  0.18726483852E+02  0.00000000000E+00 0. -1.
         11    1    3    3    0    0  0.86919828890E+01 -0.28498660255E+02  0.14576240091E+02  0.33169126885E+02  0.51100000000E-03 0.  1.
        -11    1    3    3    0    0  0.18722494978E+02  0.17928469439E+02 -0.10006213105E+02  0.27786437980E+02  0.51100000000E-03 0. -1.
         12    1    3    3    0    0 -0.93593695475E+01  0.64468162281E+01 -0.17965737191E+01  0.11505951283E+02  0.00000000000E+00 0. -1.
</event>
<event>
 7    1  0.1339094E-013  0.7246155E+02  0.7816164E-02  0.1226708E+00
        -11   -1    0    0    0    0  0.00000000000E+00  0.00000000000E+00  0.45593999997E+02  0.45594000000E+02  0.51100000000E-03 0.  1.
         11   -1    0    0    0    0 -0.00000000000E+00 -0.00000000000E+00 -0.45593999997E+02  0.45594000000E+02  0.51100000000E-03 0. -1.
    9900012    2    1    2    0    0  0.13902217293E+01 -0.11921600058E+02  0.14374380389E+02  0.72461546093E+02  0.69999968473E+02 0.  0.
         12    1    1    2    0    0 -0.13902217293E+01  0.11921600058E+02 -0.14374380389E+02  0.18726453907E+02  0.00000000000E+00 0. -1.
         11    1    3    3    0    0 -0.54488677714E+01 -0.14214133788E+01 -0.24639017563E+02  0.25274330114E+02  0.51100000000E-03 0. -1.
        -11    1    3    3    0    0  0.64445535823E+01  0.51453756090E+01  0.47454810841E+01  0.95145547459E+01  0.51100000000E-03 0.  1.
         12    1    3    3    0    0  0.39453591845E+00 -0.15645562288E+02  0.34267916868E+02  0.37672661232E+02  0.00000000000E+00 0. -1.
</event>
<event>
 7    1  0.1339094E-013  0.7246159E+02  0.7816164E-02  0.1226708E+00
        -11   -1    0    0    0    0  0.00000000000E+00  0.00000000000E+00  0.45593999997E+02  0.45594000000E+02  0.51100000000E-03 0.  1.
         11   -1    0    0    0    0 -0.00000000000E+00 -0.00000000000E+00 -0.45593999997E+02  0.45594000000E+02  0.51100000000E-03 0. -1.
    9900012    2    1    2    0    0  0.10431601357E+02  0.13390008574E+02  0.79099789370E+01  0.72461590753E+02  0.70000026652E+02 0.  0.
         12    1    1    2    0    0 -0.10431601357E+02 -0.13390008574E+02 -0.79099789370E+01  0.18726409247E+02  0.00000000000E+00 0. -1.
         11    1    3    3    0    0 -0.15721187250E+02  0.28912092200E+02 -0.10059502514E+02  0.34413055590E+02  0.51100000000E-03 0. -1.
        -11    1    3    3    0    0  0.18661842348E+02 -0.11085882206E+02  0.19535664615E+02  0.29202796721E+02  0.51100000000E-03 0.  1.
         12    1    3    3    0    0  0.74909462591E+01 -0.44362014192E+01 -0.15661831642E+01  0.88457384424E+01  0.00000000000E+00 0. -1.
</event>
<event>
 7    1  0.1339094E-013  0.7246208E+02  0.7816164E-02  0.1226707E+00
        -11   -1    0    0    0    0  0.00000000000E+00  0.00000000000E+00  0.45593999997E+02  0.45594000000E+02  0.51100000000E-03 0. -1.
         11   -1    0    0    0    0 -0.00000000000E+00 -0.00000000000E+00 -0.45593999997E+02  0.45594000000E+02  0.51100000000E-03 0.  1.
    9900012    2    1    2    0    0 -0.72238638622E+01  0.14198139691E+02  0.98432039481E+01  0.72462080964E+02  0.70000665239E+02 0.  0.
         12    1    1    2    0    0  0.72238638622E+01 -0.14198139691E+02 -0.98432039481E+01  0.18725919036E+02  0.00000000000E+00 0. -1.
         11    1    3    3    0    0  0.71810422464E+01  0.13096705616E+00  0.15627011274E+02  0.17198488356E+02  0.51100000000E-03 0. -1.
        -11    1    3    3    0    0  0.26359585077E+01  0.32541449190E+01 -0.26213708420E+02  0.26546115456E+02  0.51100000000E-03 0.  1.
        -12    1    3    3    0    0 -0.17040864616E+02  0.10813027716E+02  0.20429901095E+02  0.28717477152E+02  0.00000000000E+00 0.  1.
</event>
<event>
 7    1  0.1339094E-013  0.7246161E+02  0.7816164E-02  0.1226708E+00
        -11   -1    0    0    0    0  0.00000000000E+00  0.00000000000E+00  0.45593999997E+02  0.45594000000E+02  0.51100000000E-03 0.  1.
         11   -1    0    0    0    0 -0.00000000000E+00 -0.00000000000E+00 -0.45593999997E+02  0.45594000000E+02  0.51100000000E-03 0. -1.
    9900012    2    1    2    0    0 -0.18091958279E+02 -0.35843233341E+01 -0.32421476099E+01  0.72461605546E+02  0.70000045922E+02 0.  0.
         12    1    1    2    0    0  0.18091958279E+02  0.35843233341E+01  0.32421476099E+01  0.18726394454E+02  0.00000000000E+00 0. -1.
         11    1    3    3    0    0 -0.60625794152E+01 -0.60903442936E+00 -0.92417429087E+01  0.11069580134E+02  0.51100000000E-03 0. -1.
        -11    1    3    3    0    0 -0.21428644585E+02 -0.33733012084E+01  0.29188946326E+02  0.36367025692E+02  0.51100000000E-03 0.  1.
        -12    1    3    3    0    0  0.93992657212E+01  0.39801230374E+00 -0.23189351027E+02  0.25024999720E+02  0.00000000000E+00 0.  1.
</event>
<event>
 7    1  0.1339094E-013  0.7246145E+02  0.7816164E-02  0.1226708E+00
        -11   -1    0    0    0    0  0.00000000000E+00  0.00000000000E+00  0.45593999997E+02  0.45594000000E+02  0.51100000000E-03 0.  1.
         11   -1    0    0    0    0 -0.00000000000E+00 -0.00000000000E+00 -0.45593999997E+02  0.45594000000E+02  0.51100000000E-03 0. -1.
    9900012    2    1    2    0    0 -0.33883381492E+01  0.16036005050E+02  0.90581211366E+01  0.72461445274E+02  0.69999837137E+02 0.  0.
         12    1    1    2    0    0  0.33883381492E+01 -0.16036005050E+02 -0.90581211366E+01  0.18726554726E+02  0.00000000000E+00 0. -1.
         11    1    3    3    0    0 -0.26590651138E+02  0.72429689776E+00  0.55389441601E+01  0.27171073527E+02  0.51100000000E-03 0. -1.
        -11    1    3    3    0    0  0.12784442319E+02 -0.70087494635E+01  0.12366252869E+02  0.19117759930E+02  0.51100000000E-03 0.  1.
        -12    1    3    3    0    0  0.10417870669E+02  0.22320457616E+02 -0.88470758926E+01  0.26172611817E+02  0.00000000000E+00 0.  1.
</event>
<event>
 7    1  0.1339094E-013  0.7246156E+02  0.7816164E-02  0.1226708E+00
        -11   -1    0    0    0    0  0.00000000000E+00  0.00000000000E+00  0.45593999997E+02  0.45594000000E+02  0.51100000000E-03 0. -1.
         11   -1    0    0    0    0 -0.00000000000E+00 -0.00000000000E+00 -0.45593999997E+02  0.45594000000E+02  0.51100000000E-03 0.  1.
    9900012    2    1    2    0    0  0.12316531123E+02  0.79669629573E+01 -0.11640878798E+02  0.72461561554E+02  0.69999988614E+02 0.  0.
         12    1    1    2    0    0 -0.12316531123E+02 -0.79669629573E+01  0.11640878798E+02  0.18726438446E+02  0.00000000000E+00 0. -1.
         11    1    3    3    0    0  0.59508526399E+01  0.28309963511E+02 -0.18058063405E+02  0.34102204259E+02  0.51100000000E-03 0. -1.
        -11    1    3    3    0    0 -0.37702392317E+01 -0.18579638520E+02 -0.80586297310E+01  0.20599980214E+02  0.51100000000E-03 0.  1.
         12    1    3    3    0    0  0.10135917715E+02 -0.17633620332E+01  0.14475814338E+02  0.17759377081E+02  0.00000000000E+00 0. -1.
</event>
<event>
 7    1  0.1339094E-013  0.7246149E+02  0.7816164E-02  0.1226708E+00
        -11   -1    0    0    0    0  0.00000000000E+00  0.00000000000E+00  0.45593999997E+02  0.45594000000E+02  0.51100000000E-03 0.  1.
         11   -1    0    0    0    0 -0.00000000000E+00 -0.00000000000E+00 -0.45593999997E+02  0.45594000000E+02  0.51100000000E-03 0. -1.
    9900012    2    1    2    0    0  0.13638579937E-01  0.47446514251E+01  0.18115465918E+02  0.72461494491E+02  0.69999901251E+02 0.  0.
         12    1    1    2    0    0 -0.13638579937E-01 -0.47446514251E+01 -0.18115465918E+02  0.18726505509E+02  0.00000000000E+00 0. -1.
         11    1    3    3    0    0 -0.26915354859E+01 -0.26306639010E+02  0.13333136738E+02  0.29615133881E+02  0.51100000000E-03 0. -1.
        -11    1    3    3    0    0  0.91230329975E+00  0.13428193617E+02  0.16735833180E+02  0.21476424135E+02  0.51100000000E-03 0.  1.
         12    1    3    3    0    0  0.17928707661E+01  0.17623096818E+02 -0.11953504000E+02  0.21369936475E+02  0.00000000000E+00 0. -1.
</event>
<event>
 7    1  0.1339094E-013  0.7246150E+02  0.7816164E-02  0.1226708E+00
        -11   -1    0    0    0    0  0.00000000000E+00  0.00000000000E+00  0.45593999997E+02  0.45594000000E+02  0.51100000000E-03 0.  1.
         11   -1    0    0    0    0 -0.00000000000E+00 -0.00000000000E+00 -0.45593999997E+02  0.45594000000E+02  0.51100000000E-03 0. -1.
    9900012    2    1    2    0    0 -0.91636639272E+01 -0.76114941264E+01  0.14449023256E+02  0.72461498660E+02  0.69999906682E+02 0.  0.
         12    1    1    2    0    0  0.91636639272E+01  0.76114941264E+01 -0.14449023256E+02  0.18726501340E+02  0.00000000000E+00 0. -1.
         11    1    3    3    0    0 -0.29975444446E+02  0.16830140759E+01 -0.12840669431E+02  0.32653370390E+02  0.51100000000E-03 0. -1.
        -11    1    3    3    0    0  0.13856437222E+02 -0.13366184698E+02  0.12468313597E+02  0.22937187929E+02  0.51100000000E-03 0.  1.
         12    1    3    3    0    0  0.69553432974E+01  0.40716764955E+01  0.14821379090E+02  0.16870940341E+02  0.00000000000E+00 0. -1.
</event>
<event>
 7    1  0.1339094E-013  0.7246117E+02  0.7816164E-02  0.1226709E+00
        -11   -1    0    0    0    0  0.00000000000E+00  0.00000000000E+00  0.45593999997E+02  0.45594000000E+02  0.51100000000E-03 0.  1.
         11   -1    0    0    0    0 -0.00000000000E+00 -0.00000000000E+00 -0.45593999997E+02  0.45594000000E+02  0.51100000000E-03 0. -1.
    9900012    2    1    2    0    0  0.13556754015E+02 -0.12359590175E+02 -0.37615393097E+01  0.72461168269E+02  0.69999476285E+02 0.  0.
         12    1    1    2    0    0 -0.13556754015E+02  0.12359590175E+02  0.37615393097E+01  0.18726831731E+02  0.00000000000E+00 0. -1.
         11    1    3    3    0    0  0.63865301699E+01 -0.18706133629E+02 -0.84207381052E+01  0.21485251533E+02  0.51100000000E-03 0. -1.
        -11    1    3    3    0    0 -0.27139285272E+01 -0.41209140405E+01  0.25318673581E+02  0.25795010617E+02  0.51100000000E-03 0.  1.
        -12    1    3    3    0    0  0.98841523723E+01  0.10467457494E+02 -0.20659474786E+02  0.25180906118E+02  0.00000000000E+00 0.  1.
</event>
<event>
 7    1  0.1339094E-013  0.7246153E+02  0.7816164E-02  0.1226708E+00
        -11   -1    0    0    0    0  0.00000000000E+00  0.00000000000E+00  0.45593999997E+02  0.45594000000E+02  0.51100000000E-03 0. -1.
         11   -1    0    0    0    0 -0.00000000000E+00 -0.00000000000E+00 -0.45593999997E+02  0.45594000000E+02  0.51100000000E-03 0.  1.
    9900012    2    1    2    0    0 -0.74229093846E+01 -0.16971730441E+02  0.27461542900E+01  0.72461532600E+02  0.69999950896E+02 0.  0.
         12    1    1    2    0    0  0.74229093846E+01  0.16971730441E+02 -0.27461542900E+01  0.18726467400E+02  0.00000000000E+00 0. -1.
         11    1    3    3    0    0  0.74103068430E+01 -0.11193225355E+01  0.12194576323E+02  0.14313393113E+02  0.51100000000E-03 0. -1.
        -11    1    3    3    0    0 -0.23870295548E+02  0.10713473367E+02 -0.14072686791E+02  0.29708753506E+02  0.51100000000E-03 0.  1.
        -12    1    3    3    0    0  0.90370793202E+01 -0.26565881272E+02  0.46242647575E+01  0.28439385981E+02  0.00000000000E+00 0.  1.
</event>
<event>
 7    1  0.1339094E-013  0.7246154E+02  0.7816164E-02  0.1226708E+00
        -11   -1    0    0    0    0  0.00000000000E+00  0.00000000000E+00  0.45593999997E+02  0.45594000000E+02  0.51100000000E-03 0.  1.
         11   -1    0    0    0    0 -0.00000000000E+00 -0.00000000000E+00 -0.45593999997E+02  0.45594000000E+02  0.51100000000E-03 0. -1.
    9900012    2    1    2    0    0  0.31002577263E+01  0.41368127228E+01  0.17998766648E+02  0.72461536951E+02  0.69999956564E+02 0.  0.
         12    1    1    2    0    0 -0.31002577263E+01 -0.41368127228E+01 -0.17998766648E+02  0.18726463049E+02  0.00000000000E+00 0. -1.
         11    1    3    3    0    0 -0.23133035478E+02  0.30049505181E+01 -0.18505151606E+01  0.23400672312E+02  0.51100000000E-03 0. -1.
        -11    1    3    3    0    0  0.22891821275E+02  0.39659657980E+01  0.30035490230E+02  0.37972293052E+02  0.51100000000E-03 0.  1.
         12    1    3    3    0    0  0.33414719289E+01 -0.28341035933E+01 -0.10186208421E+02  0.11088571587E+02  0.00000000000E+00 0. -1.
</event>
<event>
 7    1  0.1339094E-013  0.7246158E+02  0.7816164E-02  0.1226708E+00
        -11   -1    0    0    0    0  0.00000000000E+00  0.00000000000E+00  0.45593999997E+02  0.45594000000E+02  0.51100000000E-03 0. -1.
         11   -1    0    0    0    0 -0.00000000000E+00 -0.00000000000E+00 -0.45593999997E+02  0.45594000000E+02  0.51100000000E-03 0.  1.
    9900012    2    1    2    0    0 -0.17726257321E+02 -0.53703490420E+01  0.27600905317E+01  0.72461576231E+02  0.70000007733E+02 0.  0.
         12    1    1    2    0    0  0.17726257321E+02  0.53703490420E+01 -0.27600905317E+01  0.18726423769E+02  0.00000000000E+00 0. -1.
         11    1    3    3    0    0  0.76454288259E+01 -0.24033141834E+02  0.92160277509E+01  0.26851064339E+02  0.51100000000E-03 0. -1.
        -11    1    3    3    0    0 -0.23323643578E+02  0.19992020577E+02  0.73533000816E+01  0.31587090067E+02  0.51100000000E-03 0.  1.
        -12    1    3    3    0    0 -0.20480425686E+01 -0.13292277850E+01 -0.13809237301E+02  0.14023421826E+02  0.00000000000E+00 0.  1.
</event>
<event>
 7    1  0.1871334E-013  0.7246134E+02  0.7816164E-02  0.1226709E+00
        -11   -1    0    0    0    0  0.00000000000E+00  0.00000000000E+00  0.45593999997E+02  0.45594000000E+02  0.51100000000E-03 0. -1.
         11   -1    0    0    0    0 -0.00000000000E+00 -0.00000000000E+00 -0.45593999997E+02  0.45594000000E+02  0.51100000000E-03 0.  1.
    9900012    2    1    2    0    0 -0.11599842184E+02 -0.36380357470E+01 -0.14244160520E+02  0.72461341149E+02  0.69999701495E+02 0.  0.
         12    1    1    2    0    0  0.11599842184E+02  0.36380357470E+01  0.14244160520E+02  0.18726658851E+02  0.00000000000E+00 0. -1.
         11    1    3    3    0    0 -0.10762458980E+02  0.17859647227E+02 -0.56142802936E+01  0.21594389685E+02  0.51100000000E-03 0. -1.
        -11    1    3    3    0    0 -0.13185479546E+01 -0.24733774931E+02 -0.24395477836E+02  0.34765464618E+02  0.51100000000E-03 0.  1.
         12    1    3    3    0    0  0.48116475117E+00  0.32360919564E+01  0.15765597610E+02  0.16101486846E+02  0.00000000000E+00 0. -1.
</event>
<event>
 7    1  0.1339094E-013  0.7246151E+02  0.7816164E-02  0.1226708E+00
        -11   -1    0    0    0    0  0.00000000000E+00  0.00000000000E+00  0.45593999997E+02  0.45594000000E+02  0.51100000000E-03 0.  1.
         11   -1    0    0    0    0 -0.00000000000E+00 -0.00000000000E+00 -0.45593999997E+02  0.45594000000E+02  0.51100000000E-03 0. -1.
    9900012    2    1    2    0    0 -0.19666227199E+01  0.15151410176E+02  0.10828140801E+02  0.72461508913E+02  0.69999920039E+02 0.  0.
         12    1    1    2    0    0  0.19666227199E+01 -0.15151410176E+02 -0.10828140801E+02  0.18726491087E+02  0.00000000000E+00 0. -1.
         11    1    3    3    0    0  0.43918392329E+01 -0.35056370248E+00  0.66981411066E+01  0.80172464913E+01  0.51100000000E-03 0. -1.
        -11    1    3    3    0    0 -0.32917750999E+02  0.13856626790E+02  0.10214539631E+02  0.37147291382E+02  0.51100000000E-03 0.  1.
        -12    1    3    3    0    0  0.26559289047E+02  0.16453470880E+01 -0.60845399372E+01  0.27296971040E+02  0.00000000000E+00 0.  1.
</event>
<event>
 7    1  0.1339094E-013  0.7246159E+02  0.7816164E-02  0.1226708E+00
        -11   -1    0    0    0    0  0.00000000000E+00  0.00000000000E+00  0.45593999997E+02  0.45594000000E+02  0.51100000000E-03 0. -1.
         11   -1    0    0    0    0 -0.00000000000E+00 -0.00000000000E+00 -0.45593999997E+02  0.45594000000E+02  0.51100000000E-03 0.  1.
    9900012    2    1    2    0    0 -0.69491466990E+01 -0.33587157125E+01 -0.17061849857E+02  0.72461592666E+02  0.70000029143E+02 0.  0.
         12    1    1    2    0    0  0.69491466990E+01  0.33587157125E+01  0.17061849857E+02  0.18726407334E+02  0.00000000000E+00 0. -1.
         11    1    3    3    0    0  0.21794228478E+02 -0.53808476793E+01 -0.12509299381E+02  0.25698725415E+02  0.51100000000E-03 0. -1.
        -11    1    3    3    0    0 -0.24853091799E+02 -0.15031684429E+02 -0.31212035789E+01  0.29212490835E+02  0.51100000000E-03 0.  1.
         12    1    3    3    0    0 -0.38902833778E+01  0.17053816395E+02 -0.14313468974E+01  0.17550376416E+02  0.00000000000E+00 0. -1.
</event>
<event>
 7    1  0.1339094E-013  0.7246158E+02  0.7816164E-02  0.1226708E+00
        -11   -1    0    0    0    0  0.00000000000E+00  0.00000000000E+00  0.45593999997E+02  0.45594000000E+02  0.51100000000E-03 0.  1.
         11   -1    0    0    0    0 -0.00000000000E+00 -0.00000000000E+00 -0.45593999997E+02  0.45594000000E+02  0.51100000000E-03 0. -1.
    9900012    2    1    2    0    0  0.18660990209E+02 -0.50417663414E+00  0.14805537282E+01  0.72461580454E+02  0.70000013235E+02 0.  0.
         12    1    1    2    0    0 -0.18660990209E+02  0.50417663414E+00 -0.14805537282E+01  0.18726419546E+02  0.00000000000E+00 0. -1.
         11    1    3    3    0    0 -0.29155971280E+01 -0.16423203546E+01  0.28547609969E+02  0.28743067998E+02  0.51100000000E-03 0.  1.
        -11    1    3    3    0    0  0.25429973658E+02 -0.25229638654E+01 -0.28434159496E+02  0.38230228006E+02  0.51100000000E-03 0. -1.
        -12    1    3    3    0    0 -0.38533863206E+01  0.36611075859E+01  0.13671032554E+01  0.54882844498E+01  0.00000000000E+00 0.  1.
</event>
<event>
 7    1  0.1339094E-013  0.7246162E+02  0.7816164E-02  0.1226708E+00
        -11   -1    0    0    0    0  0.00000000000E+00  0.00000000000E+00  0.45593999997E+02  0.45594000000E+02  0.51100000000E-03 0.  1.
         11   -1    0    0    0    0 -0.00000000000E+00 -0.00000000000E+00 -0.45593999997E+02  0.45594000000E+02  0.51100000000E-03 0. -1.
    9900012    2    1    2    0    0 -0.51783624994E+01 -0.46658279270E+01  0.17380787014E+02  0.72461624333E+02  0.70000070395E+02 0.  0.
         12    1    1    2    0    0  0.51783624994E+01  0.46658279270E+01 -0.17380787014E+02  0.18726375667E+02  0.00000000000E+00 0. -1.
         11    1    3    3    0    0  0.21385375245E+02 -0.21281232457E+02 -0.20260864726E+01  0.30237892716E+02  0.51100000000E-03 0. -1.
        -11    1    3    3    0    0  0.18472892621E+01  0.71968763417E+01  0.24554531005E+01  0.78253918039E+01  0.51100000000E-03 0.  1.
         12    1    3    3    0    0 -0.28411027007E+02  0.94185281879E+01  0.16951420386E+02  0.34398339813E+02  0.00000000000E+00 0. -1.
</event>
<event>
 7    1  0.1339094E-013  0.7246157E+02  0.7816164E-02  0.1226708E+00
        -11   -1    0    0    0    0  0.00000000000E+00  0.00000000000E+00  0.45593999997E+02  0.45594000000E+02  0.51100000000E-03 0.  1.
         11   -1    0    0    0    0 -0.00000000000E+00 -0.00000000000E+00 -0.45593999997E+02  0.45594000000E+02  0.51100000000E-03 0. -1.
    9900012    2    1    2    0    0  0.13623655201E+02  0.11348462372E+02 -0.60239091934E+01  0.72461573186E+02  0.70000003767E+02 0.  0.
         12    1    1    2    0    0 -0.13623655201E+02 -0.11348462372E+02  0.60239091934E+01  0.18726426814E+02  0.00000000000E+00 0. -1.
         11    1    3    3    0    0 -0.80715871396E+01  0.29612023248E+02  0.68918149898E+01  0.31456629729E+02  0.51100000000E-03 0. -1.
        -11    1    3    3    0    0  0.62078640457E+01 -0.18974275135E+02  0.12515033567E+01  0.20003173594E+02  0.51100000000E-03 0.  1.
         12    1    3    3    0    0  0.15487378295E+02  0.71071425890E+00 -0.14167227540E+02  0.21001769863E+02  0.00000000000E+00 0. -1.
</event>
<event>
 7    1  0.1339094E-013  0.7246159E+02  0.7816164E-02  0.1226708E+00
        -11   -1    0    0    0    0  0.00000000000E+00  0.00000000000E+00  0.45593999997E+02  0.45594000000E+02  0.51100000000E-03 0. -1.
         11   -1    0    0    0    0 -0.00000000000E+00 -0.00000000000E+00 -0.45593999997E+02  0.45594000000E+02  0.51100000000E-03 0.  1.
    9900012    2    1    2    0    0 -0.68890545852E+01  0.16580790938E+02 -0.53194797634E+01  0.72461586404E+02  0.70000020986E+02 0.  0.
         12    1    1    2    0    0  0.68890545852E+01 -0.16580790938E+02  0.53194797634E+01  0.18726413596E+02  0.00000000000E+00 0. -1.
         11    1    3    3    0    0  0.79173567504E+01 -0.11030299052E+02  0.66051810533E+01  0.15099021561E+02  0.51100000000E-03 0. -1.
        -11    1    3    3    0    0 -0.24808806387E+02  0.95109131346E+01 -0.21872527374E+02  0.34414267346E+02  0.51100000000E-03 0.  1.
        -12    1    3    3    0    0  0.10002395051E+02  0.18100176855E+02  0.99478665577E+01  0.22948297497E+02  0.00000000000E+00 0.  1.
</event>
<event>
 7    1  0.1339094E-013  0.7246158E+02  0.7816164E-02  0.1226708E+00
        -11   -1    0    0    0    0  0.00000000000E+00  0.00000000000E+00  0.45593999997E+02  0.45594000000E+02  0.51100000000E-03 0. -1.
         11   -1    0    0    0    0 -0.00000000000E+00 -0.00000000000E+00 -0.45593999997E+02  0.45594000000E+02  0.51100000000E-03 0.  1.
    9900012    2    1    2    0    0 -0.45022557232E+01 -0.10309926533E+02 -0.14970433972E+02  0.72461580560E+02  0.70000013373E+02 0.  0.
         12    1    1    2    0    0  0.45022557232E+01  0.10309926533E+02  0.14970433972E+02  0.18726419440E+02  0.00000000000E+00 0. -1.
         11    1    3    3    0    0 -0.33288260915E+02 -0.88465252457E+01 -0.11965515954E+02  0.36462897526E+02  0.51100000000E-03 0. -1.
        -11    1    3    3    0    0  0.18035948475E+02 -0.10304251550E+01 -0.12238736589E+02  0.21820721504E+02  0.51100000000E-03 0.  1.
         12    1    3    3    0    0  0.10750056717E+02 -0.43297613191E+00  0.92338185712E+01  0.14177961530E+02  0.00000000000E+00 0. -1.
</event>
<event>
 7    1  0.1339094E-013  0.7246159E+02  0.7816164E-02  0.1226708E+00
        -11   -1    0    0    0    0  0.00000000000E+00  0.00000000000E+00  0.45593999997E+02  0.45594000000E+02  0.51100000000E-03 0.  1.
         11   -1    0    0    0    0 -0.00000000000E+00 -0.00000000000E+00 -0.45593999997E+02  0.45594000000E+02  0.51100000000E-03 0. -1.
    9900012    2    1    2    0    0  0.84863702603E+00 -0.73001204234E+01  0.17224011972E+02  0.72461587332E+02  0.70000022195E+02 0.  0.
         12    1    1    2    0    0 -0.84863702603E+00  0.73001204234E+01 -0.17224011972E+02  0.18726412668E+02  0.00000000000E+00 0. -1.
         11    1    3    3    0    0  0.11326942486E+02 -0.19163551601E+02  0.30543239691E+02  0.37794587273E+02  0.51100000000E-03 0. -1.
        -11    1    3    3    0    0 -0.81518899829E+01  0.20905783529E+02 -0.74716533942E+01  0.23650173360E+02  0.51100000000E-03 0.  1.
         12    1    3    3    0    0 -0.23264154775E+01 -0.90423523515E+01 -0.58475743252E+01  0.11016826699E+02  0.00000000000E+00 0. -1.
</event>
<event>
 7    1  0.1339094E-013  0.7246164E+02  0.7816164E-02  0.1226708E+00
        -11   -1    0    0    0    0  0.00000000000E+00  0.00000000000E+00  0.45593999997E+02  0.45594000000E+02  0.51100000000E-03 0. -1.
         11   -1    0    0    0    0 -0.00000000000E+00 -0.00000000000E+00 -0.45593999997E+02  0.45594000000E+02  0.51100000000E-03 0.  1.
    9900012    2    1    2    0    0  0.11432971675E+02 -0.83322495113E+00 -0.14807747161E+02  0.72461642075E+02  0.70000093508E+02 0.  0.
         12    1    1    2    0    0 -0.11432971675E+02  0.83322495113E+00  0.14807747161E+02  0.18726357925E+02  0.00000000000E+00 0. -1.
         11    1    3    3    0    0 -0.18610837950E+02 -0.17429833162E+02 -0.21628130291E+02  0.33435585734E+02  0.51100000000E-03 0. -1.
        -11    1    3    3    0    0  0.29281428326E+02  0.13069006288E+02  0.88286581090E+00  0.32077724708E+02  0.51100000000E-03 0.  1.
         12    1    3    3    0    0  0.76238129962E+00  0.35276019221E+01  0.59375173192E+01  0.69483316330E+01  0.00000000000E+00 0. -1.
</event>
<event>
 7    1  0.1339094E-013  0.7246156E+02  0.7816164E-02  0.1226708E+00
        -11   -1    0    0    0    0  0.00000000000E+00  0.00000000000E+00  0.45593999997E+02  0.45594000000E+02  0.51100000000E-03 0.  1.
         11   -1    0    0    0    0 -0.00000000000E+00 -0.00000000000E+00 -0.45593999997E+02  0.45594000000E+02  0.51100000000E-03 0. -1.
    9900012    2    1    2    0    0  0.53731744942E+01  0.79804742933E+00  0.17921258088E+02  0.72461564800E+02  0.69999992842E+02 0.  0.
         12    1    1    2    0    0 -0.53731744942E+01 -0.79804742933E+00 -0.17921258088E+02  0.18726435200E+02  0.00000000000E+00 0. -1.
         11    1    3    3    0    0 -0.26183596460E+00 -0.11666898994E+02 -0.21288284292E+02  0.24277070222E+02  0.51100000000E-03 0. -1.
        -11    1    3    3    0    0  0.37896353349E+01 -0.48930706503E+01  0.24766855991E+02  0.25528427924E+02  0.51100000000E-03 0.  1.
         12    1    3    3    0    0  0.18453751238E+01  0.17358017073E+02  0.14442686389E+02  0.22656066653E+02  0.00000000000E+00 0. -1.
</event>
<event>
 7    1  0.1339094E-013  0.7246126E+02  0.7816164E-02  0.1226709E+00
        -11   -1    0    0    0    0  0.00000000000E+00  0.00000000000E+00  0.45593999997E+02  0.45594000000E+02  0.51100000000E-03 0. -1.
         11   -1    0    0    0    0 -0.00000000000E+00 -0.00000000000E+00 -0.45593999997E+02  0.45594000000E+02  0.51100000000E-03 0.  1.
    9900012    2    1    2    0    0  0.13034034881E+00  0.16151560795E+02 -0.94763411324E+01  0.72461255863E+02  0.69999590393E+02 0.  0.
         12    1    1    2    0    0 -0.13034034881E+00 -0.16151560795E+02  0.94763411324E+01  0.18726744137E+02  0.00000000000E+00 0. -1.
         11    1    3    3    0    0 -0.48292230347E+01 -0.19618338020E+02 -0.19951270667E+02  0.28394608348E+02  0.51100000000E-03 0.  1.
        -11    1    3    3    0    0  0.40865578908E+01  0.30473568943E+02 -0.16665919711E+01  0.30791490522E+02  0.51100000000E-03 0. -1.
        -12    1    3    3    0    0  0.87300549268E+00  0.52963298723E+01  0.12141521505E+02  0.13275156992E+02  0.00000000000E+00 0.  1.
</event>
<event>
 7    1  0.1339094E-013  0.7246174E+02  0.7816164E-02  0.1226708E+00
        -11   -1    0    0    0    0  0.00000000000E+00  0.00000000000E+00  0.45593999997E+02  0.45594000000E+02  0.51100000000E-03 0.  1.
         11   -1    0    0    0    0 -0.00000000000E+00 -0.00000000000E+00 -0.45593999997E+02  0.45594000000E+02  0.51100000000E-03 0. -1.
    9900012    2    1    2    0    0 -0.45893461129E+01  0.36648585118E+01  0.17781435177E+02  0.72461742429E+02  0.70000224237E+02 0.  0.
         12    1    1    2    0    0  0.45893461129E+01 -0.36648585118E+01 -0.17781435177E+02  0.18726257571E+02  0.00000000000E+00 0. -1.
         11    1    3    3    0    0 -0.25397687936E+02  0.24044572209E+02  0.13520455143E+02  0.37496489339E+02  0.51100000000E-03 0. -1.
        -11    1    3    3    0    0  0.82186261774E+01 -0.86930450072E+01  0.11248273812E+02  0.16420673304E+02  0.51100000000E-03 0.  1.
         12    1    3    3    0    0  0.12589715646E+02 -0.11686668690E+02 -0.69872937784E+01  0.18544579786E+02  0.00000000000E+00 0. -1.
</event>
<event>
 7    1  0.1339094E-013  0.7246159E+02  0.7816164E-02  0.1226708E+00
        -11   -1    0    0    0    0  0.00000000000E+00  0.00000000000E+00  0.45593999997E+02  0.45594000000E+02  0.51100000000E-03 0. -1.
         11   -1    0    0    0    0 -0.00000000000E+00 -0.00000000000E+00 -0.45593999997E+02  0.45594000000E+02  0.51100000000E-03 0.  1.
    9900012    2    1    2    0    0 -0.12210344509E+02  0.36477535545E+01 -0.13721515421E+02  0.72461585381E+02  0.70000019653E+02 0.  0.
         12    1    1    2    0    0  0.12210344509E+02 -0.36477535545E+01  0.13721515421E+02  0.18726414619E+02  0.00000000000E+00 0. -1.
         11    1    3    3    0    0 -0.79483614296E+01  0.31356707070E+02 -0.12699935600E+01  0.32373328708E+02  0.51100000000E-03 0.  1.
        -11    1    3    3    0    0  0.10430679927E+02 -0.86708448324E+01 -0.14448783183E+01  0.13640759050E+02  0.51100000000E-03 0. -1.
         12    1    3    3    0    0 -0.14692663006E+02 -0.19038108683E+02 -0.11006643543E+02  0.26447497623E+02  0.00000000000E+00 0. -1.
</event>
<event>
 7    1  0.1339094E-013  0.7246160E+02  0.7816164E-02  0.1226708E+00
        -11   -1    0    0    0    0  0.00000000000E+00  0.00000000000E+00  0.45593999997E+02  0.45594000000E+02  0.51100000000E-03 0.  1.
         11   -1    0    0    0    0 -0.00000000000E+00 -0.00000000000E+00 -0.45593999997E+02  0.45594000000E+02  0.51100000000E-03 0. -1.
    9900012    2    1    2    0    0  0.57221880154E+01 -0.40852379385E+01  0.17356421657E+02  0.72461602124E+02  0.70000041463E+02 0.  0.
         12    1    1    2    0    0 -0.57221880154E+01  0.40852379385E+01 -0.17356421657E+02  0.18726397876E+02  0.00000000000E+00 0. -1.
         11    1    3    3    0    0 -0.35682629470E+01 -0.16399480462E+02  0.34115571040E+02  0.38020358330E+02  0.51100000000E-03 0.  1.
        -11    1    3    3    0    0  0.12077502176E+02 -0.23223873847E+01 -0.15061827381E+02  0.19445261281E+02  0.51100000000E-03 0. -1.
        -12    1    3    3    0    0 -0.27870512134E+01  0.14636629908E+02 -0.16973220022E+01  0.14995982512E+02  0.00000000000E+00 0.  1.
</event>
<event>
 7    1  0.1339094E-013  0.7246156E+02  0.7816164E-02  0.1226708E+00
        -11   -1    0    0    0    0  0.00000000000E+00  0.00000000000E+00  0.45593999997E+02  0.45594000000E+02  0.51100000000E-03 0. -1.
         11   -1    0    0    0    0 -0.00000000000E+00 -0.00000000000E+00 -0.45593999997E+02  0.45594000000E+02  0.51100000000E-03 0.  1.
    9900012    2    1    2    0    0 -0.62458693369E+01  0.11645239305E+02 -0.13268654974E+02  0.72461556476E+02  0.69999981999E+02 0.  0.
         12    1    1    2    0    0  0.62458693369E+01 -0.11645239305E+02  0.13268654974E+02  0.18726443524E+02  0.00000000000E+00 0. -1.
         11    1    3    3    0    0  0.19614760084E+01 -0.32840242123E+01 -0.16968277967E+02  0.17394098441E+02  0.51100000000E-03 0. -1.
        -11    1    3    3    0    0 -0.47798677336E+01 -0.12696705355E+02  0.18965737824E+02  0.23318504967E+02  0.51100000000E-03 0.  1.
        -12    1    3    3    0    0 -0.34274776118E+01  0.27625968872E+02 -0.15266114831E+02  0.31748953068E+02  0.00000000000E+00 0.  1.
</event>
<event>
 7    1  0.1339094E-013  0.7246168E+02  0.7816164E-02  0.1226708E+00
        -11   -1    0    0    0    0  0.00000000000E+00  0.00000000000E+00  0.45593999997E+02  0.45594000000E+02  0.51100000000E-03 0. -1.
         11   -1    0    0    0    0 -0.00000000000E+00 -0.00000000000E+00 -0.45593999997E+02  0.45594000000E+02  0.51100000000E-03 0.  1.
    9900012    2    1    2    0    0 -0.36213397262E+01  0.62070869202E+01 -0.17292568505E+02  0.72461682824E+02  0.70000146591E+02 0.  0.
         12    1    1    2    0    0  0.36213397262E+01 -0.62070869202E+01  0.17292568505E+02  0.18726317176E+02  0.00000000000E+00 0. -1.
         11    1    3    3    0    0 -0.16746958109E+02 -0.16571001282E+02  0.14165121213E+02  0.27490168217E+02  0.51100000000E-03 0.  1.
        -11    1    3    3    0    0  0.15601139966E+02  0.11200100607E+02 -0.24870995604E+02  0.31422989107E+02  0.51100000000E-03 0. -1.
        -12    1    3    3    0    0 -0.24755215837E+01  0.11577987595E+02 -0.65866941151E+01  0.13548525500E+02  0.00000000000E+00 0.  1.
</event>
<event>
 7    1  0.1339094E-013  0.7246153E+02  0.7816164E-02  0.1226708E+00
        -11   -1    0    0    0    0  0.00000000000E+00  0.00000000000E+00  0.45593999997E+02  0.45594000000E+02  0.51100000000E-03 0.  1.
         11   -1    0    0    0    0 -0.00000000000E+00 -0.00000000000E+00 -0.45593999997E+02  0.45594000000E+02  0.51100000000E-03 0. -1.
    9900012    2    1    2    0    0 -0.13436097314E+02 -0.79201702794E+01 -0.10364495367E+02  0.72461532834E+02  0.69999951201E+02 0.  0.
         12    1    1    2    0    0  0.13436097314E+02  0.79201702794E+01  0.10364495367E+02  0.18726467166E+02  0.00000000000E+00 0. -1.
         11    1    3    3    0    0 -0.13780007033E+02  0.31127114178E+01 -0.13756517714E+02  0.19718502633E+02  0.51100000000E-03 0. -1.
        -11    1    3    3    0    0  0.17349161667E+02  0.58089752000E+01  0.17200386317E+02  0.25111568910E+02  0.51100000000E-03 0.  1.
        -12    1    3    3    0    0 -0.17005251948E+02 -0.16841856897E+02 -0.13808363970E+02  0.27631461291E+02  0.00000000000E+00 0.  1.
</event>
<event>
 7    1  0.1339094E-013  0.7246155E+02  0.7816164E-02  0.1226708E+00
        -11   -1    0    0    0    0  0.00000000000E+00  0.00000000000E+00  0.45593999997E+02  0.45594000000E+02  0.51100000000E-03 0.  1.
         11   -1    0    0    0    0 -0.00000000000E+00 -0.00000000000E+00 -0.45593999997E+02  0.45594000000E+02  0.51100000000E-03 0. -1.
    9900012    2    1    2    0    0 -0.67466185811E+01 -0.17051165644E+02  0.37974865300E+01  0.72461547692E+02  0.69999970556E+02 0.  0.
         12    1    1    2    0    0  0.67466185811E+01  0.17051165644E+02 -0.37974865300E+01  0.18726452308E+02  0.00000000000E+00 0. -1.
         11    1    3    3    0    0  0.55400501449E+01  0.17709028662E+01 -0.15274592159E+02  0.16344461400E+02  0.51100000000E-03 0. -1.
        -11    1    3    3    0    0  0.34656352123E+01 -0.18733496530E+02  0.30980688413E+02  0.36369734320E+02  0.51100000000E-03 0.  1.
        -12    1    3    3    0    0 -0.15752303938E+02 -0.88571980048E-01 -0.11908609724E+02  0.19747351973E+02  0.00000000000E+00 0.  1.
</event>
<event>
 7    1  0.1339094E-013  0.7246158E+02  0.7816164E-02  0.1226708E+00
        -11   -1    0    0    0    0  0.00000000000E+00  0.00000000000E+00  0.45593999997E+02  0.45594000000E+02  0.51100000000E-03 0.  1.
         11   -1    0    0    0    0 -0.00000000000E+00 -0.00000000000E+00 -0.45593999997E+02  0.45594000000E+02  0.51100000000E-03 0. -1.
    9900012    2    1    2    0    0  0.10669337712E+02  0.13897301177E+01  0.15326860999E+02  0.72461580559E+02  0.70000013371E+02 0.  0.
         12    1    1    2    0    0 -0.10669337712E+02 -0.13897301177E+01 -0.15326860999E+02  0.18726419441E+02  0.00000000000E+00 0. -1.
         11    1    3    3    0    0 -0.19052305742E+02 -0.80421745169E+00  0.22669865882E+02  0.29623638183E+02  0.51100000000E-03 0.  1.
        -11    1    3    3    0    0  0.14042615457E+02  0.86075773035E+01 -0.16724749721E+02  0.23473446475E+02  0.51100000000E-03 0. -1.
        -12    1    3    3    0    0  0.15679027997E+02 -0.64136297341E+01  0.93817448383E+01  0.19364495901E+02  0.00000000000E+00 0.  1.
</event>
<event>
 7    1  0.1339094E-013  0.7246161E+02  0.7816164E-02  0.1226708E+00
        -11   -1    0    0    0    0  0.00000000000E+00  0.00000000000E+00  0.45593999997E+02  0.45594000000E+02  0.51100000000E-03 0.  1.
         11   -1    0    0    0    0 -0.00000000000E+00 -0.00000000000E+00 -0.45593999997E+02  0.45594000000E+02  0.51100000000E-03 0. -1.
    9900012    2    1    2    0    0 -0.27536347571E+01 -0.17683902728E+02  0.55113393449E+01  0.72461607357E+02  0.70000048280E+02 0.  0.
         12    1    1    2    0    0  0.27536347571E+01  0.17683902728E+02 -0.55113393449E+01  0.18726392643E+02  0.00000000000E+00 0. -1.
         11    1    3    3    0    0  0.21210715213E+02  0.87690598311E+01  0.30529250693E+01  0.23154075276E+02  0.51100000000E-03 0. -1.
        -11    1    3    3    0    0  0.35577423797E+01 -0.20762329040E+02 -0.31031257870E+00  0.21067228868E+02  0.51100000000E-03 0.  1.
         12    1    3    3    0    0 -0.27522092349E+02 -0.56906335186E+01  0.27687268544E+01  0.28240303212E+02  0.00000000000E+00 0. -1.
</event>
<event>
 7    1  0.1339094E-013  0.7246157E+02  0.7816164E-02  0.1226708E+00
        -11   -1    0    0    0    0  0.00000000000E+00  0.00000000000E+00  0.45593999997E+02  0.45594000000E+02  0.51100000000E-03 0. -1.
         11   -1    0    0    0    0 -0.00000000000E+00 -0.00000000000E+00 -0.45593999997E+02  0.45594000000E+02  0.51100000000E-03 0.  1.
    9900012    2    1    2    0    0  0.22391978358E+00 -0.63622101407E+01 -0.17611113359E+02  0.72461570237E+02  0.69999999925E+02 0.  0.
         12    1    1    2    0    0 -0.22391978358E+00  0.63622101407E+01  0.17611113359E+02  0.18726429763E+02  0.00000000000E+00 0. -1.
         11    1    3    3    0    0 -0.27450560773E+02 -0.11375738818E+02 -0.18021327205E+02  0.34752107201E+02  0.51100000000E-03 0. -1.
        -11    1    3    3    0    0  0.10115502327E+02 -0.20283078497E+01 -0.11425226242E+02  0.15393934357E+02  0.51100000000E-03 0.  1.
         12    1    3    3    0    0  0.17558978230E+02  0.70418365271E+01  0.11835440088E+02  0.22315528679E+02  0.00000000000E+00 0. -1.
</event>
<event>
 7    1  0.1339094E-013  0.7246157E+02  0.7816164E-02  0.1226708E+00
        -11   -1    0    0    0    0  0.00000000000E+00  0.00000000000E+00  0.45593999997E+02  0.45594000000E+02  0.51100000000E-03 0.  1.
         11   -1    0    0    0    0 -0.00000000000E+00 -0.00000000000E+00 -0.45593999997E+02  0.45594000000E+02  0.51100000000E-03 0. -1.
    9900012    2    1    2    0    0  0.79474145952E+01 -0.16956305871E+02  0.36279800925E-01  0.72461574186E+02  0.70000005070E+02 0.  0.
         12    1    1    2    0    0 -0.79474145952E+01  0.16956305871E+02 -0.36279800925E-01  0.18726425814E+02  0.00000000000E+00 0. -1.
         11    1    3    3    0    0  0.17380284220E+02 -0.22037589844E+02 -0.12697461563E+02  0.30805116070E+02  0.51100000000E-03 0. -1.
        -11    1    3    3    0    0 -0.24363129667E+02  0.22627758235E+01  0.77510324445E+01  0.25666334873E+02  0.51100000000E-03 0.  1.
        -12    1    3    3    0    0  0.14930260043E+02  0.28185081498E+01  0.49827089193E+01  0.15990123243E+02  0.00000000000E+00 0.  1.
</event>
<event>
 7    1  0.1339094E-013  0.7246100E+02  0.7816164E-02  0.1226710E+00
        -11   -1    0    0    0    0  0.00000000000E+00  0.00000000000E+00  0.45593999997E+02  0.45594000000E+02  0.51100000000E-03 0.  1.
         11   -1    0    0    0    0 -0.00000000000E+00 -0.00000000000E+00 -0.45593999997E+02  0.45594000000E+02  0.51100000000E-03 0. -1.
    9900012    2    1    2    0    0 -0.83861893486E+01  0.14857085703E+02  0.77226608983E+01  0.72460996536E+02  0.69999252569E+02 0.  0.
         12    1    1    2    0    0  0.83861893486E+01 -0.14857085703E+02 -0.77226608983E+01  0.18727003464E+02  0.00000000000E+00 0. -1.
         11    1    3    3    0    0  0.14924971662E+02 -0.31745310882E+01 -0.33832689296E+01  0.15629425314E+02  0.51100000000E-03 0. -1.
        -11    1    3    3    0    0 -0.28708005516E+02  0.10721388687E+02  0.25461449222E+02  0.39841977271E+02  0.51100000000E-03 0.  1.
        -12    1    3    3    0    0  0.53968445061E+01  0.73102281048E+01 -0.14355519394E+02  0.16989593952E+02  0.00000000000E+00 0.  1.
</event>
<event>
 7    1  0.1339094E-013  0.7246151E+02  0.7816164E-02  0.1226708E+00
        -11   -1    0    0    0    0  0.00000000000E+00  0.00000000000E+00  0.45593999997E+02  0.45594000000E+02  0.51100000000E-03 0.  1.
         11   -1    0    0    0    0 -0.00000000000E+00 -0.00000000000E+00 -0.45593999997E+02  0.45594000000E+02  0.51100000000E-03 0. -1.
    9900012    2    1    2    0    0  0.28464221791E+01 -0.98141350714E+00  0.18482863164E+02  0.72461507471E+02  0.69999918161E+02 0.  0.
         12    1    1    2    0    0 -0.28464221791E+01  0.98141350714E+00 -0.18482863164E+02  0.18726492529E+02  0.00000000000E+00 0. -1.
         11    1    3    3    0    0  0.45572823318E+01 -0.15396963262E+02 -0.18864480698E+02  0.24773048505E+02  0.51100000000E-03 0. -1.
        -11    1    3    3    0    0 -0.25541223249E+00  0.20539872163E+02  0.17895308339E+02  0.27243231172E+02  0.51100000000E-03 0.  1.
        -12    1    3    3    0    0 -0.14554479202E+01 -0.61243224080E+01  0.19452035523E+02  0.20445227795E+02  0.00000000000E+00 0.  1.
</event>
<event>
 7    1  0.1339094E-013  0.7246159E+02  0.7816164E-02  0.1226708E+00
        -11   -1    0    0    0    0  0.00000000000E+00  0.00000000000E+00  0.45593999997E+02  0.45594000000E+02  0.51100000000E-03 0.  1.
         11   -1    0    0    0    0 -0.00000000000E+00 -0.00000000000E+00 -0.45593999997E+02  0.45594000000E+02  0.51100000000E-03 0. -1.
    9900012    2    1    2    0    0 -0.93525502114E+01  0.14417226500E+02  0.74398807308E+01  0.72461589754E+02  0.70000025350E+02 0.  0.
         12    1    1    2    0    0  0.93525502114E+01 -0.14417226500E+02 -0.74398807308E+01  0.18726410246E+02  0.00000000000E+00 0. -1.
         11    1    3    3    0    0 -0.35959656248E+02  0.74494592509E+01 -0.38308908130E+01  0.36922446361E+02  0.51100000000E-03 0. -1.
        -11    1    3    3    0    0  0.73550855102E+01  0.11749562962E+02  0.43114598341E+01  0.14516824681E+02  0.51100000000E-03 0.  1.
         12    1    3    3    0    0  0.19252020526E+02 -0.47817957131E+01  0.69593117097E+01  0.21022318713E+02  0.00000000000E+00 0. -1.
</event>
<event>
 7    1  0.1339094E-013  0.7246151E+02  0.7816164E-02  0.1226708E+00
        -11   -1    0    0    0    0  0.00000000000E+00  0.00000000000E+00  0.45593999997E+02  0.45594000000E+02  0.51100000000E-03 0. -1.
         11   -1    0    0    0    0 -0.00000000000E+00 -0.00000000000E+00 -0.45593999997E+02  0.45594000000E+02  0.51100000000E-03 0.  1.
    9900012    2    1    2    0    0 -0.15913420666E+02 -0.59495068964E+01  0.78770370274E+01  0.72461513358E+02  0.69999925830E+02 0.  0.
         12    1    1    2    0    0  0.15913420666E+02  0.59495068964E+01 -0.78770370274E+01  0.18726486642E+02  0.00000000000E+00 0. -1.
         11    1    3    3    0    0 -0.16097139531E+02  0.12454941222E+02  0.33844114373E+02  0.39492626399E+02  0.51100000000E-03 0. -1.
        -11    1    3    3    0    0  0.22601790893E+01 -0.13479881796E+02 -0.12666838243E+02  0.18635031905E+02  0.51100000000E-03 0.  1.
         12    1    3    3    0    0 -0.20764602241E+01 -0.49245663225E+01 -0.13300239103E+02  0.14333855055E+02  0.00000000000E+00 0. -1.
</event>
<event>
 7    1  0.1339094E-013  0.7246158E+02  0.7816164E-02  0.1226708E+00
        -11   -1    0    0    0    0  0.00000000000E+00  0.00000000000E+00  0.45593999997E+02  0.45594000000E+02  0.51100000000E-03 0. -1.
         11   -1    0    0    0    0 -0.00000000000E+00 -0.00000000000E+00 -0.45593999997E+02  0.45594000000E+02  0.51100000000E-03 0.  1.
    9900012    2    1    2    0    0  0.36416604399E+00 -0.77540714024E+01 -0.17041724707E+02  0.72461584934E+02  0.70000019071E+02 0.  0.
         12    1    1    2    0    0 -0.36416604399E+00  0.77540714024E+01  0.17041724707E+02  0.18726415066E+02  0.00000000000E+00 0. -1.
         11    1    3    3    0    0  0.10591955575E+02  0.22730235222E+02 -0.93183176510E+01  0.26752273926E+02  0.51100000000E-03 0. -1.
        -11    1    3    3    0    0  0.24977769610E+01 -0.31790825319E+02 -0.81355238091E+01  0.32910214404E+02  0.51100000000E-03 0.  1.
         12    1    3    3    0    0 -0.12725566492E+02  0.13065186953E+01  0.41211675263E+00  0.12799096603E+02  0.00000000000E+00 0. -1.
</event>
<event>
 7    1  0.1339094E-013  0.7246152E+02  0.7816164E-02  0.1226708E+00
        -11   -1    0    0    0    0  0.00000000000E+00  0.00000000000E+00  0.45593999997E+02  0.45594000000E+02  0.51100000000E-03 0.  1.
         11   -1    0    0    0    0 -0.00000000000E+00 -0.00000000000E+00 -0.45593999997E+02  0.45594000000E+02  0.51100000000E-03 0. -1.
    9900012    2    1    2    0    0 -0.34750360813E+01 -0.83439147021E+01  0.16400741777E+02  0.72461518239E+02  0.69999932188E+02 0.  0.
         12    1    1    2    0    0  0.34750360813E+01  0.83439147021E+01 -0.16400741777E+02  0.18726481761E+02  0.00000000000E+00 0. -1.
         11    1    3    3    0    0 -0.86093302952E+01 -0.18653867260E+02  0.38292235392E+02  0.43455524660E+02  0.51100000000E-03 0.  1.
        -11    1    3    3    0    0  0.30126845446E+01  0.19648926947E+01 -0.19828088111E+02  0.20151678587E+02  0.51100000000E-03 0. -1.
        -12    1    3    3    0    0  0.21216096692E+01  0.83450598634E+01 -0.20634055042E+01  0.88543149925E+01  0.00000000000E+00 0.  1.
</event>
<event>
 7    1  0.1339094E-013  0.7246156E+02  0.7816164E-02  0.1226708E+00
        -11   -1    0    0    0    0  0.00000000000E+00  0.00000000000E+00  0.45593999997E+02  0.45594000000E+02  0.51100000000E-03 0. -1.
         11   -1    0    0    0    0 -0.00000000000E+00 -0.00000000000E+00 -0.45593999997E+02  0.45594000000E+02  0.51100000000E-03 0.  1.
    9900012    2    1    2    0    0 -0.16181627267E+01 -0.33613116107E+01 -0.18351098293E+02  0.72461556801E+02  0.69999982422E+02 0.  0.
         12    1    1    2    0    0  0.16181627267E+01  0.33613116107E+01  0.18351098293E+02  0.18726443199E+02  0.00000000000E+00 0. -1.
         11    1    3    3    0    0 -0.24796373758E+02 -0.12323626501E+02 -0.29206567302E+01  0.27843529907E+02  0.51100000000E-03 0. -1.
        -11    1    3    3    0    0  0.26618811965E+02 -0.37503691041E+01 -0.39965851912E+01  0.27177179992E+02  0.51100000000E-03 0.  1.
        -12    1    3    3    0    0 -0.34406009336E+01  0.12712683994E+02 -0.11433856371E+02  0.17440846901E+02  0.00000000000E+00 0.  1.
</event>
<event>
 7    1  0.1339094E-013  0.7246154E+02  0.7816164E-02  0.1226708E+00
        -11   -1    0    0    0    0  0.00000000000E+00  0.00000000000E+00  0.45593999997E+02  0.45594000000E+02  0.51100000000E-03 0.  1.
         11   -1    0    0    0    0 -0.00000000000E+00 -0.00000000000E+00 -0.45593999997E+02  0.45594000000E+02  0.51100000000E-03 0. -1.
    9900012    2    1    2    0    0 -0.96902565977E+01 -0.10837467933E+02  0.11803753202E+02  0.72461538141E+02  0.69999958114E+02 0.  0.
         12    1    1    2    0    0  0.96902565977E+01  0.10837467933E+02 -0.11803753202E+02  0.18726461859E+02  0.00000000000E+00 0. -1.
         11    1    3    3    0    0 -0.10141682967E+02  0.23418784747E+02  0.70589967618E+00  0.25530207736E+02  0.51100000000E-03 0. -1.
        -11    1    3    3    0    0  0.13611967564E+02 -0.10998766214E+02  0.10065756457E+02  0.20188560437E+02  0.51100000000E-03 0.  1.
         12    1    3    3    0    0 -0.13160541194E+02 -0.23257486465E+02  0.10320970687E+01  0.26742769968E+02  0.00000000000E+00 0. -1.
</event>
<event>
 7    1  0.1339094E-013  0.7246150E+02  0.7816164E-02  0.1226708E+00
        -11   -1    0    0    0    0  0.00000000000E+00  0.00000000000E+00  0.45593999997E+02  0.45594000000E+02  0.51100000000E-03 0.  1.
         11   -1    0    0    0    0 -0.00000000000E+00 -0.00000000000E+00 -0.45593999997E+02  0.45594000000E+02  0.51100000000E-03 0. -1.
    9900012    2    1    2    0    0  0.61179786934E+01 -0.16561282938E+02  0.62430885968E+01  0.72461497095E+02  0.69999904644E+02 0.  0.
         12    1    1    2    0    0 -0.61179786934E+01  0.16561282938E+02 -0.62430885968E+01  0.18726502905E+02  0.00000000000E+00 0. -1.
         11    1    3    3    0    0 -0.90223255297E+00 -0.48191370376E+01 -0.25702944847E+02  0.26166380710E+02  0.51100000000E-03 0. -1.
        -11    1    3    3    0    0  0.32058751978E+01 -0.10318024283E+01  0.34482297269E+02  0.34646371776E+02  0.51100000000E-03 0.  1.
        -12    1    3    3    0    0  0.38143360487E+01 -0.10710343472E+02 -0.25362638245E+01  0.11648744609E+02  0.00000000000E+00 0.  1.
</event>
<event>
 7    1  0.1339094E-013  0.7246173E+02  0.7816164E-02  0.1226708E+00
        -11   -1    0    0    0    0  0.00000000000E+00  0.00000000000E+00  0.45593999997E+02  0.45594000000E+02  0.51100000000E-03 0.  1.
         11   -1    0    0    0    0 -0.00000000000E+00 -0.00000000000E+00 -0.45593999997E+02  0.45594000000E+02  0.51100000000E-03 0. -1.
    9900012    2    1    2    0    0  0.11923965955E+02  0.89706683999E+00  0.14411363493E+02  0.72461732600E+02  0.70000211433E+02 0.  0.
         12    1    1    2    0    0 -0.11923965955E+02 -0.89706683999E+00 -0.14411363493E+02  0.18726267400E+02  0.00000000000E+00 0. -1.
         11    1    3    3    0    0  0.41481277425E+01  0.81698323735E+01 -0.94404716924E+01  0.13155821176E+02  0.51100000000E-03 0. -1.
        -11    1    3    3    0    0 -0.73459603808E+01 -0.26660034619E+02  0.45018488984E+01  0.28017623446E+02  0.51100000000E-03 0.  1.
        -12    1    3    3    0    0  0.15121798593E+02  0.19387269085E+02  0.19349986287E+02  0.31288287978E+02  0.00000000000E+00 0.  1.
</event>
<event>
 7    1  0.1339094E-013  0.7246169E+02  0.7816164E-02  0.1226708E+00
        -11   -1    0    0    0    0  0.00000000000E+00  0.00000000000E+00  0.45593999997E+02  0.45594000000E+02  0.51100000000E-03 0.  1.
         11   -1    0    0    0    0 -0.00000000000E+00 -0.00000000000E+00 -0.45593999997E+02  0.45594000000E+02  0.51100000000E-03 0. -1.
    9900012    2    1    2    0    0 -0.75549793546E+01  0.16907571257E+02  0.27804373033E+01  0.72461694693E+02  0.70000162052E+02 0.  0.
         12    1    1    2    0    0  0.75549793546E+01 -0.16907571257E+02 -0.27804373033E+01  0.18726305307E+02  0.00000000000E+00 0. -1.
         11    1    3    3    0    0 -0.10754037633E+02 -0.19663226728E+01 -0.14146350314E+02  0.17878338226E+02  0.51100000000E-03 0. -1.
        -11    1    3    3    0    0 -0.57098929061E+01  0.18378860165E+02  0.31840135525E+02  0.37204564350E+02  0.51100000000E-03 0.  1.
        -12    1    3    3    0    0  0.89089511842E+01  0.49503376559E+00 -0.14913347908E+02  0.17378792117E+02  0.00000000000E+00 0.  1.
</event>
<event>
 7    1  0.1339094E-013  0.7246156E+02  0.7816164E-02  0.1226708E+00
        -11   -1    0    0    0    0  0.00000000000E+00  0.00000000000E+00  0.45593999997E+02  0.45594000000E+02  0.51100000000E-03 0. -1.
         11   -1    0    0    0    0 -0.00000000000E+00 -0.00000000000E+00 -0.45593999997E+02  0.45594000000E+02  0.51100000000E-03 0.  1.
    9900012    2    1    2    0    0 -0.20762132892E+01 -0.17321017579E+02 -0.68081833111E+01  0.72461556889E+02  0.69999982537E+02 0.  0.
         12    1    1    2    0    0  0.20762132892E+01  0.17321017579E+02  0.68081833111E+01  0.18726443111E+02  0.00000000000E+00 0. -1.
         11    1    3    3    0    0 -0.13689121160E+02 -0.24075564669E+02  0.17233248998E+02  0.32619161907E+02  0.51100000000E-03 0. -1.
        -11    1    3    3    0    0  0.53412214428E+01 -0.23667668624E+01 -0.27602720581E+02  0.28214188197E+02  0.51100000000E-03 0.  1.
        -12    1    3    3    0    0  0.62716864283E+01  0.91213139522E+01  0.35612882718E+01  0.11628206785E+02  0.00000000000E+00 0.  1.
</event>
<event>
 7    1  0.1339094E-013  0.7246164E+02  0.7816164E-02  0.1226708E+00
        -11   -1    0    0    0    0  0.00000000000E+00  0.00000000000E+00  0.45593999997E+02  0.45594000000E+02  0.51100000000E-03 0.  1.
         11   -1    0    0    0    0 -0.00000000000E+00 -0.00000000000E+00 -0.45593999997E+02  0.45594000000E+02  0.51100000000E-03 0. -1.
    9900012    2    1    2    0    0  0.15100843280E+02  0.30295542195E+01  0.10651895467E+02  0.72461640408E+02  0.70000091336E+02 0.  0.
         12    1    1    2    0    0 -0.15100843280E+02 -0.30295542195E+01 -0.10651895467E+02  0.18726359592E+02  0.00000000000E+00 0. -1.
         11    1    3    3    0    0 -0.19890439156E+02  0.15084045814E+02  0.18036545225E+02  0.30797320855E+02  0.51100000000E-03 0.  1.
        -11    1    3    3    0    0  0.57437230039E+01 -0.94472822032E+01  0.10697270785E+01  0.11107916603E+02  0.51100000000E-03 0. -1.
         12    1    3    3    0    0  0.29247559432E+02 -0.26072093909E+01 -0.84543768363E+01  0.30556402950E+02  0.00000000000E+00 0. -1.
</event>
<event>
 7    1  0.1339094E-013  0.7246142E+02  0.7816164E-02  0.1226708E+00
        -11   -1    0    0    0    0  0.00000000000E+00  0.00000000000E+00  0.45593999997E+02  0.45594000000E+02  0.51100000000E-03 0.  1.
         11   -1    0    0    0    0 -0.00000000000E+00 -0.00000000000E+00 -0.45593999997E+02  0.45594000000E+02  0.51100000000E-03 0. -1.
    9900012    2    1    2    0    0  0.63344450907E+01 -0.58620584603E+01  0.16619147407E+02  0.72461415033E+02  0.69999797743E+02 0.  0.
         12    1    1    2    0    0 -0.63344450907E+01  0.58620584603E+01 -0.16619147407E+02  0.18726584967E+02  0.00000000000E+00 0. -1.
         11    1    3    3    0    0 -0.53985754542E+01 -0.88372362797E+01  0.50976259143E+01  0.11542406691E+02  0.51100000000E-03 0. -1.
        -11    1    3    3    0    0  0.11594823141E+02  0.42382582070E+01 -0.23143760244E+02  0.26230447857E+02  0.51100000000E-03 0.  1.
        -12    1    3    3    0    0  0.13819740365E+00 -0.12630803876E+01  0.34665281737E+02  0.34688560484E+02  0.00000000000E+00 0.  1.
</event>
<event>
 7    1  0.1339094E-013  0.7246158E+02  0.7816164E-02  0.1226708E+00
        -11   -1    0    0    0    0  0.00000000000E+00  0.00000000000E+00  0.45593999997E+02  0.45594000000E+02  0.51100000000E-03 0.  1.
         11   -1    0    0    0    0 -0.00000000000E+00 -0.00000000000E+00 -0.45593999997E+02  0.45594000000E+02  0.51100000000E-03 0. -1.
    9900012    2    1    2    0    0 -0.54224682251E+01 -0.48136119110E+01  0.17265708519E+02  0.72461582512E+02  0.70000015916E+02 0.  0.
         12    1    1    2    0    0  0.54224682251E+01  0.48136119110E+01 -0.17265708519E+02  0.18726417488E+02  0.00000000000E+00 0. -1.
         11    1    3    3    0    0  0.16165945327E+02 -0.22315664688E+02  0.54453659616E+01  0.28088764471E+02  0.51100000000E-03 0.  1.
        -11    1    3    3    0    0 -0.36807470460E+01  0.99113614039E+01 -0.10408188725E+02  0.14836218402E+02  0.51100000000E-03 0. -1.
         12    1    3    3    0    0 -0.17907666507E+02  0.75906913734E+01  0.22228531282E+02  0.29536599638E+02  0.00000000000E+00 0. -1.
</event>
<event>
 7    1  0.1339094E-013  0.7246154E+02  0.7816164E-02  0.1226708E+00
        -11   -1    0    0    0    0  0.00000000000E+00  0.00000000000E+00  0.45593999997E+02  0.45594000000E+02  0.51100000000E-03 0.  1.
         11   -1    0    0    0    0 -0.00000000000E+00 -0.00000000000E+00 -0.45593999997E+02  0.45594000000E+02  0.51100000000E-03 0. -1.
    9900012    2    1    2    0    0  0.91092792418E+01  0.16350561329E+02  0.60050767148E+00  0.72461536544E+02  0.69999956035E+02 0.  0.
         12    1    1    2    0    0 -0.91092792418E+01 -0.16350561329E+02 -0.60050767148E+00  0.18726463456E+02  0.00000000000E+00 0. -1.
         11    1    3    3    0    0 -0.20277114808E+02  0.29773393735E+02 -0.70524755355E+01  0.36706317861E+02  0.51100000000E-03 0.  1.
        -11    1    3    3    0    0  0.17914683969E+02 -0.11351829496E+01  0.22124933565E+01  0.18086449877E+02  0.51100000000E-03 0. -1.
         12    1    3    3    0    0  0.11471710081E+02 -0.12287649456E+02  0.54404898505E+01  0.17668768807E+02  0.00000000000E+00 0. -1.
</event>
<event>
 7    1  0.1339094E-013  0.7246155E+02  0.7816164E-02  0.1226708E+00
        -11   -1    0    0    0    0  0.00000000000E+00  0.00000000000E+00  0.45593999997E+02  0.45594000000E+02  0.51100000000E-03 0. -1.
         11   -1    0    0    0    0 -0.00000000000E+00 -0.00000000000E+00 -0.45593999997E+02  0.45594000000E+02  0.51100000000E-03 0.  1.
    9900012    2    1    2    0    0 -0.18132661763E+02 -0.16332021872E+01 -0.43839715943E+01  0.72461548683E+02  0.69999971847E+02 0.  0.
         12    1    1    2    0    0  0.18132661763E+02  0.16332021872E+01  0.43839715943E+01  0.18726451317E+02  0.00000000000E+00 0. -1.
         11    1    3    3    0    0 -0.21484555163E+02 -0.24180146140E+01  0.12132892955E+02  0.24791934110E+02  0.51100000000E-03 0. -1.
        -11    1    3    3    0    0  0.14502077133E+02  0.17635725312E+02 -0.22681386482E+01  0.22945010387E+02  0.51100000000E-03 0.  1.
        -12    1    3    3    0    0 -0.11150183733E+02 -0.16850912885E+02 -0.14248725902E+02  0.24724604186E+02  0.00000000000E+00 0.  1.
</event>
<event>
 7    1  0.1339094E-013  0.7246158E+02  0.7816164E-02  0.1226708E+00
        -11   -1    0    0    0    0  0.00000000000E+00  0.00000000000E+00  0.45593999997E+02  0.45594000000E+02  0.51100000000E-03 0.  1.
         11   -1    0    0    0    0 -0.00000000000E+00 -0.00000000000E+00 -0.45593999997E+02  0.45594000000E+02  0.51100000000E-03 0. -1.
    9900012    2    1    2    0    0 -0.68634006376E+01 -0.11876585460E+02  0.12748297595E+02  0.72461584378E+02  0.70000018346E+02 0.  0.
         12    1    1    2    0    0  0.68634006376E+01  0.11876585460E+02 -0.12748297595E+02  0.18726415622E+02  0.00000000000E+00 0. -1.
         11    1    3    3    0    0  0.12454147902E+02  0.26064741063E+01 -0.14881960751E+02  0.19579894364E+02  0.51100000000E-03 0. -1.
        -11    1    3    3    0    0 -0.17535315554E+02  0.37789186039E+01  0.29408001904E+02  0.34447033162E+02  0.51100000000E-03 0.  1.
        -12    1    3    3    0    0 -0.17822329861E+01 -0.18261978170E+02 -0.17777435578E+01  0.18434656852E+02  0.00000000000E+00 0.  1.
</event>
<event>
 7    1  0.1339094E-013  0.7246155E+02  0.7816164E-02  0.1226708E+00
        -11   -1    0    0    0    0  0.00000000000E+00  0.00000000000E+00  0.45593999997E+02  0.45594000000E+02  0.51100000000E-03 0.  1.
         11   -1    0    0    0    0 -0.00000000000E+00 -0.00000000000E+00 -0.45593999997E+02  0.45594000000E+02  0.51100000000E-03 0. -1.
    9900012    2    1    2    0    0  0.12494880494E+02  0.98390232240E+01 -0.98869288042E+01  0.72461554054E+02  0.69999978845E+02 0.  0.
         12    1    1    2    0    0 -0.12494880494E+02 -0.98390232240E+01  0.98869288042E+01  0.18726445946E+02  0.00000000000E+00 0. -1.
         11    1    3    3    0    0  0.21838870590E+02  0.11313522532E+02 -0.27038801127E+02  0.36551728103E+02  0.51100000000E-03 0. -1.
        -11    1    3    3    0    0 -0.13446228791E+02  0.52462132035E+01 -0.25825202795E+01  0.14662647542E+02  0.51100000000E-03 0.  1.
         12    1    3    3    0    0  0.41022386959E+01 -0.67207125113E+01  0.19734392602E+02  0.21247178409E+02  0.00000000000E+00 0. -1.
</event>
<event>
 7    1  0.1339094E-013  0.7246156E+02  0.7816164E-02  0.1226708E+00
        -11   -1    0    0    0    0  0.00000000000E+00  0.00000000000E+00  0.45593999997E+02  0.45594000000E+02  0.51100000000E-03 0.  1.
         11   -1    0    0    0    0 -0.00000000000E+00 -0.00000000000E+00 -0.45593999997E+02  0.45594000000E+02  0.51100000000E-03 0. -1.
    9900012    2    1    2    0    0 -0.10232403355E+01 -0.18265448714E+02 -0.40007514669E+01  0.72461557470E+02  0.69999983294E+02 0.  0.
         12    1    1    2    0    0  0.10232403355E+01  0.18265448714E+02  0.40007514669E+01  0.18726442530E+02  0.00000000000E+00 0. -1.
         11    1    3    3    0    0  0.94571219317E+01 -0.38926671910E+02 -0.12064880952E+02  0.41836399151E+02  0.51100000000E-03 0. -1.
        -11    1    3    3    0    0 -0.11327185749E+02  0.54968777247E+01  0.88931649490E+01  0.15414577023E+02  0.51100000000E-03 0.  1.
         12    1    3    3    0    0  0.84682348193E+00  0.15164345471E+02 -0.82903546361E+00  0.15210581297E+02  0.00000000000E+00 0. -1.
</event>
<event>
 7    1  0.1339094E-013  0.7246164E+02  0.7816164E-02  0.1226708E+00
        -11   -1    0    0    0    0  0.00000000000E+00  0.00000000000E+00  0.45593999997E+02  0.45594000000E+02  0.51100000000E-03 0. -1.
         11   -1    0    0    0    0 -0.00000000000E+00 -0.00000000000E+00 -0.45593999997E+02  0.45594000000E+02  0.51100000000E-03 0.  1.
    9900012    2    1    2    0    0  0.86977998491E+01  0.16524097203E+02 -0.14067676359E+01  0.72461641417E+02  0.70000092651E+02 0.  0.
         12    1    1    2    0    0 -0.86977998491E+01 -0.16524097203E+02  0.14067676359E+01  0.18726358583E+02  0.00000000000E+00 0. -1.
         11    1    3    3    0    0  0.15385993590E+02  0.14265772502E+02 -0.20466519836E+02  0.29310740323E+02  0.51100000000E-03 0.  1.
        -11    1    3    3    0    0 -0.22327757388E+02 -0.21576673904E+01  0.11896195466E+02  0.25391017021E+02  0.51100000000E-03 0. -1.
         12    1    3    3    0    0  0.15639563647E+02  0.44159920919E+01  0.71635567340E+01  0.17759884073E+02  0.00000000000E+00 0. -1.
</event>
<event>
 7    1  0.1339094E-013  0.7246162E+02  0.7816164E-02  0.1226708E+00
        -11   -1    0    0    0    0  0.00000000000E+00  0.00000000000E+00  0.45593999997E+02  0.45594000000E+02  0.51100000000E-03 0. -1.
         11   -1    0    0    0    0 -0.00000000000E+00 -0.00000000000E+00 -0.45593999997E+02  0.45594000000E+02  0.51100000000E-03 0.  1.
    9900012    2    1    2    0    0  0.10157595432E+02 -0.14979410752E+02 -0.48081071508E+01  0.72461617920E+02  0.70000062041E+02 0.  0.
         12    1    1    2    0    0 -0.10157595432E+02  0.14979410752E+02  0.48081071508E+01  0.18726382080E+02  0.00000000000E+00 0. -1.
         11    1    3    3    0    0  0.19553203858E+02 -0.25941239230E+02 -0.12157066983E+02  0.34685298785E+02  0.51100000000E-03 0. -1.
        -11    1    3    3    0    0 -0.21412713800E+02  0.99066882317E+00  0.39856726978E+01  0.21803011813E+02  0.51100000000E-03 0.  1.
        -12    1    3    3    0    0  0.12017105375E+02  0.99711596550E+01  0.33632871339E+01  0.15973307322E+02  0.00000000000E+00 0.  1.
</event>
<event>
 7    1  0.1339094E-013  0.7246156E+02  0.7816164E-02  0.1226708E+00
        -11   -1    0    0    0    0  0.00000000000E+00  0.00000000000E+00  0.45593999997E+02  0.45594000000E+02  0.51100000000E-03 0.  1.
         11   -1    0    0    0    0 -0.00000000000E+00 -0.00000000000E+00 -0.45593999997E+02  0.45594000000E+02  0.51100000000E-03 0. -1.
    9900012    2    1    2    0    0  0.11821291440E+02  0.35135557661E+01 -0.14092248916E+02  0.72461561873E+02  0.69999989030E+02 0.  0.
         12    1    1    2    0    0 -0.11821291440E+02 -0.35135557661E+01  0.14092248916E+02  0.18726438127E+02  0.00000000000E+00 0. -1.
         11    1    3    3    0    0 -0.78417622515E+01 -0.44182250570E+01 -0.33271764681E+02  0.34467727995E+02  0.51100000000E-03 0. -1.
        -11    1    3    3    0    0  0.17049026099E+02  0.16256626577E+02  0.10868738950E+02  0.25943721499E+02  0.51100000000E-03 0.  1.
        -12    1    3    3    0    0  0.26140275922E+01 -0.83248457540E+01  0.83107768157E+01  0.12050112380E+02  0.00000000000E+00 0.  1.
</event>
<event>
 7    1  0.1339094E-013  0.7246152E+02  0.7816164E-02  0.1226708E+00
        -11   -1    0    0    0    0  0.00000000000E+00  0.00000000000E+00  0.45593999997E+02  0.45594000000E+02  0.51100000000E-03 0.  1.
         11   -1    0    0    0    0 -0.00000000000E+00 -0.00000000000E+00 -0.45593999997E+02  0.45594000000E+02  0.51100000000E-03 0. -1.
    9900012    2    1    2    0    0  0.62428399872E+01  0.10844981063E+01  0.17621916869E+02  0.72461517646E+02  0.69999931415E+02 0.  0.
         12    1    1    2    0    0 -0.62428399872E+01 -0.10844981063E+01 -0.17621916869E+02  0.18726482354E+02  0.00000000000E+00 0. -1.
         11    1    3    3    0    0  0.23878338971E+02 -0.24123668893E+02  0.56186913843E+01  0.34404885786E+02  0.51100000000E-03 0. -1.
        -11    1    3    3    0    0  0.14486001196E+01  0.13808850679E+02  0.46523943545E+01  0.14643345686E+02  0.51100000000E-03 0.  1.
         12    1    3    3    0    0 -0.19084099103E+02  0.11399316320E+02  0.73508311297E+01  0.23413286173E+02  0.00000000000E+00 0. -1.
</event>
<event>
 7    1  0.1339094E-013  0.7246157E+02  0.7816164E-02  0.1226708E+00
        -11   -1    0    0    0    0  0.00000000000E+00  0.00000000000E+00  0.45593999997E+02  0.45594000000E+02  0.51100000000E-03 0. -1.
         11   -1    0    0    0    0 -0.00000000000E+00 -0.00000000000E+00 -0.45593999997E+02  0.45594000000E+02  0.51100000000E-03 0.  1.
    9900012    2    1    2    0    0  0.55106533437E+01 -0.13247031609E+02 -0.12034451688E+02  0.72461570171E+02  0.69999999839E+02 0.  0.
         12    1    1    2    0    0 -0.55106533437E+01  0.13247031609E+02  0.12034451688E+02  0.18726429829E+02  0.00000000000E+00 0. -1.
         11    1    3    3    0    0  0.39090050902E+01 -0.30351180993E+02 -0.30318236665E+02  0.43077488125E+02  0.51100000000E-03 0. -1.
        -11    1    3    3    0    0  0.81855430905E+01  0.82757633440E+01  0.68364644940E+01  0.13499208186E+02  0.51100000000E-03 0.  1.
         12    1    3    3    0    0 -0.65838948371E+01  0.88283860400E+01  0.11447320483E+02  0.15884873860E+02  0.00000000000E+00 0. -1.
</event>
