<event>
 7    1  0.3276565E-015  0.9000798E+02  0.7816164E-02  0.1186339E+00
        -11   -1    0    0    0    0  0.00000000000E+00  0.00000000000E+00  0.45593999997E+02  0.45594000000E+02  0.51100000000E-03 0. -1.
         11   -1    0    0    0    0 -0.00000000000E+00 -0.00000000000E+00 -0.45593999997E+02  0.45594000000E+02  0.51100000000E-03 0.  1.
    9900012    2    1    2    0    0  0.95699476369E+00 -0.36926833483E+00 -0.58331103678E+00  0.90007978879E+02  0.90000243400E+02 0.  0.
         12    1    1    2    0    0 -0.95699476369E+00  0.36926833483E+00  0.58331103678E+00  0.11800211212E+01  0.00000000000E+00 0. -1.
         11    1    3    3    0    0  0.59559039509E+01  0.32167818285E+01 -0.92436542203E+01  0.11457120965E+02  0.51100000000E-03 0. -1.
        -11    1    3    3    0    0 -0.27330775975E+02 -0.62303895495E+01 -0.25339290330E+02  0.37787149985E+02  0.51100000000E-03 0.  1.
         12    1    3    3    0    0  0.22331866788E+02  0.26443393862E+01  0.33999633513E+02  0.40763707928E+02  0.00000000000E+00 0. -1.
</event>
<event>
 7    1  0.3276565E-015  0.9000761E+02  0.7816164E-02  0.1186339E+00
        -11   -1    0    0    0    0  0.00000000000E+00  0.00000000000E+00  0.45593999997E+02  0.45594000000E+02  0.51100000000E-03 0. -1.
         11   -1    0    0    0    0 -0.00000000000E+00 -0.00000000000E+00 -0.45593999997E+02  0.45594000000E+02  0.51100000000E-03 0.  1.
    9900012    2    1    2    0    0 -0.81973728544E+00  0.39730545256E-01 -0.84839449718E+00  0.90007609829E+02  0.89999869478E+02 0.  0.
         12    1    1    2    0    0  0.81973728544E+00 -0.39730545256E-01  0.84839449718E+00  0.11803901712E+01  0.00000000000E+00 0. -1.
         11    1    3    3    0    0 -0.31899875833E+02 -0.17903127715E+02 -0.13135774815E+02  0.38867372440E+02  0.51100000000E-03 0. -1.
        -11    1    3    3    0    0  0.79142259507E+00 -0.87738793161E+01 -0.36424671719E+00  0.88170280656E+01  0.51100000000E-03 0.  1.
        -12    1    3    3    0    0  0.30288715953E+02  0.26716737576E+02  0.12651627035E+02  0.42323209323E+02  0.00000000000E+00 0.  1.
</event>
<event>
 7    1  0.3276565E-015  0.9000770E+02  0.7816164E-02  0.1186339E+00
        -11   -1    0    0    0    0  0.00000000000E+00  0.00000000000E+00  0.45593999997E+02  0.45594000000E+02  0.51100000000E-03 0. -1.
         11   -1    0    0    0    0 -0.00000000000E+00 -0.00000000000E+00 -0.45593999997E+02  0.45594000000E+02  0.51100000000E-03 0.  1.
    9900012    2    1    2    0    0 -0.50751488295E+00 -0.93265679207E+00 -0.51543854215E+00  0.90007704724E+02  0.89999965626E+02 0.  0.
         12    1    1    2    0    0  0.50751488295E+00  0.93265679207E+00  0.51543854215E+00  0.11802952762E+01  0.00000000000E+00 0. -1.
         11    1    3    3    0    0  0.79014535678E-01 -0.15262315358E+02  0.33462584871E+02  0.36778921952E+02  0.51100000000E-03 0. -1.
        -11    1    3    3    0    0 -0.13112999534E+02  0.18224142817E+01  0.17518030962E+01  0.13354428664E+02  0.51100000000E-03 0.  1.
        -12    1    3    3    0    0  0.12526470115E+02  0.12507244285E+02 -0.35729826510E+02  0.39874354108E+02  0.00000000000E+00 0.  1.
</event>
<event>
 7    1  0.3276565E-015  0.9000774E+02  0.7816164E-02  0.1186339E+00
        -11   -1    0    0    0    0  0.00000000000E+00  0.00000000000E+00  0.45593999997E+02  0.45594000000E+02  0.51100000000E-03 0.  1.
         11   -1    0    0    0    0 -0.00000000000E+00 -0.00000000000E+00 -0.45593999997E+02  0.45594000000E+02  0.51100000000E-03 0. -1.
    9900012    2    1    2    0    0  0.81121790179E+00 -0.84250832380E+00  0.15849288034E+00  0.90007739540E+02  0.90000000902E+02 0.  0.
         12    1    1    2    0    0 -0.81121790179E+00  0.84250832380E+00 -0.15849288034E+00  0.11802604598E+01  0.00000000000E+00 0. -1.
         11    1    3    3    0    0 -0.12101950201E+01  0.23845454873E+01  0.96214273901E+01  0.99861150830E+01  0.51100000000E-03 0. -1.
        -11    1    3    3    0    0 -0.15275454773E+02 -0.13940143821E+02  0.29523324424E+02  0.36045718381E+02  0.51100000000E-03 0.  1.
         12    1    3    3    0    0  0.17296867694E+02  0.10713090010E+02 -0.38986258934E+02  0.43975906077E+02  0.00000000000E+00 0. -1.
</event>
<event>
 7    1  0.3276565E-015  0.9000774E+02  0.7816164E-02  0.1186339E+00
        -11   -1    0    0    0    0  0.00000000000E+00  0.00000000000E+00  0.45593999997E+02  0.45594000000E+02  0.51100000000E-03 0.  1.
         11   -1    0    0    0    0 -0.00000000000E+00 -0.00000000000E+00 -0.45593999997E+02  0.45594000000E+02  0.51100000000E-03 0. -1.
    9900012    2    1    2    0    0 -0.10927471462E+01  0.39874807908E+00 -0.19977798093E+00  0.90007742571E+02  0.90000003973E+02 0.  0.
         12    1    1    2    0    0  0.10927471462E+01 -0.39874807908E+00  0.19977798093E+00  0.11802574286E+01  0.00000000000E+00 0. -1.
         11    1    3    3    0    0  0.36940372936E+02 -0.35172084661E+00  0.18451036327E+01  0.36988096300E+02  0.51100000000E-03 0. -1.
        -11    1    3    3    0    0  0.20201611266E+01 -0.35582452947E+01  0.10138669545E+02  0.10933196283E+02  0.51100000000E-03 0.  1.
        -12    1    3    3    0    0 -0.40053281209E+02  0.43087142204E+01 -0.12183551159E+02  0.42086449989E+02  0.00000000000E+00 0.  1.
</event>
<event>
 7    1  0.3276565E-015  0.9000772E+02  0.7816164E-02  0.1186339E+00
        -11   -1    0    0    0    0  0.00000000000E+00  0.00000000000E+00  0.45593999997E+02  0.45594000000E+02  0.51100000000E-03 0.  1.
         11   -1    0    0    0    0 -0.00000000000E+00 -0.00000000000E+00 -0.45593999997E+02  0.45594000000E+02  0.51100000000E-03 0. -1.
    9900012    2    1    2    0    0  0.31274461707E+00  0.54659977565E+00  0.99823691583E+00  0.90007721452E+02  0.89999982575E+02 0.  0.
         12    1    1    2    0    0 -0.31274461707E+00 -0.54659977565E+00 -0.99823691583E+00  0.11802785478E+01  0.00000000000E+00 0. -1.
         11    1    3    3    0    0 -0.69303474397E+01 -0.62760517398E+01 -0.16301612497E+01  0.94908359504E+01  0.51100000000E-03 0. -1.
        -11    1    3    3    0    0  0.28864883114E+02 -0.21211658032E+02  0.20059306333E+02  0.41054740098E+02  0.51100000000E-03 0.  1.
         12    1    3    3    0    0 -0.21621791057E+02  0.28034309548E+02 -0.17430908168E+02  0.39462145404E+02  0.00000000000E+00 0. -1.
</event>
<event>
 7    1  0.3276565E-015  0.9000777E+02  0.7816164E-02  0.1186339E+00
        -11   -1    0    0    0    0  0.00000000000E+00  0.00000000000E+00  0.45593999997E+02  0.45594000000E+02  0.51100000000E-03 0. -1.
         11   -1    0    0    0    0 -0.00000000000E+00 -0.00000000000E+00 -0.45593999997E+02  0.45594000000E+02  0.51100000000E-03 0.  1.
    9900012    2    1    2    0    0  0.25250639710E+00 -0.11122799962E+01 -0.30335953949E+00  0.90007765582E+02  0.90000027288E+02 0.  0.
         12    1    1    2    0    0 -0.25250639710E+00  0.11122799962E+01  0.30335953949E+00  0.11802344177E+01  0.00000000000E+00 0. -1.
         11    1    3    3    0    0  0.28837399301E+02  0.52349438587E+01  0.25197468844E+02  0.38651166503E+02  0.51100000000E-03 0. -1.
        -11    1    3    3    0    0 -0.22906021127E+01  0.57500759551E+01  0.59701915351E+01  0.85996173610E+01  0.51100000000E-03 0.  1.
        -12    1    3    3    0    0 -0.26294290792E+02 -0.12097299810E+02 -0.31471019918E+02  0.42756981718E+02  0.00000000000E+00 0.  1.
</event>
<event>
 7    1  0.3276565E-015  0.9000767E+02  0.7816164E-02  0.1186339E+00
        -11   -1    0    0    0    0  0.00000000000E+00  0.00000000000E+00  0.45593999997E+02  0.45594000000E+02  0.51100000000E-03 0.  1.
         11   -1    0    0    0    0 -0.00000000000E+00 -0.00000000000E+00 -0.45593999997E+02  0.45594000000E+02  0.51100000000E-03 0. -1.
    9900012    2    1    2    0    0  0.11673534568E+01  0.10921745870E+00 -0.13617850760E+00  0.90007666516E+02  0.89999926914E+02 0.  0.
         12    1    1    2    0    0 -0.11673534568E+01 -0.10921745870E+00  0.13617850760E+00  0.11803334835E+01  0.00000000000E+00 0. -1.
         11    1    3    3    0    0  0.13496662106E+02  0.15514148845E+02 -0.15784164359E+02  0.25922741891E+02  0.51100000000E-03 0. -1.
        -11    1    3    3    0    0  0.14423426290E+02 -0.13719085413E+02 -0.13832052797E+02  0.24239930184E+02  0.51100000000E-03 0.  1.
        -12    1    3    3    0    0 -0.26752734939E+02 -0.16858459733E+01  0.29480038648E+02  0.39844994441E+02  0.00000000000E+00 0.  1.
</event>
<event>
 7    1  0.3276565E-015  0.9000760E+02  0.7816164E-02  0.1186339E+00
        -11   -1    0    0    0    0  0.00000000000E+00  0.00000000000E+00  0.45593999997E+02  0.45594000000E+02  0.51100000000E-03 0.  1.
         11   -1    0    0    0    0 -0.00000000000E+00 -0.00000000000E+00 -0.45593999997E+02  0.45594000000E+02  0.51100000000E-03 0. -1.
    9900012    2    1    2    0    0 -0.27684503437E+00  0.93801187981E+00 -0.66093667081E+00  0.90007598906E+02  0.89999858412E+02 0.  0.
         12    1    1    2    0    0  0.27684503437E+00 -0.93801187981E+00  0.66093667081E+00  0.11804010939E+01  0.00000000000E+00 0. -1.
         11    1    3    3    0    0  0.15153325728E+02 -0.28171487644E+02 -0.22897610897E+02  0.39338995688E+02  0.51100000000E-03 0. -1.
        -11    1    3    3    0    0  0.86836487056E+01  0.32059443213E+01  0.79721919716E+00  0.92908230283E+01  0.51100000000E-03 0.  1.
        -12    1    3    3    0    0 -0.24113819468E+02  0.25903555203E+02  0.21439455029E+02  0.41377780190E+02  0.00000000000E+00 0.  1.
</event>
<event>
 7    1  0.3276565E-015  0.9000773E+02  0.7816164E-02  0.1186339E+00
        -11   -1    0    0    0    0  0.00000000000E+00  0.00000000000E+00  0.45593999997E+02  0.45594000000E+02  0.51100000000E-03 0.  1.
         11   -1    0    0    0    0 -0.00000000000E+00 -0.00000000000E+00 -0.45593999997E+02  0.45594000000E+02  0.51100000000E-03 0. -1.
    9900012    2    1    2    0    0  0.52334541054E+00 -0.41811149958E+00  0.97176064096E+00  0.90007734611E+02  0.89999995908E+02 0.  0.
         12    1    1    2    0    0 -0.52334541054E+00  0.41811149958E+00 -0.97176064096E+00  0.11802653889E+01  0.00000000000E+00 0. -1.
         11    1    3    3    0    0 -0.79494555275E+01  0.22800462497E+01  0.77544418942E+00  0.83062487343E+01  0.51100000000E-03 0. -1.
        -11    1    3    3    0    0  0.81233187861E+01  0.21358189282E+02  0.33539888091E+02  0.40584290691E+02  0.51100000000E-03 0.  1.
         12    1    3    3    0    0  0.34948215196E+00 -0.24056347031E+02 -0.33343571639E+02  0.41117195186E+02  0.00000000000E+00 0. -1.
</event>
<event>
 7    1  0.3276565E-015  0.9000776E+02  0.7816164E-02  0.1186339E+00
        -11   -1    0    0    0    0  0.00000000000E+00  0.00000000000E+00  0.45593999997E+02  0.45594000000E+02  0.51100000000E-03 0. -1.
         11   -1    0    0    0    0 -0.00000000000E+00 -0.00000000000E+00 -0.45593999997E+02  0.45594000000E+02  0.51100000000E-03 0.  1.
    9900012    2    1    2    0    0 -0.52734053494E+00  0.54154739417E+00 -0.90642854486E+00  0.90007756666E+02  0.90000018254E+02 0.  0.
         12    1    1    2    0    0  0.52734053494E+00 -0.54154739417E+00  0.90642854486E+00  0.11802433337E+01  0.00000000000E+00 0. -1.
         11    1    3    3    0    0 -0.12898103117E+02  0.31577701766E+01  0.37463473259E+02  0.39747256577E+02  0.51100000000E-03 0. -1.
        -11    1    3    3    0    0  0.29714468426E+01  0.85366398139E+01  0.18298424274E+00  0.90408627434E+01  0.51100000000E-03 0.  1.
        -12    1    3    3    0    0  0.93993157399E+01 -0.11152862596E+02 -0.38552886046E+02  0.41219637346E+02  0.00000000000E+00 0.  1.
</event>
<event>
 7    1  0.3276565E-015  0.9000776E+02  0.7816164E-02  0.1186339E+00
        -11   -1    0    0    0    0  0.00000000000E+00  0.00000000000E+00  0.45593999997E+02  0.45594000000E+02  0.51100000000E-03 0. -1.
         11   -1    0    0    0    0 -0.00000000000E+00 -0.00000000000E+00 -0.45593999997E+02  0.45594000000E+02  0.51100000000E-03 0.  1.
    9900012    2    1    2    0    0 -0.70178792585E+00  0.77342688107E+00 -0.54978530418E+00  0.90007763026E+02  0.90000024698E+02 0.  0.
         12    1    1    2    0    0  0.70178792585E+00 -0.77342688107E+00  0.54978530418E+00  0.11802369736E+01  0.00000000000E+00 0. -1.
         11    1    3    3    0    0 -0.39811320080E+01 -0.93185859933E+01  0.15336876464E+02  0.18382198914E+02  0.51100000000E-03 0. -1.
        -11    1    3    3    0    0  0.18887024078E+02 -0.23741634217E+02 -0.16141257464E+02  0.34364590302E+02  0.51100000000E-03 0.  1.
        -12    1    3    3    0    0 -0.15607679996E+02  0.33833647091E+02  0.25459569542E+00  0.37260973811E+02  0.00000000000E+00 0.  1.
</event>
<event>
 7    1  0.3276565E-015  0.9000780E+02  0.7816164E-02  0.1186339E+00
        -11   -1    0    0    0    0  0.00000000000E+00  0.00000000000E+00  0.45593999997E+02  0.45594000000E+02  0.51100000000E-03 0. -1.
         11   -1    0    0    0    0 -0.00000000000E+00 -0.00000000000E+00 -0.45593999997E+02  0.45594000000E+02  0.51100000000E-03 0.  1.
    9900012    2    1    2    0    0  0.17306493454E+00  0.69895311650E+00 -0.93509007636E+00  0.90007796466E+02  0.90000058579E+02 0.  0.
         12    1    1    2    0    0 -0.17306493454E+00 -0.69895311650E+00  0.93509007636E+00  0.11802035339E+01  0.00000000000E+00 0. -1.
         11    1    3    3    0    0  0.45095306073E+01 -0.24755778787E+01  0.88975468134E+00  0.52207294304E+01  0.51100000000E-03 0. -1.
        -11    1    3    3    0    0  0.43963023611E+01 -0.39910143181E+02  0.43832580808E+01  0.40390097237E+02  0.51100000000E-03 0.  1.
         12    1    3    3    0    0 -0.87327680339E+01  0.43084674176E+02 -0.62081028385E+01  0.44396969798E+02  0.00000000000E+00 0. -1.
</event>
<event>
 7    1  0.3276565E-015  0.9000776E+02  0.7816164E-02  0.1186339E+00
        -11   -1    0    0    0    0  0.00000000000E+00  0.00000000000E+00  0.45593999997E+02  0.45594000000E+02  0.51100000000E-03 0. -1.
         11   -1    0    0    0    0 -0.00000000000E+00 -0.00000000000E+00 -0.45593999997E+02  0.45594000000E+02  0.51100000000E-03 0.  1.
    9900012    2    1    2    0    0  0.66376226460E+00  0.71343187958E+00 -0.66587890827E+00  0.90007762689E+02  0.90000024356E+02 0.  0.
         12    1    1    2    0    0 -0.66376226460E+00 -0.71343187958E+00  0.66587890827E+00  0.11802373114E+01  0.00000000000E+00 0. -1.
         11    1    3    3    0    0  0.45121570319E+01 -0.66767109998E+01  0.14358884137E+01  0.81853409613E+01  0.51100000000E-03 0. -1.
        -11    1    3    3    0    0 -0.24304448402E+01 -0.17526952853E+02 -0.35773184920E+02  0.39910172864E+02  0.51100000000E-03 0.  1.
         12    1    3    3    0    0 -0.14179499271E+01  0.24917095733E+02  0.33671417598E+02  0.41912248864E+02  0.00000000000E+00 0. -1.
</event>
<event>
 7    1  0.3276565E-015  0.9000785E+02  0.7816164E-02  0.1186339E+00
        -11   -1    0    0    0    0  0.00000000000E+00  0.00000000000E+00  0.45593999997E+02  0.45594000000E+02  0.51100000000E-03 0. -1.
         11   -1    0    0    0    0 -0.00000000000E+00 -0.00000000000E+00 -0.45593999997E+02  0.45594000000E+02  0.51100000000E-03 0.  1.
    9900012    2    1    2    0    0 -0.11407480121E+01  0.52944443983E-01 -0.29771570626E+00  0.90007854338E+02  0.90000117215E+02 0.  0.
         12    1    1    2    0    0  0.11407480121E+01 -0.52944443983E-01  0.29771570626E+00  0.11801456617E+01  0.00000000000E+00 0. -1.
         11    1    3    3    0    0  0.54459081204E+01 -0.23795540096E+02 -0.25497787508E+02  0.35299048313E+02  0.51100000000E-03 0. -1.
        -11    1    3    3    0    0 -0.13080888486E+02 -0.49750093469E+01 -0.24908022711E+01  0.14214937840E+02  0.51100000000E-03 0.  1.
         12    1    3    3    0    0  0.64942323531E+01  0.28823493887E+02  0.27690874073E+02  0.40493868186E+02  0.00000000000E+00 0. -1.
</event>
<event>
 7    1  0.3276565E-015  0.9000769E+02  0.7816164E-02  0.1186339E+00
        -11   -1    0    0    0    0  0.00000000000E+00  0.00000000000E+00  0.45593999997E+02  0.45594000000E+02  0.51100000000E-03 0. -1.
         11   -1    0    0    0    0 -0.00000000000E+00 -0.00000000000E+00 -0.45593999997E+02  0.45594000000E+02  0.51100000000E-03 0.  1.
    9900012    2    1    2    0    0 -0.91455225168E+00 -0.35280592082E+00 -0.65746338239E+00  0.90007688203E+02  0.89999948887E+02 0.  0.
         12    1    1    2    0    0  0.91455225168E+00  0.35280592082E+00  0.65746338239E+00  0.11803117969E+01  0.00000000000E+00 0. -1.
         11    1    3    3    0    0  0.25178919846E+02 -0.18018998886E+02 -0.24856726232E+02  0.39705404729E+02  0.51100000000E-03 0. -1.
        -11    1    3    3    0    0 -0.82722745259E+01 -0.16781998705E+01 -0.59239843977E+01  0.10312151669E+02  0.51100000000E-03 0.  1.
        -12    1    3    3    0    0 -0.17821197572E+02  0.19344392835E+02  0.30123247247E+02  0.39990131805E+02  0.00000000000E+00 0.  1.
</event>
<event>
 7    1  0.3276565E-015  0.9000825E+02  0.7816164E-02  0.1186338E+00
        -11   -1    0    0    0    0  0.00000000000E+00  0.00000000000E+00  0.45593999997E+02  0.45594000000E+02  0.51100000000E-03 0.  1.
         11   -1    0    0    0    0 -0.00000000000E+00 -0.00000000000E+00 -0.45593999997E+02  0.45594000000E+02  0.51100000000E-03 0. -1.
    9900012    2    1    2    0    0 -0.22776948836E+00  0.69053207221E+00  0.92902838600E+00  0.90008251203E+02  0.90000519317E+02 0.  0.
         12    1    1    2    0    0  0.22776948836E+00 -0.69053207221E+00 -0.92902838600E+00  0.11797487972E+01  0.00000000000E+00 0. -1.
         11    1    3    3    0    0  0.30463640521E+01  0.36134476226E+01  0.83891863403E+01  0.96289036434E+01  0.51100000000E-03 0. -1.
        -11    1    3    3    0    0  0.34699728007E+02  0.15002122944E+02 -0.45174929635E+00  0.37806598555E+02  0.51100000000E-03 0.  1.
         12    1    3    3    0    0 -0.37973861548E+02 -0.17925038495E+02 -0.70084086580E+01  0.42572749004E+02  0.00000000000E+00 0. -1.
</event>
<event>
 7    1  0.3276565E-015  0.9000771E+02  0.7816164E-02  0.1186339E+00
        -11   -1    0    0    0    0  0.00000000000E+00  0.00000000000E+00  0.45593999997E+02  0.45594000000E+02  0.51100000000E-03 0. -1.
         11   -1    0    0    0    0 -0.00000000000E+00 -0.00000000000E+00 -0.45593999997E+02  0.45594000000E+02  0.51100000000E-03 0.  1.
    9900012    2    1    2    0    0 -0.63653787415E+00 -0.99281961894E+00  0.46938166701E-01  0.90007714250E+02  0.89999975278E+02 0.  0.
         12    1    1    2    0    0  0.63653787415E+00  0.99281961894E+00 -0.46938166701E-01  0.11802857503E+01  0.00000000000E+00 0. -1.
         11    1    3    3    0    0  0.35750637208E+02  0.44850041755E+01 -0.53550189140E+01  0.36426632442E+02  0.51100000000E-03 0. -1.
        -11    1    3    3    0    0  0.38256034233E+01  0.42824693376E+01 -0.82104576661E+01  0.10019301399E+02  0.51100000000E-03 0.  1.
        -12    1    3    3    0    0 -0.40212778505E+02 -0.97602931320E+01  0.13612414747E+02  0.43561780409E+02  0.00000000000E+00 0.  1.
</event>
<event>
 7    1  0.3276565E-015  0.9000764E+02  0.7816164E-02  0.1186339E+00
        -11   -1    0    0    0    0  0.00000000000E+00  0.00000000000E+00  0.45593999997E+02  0.45594000000E+02  0.51100000000E-03 0.  1.
         11   -1    0    0    0    0 -0.00000000000E+00 -0.00000000000E+00 -0.45593999997E+02  0.45594000000E+02  0.51100000000E-03 0. -1.
    9900012    2    1    2    0    0  0.85831122053E-01  0.10025602740E+01  0.61704928354E+00  0.90007642468E+02  0.89999902549E+02 0.  0.
         12    1    1    2    0    0 -0.85831122053E-01 -0.10025602740E+01 -0.61704928354E+00  0.11803575318E+01  0.00000000000E+00 0. -1.
         11    1    3    3    0    0  0.94963819391E+01  0.87220042049E+00  0.19051764473E+01  0.97247982531E+01  0.51100000000E-03 0. -1.
        -11    1    3    3    0    0  0.68992524819E+01 -0.23010481300E+02  0.29772707295E+02  0.38255666696E+02  0.51100000000E-03 0.  1.
         12    1    3    3    0    0 -0.16309803299E+02  0.23140841153E+02 -0.31060834459E+02  0.42027177519E+02  0.00000000000E+00 0. -1.
</event>
<event>
 7    1  0.3276565E-015  0.9000773E+02  0.7816164E-02  0.1186339E+00
        -11   -1    0    0    0    0  0.00000000000E+00  0.00000000000E+00  0.45593999997E+02  0.45594000000E+02  0.51100000000E-03 0. -1.
         11   -1    0    0    0    0 -0.00000000000E+00 -0.00000000000E+00 -0.45593999997E+02  0.45594000000E+02  0.51100000000E-03 0.  1.
    9900012    2    1    2    0    0  0.10224366322E+00  0.44451576682E+00 -0.10885712275E+01  0.90007730814E+02  0.89999992061E+02 0.  0.
         12    1    1    2    0    0 -0.10224366322E+00 -0.44451576682E+00  0.10885712275E+01  0.11802691858E+01  0.00000000000E+00 0. -1.
         11    1    3    3    0    0  0.10497808769E+02  0.21662506195E+02  0.28420205856E+02  0.37244815273E+02  0.51100000000E-03 0. -1.
        -11    1    3    3    0    0  0.63807897168E+01 -0.14954178374E+01  0.59533914420E+01  0.88540172713E+01  0.51100000000E-03 0.  1.
        -12    1    3    3    0    0 -0.16776354822E+02 -0.19722572591E+02 -0.35462168525E+02  0.43908898269E+02  0.00000000000E+00 0.  1.
</event>
<event>
 7    1  0.3276565E-015  0.9000785E+02  0.7816164E-02  0.1186339E+00
        -11   -1    0    0    0    0  0.00000000000E+00  0.00000000000E+00  0.45593999997E+02  0.45594000000E+02  0.51100000000E-03 0. -1.
         11   -1    0    0    0    0 -0.00000000000E+00 -0.00000000000E+00 -0.45593999997E+02  0.45594000000E+02  0.51100000000E-03 0.  1.
    9900012    2    1    2    0    0  0.87435045851E+00  0.24948558602E+00 -0.75234560534E+00  0.90007849293E+02  0.90000112103E+02 0.  0.
         12    1    1    2    0    0 -0.87435045851E+00 -0.24948558602E+00  0.75234560534E+00  0.11801507072E+01  0.00000000000E+00 0. -1.
         11    1    3    3    0    0  0.51973198385E+01 -0.58624040885E+01 -0.78426756557E+01  0.11085462413E+02  0.51100000000E-03 0. -1.
        -11    1    3    3    0    0  0.28832616545E+02 -0.19403160389E+02  0.12071315735E+02  0.36790203502E+02  0.51100000000E-03 0.  1.
         12    1    3    3    0    0 -0.33155585925E+02  0.25515050064E+02 -0.49809856842E+01  0.42132183378E+02  0.00000000000E+00 0. -1.
</event>
<event>
 7    1  0.3276565E-015  0.9000779E+02  0.7816164E-02  0.1186339E+00
        -11   -1    0    0    0    0  0.00000000000E+00  0.00000000000E+00  0.45593999997E+02  0.45594000000E+02  0.51100000000E-03 0. -1.
         11   -1    0    0    0    0 -0.00000000000E+00 -0.00000000000E+00 -0.45593999997E+02  0.45594000000E+02  0.51100000000E-03 0.  1.
    9900012    2    1    2    0    0  0.90399643012E+00 -0.71765327278E+00  0.24630151489E+00  0.90007788069E+02  0.90000050072E+02 0.  0.
         12    1    1    2    0    0 -0.90399643012E+00  0.71765327278E+00 -0.24630151489E+00  0.11802119309E+01  0.00000000000E+00 0. -1.
         11    1    3    3    0    0 -0.11663941591E+02 -0.25199924689E+02 -0.22343841402E+02  0.35641702915E+02  0.51100000000E-03 0. -1.
        -11    1    3    3    0    0  0.11766406085E+01  0.38416232283E+01 -0.11916087510E+02  0.12575201547E+02  0.51100000000E-03 0.  1.
        -12    1    3    3    0    0  0.11391297413E+02  0.20640648188E+02  0.34506230427E+02  0.41790883607E+02  0.00000000000E+00 0.  1.
</event>
<event>
 7    1  0.3276565E-015  0.9000785E+02  0.7816164E-02  0.1186339E+00
        -11   -1    0    0    0    0  0.00000000000E+00  0.00000000000E+00  0.45593999997E+02  0.45594000000E+02  0.51100000000E-03 0.  1.
         11   -1    0    0    0    0 -0.00000000000E+00 -0.00000000000E+00 -0.45593999997E+02  0.45594000000E+02  0.51100000000E-03 0. -1.
    9900012    2    1    2    0    0  0.35674248557E+00  0.27541525742E+00  0.10907048146E+01  0.90007849265E+02  0.90000112075E+02 0.  0.
         12    1    1    2    0    0 -0.35674248557E+00 -0.27541525742E+00 -0.10907048146E+01  0.11801507351E+01  0.00000000000E+00 0. -1.
         11    1    3    3    0    0  0.21197498689E+02  0.32446385803E+02  0.22486565016E+02  0.44807895608E+02  0.51100000000E-03 0. -1.
        -11    1    3    3    0    0 -0.16125261647E+00 -0.23265673796E+01  0.10022934346E+01  0.25384070927E+01  0.51100000000E-03 0.  1.
        -12    1    3    3    0    0 -0.20679503587E+02 -0.29844403166E+02 -0.22398153636E+02  0.42661546564E+02  0.00000000000E+00 0.  1.
</event>
<event>
 7    1  0.3276565E-015  0.9000755E+02  0.7816164E-02  0.1186339E+00
        -11   -1    0    0    0    0  0.00000000000E+00  0.00000000000E+00  0.45593999997E+02  0.45594000000E+02  0.51100000000E-03 0. -1.
         11   -1    0    0    0    0 -0.00000000000E+00 -0.00000000000E+00 -0.45593999997E+02  0.45594000000E+02  0.51100000000E-03 0.  1.
    9900012    2    1    2    0    0  0.10037697411E+01 -0.55569953725E+00 -0.27766084201E+00  0.90007554655E+02  0.89999813576E+02 0.  0.
         12    1    1    2    0    0 -0.10037697411E+01  0.55569953725E+00  0.27766084201E+00  0.11804453448E+01  0.00000000000E+00 0. -1.
         11    1    3    3    0    0 -0.85637385864E+01  0.20514184643E+01  0.37543239642E+02  0.38562167722E+02  0.51100000000E-03 0. -1.
        -11    1    3    3    0    0 -0.98054207870E+01 -0.20799588978E+01 -0.13087780852E+01  0.10108679744E+02  0.51100000000E-03 0.  1.
        -12    1    3    3    0    0  0.19372929114E+02 -0.52715910368E+00 -0.36512122399E+02  0.41336707190E+02  0.00000000000E+00 0.  1.
</event>
<event>
 7    1  0.3276565E-015  0.9000774E+02  0.7816164E-02  0.1186339E+00
        -11   -1    0    0    0    0  0.00000000000E+00  0.00000000000E+00  0.45593999997E+02  0.45594000000E+02  0.51100000000E-03 0. -1.
         11   -1    0    0    0    0 -0.00000000000E+00 -0.00000000000E+00 -0.45593999997E+02  0.45594000000E+02  0.51100000000E-03 0.  1.
    9900012    2    1    2    0    0 -0.93666003258E+00  0.46468006396E+00  0.54750140006E+00  0.90007738435E+02  0.89999999782E+02 0.  0.
         12    1    1    2    0    0  0.93666003258E+00 -0.46468006396E+00 -0.54750140006E+00  0.11802615649E+01  0.00000000000E+00 0. -1.
         11    1    3    3    0    0  0.34760433939E+01  0.88047067478E+01  0.20517864496E+01  0.96858436126E+01  0.51100000000E-03 0. -1.
        -11    1    3    3    0    0 -0.26270915265E+02 -0.10984265585E+02 -0.31918968242E+02  0.42774240065E+02  0.51100000000E-03 0.  1.
         12    1    3    3    0    0  0.21858211838E+02  0.26442389008E+01  0.30414683192E+02  0.37547654758E+02  0.00000000000E+00 0. -1.
</event>
<event>
 7    1  0.3276565E-015  0.9000776E+02  0.7816164E-02  0.1186339E+00
        -11   -1    0    0    0    0  0.00000000000E+00  0.00000000000E+00  0.45593999997E+02  0.45594000000E+02  0.51100000000E-03 0. -1.
         11   -1    0    0    0    0 -0.00000000000E+00 -0.00000000000E+00 -0.45593999997E+02  0.45594000000E+02  0.51100000000E-03 0.  1.
    9900012    2    1    2    0    0 -0.82874707447E+00  0.39823539494E+00 -0.73996311868E+00  0.90007763346E+02  0.90000025022E+02 0.  0.
         12    1    1    2    0    0  0.82874707447E+00 -0.39823539494E+00  0.73996311868E+00  0.11802366543E+01  0.00000000000E+00 0. -1.
         11    1    3    3    0    0 -0.11259569362E+01  0.99239173147E+01  0.62110032213E+01  0.11761312646E+02  0.51100000000E-03 0. -1.
        -11    1    3    3    0    0 -0.16922897617E+02  0.29337168439E+02 -0.10842961845E+02  0.35561548583E+02  0.51100000000E-03 0.  1.
         12    1    3    3    0    0  0.17220107479E+02 -0.38862850359E+02  0.38919955052E+01  0.42684902116E+02  0.00000000000E+00 0. -1.
</event>
<event>
 7    1  0.3276565E-015  0.9000774E+02  0.7816164E-02  0.1186339E+00
        -11   -1    0    0    0    0  0.00000000000E+00  0.00000000000E+00  0.45593999997E+02  0.45594000000E+02  0.51100000000E-03 0.  1.
         11   -1    0    0    0    0 -0.00000000000E+00 -0.00000000000E+00 -0.45593999997E+02  0.45594000000E+02  0.51100000000E-03 0. -1.
    9900012    2    1    2    0    0  0.90559857230E+00  0.75668532209E+00  0.17969710208E-01  0.90007743942E+02  0.90000005363E+02 0.  0.
         12    1    1    2    0    0 -0.90559857230E+00 -0.75668532209E+00 -0.17969710208E-01  0.11802560575E+01  0.00000000000E+00 0. -1.
         11    1    3    3    0    0  0.50316288103E+01  0.19261504742E+01 -0.35962475244E+02  0.36363814019E+02  0.51100000000E-03 0. -1.
        -11    1    3    3    0    0  0.63362980774E+01  0.12941149461E+01 -0.68882125437E+01  0.94483267898E+01  0.51100000000E-03 0.  1.
        -12    1    3    3    0    0 -0.10462328315E+02 -0.24635800982E+01  0.42868657497E+02  0.44195603133E+02  0.00000000000E+00 0.  1.
</event>
<event>
 7    1  0.3276565E-015  0.9000770E+02  0.7816164E-02  0.1186339E+00
        -11   -1    0    0    0    0  0.00000000000E+00  0.00000000000E+00  0.45593999997E+02  0.45594000000E+02  0.51100000000E-03 0. -1.
         11   -1    0    0    0    0 -0.00000000000E+00 -0.00000000000E+00 -0.45593999997E+02  0.45594000000E+02  0.51100000000E-03 0.  1.
    9900012    2    1    2    0    0 -0.32686995429E+00  0.72880259669E+00 -0.86896647613E+00  0.90007703457E+02  0.89999964343E+02 0.  0.
         12    1    1    2    0    0  0.32686995429E+00 -0.72880259669E+00  0.86896647613E+00  0.11802965427E+01  0.00000000000E+00 0. -1.
         11    1    3    3    0    0 -0.49354707868E+01  0.10072597492E+02  0.19269257467E+01  0.11381086732E+02  0.51100000000E-03 0. -1.
        -11    1    3    3    0    0  0.13800368361E+02  0.30323210890E+02  0.11841228441E+02  0.35357629684E+02  0.51100000000E-03 0.  1.
         12    1    3    3    0    0 -0.91917675283E+01 -0.39667005785E+02 -0.14637120664E+02  0.43268987041E+02  0.00000000000E+00 0. -1.
</event>
<event>
 7    1  0.3276565E-015  0.9000781E+02  0.7816164E-02  0.1186339E+00
        -11   -1    0    0    0    0  0.00000000000E+00  0.00000000000E+00  0.45593999997E+02  0.45594000000E+02  0.51100000000E-03 0.  1.
         11   -1    0    0    0    0 -0.00000000000E+00 -0.00000000000E+00 -0.45593999997E+02  0.45594000000E+02  0.51100000000E-03 0. -1.
    9900012    2    1    2    0    0  0.76952459539E+00 -0.39549719191E+00  0.80265586114E+00  0.90007812488E+02  0.90000074813E+02 0.  0.
         12    1    1    2    0    0 -0.76952459539E+00  0.39549719191E+00 -0.80265586114E+00  0.11801875119E+01  0.00000000000E+00 0. -1.
         11    1    3    3    0    0  0.33371941761E+02  0.11439860947E+02 -0.11964888661E+02  0.37252053317E+02  0.51100000000E-03 0. -1.
        -11    1    3    3    0    0  0.78367771030E+01 -0.66738641254E+01  0.11020225864E+01  0.10352294034E+02  0.51100000000E-03 0.  1.
        -12    1    3    3    0    0 -0.40439194269E+02 -0.51614940130E+01  0.11665521936E+02  0.42403465137E+02  0.00000000000E+00 0.  1.
</event>
<event>
 7    1  0.3276565E-015  0.9000772E+02  0.7816164E-02  0.1186339E+00
        -11   -1    0    0    0    0  0.00000000000E+00  0.00000000000E+00  0.45593999997E+02  0.45594000000E+02  0.51100000000E-03 0. -1.
         11   -1    0    0    0    0 -0.00000000000E+00 -0.00000000000E+00 -0.45593999997E+02  0.45594000000E+02  0.51100000000E-03 0.  1.
    9900012    2    1    2    0    0 -0.83842667008E+00  0.41204638007E+00 -0.72132687704E+00  0.90007722929E+02  0.89999984072E+02 0.  0.
         12    1    1    2    0    0  0.83842667008E+00 -0.41204638007E+00  0.72132687704E+00  0.11802770708E+01  0.00000000000E+00 0. -1.
         11    1    3    3    0    0  0.70874883441E+00 -0.73319888884E+01 -0.28463045921E+01  0.78969510612E+01  0.51100000000E-03 0. -1.
        -11    1    3    3    0    0 -0.91682754075E+01 -0.31887984057E+02 -0.17190424289E+02  0.37368589600E+02  0.51100000000E-03 0.  1.
         12    1    3    3    0    0  0.76210999030E+01  0.39632019326E+02  0.19315402004E+02  0.44742182268E+02  0.00000000000E+00 0. -1.
</event>
<event>
 7    1  0.3276565E-015  0.9000779E+02  0.7816164E-02  0.1186339E+00
        -11   -1    0    0    0    0  0.00000000000E+00  0.00000000000E+00  0.45593999997E+02  0.45594000000E+02  0.51100000000E-03 0. -1.
         11   -1    0    0    0    0 -0.00000000000E+00 -0.00000000000E+00 -0.45593999997E+02  0.45594000000E+02  0.51100000000E-03 0.  1.
    9900012    2    1    2    0    0  0.81108167099E+00 -0.43495148300E+00 -0.73881962147E+00  0.90007792093E+02  0.90000054149E+02 0.  0.
         12    1    1    2    0    0 -0.81108167099E+00  0.43495148300E+00  0.73881962147E+00  0.11802079065E+01  0.00000000000E+00 0. -1.
         11    1    3    3    0    0  0.24031989886E+02  0.22054069152E+02  0.17223804329E+02  0.36886012794E+02  0.51100000000E-03 0. -1.
        -11    1    3    3    0    0  0.96441950712E+01 -0.11398941882E+00 -0.38992680504E+00  0.96527475536E+01  0.51100000000E-03 0.  1.
        -12    1    3    3    0    0 -0.32865103286E+02 -0.22375031216E+02 -0.17572697146E+02  0.43469031746E+02  0.00000000000E+00 0.  1.
</event>
<event>
 7    1  0.3276565E-015  0.9000766E+02  0.7816164E-02  0.1186339E+00
        -11   -1    0    0    0    0  0.00000000000E+00  0.00000000000E+00  0.45593999997E+02  0.45594000000E+02  0.51100000000E-03 0. -1.
         11   -1    0    0    0    0 -0.00000000000E+00 -0.00000000000E+00 -0.45593999997E+02  0.45594000000E+02  0.51100000000E-03 0.  1.
    9900012    2    1    2    0    0 -0.79555945595E+00 -0.68958029770E+00 -0.53363470107E+00  0.90007660291E+02  0.89999920607E+02 0.  0.
         12    1    1    2    0    0  0.79555945595E+00  0.68958029770E+00  0.53363470107E+00  0.11803397092E+01  0.00000000000E+00 0. -1.
         11    1    3    3    0    0  0.42409431620E+01  0.18333241258E+02  0.90591586561E+01  0.20884484426E+02  0.51100000000E-03 0. -1.
        -11    1    3    3    0    0 -0.24786316306E+02  0.15088412983E+02 -0.49052453506E+01  0.29429290079E+02  0.51100000000E-03 0.  1.
        -12    1    3    3    0    0  0.19749813688E+02 -0.34111234538E+02 -0.46875480066E+01  0.39693885786E+02  0.00000000000E+00 0.  1.
</event>
<event>
 7    1  0.3276565E-015  0.9000752E+02  0.7816164E-02  0.1186339E+00
        -11   -1    0    0    0    0  0.00000000000E+00  0.00000000000E+00  0.45593999997E+02  0.45594000000E+02  0.51100000000E-03 0. -1.
         11   -1    0    0    0    0 -0.00000000000E+00 -0.00000000000E+00 -0.45593999997E+02  0.45594000000E+02  0.51100000000E-03 0.  1.
    9900012    2    1    2    0    0  0.98697444275E+00 -0.32039198153E+00 -0.56280985000E+00  0.90007523613E+02  0.89999782125E+02 0.  0.
         12    1    1    2    0    0 -0.98697444275E+00  0.32039198153E+00  0.56280985000E+00  0.11804763868E+01  0.00000000000E+00 0. -1.
         11    1    3    3    0    0  0.12798848598E+02  0.25841216492E+02  0.29629591765E+02  0.41345999850E+02  0.51100000000E-03 0. -1.
        -11    1    3    3    0    0  0.45536102463E+01  0.14558202190E+01 -0.90124438565E+01  0.10201907827E+02  0.51100000000E-03 0.  1.
        -12    1    3    3    0    0 -0.16365484401E+02 -0.27617428693E+02 -0.21179957758E+02  0.38459615936E+02  0.00000000000E+00 0.  1.
</event>
<event>
 7    1  0.3276565E-015  0.9000756E+02  0.7816164E-02  0.1186339E+00
        -11   -1    0    0    0    0  0.00000000000E+00  0.00000000000E+00  0.45593999997E+02  0.45594000000E+02  0.51100000000E-03 0. -1.
         11   -1    0    0    0    0 -0.00000000000E+00 -0.00000000000E+00 -0.45593999997E+02  0.45594000000E+02  0.51100000000E-03 0.  1.
    9900012    2    1    2    0    0  0.52536814064E+00  0.97897745779E+00  0.39878110544E+00  0.90007561558E+02  0.89999820570E+02 0.  0.
         12    1    1    2    0    0 -0.52536814064E+00 -0.97897745779E+00 -0.39878110544E+00  0.11804384423E+01  0.00000000000E+00 0. -1.
         11    1    3    3    0    0 -0.77161065638E+01 -0.79507719150E+01 -0.62199519247E+01  0.12705938641E+02  0.51100000000E-03 0. -1.
        -11    1    3    3    0    0  0.14360795369E+01 -0.78099817663E+01 -0.32901444483E+02  0.33846169488E+02  0.51100000000E-03 0.  1.
         12    1    3    3    0    0  0.68053951675E+01  0.16739731139E+02  0.39520177514E+02  0.43455453429E+02  0.00000000000E+00 0. -1.
</event>
<event>
 7    1  0.3276565E-015  0.9000775E+02  0.7816164E-02  0.1186339E+00
        -11   -1    0    0    0    0  0.00000000000E+00  0.00000000000E+00  0.45593999997E+02  0.45594000000E+02  0.51100000000E-03 0.  1.
         11   -1    0    0    0    0 -0.00000000000E+00 -0.00000000000E+00 -0.45593999997E+02  0.45594000000E+02  0.51100000000E-03 0. -1.
    9900012    2    1    2    0    0 -0.11329304114E+01 -0.33062411967E+00  0.12091855456E-01  0.90007750095E+02  0.90000011596E+02 0.  0.
         12    1    1    2    0    0  0.11329304114E+01  0.33062411967E+00 -0.12091855456E-01  0.11802499051E+01  0.00000000000E+00 0. -1.
         11    1    3    3    0    0  0.24930152477E+01  0.63916325144E+01 -0.10088109141E+02  0.12199919570E+02  0.51100000000E-03 0. -1.
        -11    1    3    3    0    0 -0.12726156817E+02  0.33437792731E+02  0.74453830105E+01  0.36544148349E+02  0.51100000000E-03 0.  1.
         12    1    3    3    0    0  0.91002111583E+01 -0.40160049366E+02  0.26548179859E+01  0.41263682176E+02  0.00000000000E+00 0. -1.
</event>
<event>
 7    1  0.3276565E-015  0.9000760E+02  0.7816164E-02  0.1186339E+00
        -11   -1    0    0    0    0  0.00000000000E+00  0.00000000000E+00  0.45593999997E+02  0.45594000000E+02  0.51100000000E-03 0. -1.
         11   -1    0    0    0    0 -0.00000000000E+00 -0.00000000000E+00 -0.45593999997E+02  0.45594000000E+02  0.51100000000E-03 0.  1.
    9900012    2    1    2    0    0 -0.24075798327E+00 -0.66523814049E-01 -0.11536679508E+01  0.90007601946E+02  0.89999861492E+02 0.  0.
         12    1    1    2    0    0  0.24075798327E+00  0.66523814049E-01  0.11536679508E+01  0.11803980536E+01  0.00000000000E+00 0. -1.
         11    1    3    3    0    0 -0.31130345900E+02 -0.11414204450E+02  0.23003975166E+02  0.40355487517E+02  0.51100000000E-03 0. -1.
        -11    1    3    3    0    0 -0.11770531403E+01  0.96600714793E+01 -0.45791819389E+00  0.97422853794E+01  0.51100000000E-03 0.  1.
        -12    1    3    3    0    0  0.32066641057E+02  0.16876091568E+01 -0.23699724923E+02  0.39909829049E+02  0.00000000000E+00 0.  1.
</event>
<event>
 7    1  0.3276565E-015  0.9000781E+02  0.7816164E-02  0.1186339E+00
        -11   -1    0    0    0    0  0.00000000000E+00  0.00000000000E+00  0.45593999997E+02  0.45594000000E+02  0.51100000000E-03 0.  1.
         11   -1    0    0    0    0 -0.00000000000E+00 -0.00000000000E+00 -0.45593999997E+02  0.45594000000E+02  0.51100000000E-03 0. -1.
    9900012    2    1    2    0    0  0.43284847212E+00  0.69744454166E+00 -0.84797835026E+00  0.90007807655E+02  0.90000069916E+02 0.  0.
         12    1    1    2    0    0 -0.43284847212E+00 -0.69744454166E+00  0.84797835026E+00  0.11801923449E+01  0.00000000000E+00 0. -1.
         11    1    3    3    0    0  0.33923206888E+02 -0.15669228311E+02  0.12746192308E+02  0.39481313302E+02  0.51100000000E-03 0. -1.
        -11    1    3    3    0    0  0.47267711245E+01  0.82636021989E+01 -0.15499525159E+01  0.96453014276E+01  0.51100000000E-03 0.  1.
        -12    1    3    3    0    0 -0.38217129541E+02  0.81030706541E+01 -0.12044218142E+02  0.40881192925E+02  0.00000000000E+00 0.  1.
</event>
<event>
 7    1  0.3276565E-015  0.9000769E+02  0.7816164E-02  0.1186339E+00
        -11   -1    0    0    0    0  0.00000000000E+00  0.00000000000E+00  0.45593999997E+02  0.45594000000E+02  0.51100000000E-03 0.  1.
         11   -1    0    0    0    0 -0.00000000000E+00 -0.00000000000E+00 -0.45593999997E+02  0.45594000000E+02  0.51100000000E-03 0. -1.
    9900012    2    1    2    0    0  0.99935118212E+00  0.49098382051E+00  0.39162817905E+00  0.90007686259E+02  0.89999946917E+02 0.  0.
         12    1    1    2    0    0 -0.99935118212E+00 -0.49098382051E+00 -0.39162817905E+00  0.11803137413E+01  0.00000000000E+00 0. -1.
         11    1    3    3    0    0 -0.17122237553E+02  0.71354519783E+01  0.15130836041E+02  0.23938001030E+02  0.51100000000E-03 0. -1.
        -11    1    3    3    0    0 -0.50624879816E+01  0.14439076525E+02 -0.28105861727E+02  0.32000862162E+02  0.51100000000E-03 0.  1.
        -12    1    3    3    0    0  0.23184076717E+02 -0.21083544683E+02  0.13366653865E+02  0.34068823067E+02  0.00000000000E+00 0.  1.
</event>
<event>
 7    1  0.3276565E-015  0.9000764E+02  0.7816164E-02  0.1186339E+00
        -11   -1    0    0    0    0  0.00000000000E+00  0.00000000000E+00  0.45593999997E+02  0.45594000000E+02  0.51100000000E-03 0.  1.
         11   -1    0    0    0    0 -0.00000000000E+00 -0.00000000000E+00 -0.45593999997E+02  0.45594000000E+02  0.51100000000E-03 0. -1.
    9900012    2    1    2    0    0 -0.88896689403E-01 -0.85980927668E+00  0.80378401645E+00  0.90007642699E+02  0.89999902782E+02 0.  0.
         12    1    1    2    0    0  0.88896689403E-01  0.85980927668E+00 -0.80378401645E+00  0.11803573013E+01  0.00000000000E+00 0. -1.
         11    1    3    3    0    0 -0.71405622486E+01 -0.63795170560E+01 -0.67345144330E-02  0.95752761166E+01  0.51100000000E-03 0. -1.
        -11    1    3    3    0    0  0.16303564114E+02  0.17871725376E+02  0.35215894693E+02  0.42724278929E+02  0.51100000000E-03 0.  1.
         12    1    3    3    0    0 -0.92518985553E+01 -0.12352017597E+02 -0.34405376162E+02  0.37708087653E+02  0.00000000000E+00 0. -1.
</event>
<event>
 7    1  0.3276565E-015  0.9000777E+02  0.7816164E-02  0.1186339E+00
        -11   -1    0    0    0    0  0.00000000000E+00  0.00000000000E+00  0.45593999997E+02  0.45594000000E+02  0.51100000000E-03 0. -1.
         11   -1    0    0    0    0 -0.00000000000E+00 -0.00000000000E+00 -0.45593999997E+02  0.45594000000E+02  0.51100000000E-03 0.  1.
    9900012    2    1    2    0    0  0.42074331722E+00  0.70223690196E-01 -0.11004488893E+01  0.90007769487E+02  0.90000031244E+02 0.  0.
         12    1    1    2    0    0 -0.42074331722E+00 -0.70223690196E-01  0.11004488893E+01  0.11802305129E+01  0.00000000000E+00 0. -1.
         11    1    3    3    0    0 -0.24993125942E+01  0.10597506059E+02  0.29147394329E+02  0.31114695798E+02  0.51100000000E-03 0. -1.
        -11    1    3    3    0    0 -0.15583320441E+02 -0.68362178283E+01  0.59876476705E+01  0.18039558616E+02  0.51100000000E-03 0.  1.
        -12    1    3    3    0    0  0.18503376353E+02 -0.36910645408E+01 -0.36235490889E+02  0.40853515074E+02  0.00000000000E+00 0.  1.
</event>
<event>
 7    1  0.3276565E-015  0.9000772E+02  0.7816164E-02  0.1186339E+00
        -11   -1    0    0    0    0  0.00000000000E+00  0.00000000000E+00  0.45593999997E+02  0.45594000000E+02  0.51100000000E-03 0. -1.
         11   -1    0    0    0    0 -0.00000000000E+00 -0.00000000000E+00 -0.45593999997E+02  0.45594000000E+02  0.51100000000E-03 0.  1.
    9900012    2    1    2    0    0 -0.69378981523E+00 -0.94461859558E+00 -0.13929874123E+00  0.90007723448E+02  0.89999984598E+02 0.  0.
         12    1    1    2    0    0  0.69378981523E+00  0.94461859558E+00  0.13929874123E+00  0.11802765516E+01  0.00000000000E+00 0. -1.
         11    1    3    3    0    0 -0.63609543773E+01  0.88975863308E+00  0.56951227381E+01  0.85841618274E+01  0.51100000000E-03 0. -1.
        -11    1    3    3    0    0 -0.13523083317E+02 -0.24396148711E+02 -0.31611446047E+02  0.42158384407E+02  0.51100000000E-03 0.  1.
         12    1    3    3    0    0  0.19190247879E+02  0.22561771482E+02  0.25777024568E+02  0.39265177214E+02  0.00000000000E+00 0. -1.
</event>
<event>
 7    1  0.3276565E-015  0.9000746E+02  0.7816164E-02  0.1186340E+00
        -11   -1    0    0    0    0  0.00000000000E+00  0.00000000000E+00  0.45593999997E+02  0.45594000000E+02  0.51100000000E-03 0.  1.
         11   -1    0    0    0    0 -0.00000000000E+00 -0.00000000000E+00 -0.45593999997E+02  0.45594000000E+02  0.51100000000E-03 0. -1.
    9900012    2    1    2    0    0  0.18512786050E+00 -0.10245056822E+01 -0.55658573169E+00  0.90007461185E+02  0.89999718872E+02 0.  0.
         12    1    1    2    0    0 -0.18512786050E+00  0.10245056822E+01  0.55658573169E+00  0.11805388152E+01  0.00000000000E+00 0. -1.
         11    1    3    3    0    0 -0.33944537368E+01  0.66830812901E+01  0.56638974238E+01  0.93949787647E+01  0.51100000000E-03 0. -1.
        -11    1    3    3    0    0 -0.47405206161E-01 -0.20319072839E+02  0.33278128229E+02  0.38991034700E+02  0.51100000000E-03 0.  1.
         12    1    3    3    0    0  0.36269868034E+01  0.12611485867E+02 -0.39498611384E+02  0.41621447720E+02  0.00000000000E+00 0. -1.
</event>
<event>
 7    1  0.3276565E-015  0.9000774E+02  0.7816164E-02  0.1186339E+00
        -11   -1    0    0    0    0  0.00000000000E+00  0.00000000000E+00  0.45593999997E+02  0.45594000000E+02  0.51100000000E-03 0.  1.
         11   -1    0    0    0    0 -0.00000000000E+00 -0.00000000000E+00 -0.45593999997E+02  0.45594000000E+02  0.51100000000E-03 0. -1.
    9900012    2    1    2    0    0  0.10846403060E+00 -0.99607363064E+00  0.62375946741E+00  0.90007744521E+02  0.90000005948E+02 0.  0.
         12    1    1    2    0    0 -0.10846403060E+00  0.99607363064E+00 -0.62375946741E+00  0.11802554795E+01  0.00000000000E+00 0. -1.
         11    1    3    3    0    0  0.21667067846E+02  0.29347079902E+00 -0.27694065038E+02  0.35164032657E+02  0.51100000000E-03 0. -1.
        -11    1    3    3    0    0  0.98425231254E+01 -0.38367142040E+01 -0.24102742321E+01  0.10835361530E+02  0.51100000000E-03 0.  1.
        -12    1    3    3    0    0 -0.31401126941E+02  0.25471697744E+01  0.30728098737E+02  0.44008350333E+02  0.00000000000E+00 0.  1.
</event>
<event>
 7    1  0.3276565E-015  0.9000774E+02  0.7816164E-02  0.1186339E+00
        -11   -1    0    0    0    0  0.00000000000E+00  0.00000000000E+00  0.45593999997E+02  0.45594000000E+02  0.51100000000E-03 0.  1.
         11   -1    0    0    0    0 -0.00000000000E+00 -0.00000000000E+00 -0.45593999997E+02  0.45594000000E+02  0.51100000000E-03 0. -1.
    9900012    2    1    2    0    0 -0.79421796454E+00 -0.84764969293E+00  0.20909716565E+00  0.90007739943E+02  0.90000001310E+02 0.  0.
         12    1    1    2    0    0  0.79421796454E+00  0.84764969293E+00 -0.20909716565E+00  0.11802600569E+01  0.00000000000E+00 0. -1.
         11    1    3    3    0    0 -0.11070569101E+02  0.27922802317E+01 -0.10288319685E+01  0.11463543283E+02  0.51100000000E-03 0. -1.
        -11    1    3    3    0    0 -0.23198208316E+02 -0.44976688277E+01  0.27303858631E+02  0.36109369842E+02  0.51100000000E-03 0.  1.
         12    1    3    3    0    0  0.33474559453E+02  0.85773890316E+00 -0.26065929497E+02  0.42434826819E+02  0.00000000000E+00 0. -1.
</event>
<event>
 7    1  0.3276565E-015  0.9000781E+02  0.7816164E-02  0.1186339E+00
        -11   -1    0    0    0    0  0.00000000000E+00  0.00000000000E+00  0.45593999997E+02  0.45594000000E+02  0.51100000000E-03 0. -1.
         11   -1    0    0    0    0 -0.00000000000E+00 -0.00000000000E+00 -0.45593999997E+02  0.45594000000E+02  0.51100000000E-03 0.  1.
    9900012    2    1    2    0    0 -0.11532381609E+01  0.10968045267E+00  0.22552068365E+00  0.90007810339E+02  0.90000072635E+02 0.  0.
         12    1    1    2    0    0  0.11532381609E+01 -0.10968045267E+00 -0.22552068365E+00  0.11801896611E+01  0.00000000000E+00 0. -1.
         11    1    3    3    0    0  0.36758792750E+02  0.49493596506E+01  0.14822784551E+02  0.39942708314E+02  0.51100000000E-03 0. -1.
        -11    1    3    3    0    0 -0.54636335076E+01 -0.18713782820E+01  0.83922832806E+01  0.10187431801E+02  0.51100000000E-03 0.  1.
        -12    1    3    3    0    0 -0.32448397403E+02 -0.29683009160E+01 -0.22989547148E+02  0.39877670223E+02  0.00000000000E+00 0.  1.
</event>
<event>
 7    1  0.3276565E-015  0.9000767E+02  0.7816164E-02  0.1186339E+00
        -11   -1    0    0    0    0  0.00000000000E+00  0.00000000000E+00  0.45593999997E+02  0.45594000000E+02  0.51100000000E-03 0. -1.
         11   -1    0    0    0    0 -0.00000000000E+00 -0.00000000000E+00 -0.45593999997E+02  0.45594000000E+02  0.51100000000E-03 0.  1.
    9900012    2    1    2    0    0  0.49505026188E+00 -0.76504800700E+00 -0.75020279790E+00  0.90007670617E+02  0.89999931069E+02 0.  0.
         12    1    1    2    0    0 -0.49505026188E+00  0.76504800700E+00  0.75020279790E+00  0.11803293832E+01  0.00000000000E+00 0. -1.
         11    1    3    3    0    0 -0.10880514401E+01 -0.79409471881E+01  0.11462650310E+01  0.80966920383E+01  0.51100000000E-03 0. -1.
        -11    1    3    3    0    0 -0.23922241150E+02 -0.28359644306E+02 -0.73758947908E+01  0.37827858399E+02  0.51100000000E-03 0.  1.
         12    1    3    3    0    0  0.25505342852E+02  0.35535543487E+02  0.54794269619E+01  0.44083120180E+02  0.00000000000E+00 0. -1.
</event>
<event>
 7    1  0.3276565E-015  0.9000779E+02  0.7816164E-02  0.1186339E+00
        -11   -1    0    0    0    0  0.00000000000E+00  0.00000000000E+00  0.45593999997E+02  0.45594000000E+02  0.51100000000E-03 0.  1.
         11   -1    0    0    0    0 -0.00000000000E+00 -0.00000000000E+00 -0.45593999997E+02  0.45594000000E+02  0.51100000000E-03 0. -1.
    9900012    2    1    2    0    0 -0.47743219502E+00  0.40808857114E+00  0.99920756886E+00  0.90007790888E+02  0.90000052928E+02 0.  0.
         12    1    1    2    0    0  0.47743219502E+00 -0.40808857114E+00 -0.99920756886E+00  0.11802091122E+01  0.00000000000E+00 0. -1.
         11    1    3    3    0    0  0.76130743669E+01  0.46482861225E+01 -0.81441626636E+01  0.12078611300E+02  0.51100000000E-03 0. -1.
        -11    1    3    3    0    0  0.13025715058E+01 -0.27994372815E+02  0.32780333173E+02  0.43126927145E+02  0.51100000000E-03 0.  1.
         12    1    3    3    0    0 -0.93930780677E+01  0.23754175263E+02 -0.23636962940E+02  0.34802252442E+02  0.00000000000E+00 0. -1.
</event>
<event>
 7    1  0.3276565E-015  0.9000776E+02  0.7816164E-02  0.1186339E+00
        -11   -1    0    0    0    0  0.00000000000E+00  0.00000000000E+00  0.45593999997E+02  0.45594000000E+02  0.51100000000E-03 0.  1.
         11   -1    0    0    0    0 -0.00000000000E+00 -0.00000000000E+00 -0.45593999997E+02  0.45594000000E+02  0.51100000000E-03 0. -1.
    9900012    2    1    2    0    0  0.36196561948E-01 -0.31285138415E-01  0.11792668564E+01  0.90007763045E+02  0.90000024717E+02 0.  0.
         12    1    1    2    0    0 -0.36196561948E-01  0.31285138415E-01 -0.11792668564E+01  0.11802369549E+01  0.00000000000E+00 0. -1.
         11    1    3    3    0    0 -0.82151499702E+01  0.48491395859E+01  0.40095470142E+01  0.10347913378E+02  0.51100000000E-03 0. -1.
        -11    1    3    3    0    0 -0.30039435768E+02 -0.22294789909E+02  0.98979605084E+00  0.37421986249E+02  0.51100000000E-03 0.  1.
         12    1    3    3    0    0  0.38290782300E+02  0.17414365185E+02 -0.38200762086E+01  0.42237863418E+02  0.00000000000E+00 0. -1.
</event>
<event>
 7    1  0.3276565E-015  0.9000789E+02  0.7816164E-02  0.1186339E+00
        -11   -1    0    0    0    0  0.00000000000E+00  0.00000000000E+00  0.45593999997E+02  0.45594000000E+02  0.51100000000E-03 0.  1.
         11   -1    0    0    0    0 -0.00000000000E+00 -0.00000000000E+00 -0.45593999997E+02  0.45594000000E+02  0.51100000000E-03 0. -1.
    9900012    2    1    2    0    0  0.11792315968E+01 -0.29919317366E-01 -0.34204211294E-01  0.90007893118E+02  0.90000156507E+02 0.  0.
         12    1    1    2    0    0 -0.11792315968E+01  0.29919317366E-01  0.34204211294E-01  0.11801068818E+01  0.00000000000E+00 0. -1.
         11    1    3    3    0    0  0.14615199574E+02 -0.61724564067E+00 -0.12586167277E+01  0.14682273908E+02  0.51100000000E-03 0. -1.
        -11    1    3    3    0    0  0.24601613113E+02  0.21056235691E+01 -0.19969013313E+02  0.31755857906E+02  0.51100000000E-03 0.  1.
         12    1    3    3    0    0 -0.38037581090E+02 -0.15182972458E+01  0.21193425830E+02  0.43569761304E+02  0.00000000000E+00 0. -1.
</event>
<event>
 7    1  0.3276565E-015  0.9000787E+02  0.7816164E-02  0.1186339E+00
        -11   -1    0    0    0    0  0.00000000000E+00  0.00000000000E+00  0.45593999997E+02  0.45594000000E+02  0.51100000000E-03 0.  1.
         11   -1    0    0    0    0 -0.00000000000E+00 -0.00000000000E+00 -0.45593999997E+02  0.45594000000E+02  0.51100000000E-03 0. -1.
    9900012    2    1    2    0    0  0.21973211877E+00 -0.22017088058E+00  0.11383976541E+01  0.90007870075E+02  0.90000133160E+02 0.  0.
         12    1    1    2    0    0 -0.21973211877E+00  0.22017088058E+00 -0.11383976541E+01  0.11801299249E+01  0.00000000000E+00 0. -1.
         11    1    3    3    0    0  0.10492862926E+02 -0.36948565392E+02 -0.13681980710E+02  0.40773683343E+02  0.51100000000E-03 0. -1.
        -11    1    3    3    0    0 -0.60245634160E+01 -0.19500228233E+01  0.71919993601E+01  0.95824218453E+01  0.51100000000E-03 0.  1.
        -12    1    3    3    0    0 -0.42485673912E+01  0.38678417335E+02  0.76283790041E+01  0.39651764887E+02  0.00000000000E+00 0.  1.
</event>
<event>
 7    1  0.3276565E-015  0.9000779E+02  0.7816164E-02  0.1186339E+00
        -11   -1    0    0    0    0  0.00000000000E+00  0.00000000000E+00  0.45593999997E+02  0.45594000000E+02  0.51100000000E-03 0.  1.
         11   -1    0    0    0    0 -0.00000000000E+00 -0.00000000000E+00 -0.45593999997E+02  0.45594000000E+02  0.51100000000E-03 0. -1.
    9900012    2    1    2    0    0  0.11101704166E+01  0.35025295399E+00 -0.19427861909E+00  0.90007788296E+02  0.90000050301E+02 0.  0.
         12    1    1    2    0    0 -0.11101704166E+01 -0.35025295399E+00  0.19427861909E+00  0.11802117045E+01  0.00000000000E+00 0. -1.
         11    1    3    3    0    0  0.21997658788E+02 -0.21166757891E+02 -0.27737932581E+02  0.41247079120E+02  0.51100000000E-03 0. -1.
        -11    1    3    3    0    0  0.40819662514E-01 -0.47681485936E+01  0.94847052178E+01  0.10615862687E+02  0.51100000000E-03 0.  1.
        -12    1    3    3    0    0 -0.20928308034E+02  0.26285159439E+02  0.18058948744E+02  0.38144846489E+02  0.00000000000E+00 0.  1.
</event>
<event>
 7    1  0.3276565E-015  0.9000782E+02  0.7816164E-02  0.1186339E+00
        -11   -1    0    0    0    0  0.00000000000E+00  0.00000000000E+00  0.45593999997E+02  0.45594000000E+02  0.51100000000E-03 0. -1.
         11   -1    0    0    0    0 -0.00000000000E+00 -0.00000000000E+00 -0.45593999997E+02  0.45594000000E+02  0.51100000000E-03 0.  1.
    9900012    2    1    2    0    0  0.49347509782E+00  0.76289702842E+00 -0.75319118723E+00  0.90007819288E+02  0.90000081703E+02 0.  0.
         12    1    1    2    0    0 -0.49347509782E+00 -0.76289702842E+00  0.75319118723E+00  0.11801807119E+01  0.00000000000E+00 0. -1.
         11    1    3    3    0    0 -0.19165295535E+00 -0.38199589960E+01  0.38737934653E+01  0.54438124195E+01  0.51100000000E-03 0. -1.
        -11    1    3    3    0    0  0.39159657600E+01 -0.39744850508E+02 -0.67002828494E+00  0.39942920122E+02  0.51100000000E-03 0.  1.
         12    1    3    3    0    0 -0.32308377069E+01  0.44327706532E+02 -0.39569563676E+01  0.44621086746E+02  0.00000000000E+00 0. -1.
</event>
<event>
 7    1  0.3276565E-015  0.9000786E+02  0.7816164E-02  0.1186339E+00
        -11   -1    0    0    0    0  0.00000000000E+00  0.00000000000E+00  0.45593999997E+02  0.45594000000E+02  0.51100000000E-03 0.  1.
         11   -1    0    0    0    0 -0.00000000000E+00 -0.00000000000E+00 -0.45593999997E+02  0.45594000000E+02  0.51100000000E-03 0. -1.
    9900012    2    1    2    0    0  0.43517677556E+00  0.74843233331E+00  0.80199658537E+00  0.90007860895E+02  0.90000123859E+02 0.  0.
         12    1    1    2    0    0 -0.43517677556E+00 -0.74843233331E+00 -0.80199658537E+00  0.11801391047E+01  0.00000000000E+00 0. -1.
         11    1    3    3    0    0 -0.64419216490E+01 -0.56031073907E+01 -0.31737772923E+01  0.91085690164E+01  0.51100000000E-03 0. -1.
        -11    1    3    3    0    0 -0.65244914535E+01 -0.26329172297E+02 -0.23704511086E+02  0.36023577677E+02  0.51100000000E-03 0.  1.
         12    1    3    3    0    0  0.13401589878E+02  0.32680712021E+02  0.27680284964E+02  0.44875714202E+02  0.00000000000E+00 0. -1.
</event>
<event>
 7    1  0.3276565E-015  0.9000785E+02  0.7816164E-02  0.1186339E+00
        -11   -1    0    0    0    0  0.00000000000E+00  0.00000000000E+00  0.45593999997E+02  0.45594000000E+02  0.51100000000E-03 0.  1.
         11   -1    0    0    0    0 -0.00000000000E+00 -0.00000000000E+00 -0.45593999997E+02  0.45594000000E+02  0.51100000000E-03 0. -1.
    9900012    2    1    2    0    0  0.67110383332E+00  0.80482484907E+00  0.54280464611E+00  0.90007847350E+02  0.90000110135E+02 0.  0.
         12    1    1    2    0    0 -0.67110383332E+00 -0.80482484907E+00 -0.54280464611E+00  0.11801526497E+01  0.00000000000E+00 0. -1.
         11    1    3    3    0    0  0.62500801388E+01 -0.12209314002E+02 -0.45448407148E+01  0.14449443848E+02  0.51100000000E-03 0. -1.
        -11    1    3    3    0    0  0.26921206599E+02  0.28594332641E+02  0.10037240292E+01  0.39286062238E+02  0.51100000000E-03 0.  1.
         12    1    3    3    0    0 -0.32500182905E+02 -0.15580193791E+02  0.40839213317E+01  0.36272341265E+02  0.00000000000E+00 0. -1.
</event>
<event>
 7    1  0.3276565E-015  0.9000780E+02  0.7816164E-02  0.1186339E+00
        -11   -1    0    0    0    0  0.00000000000E+00  0.00000000000E+00  0.45593999997E+02  0.45594000000E+02  0.51100000000E-03 0.  1.
         11   -1    0    0    0    0 -0.00000000000E+00 -0.00000000000E+00 -0.45593999997E+02  0.45594000000E+02  0.51100000000E-03 0. -1.
    9900012    2    1    2    0    0 -0.73839914640E+00  0.18172130646E-01  0.92048993461E+00  0.90007802879E+02  0.90000065077E+02 0.  0.
         12    1    1    2    0    0  0.73839914640E+00 -0.18172130646E-01 -0.92048993461E+00  0.11801971214E+01  0.00000000000E+00 0. -1.
         11    1    3    3    0    0  0.25389459097E+01  0.94128110711E+01 -0.26317280383E+01  0.10098180595E+02  0.51100000000E-03 0. -1.
        -11    1    3    3    0    0  0.42332148356E+01 -0.32831613785E+02  0.29360428336E+02  0.44247821686E+02  0.51100000000E-03 0.  1.
         12    1    3    3    0    0 -0.75105598917E+01  0.23436974844E+02 -0.25808210364E+02  0.35661800598E+02  0.00000000000E+00 0. -1.
</event>
<event>
 7    1  0.3276565E-015  0.9000772E+02  0.7816164E-02  0.1186339E+00
        -11   -1    0    0    0    0  0.00000000000E+00  0.00000000000E+00  0.45593999997E+02  0.45594000000E+02  0.51100000000E-03 0.  1.
         11   -1    0    0    0    0 -0.00000000000E+00 -0.00000000000E+00 -0.45593999997E+02  0.45594000000E+02  0.51100000000E-03 0. -1.
    9900012    2    1    2    0    0  0.92378649482E-01 -0.11713574139E+01 -0.11154653604E+00  0.90007722645E+02  0.89999983783E+02 0.  0.
         12    1    1    2    0    0 -0.92378649482E-01  0.11713574139E+01  0.11154653604E+00  0.11802773554E+01  0.00000000000E+00 0. -1.
         11    1    3    3    0    0 -0.65492148320E+01 -0.91856232017E+01  0.91167744701E+00  0.11318084845E+02  0.51100000000E-03 0. -1.
        -11    1    3    3    0    0 -0.35089559484E+02 -0.37733017200E+01  0.56866615688E+00  0.35296435685E+02  0.51100000000E-03 0.  1.
         12    1    3    3    0    0  0.41731152965E+02  0.11787567508E+02 -0.15918901399E+01  0.43393202115E+02  0.00000000000E+00 0. -1.
</event>
<event>
 7    1  0.3276565E-015  0.9000767E+02  0.7816164E-02  0.1186339E+00
        -11   -1    0    0    0    0  0.00000000000E+00  0.00000000000E+00  0.45593999997E+02  0.45594000000E+02  0.51100000000E-03 0.  1.
         11   -1    0    0    0    0 -0.00000000000E+00 -0.00000000000E+00 -0.45593999997E+02  0.45594000000E+02  0.51100000000E-03 0. -1.
    9900012    2    1    2    0    0 -0.60246869709E+00  0.75321871432E+00 -0.68034315945E+00  0.90007672174E+02  0.89999932647E+02 0.  0.
         12    1    1    2    0    0  0.60246869709E+00 -0.75321871432E+00  0.68034315945E+00  0.11803278262E+01  0.00000000000E+00 0. -1.
         11    1    3    3    0    0 -0.68907707181E+01 -0.15138387679E+01 -0.60903514312E+01  0.93202365701E+01  0.51100000000E-03 0. -1.
        -11    1    3    3    0    0 -0.17993516488E+02 -0.55813547611E+01 -0.30969869642E+02  0.36249841138E+02  0.51100000000E-03 0.  1.
         12    1    3    3    0    0  0.24281818510E+02  0.78484122433E+01  0.36379877914E+02  0.44437594466E+02  0.00000000000E+00 0. -1.
</event>
<event>
 7    1  0.3276565E-015  0.9000772E+02  0.7816164E-02  0.1186339E+00
        -11   -1    0    0    0    0  0.00000000000E+00  0.00000000000E+00  0.45593999997E+02  0.45594000000E+02  0.51100000000E-03 0.  1.
         11   -1    0    0    0    0 -0.00000000000E+00 -0.00000000000E+00 -0.45593999997E+02  0.45594000000E+02  0.51100000000E-03 0. -1.
    9900012    2    1    2    0    0  0.33796580660E+00 -0.32929562428E+00 -0.10818495595E+01  0.90007722505E+02  0.89999983643E+02 0.  0.
         12    1    1    2    0    0 -0.33796580660E+00  0.32929562428E+00  0.10818495595E+01  0.11802774945E+01  0.00000000000E+00 0. -1.
         11    1    3    3    0    0  0.29850933100E+02  0.42670861520E+01 -0.23051117163E+02  0.37955766806E+02  0.51100000000E-03 0. -1.
        -11    1    3    3    0    0  0.50691532970E+01  0.77699520764E+01  0.41818572388E-01  0.92774037032E+01  0.51100000000E-03 0.  1.
        -12    1    3    3    0    0 -0.34582120590E+02 -0.12366333853E+02  0.21927449031E+02  0.42774551996E+02  0.00000000000E+00 0.  1.
</event>
<event>
 7    1  0.3276565E-015  0.9000770E+02  0.7816164E-02  0.1186339E+00
        -11   -1    0    0    0    0  0.00000000000E+00  0.00000000000E+00  0.45593999997E+02  0.45594000000E+02  0.51100000000E-03 0.  1.
         11   -1    0    0    0    0 -0.00000000000E+00 -0.00000000000E+00 -0.45593999997E+02  0.45594000000E+02  0.51100000000E-03 0. -1.
    9900012    2    1    2    0    0 -0.31705942038E+00  0.97109266837E-01  0.11327669590E+01  0.90007695857E+02  0.89999956643E+02 0.  0.
         12    1    1    2    0    0  0.31705942038E+00 -0.97109266837E-01 -0.11327669590E+01  0.11803041427E+01  0.00000000000E+00 0. -1.
         11    1    3    3    0    0  0.89563361440E+00  0.36947013825E+01  0.77725551940E+01  0.86524905306E+01  0.51100000000E-03 0. -1.
        -11    1    3    3    0    0  0.38539362441E+02  0.79607662691E+01 -0.69153801078E+01  0.39955959996E+02  0.51100000000E-03 0.  1.
         12    1    3    3    0    0 -0.39752055475E+02 -0.11558358385E+02  0.27559187285E+00  0.41399245331E+02  0.00000000000E+00 0. -1.
</event>
<event>
 7    1  0.3276565E-015  0.9000773E+02  0.7816164E-02  0.1186339E+00
        -11   -1    0    0    0    0  0.00000000000E+00  0.00000000000E+00  0.45593999997E+02  0.45594000000E+02  0.51100000000E-03 0. -1.
         11   -1    0    0    0    0 -0.00000000000E+00 -0.00000000000E+00 -0.45593999997E+02  0.45594000000E+02  0.51100000000E-03 0.  1.
    9900012    2    1    2    0    0 -0.75646299310E+00 -0.29502209696E+00 -0.85659291826E+00  0.90007734892E+02  0.89999996193E+02 0.  0.
         12    1    1    2    0    0  0.75646299310E+00  0.29502209696E+00  0.85659291826E+00  0.11802651080E+01  0.00000000000E+00 0. -1.
         11    1    3    3    0    0 -0.70445460075E+01 -0.14850396495E+01 -0.79290866546E+01  0.10709873326E+02  0.51100000000E-03 0. -1.
        -11    1    3    3    0    0  0.55806239074E+01  0.25188752731E+01 -0.35839867986E+02  0.36359101107E+02  0.51100000000E-03 0.  1.
         12    1    3    3    0    0  0.70745910698E+00 -0.13288577206E+01  0.42912361722E+02  0.42938760459E+02  0.00000000000E+00 0. -1.
</event>
<event>
 7    1  0.3276565E-015  0.9000780E+02  0.7816164E-02  0.1186339E+00
        -11   -1    0    0    0    0  0.00000000000E+00  0.00000000000E+00  0.45593999997E+02  0.45594000000E+02  0.51100000000E-03 0. -1.
         11   -1    0    0    0    0 -0.00000000000E+00 -0.00000000000E+00 -0.45593999997E+02  0.45594000000E+02  0.51100000000E-03 0.  1.
    9900012    2    1    2    0    0 -0.21636095971E-01  0.36408794751E-01 -0.11794390040E+01  0.90007800828E+02  0.90000062999E+02 0.  0.
         12    1    1    2    0    0  0.21636095971E-01 -0.36408794751E-01  0.11794390040E+01  0.11801991719E+01  0.00000000000E+00 0. -1.
         11    1    3    3    0    0 -0.17500583172E+01  0.46509034993E+01 -0.73199844186E+01  0.88473600369E+01  0.51100000000E-03 0. -1.
        -11    1    3    3    0    0 -0.21096230637E+01  0.37929520294E+02 -0.11316755621E+00  0.37988311707E+02  0.51100000000E-03 0.  1.
         12    1    3    3    0    0  0.38380452850E+01 -0.42544014998E+02  0.62537129707E+01  0.43172129085E+02  0.00000000000E+00 0. -1.
</event>
<event>
 7    1  0.3276565E-015  0.9000790E+02  0.7816164E-02  0.1186339E+00
        -11   -1    0    0    0    0  0.00000000000E+00  0.00000000000E+00  0.45593999997E+02  0.45594000000E+02  0.51100000000E-03 0.  1.
         11   -1    0    0    0    0 -0.00000000000E+00 -0.00000000000E+00 -0.45593999997E+02  0.45594000000E+02  0.51100000000E-03 0. -1.
    9900012    2    1    2    0    0  0.59193626740E+00 -0.11699639491E+00 -0.10141742012E+01  0.90007904236E+02  0.90000167772E+02 0.  0.
         12    1    1    2    0    0 -0.59193626740E+00  0.11699639491E+00  0.10141742012E+01  0.11800957637E+01  0.00000000000E+00 0. -1.
         11    1    3    3    0    0  0.40939916168E+01  0.74176750651E+01 -0.43593517465E+01  0.95282012280E+01  0.51100000000E-03 0. -1.
        -11    1    3    3    0    0  0.72502445434E+01  0.33299735201E+02  0.14137737917E+02  0.36895989539E+02  0.51100000000E-03 0.  1.
         12    1    3    3    0    0 -0.10752299893E+02 -0.40834406662E+02 -0.10792560371E+02  0.43583713469E+02  0.00000000000E+00 0. -1.
</event>
<event>
 7    1  0.3276565E-015  0.9000775E+02  0.7816164E-02  0.1186339E+00
        -11   -1    0    0    0    0  0.00000000000E+00  0.00000000000E+00  0.45593999997E+02  0.45594000000E+02  0.51100000000E-03 0.  1.
         11   -1    0    0    0    0 -0.00000000000E+00 -0.00000000000E+00 -0.45593999997E+02  0.45594000000E+02  0.51100000000E-03 0. -1.
    9900012    2    1    2    0    0 -0.95549036304E+00  0.29173986924E+00 -0.62842803478E+00  0.90007747578E+02  0.90000009046E+02 0.  0.
         12    1    1    2    0    0  0.95549036304E+00 -0.29173986924E+00  0.62842803478E+00  0.11802524222E+01  0.00000000000E+00 0. -1.
         11    1    3    3    0    0  0.31773031301E+02  0.17621041753E+01 -0.21708011146E+02  0.38521010856E+02  0.51100000000E-03 0. -1.
        -11    1    3    3    0    0 -0.60215365741E-01  0.92303152989E+01 -0.27819746936E+01  0.96406291218E+01  0.51100000000E-03 0.  1.
        -12    1    3    3    0    0 -0.32668306299E+02 -0.10700679605E+02  0.23861557805E+02  0.41846107600E+02  0.00000000000E+00 0.  1.
</event>
<event>
 7    1  0.3276565E-015  0.9000764E+02  0.7816164E-02  0.1186339E+00
        -11   -1    0    0    0    0  0.00000000000E+00  0.00000000000E+00  0.45593999997E+02  0.45594000000E+02  0.51100000000E-03 0. -1.
         11   -1    0    0    0    0 -0.00000000000E+00 -0.00000000000E+00 -0.45593999997E+02  0.45594000000E+02  0.51100000000E-03 0.  1.
    9900012    2    1    2    0    0 -0.44474226006E+00 -0.82178633720E+00 -0.72118822946E+00  0.90007643730E+02  0.89999903827E+02 0.  0.
         12    1    1    2    0    0  0.44474226006E+00  0.82178633720E+00  0.72118822946E+00  0.11803562700E+01  0.00000000000E+00 0. -1.
         11    1    3    3    0    0  0.29187781213E+02  0.10231369718E+02  0.24484145053E+02  0.39447190745E+02  0.51100000000E-03 0. -1.
        -11    1    3    3    0    0  0.14771176227E+01 -0.77183247616E+01  0.30237542796E+01  0.84200655461E+01  0.51100000000E-03 0.  1.
        -12    1    3    3    0    0 -0.31109641096E+02 -0.33348312940E+01 -0.28229087562E+02  0.42140387438E+02  0.00000000000E+00 0.  1.
</event>
<event>
 7    1  0.3276565E-015  0.9000772E+02  0.7816164E-02  0.1186339E+00
        -11   -1    0    0    0    0  0.00000000000E+00  0.00000000000E+00  0.45593999997E+02  0.45594000000E+02  0.51100000000E-03 0.  1.
         11   -1    0    0    0    0 -0.00000000000E+00 -0.00000000000E+00 -0.45593999997E+02  0.45594000000E+02  0.51100000000E-03 0. -1.
    9900012    2    1    2    0    0  0.56273947180E+00 -0.76727015468E+00  0.69834171233E+00  0.90007720224E+02  0.89999981331E+02 0.  0.
         12    1    1    2    0    0 -0.56273947180E+00  0.76727015468E+00 -0.69834171233E+00  0.11802797764E+01  0.00000000000E+00 0. -1.
         11    1    3    3    0    0 -0.18190061118E+02  0.15037170419E+02 -0.35050860048E+02  0.42255858861E+02  0.51100000000E-03 0. -1.
        -11    1    3    3    0    0 -0.16462322805E+01  0.33116188801E+01  0.39437570095E+01  0.54064886885E+01  0.51100000000E-03 0.  1.
        -12    1    3    3    0    0  0.20399032871E+02 -0.19116059453E+02  0.31805444751E+02  0.42345372674E+02  0.00000000000E+00 0.  1.
</event>
<event>
 7    1  0.3276565E-015  0.9000774E+02  0.7816164E-02  0.1186339E+00
        -11   -1    0    0    0    0  0.00000000000E+00  0.00000000000E+00  0.45593999997E+02  0.45594000000E+02  0.51100000000E-03 0.  1.
         11   -1    0    0    0    0 -0.00000000000E+00 -0.00000000000E+00 -0.45593999997E+02  0.45594000000E+02  0.51100000000E-03 0. -1.
    9900012    2    1    2    0    0  0.27616115111E+00 -0.31164954715E+00  0.11043693933E+01  0.90007736395E+02  0.89999997715E+02 0.  0.
         12    1    1    2    0    0 -0.27616115111E+00  0.31164954715E+00 -0.11043693933E+01  0.11802636055E+01  0.00000000000E+00 0. -1.
         11    1    3    3    0    0  0.44105451691E+01  0.57303079540E+01  0.36875457295E+01  0.81171011885E+01  0.51100000000E-03 0. -1.
        -11    1    3    3    0    0  0.32113366005E+02 -0.18381136033E+02  0.14783705665E+02  0.39845857896E+02  0.51100000000E-03 0.  1.
         12    1    3    3    0    0 -0.36247750023E+02  0.12339178532E+02 -0.17366882001E+02  0.42044777310E+02  0.00000000000E+00 0. -1.
</event>
<event>
 7    1  0.3276565E-015  0.9000776E+02  0.7816164E-02  0.1186339E+00
        -11   -1    0    0    0    0  0.00000000000E+00  0.00000000000E+00  0.45593999997E+02  0.45594000000E+02  0.51100000000E-03 0. -1.
         11   -1    0    0    0    0 -0.00000000000E+00 -0.00000000000E+00 -0.45593999997E+02  0.45594000000E+02  0.51100000000E-03 0.  1.
    9900012    2    1    2    0    0 -0.47451711516E+00 -0.61289991049E+00 -0.89003567552E+00  0.90007755832E+02  0.90000017409E+02 0.  0.
         12    1    1    2    0    0  0.47451711516E+00  0.61289991049E+00  0.89003567552E+00  0.11802441682E+01  0.00000000000E+00 0. -1.
         11    1    3    3    0    0  0.44300088820E+01 -0.79117649286E+01  0.34527636670E+02  0.35698441104E+02  0.51100000000E-03 0. -1.
        -11    1    3    3    0    0  0.76508238133E+01 -0.10405721753E+02 -0.17209201019E+00  0.12916801700E+02  0.51100000000E-03 0.  1.
        -12    1    3    3    0    0 -0.12555349810E+02  0.17704586771E+02 -0.35245580335E+02  0.41392513028E+02  0.00000000000E+00 0.  1.
</event>
<event>
 7    1  0.3276565E-015  0.9000772E+02  0.7816164E-02  0.1186339E+00
        -11   -1    0    0    0    0  0.00000000000E+00  0.00000000000E+00  0.45593999997E+02  0.45594000000E+02  0.51100000000E-03 0. -1.
         11   -1    0    0    0    0 -0.00000000000E+00 -0.00000000000E+00 -0.45593999997E+02  0.45594000000E+02  0.51100000000E-03 0.  1.
    9900012    2    1    2    0    0 -0.37417399558E+00 -0.11012945112E+01  0.20052015414E+00  0.90007718630E+02  0.89999979716E+02 0.  0.
         12    1    1    2    0    0  0.37417399558E+00  0.11012945112E+01 -0.20052015414E+00  0.11802813697E+01  0.00000000000E+00 0. -1.
         11    1    3    3    0    0 -0.57355779885E+01  0.17906683345E+01  0.11154646088E+02  0.12670022793E+02  0.51100000000E-03 0. -1.
        -11    1    3    3    0    0  0.55605829003E+01 -0.13563275517E+02 -0.42012574610E+02  0.44496504926E+02  0.51100000000E-03 0.  1.
         12    1    3    3    0    0 -0.19917890733E+00  0.10671312671E+02  0.31058448676E+02  0.32841190912E+02  0.00000000000E+00 0. -1.
</event>
<event>
 7    1  0.3276565E-015  0.9000777E+02  0.7816164E-02  0.1186339E+00
        -11   -1    0    0    0    0  0.00000000000E+00  0.00000000000E+00  0.45593999997E+02  0.45594000000E+02  0.51100000000E-03 0. -1.
         11   -1    0    0    0    0 -0.00000000000E+00 -0.00000000000E+00 -0.45593999997E+02  0.45594000000E+02  0.51100000000E-03 0.  1.
    9900012    2    1    2    0    0 -0.47173693064E-01  0.10963866659E+01 -0.43433032225E+00  0.90007774637E+02  0.90000036462E+02 0.  0.
         12    1    1    2    0    0  0.47173693064E-01 -0.10963866659E+01  0.43433032225E+00  0.11802253629E+01  0.00000000000E+00 0. -1.
         11    1    3    3    0    0  0.26986301026E+02  0.18698145245E+01  0.30719911337E+02  0.40932500562E+02  0.51100000000E-03 0. -1.
        -11    1    3    3    0    0  0.31754593383E+01  0.59469000719E+01 -0.36194846009E+01  0.76517861648E+01  0.51100000000E-03 0.  1.
        -12    1    3    3    0    0 -0.30208934057E+02 -0.67203279305E+01 -0.27534757059E+02  0.41423487910E+02  0.00000000000E+00 0.  1.
</event>
<event>
 7    1  0.3276565E-015  0.9000776E+02  0.7816164E-02  0.1186339E+00
        -11   -1    0    0    0    0  0.00000000000E+00  0.00000000000E+00  0.45593999997E+02  0.45594000000E+02  0.51100000000E-03 0.  1.
         11   -1    0    0    0    0 -0.00000000000E+00 -0.00000000000E+00 -0.45593999997E+02  0.45594000000E+02  0.51100000000E-03 0. -1.
    9900012    2    1    2    0    0 -0.10203966151E+00  0.53412923528E-01  0.11746066812E+01  0.90007760241E+02  0.90000021876E+02 0.  0.
         12    1    1    2    0    0  0.10203966151E+00 -0.53412923528E-01 -0.11746066812E+01  0.11802397589E+01  0.00000000000E+00 0. -1.
         11    1    3    3    0    0 -0.11722064484E+01 -0.67798516400E+01 -0.64246064112E+01  0.94136084483E+01  0.51100000000E-03 0. -1.
        -11    1    3    3    0    0  0.16204494283E+02  0.13677728430E+02 -0.31580263497E+02  0.38039176289E+02  0.51100000000E-03 0.  1.
         12    1    3    3    0    0 -0.15134327496E+02 -0.68444638661E+01  0.39179476589E+02  0.42554975504E+02  0.00000000000E+00 0. -1.
</event>
<event>
 7    1  0.3276565E-015  0.9000779E+02  0.7816164E-02  0.1186339E+00
        -11   -1    0    0    0    0  0.00000000000E+00  0.00000000000E+00  0.45593999997E+02  0.45594000000E+02  0.51100000000E-03 0. -1.
         11   -1    0    0    0    0 -0.00000000000E+00 -0.00000000000E+00 -0.45593999997E+02  0.45594000000E+02  0.51100000000E-03 0.  1.
    9900012    2    1    2    0    0  0.26165375466E+00 -0.11469734067E+01  0.94224439968E-01  0.90007792845E+02  0.90000054911E+02 0.  0.
         12    1    1    2    0    0 -0.26165375466E+00  0.11469734067E+01 -0.94224439968E-01  0.11802071547E+01  0.00000000000E+00 0. -1.
         11    1    3    3    0    0  0.22571904106E+02 -0.12301125618E+02  0.14836180351E+02  0.29680309872E+02  0.51100000000E-03 0. -1.
        -11    1    3    3    0    0  0.83862860889E+01  0.10215025031E+02  0.13292764866E+02  0.18744976095E+02  0.51100000000E-03 0.  1.
        -12    1    3    3    0    0 -0.30696536440E+02  0.93912718057E+00 -0.28034720777E+02  0.41582506879E+02  0.00000000000E+00 0.  1.
</event>
<event>
 7    1  0.3276565E-015  0.9000771E+02  0.7816164E-02  0.1186339E+00
        -11   -1    0    0    0    0  0.00000000000E+00  0.00000000000E+00  0.45593999997E+02  0.45594000000E+02  0.51100000000E-03 0.  1.
         11   -1    0    0    0    0 -0.00000000000E+00 -0.00000000000E+00 -0.45593999997E+02  0.45594000000E+02  0.51100000000E-03 0. -1.
    9900012    2    1    2    0    0  0.10190568521E+01  0.55818326194E+00  0.20745152779E+00  0.90007711240E+02  0.89999972228E+02 0.  0.
         12    1    1    2    0    0 -0.10190568521E+01 -0.55818326194E+00 -0.20745152779E+00  0.11802887604E+01  0.00000000000E+00 0. -1.
         11    1    3    3    0    0 -0.14542810103E+02  0.23952207730E+02 -0.24066469352E+02  0.36937738536E+02  0.51100000000E-03 0. -1.
        -11    1    3    3    0    0 -0.11412911939E+02 -0.93965365836E+00  0.23576335619E+01  0.11691704076E+02  0.51100000000E-03 0.  1.
        -12    1    3    3    0    0  0.26974778894E+02 -0.22454370810E+02  0.21916287318E+02  0.41378268628E+02  0.00000000000E+00 0.  1.
</event>
<event>
 7    1  0.3276565E-015  0.9000775E+02  0.7816164E-02  0.1186339E+00
        -11   -1    0    0    0    0  0.00000000000E+00  0.00000000000E+00  0.45593999997E+02  0.45594000000E+02  0.51100000000E-03 0.  1.
         11   -1    0    0    0    0 -0.00000000000E+00 -0.00000000000E+00 -0.45593999997E+02  0.45594000000E+02  0.51100000000E-03 0. -1.
    9900012    2    1    2    0    0  0.53143698199E+00  0.64215732588E+00  0.83558794492E+00  0.90007746421E+02  0.90000007874E+02 0.  0.
         12    1    1    2    0    0 -0.53143698199E+00 -0.64215732588E+00 -0.83558794492E+00  0.11802535790E+01  0.00000000000E+00 0. -1.
         11    1    3    3    0    0  0.38507170194E+02 -0.16551538739E+02 -0.14146907877E+02  0.44236756139E+02  0.51100000000E-03 0. -1.
        -11    1    3    3    0    0 -0.11291251666E+02 -0.37980285889E+00  0.39977284769E+01  0.11984091439E+02  0.51100000000E-03 0.  1.
        -12    1    3    3    0    0 -0.26684481546E+02  0.17573498923E+02  0.10984767345E+02  0.33786898843E+02  0.00000000000E+00 0.  1.
</event>
<event>
 7    1  0.3276565E-015  0.9000767E+02  0.7816164E-02  0.1186339E+00
        -11   -1    0    0    0    0  0.00000000000E+00  0.00000000000E+00  0.45593999997E+02  0.45594000000E+02  0.51100000000E-03 0.  1.
         11   -1    0    0    0    0 -0.00000000000E+00 -0.00000000000E+00 -0.45593999997E+02  0.45594000000E+02  0.51100000000E-03 0. -1.
    9900012    2    1    2    0    0  0.25755320219E+00  0.44180717405E+00  0.10637892961E+01  0.90007671699E+02  0.89999932166E+02 0.  0.
         12    1    1    2    0    0 -0.25755320219E+00 -0.44180717405E+00 -0.10637892961E+01  0.11803283007E+01  0.00000000000E+00 0. -1.
         11    1    3    3    0    0 -0.22947030166E+02  0.28250541163E+02 -0.31136442504E+01  0.36528811234E+02  0.51100000000E-03 0. -1.
        -11    1    3    3    0    0 -0.40144634260E+00  0.58551474822E+01 -0.86104864755E+01  0.10420383333E+02  0.51100000000E-03 0.  1.
        -12    1    3    3    0    0  0.23606029711E+02 -0.33663881471E+02  0.12787920022E+02  0.43058477132E+02  0.00000000000E+00 0.  1.
</event>
<event>
 7    1  0.3276565E-015  0.9000780E+02  0.7816164E-02  0.1186339E+00
        -11   -1    0    0    0    0  0.00000000000E+00  0.00000000000E+00  0.45593999997E+02  0.45594000000E+02  0.51100000000E-03 0. -1.
         11   -1    0    0    0    0 -0.00000000000E+00 -0.00000000000E+00 -0.45593999997E+02  0.45594000000E+02  0.51100000000E-03 0.  1.
    9900012    2    1    2    0    0 -0.58107642976E+00  0.58014553296E+00 -0.84773340186E+00  0.90007800620E+02  0.90000062788E+02 0.  0.
         12    1    1    2    0    0  0.58107642976E+00 -0.58014553296E+00  0.84773340186E+00  0.11801993803E+01  0.00000000000E+00 0. -1.
         11    1    3    3    0    0  0.59049970070E+01  0.41913206815E+01  0.88905293485E+01  0.11466371312E+02  0.51100000000E-03 0. -1.
        -11    1    3    3    0    0  0.12524993263E+02  0.24505991892E+02 -0.28616979412E+02  0.39703282053E+02  0.51100000000E-03 0.  1.
         12    1    3    3    0    0 -0.19011066700E+02 -0.28117167040E+02  0.18878716661E+02  0.38838147255E+02  0.00000000000E+00 0. -1.
</event>
<event>
 7    1  0.3276565E-015  0.9000776E+02  0.7816164E-02  0.1186339E+00
        -11   -1    0    0    0    0  0.00000000000E+00  0.00000000000E+00  0.45593999997E+02  0.45594000000E+02  0.51100000000E-03 0. -1.
         11   -1    0    0    0    0 -0.00000000000E+00 -0.00000000000E+00 -0.45593999997E+02  0.45594000000E+02  0.51100000000E-03 0.  1.
    9900012    2    1    2    0    0  0.38452772983E+00 -0.10939442268E+01 -0.21998096411E+00  0.90007759698E+02  0.90000021326E+02 0.  0.
         12    1    1    2    0    0 -0.38452772983E+00  0.10939442268E+01  0.21998096411E+00  0.11802403022E+01  0.00000000000E+00 0. -1.
         11    1    3    3    0    0 -0.24084816262E+02 -0.58536527559E+01  0.30743405656E+02  0.39490512994E+02  0.51100000000E-03 0. -1.
        -11    1    3    3    0    0 -0.35594710505E+01 -0.34476722529E+00  0.40332693502E+01  0.53903581060E+01  0.51100000000E-03 0.  1.
        -12    1    3    3    0    0  0.28028815042E+02  0.51044757544E+01 -0.34996655970E+02  0.45126888598E+02  0.00000000000E+00 0.  1.
</event>
<event>
 7    1  0.3276565E-015  0.9000753E+02  0.7816164E-02  0.1186339E+00
        -11   -1    0    0    0    0  0.00000000000E+00  0.00000000000E+00  0.45593999997E+02  0.45594000000E+02  0.51100000000E-03 0. -1.
         11   -1    0    0    0    0 -0.00000000000E+00 -0.00000000000E+00 -0.45593999997E+02  0.45594000000E+02  0.51100000000E-03 0.  1.
    9900012    2    1    2    0    0  0.66639462948E+00  0.14710102689E+00  0.96321889582E+00  0.90007529265E+02  0.89999787851E+02 0.  0.
         12    1    1    2    0    0 -0.66639462948E+00 -0.14710102689E+00 -0.96321889582E+00  0.11804707347E+01  0.00000000000E+00 0. -1.
         11    1    3    3    0    0 -0.29580514925E+01  0.61199913609E+01 -0.72130233390E+01  0.99112092522E+01  0.51100000000E-03 0. -1.
        -11    1    3    3    0    0  0.35166874663E+02 -0.35972440815E+01 -0.17416378478E+02  0.39407860613E+02  0.51100000000E-03 0.  1.
         12    1    3    3    0    0 -0.31542428541E+02 -0.23756462525E+01  0.25592620713E+02  0.40688459400E+02  0.00000000000E+00 0. -1.
</event>
<event>
 7    1  0.3276565E-015  0.9000788E+02  0.7816164E-02  0.1186339E+00
        -11   -1    0    0    0    0  0.00000000000E+00  0.00000000000E+00  0.45593999997E+02  0.45594000000E+02  0.51100000000E-03 0.  1.
         11   -1    0    0    0    0 -0.00000000000E+00 -0.00000000000E+00 -0.45593999997E+02  0.45594000000E+02  0.51100000000E-03 0. -1.
    9900012    2    1    2    0    0  0.47328378261E+00 -0.88636068336E+00 -0.61891498269E+00  0.90007877737E+02  0.90000140923E+02 0.  0.
         12    1    1    2    0    0 -0.47328378261E+00  0.88636068336E+00  0.61891498269E+00  0.11801222630E+01  0.00000000000E+00 0. -1.
         11    1    3    3    0    0  0.15195372451E+01 -0.28575236320E+02 -0.24870296770E+02  0.37912857791E+02  0.51100000000E-03 0. -1.
        -11    1    3    3    0    0 -0.93692203137E+01 -0.34964356173E+01 -0.23454569388E+01  0.10271734022E+02  0.51100000000E-03 0.  1.
        -12    1    3    3    0    0  0.83229668512E+01  0.31185311254E+02  0.26596838726E+02  0.41823285924E+02  0.00000000000E+00 0.  1.
</event>
<event>
 7    1  0.3276565E-015  0.9000770E+02  0.7816164E-02  0.1186339E+00
        -11   -1    0    0    0    0  0.00000000000E+00  0.00000000000E+00  0.45593999997E+02  0.45594000000E+02  0.51100000000E-03 0. -1.
         11   -1    0    0    0    0 -0.00000000000E+00 -0.00000000000E+00 -0.45593999997E+02  0.45594000000E+02  0.51100000000E-03 0.  1.
    9900012    2    1    2    0    0  0.63650389006E+00 -0.18795025530E+00  0.97603961567E+00  0.90007696720E+02  0.89999957517E+02 0.  0.
         12    1    1    2    0    0 -0.63650389006E+00  0.18795025530E+00 -0.97603961567E+00  0.11803032796E+01  0.00000000000E+00 0. -1.
         11    1    3    3    0    0 -0.64021903943E+01 -0.19672435389E+02  0.32416460012E+02  0.38455424012E+02  0.51100000000E-03 0. -1.
        -11    1    3    3    0    0  0.94420536054E+01 -0.85296802124E+01 -0.91810680713E+01  0.15690756260E+02  0.51100000000E-03 0.  1.
        -12    1    3    3    0    0 -0.24033593211E+01  0.28014165347E+02 -0.22259352325E+02  0.35861516449E+02  0.00000000000E+00 0.  1.
</event>
<event>
 7    1  0.3276565E-015  0.9000717E+02  0.7816164E-02  0.1186340E+00
        -11   -1    0    0    0    0  0.00000000000E+00  0.00000000000E+00  0.45593999997E+02  0.45594000000E+02  0.51100000000E-03 0.  1.
         11   -1    0    0    0    0 -0.00000000000E+00 -0.00000000000E+00 -0.45593999997E+02  0.45594000000E+02  0.51100000000E-03 0. -1.
    9900012    2    1    2    0    0 -0.26999909692E+00  0.99479859195E+00  0.57604345804E+00  0.90007174096E+02  0.89999427992E+02 0.  0.
         12    1    1    2    0    0  0.26999909692E+00 -0.99479859195E+00 -0.57604345804E+00  0.11808259044E+01  0.00000000000E+00 0. -1.
         11    1    3    3    0    0 -0.34230264629E+02  0.19410047356E+02  0.86559779924E+00  0.39360007809E+02  0.51100000000E-03 0. -1.
        -11    1    3    3    0    0 -0.48245394077E+01 -0.90919954586E+01  0.27141571532E+01  0.10644586006E+02  0.51100000000E-03 0.  1.
        -12    1    3    3    0    0  0.38784804940E+02 -0.93232533054E+01 -0.30037114944E+01  0.40002580281E+02  0.00000000000E+00 0.  1.
</event>
<event>
 7    1  0.3276565E-015  0.9000773E+02  0.7816164E-02  0.1186339E+00
        -11   -1    0    0    0    0  0.00000000000E+00  0.00000000000E+00  0.45593999997E+02  0.45594000000E+02  0.51100000000E-03 0. -1.
         11   -1    0    0    0    0 -0.00000000000E+00 -0.00000000000E+00 -0.45593999997E+02  0.45594000000E+02  0.51100000000E-03 0.  1.
    9900012    2    1    2    0    0  0.26338831954E+00 -0.14579757959E+00 -0.11412336798E+01  0.90007726874E+02  0.89999988068E+02 0.  0.
         12    1    1    2    0    0 -0.26338831954E+00  0.14579757959E+00  0.11412336798E+01  0.11802731264E+01  0.00000000000E+00 0. -1.
         11    1    3    3    0    0  0.17980924722E+01  0.45006647397E+01 -0.92244651886E+01  0.10420166885E+02  0.51100000000E-03 0. -1.
        -11    1    3    3    0    0 -0.27939772326E+02  0.21894593284E+02 -0.11530434353E+02  0.37322312487E+02  0.51100000000E-03 0.  1.
         12    1    3    3    0    0  0.26405068174E+02 -0.26541055604E+02  0.19613665862E+02  0.42265247501E+02  0.00000000000E+00 0. -1.
</event>
<event>
 7    1  0.3276565E-015  0.9000770E+02  0.7816164E-02  0.1186339E+00
        -11   -1    0    0    0    0  0.00000000000E+00  0.00000000000E+00  0.45593999997E+02  0.45594000000E+02  0.51100000000E-03 0.  1.
         11   -1    0    0    0    0 -0.00000000000E+00 -0.00000000000E+00 -0.45593999997E+02  0.45594000000E+02  0.51100000000E-03 0. -1.
    9900012    2    1    2    0    0 -0.10406085207E+01  0.54677659127E+00 -0.10621167255E+00  0.90007698490E+02  0.89999959310E+02 0.  0.
         12    1    1    2    0    0  0.10406085207E+01 -0.54677659127E+00  0.10621167255E+00  0.11803015096E+01  0.00000000000E+00 0. -1.
         11    1    3    3    0    0  0.23019968787E+02 -0.17861801642E+02 -0.23311277926E+02  0.37314589635E+02  0.51100000000E-03 0. -1.
        -11    1    3    3    0    0  0.22506401001E+00  0.33815103382E+01 -0.90192079458E+01  0.96349041618E+01  0.51100000000E-03 0.  1.
        -12    1    3    3    0    0 -0.24285641317E+02  0.15027067895E+02  0.32224274199E+02  0.43058204693E+02  0.00000000000E+00 0.  1.
</event>
<event>
 7    1  0.3276565E-015  0.9000766E+02  0.7816164E-02  0.1186339E+00
        -11   -1    0    0    0    0  0.00000000000E+00  0.00000000000E+00  0.45593999997E+02  0.45594000000E+02  0.51100000000E-03 0.  1.
         11   -1    0    0    0    0 -0.00000000000E+00 -0.00000000000E+00 -0.45593999997E+02  0.45594000000E+02  0.51100000000E-03 0. -1.
    9900012    2    1    2    0    0 -0.11422774898E+01 -0.13984417500E+00 -0.26238807921E+00  0.90007660320E+02  0.89999920636E+02 0.  0.
         12    1    1    2    0    0  0.11422774898E+01  0.13984417500E+00  0.26238807921E+00  0.11803396804E+01  0.00000000000E+00 0. -1.
         11    1    3    3    0    0  0.72180617862E+01 -0.78527791527E+01 -0.60179471999E+01  0.12246723853E+02  0.51100000000E-03 0. -1.
        -11    1    3    3    0    0 -0.80804642016E+00 -0.34194064812E+02 -0.28352148242E+01  0.34320918560E+02  0.51100000000E-03 0.  1.
         12    1    3    3    0    0 -0.75522928559E+01  0.41906999790E+02  0.85907739449E+01  0.43440017907E+02  0.00000000000E+00 0. -1.
</event>
<event>
 7    1  0.3276565E-015  0.9000779E+02  0.7816164E-02  0.1186339E+00
        -11   -1    0    0    0    0  0.00000000000E+00  0.00000000000E+00  0.45593999997E+02  0.45594000000E+02  0.51100000000E-03 0. -1.
         11   -1    0    0    0    0 -0.00000000000E+00 -0.00000000000E+00 -0.45593999997E+02  0.45594000000E+02  0.51100000000E-03 0.  1.
    9900012    2    1    2    0    0  0.94295544033E+00 -0.23632869975E+00 -0.66922967241E+00  0.90007794691E+02  0.90000056781E+02 0.  0.
         12    1    1    2    0    0 -0.94295544033E+00  0.23632869975E+00  0.66922967241E+00  0.11802053089E+01  0.00000000000E+00 0. -1.
         11    1    3    3    0    0 -0.16246074118E+02 -0.95152783630E+00  0.32009195213E+02  0.35908618853E+02  0.51100000000E-03 0. -1.
        -11    1    3    3    0    0  0.57338217015E+01  0.18663424749E+01  0.90148115646E+01  0.10845587736E+02  0.51100000000E-03 0.  1.
        -12    1    3    3    0    0  0.11455207856E+02 -0.11511433383E+01 -0.41693236450E+02  0.43253588102E+02  0.00000000000E+00 0.  1.
</event>
<event>
 7    1  0.3276565E-015  0.9000802E+02  0.7816164E-02  0.1186338E+00
        -11   -1    0    0    0    0  0.00000000000E+00  0.00000000000E+00  0.45593999997E+02  0.45594000000E+02  0.51100000000E-03 0.  1.
         11   -1    0    0    0    0 -0.00000000000E+00 -0.00000000000E+00 -0.45593999997E+02  0.45594000000E+02  0.51100000000E-03 0. -1.
    9900012    2    1    2    0    0  0.10342931686E+01  0.52396327768E+00  0.21923460617E+00  0.90008015387E+02  0.90000280389E+02 0.  0.
         12    1    1    2    0    0 -0.10342931686E+01 -0.52396327768E+00 -0.21923460617E+00  0.11799846132E+01  0.00000000000E+00 0. -1.
         11    1    3    3    0    0 -0.38299030599E+02 -0.15789332754E+02  0.80912550481E+01  0.42208851941E+02  0.51100000000E-03 0. -1.
        -11    1    3    3    0    0  0.62908720382E+01 -0.38939500266E+01  0.23114922906E+01  0.77511879530E+01  0.51100000000E-03 0.  1.
        -12    1    3    3    0    0  0.33042451729E+02  0.20207246059E+02 -0.10183512733E+02  0.40047975493E+02  0.00000000000E+00 0.  1.
</event>
<event>
 7    1  0.3276565E-015  0.9000776E+02  0.7816164E-02  0.1186339E+00
        -11   -1    0    0    0    0  0.00000000000E+00  0.00000000000E+00  0.45593999997E+02  0.45594000000E+02  0.51100000000E-03 0.  1.
         11   -1    0    0    0    0 -0.00000000000E+00 -0.00000000000E+00 -0.45593999997E+02  0.45594000000E+02  0.51100000000E-03 0. -1.
    9900012    2    1    2    0    0 -0.18114624027E+00  0.83894631957E+00  0.81013976033E+00  0.90007757941E+02  0.90000019545E+02 0.  0.
         12    1    1    2    0    0  0.18114624027E+00 -0.83894631957E+00 -0.81013976033E+00  0.11802420594E+01  0.00000000000E+00 0. -1.
         11    1    3    3    0    0 -0.32857709503E+02 -0.12007922172E+01 -0.77109061361E+01  0.33771719670E+02  0.51100000000E-03 0. -1.
        -11    1    3    3    0    0  0.97397700158E+01 -0.20541765789E+02  0.78197357316E+01  0.24041121622E+02  0.51100000000E-03 0.  1.
        -12    1    3    3    0    0  0.22936793247E+02  0.22581504326E+02  0.70131016479E+00  0.32194916649E+02  0.00000000000E+00 0.  1.
</event>
<event>
 7    1  0.3276565E-015  0.9000770E+02  0.7816164E-02  0.1186339E+00
        -11   -1    0    0    0    0  0.00000000000E+00  0.00000000000E+00  0.45593999997E+02  0.45594000000E+02  0.51100000000E-03 0.  1.
         11   -1    0    0    0    0 -0.00000000000E+00 -0.00000000000E+00 -0.45593999997E+02  0.45594000000E+02  0.51100000000E-03 0. -1.
    9900012    2    1    2    0    0 -0.63787470647E+00 -0.99128048421E+00  0.59880012642E-01  0.90007700565E+02  0.89999961413E+02 0.  0.
         12    1    1    2    0    0  0.63787470647E+00  0.99128048421E+00 -0.59880012642E-01  0.11802994347E+01  0.00000000000E+00 0. -1.
         11    1    3    3    0    0  0.38925148791E+02  0.64668331042E+00 -0.88551059104E+01  0.39924908374E+02  0.51100000000E-03 0. -1.
        -11    1    3    3    0    0 -0.26479848676E+01  0.68807437208E+01 -0.58606009481E+01  0.94182324108E+01  0.51100000000E-03 0.  1.
        -12    1    3    3    0    0 -0.36915038630E+02 -0.85187075154E+01  0.14775586871E+02  0.40664559781E+02  0.00000000000E+00 0.  1.
</event>
<event>
 7    1  0.3276565E-015  0.9000842E+02  0.7816164E-02  0.1186338E+00
        -11   -1    0    0    0    0  0.00000000000E+00  0.00000000000E+00  0.45593999997E+02  0.45594000000E+02  0.51100000000E-03 0.  1.
         11   -1    0    0    0    0 -0.00000000000E+00 -0.00000000000E+00 -0.45593999997E+02  0.45594000000E+02  0.51100000000E-03 0. -1.
    9900012    2    1    2    0    0  0.35060563073E+00  0.76450905107E+00  0.82704386370E+00  0.90008423826E+02  0.90000694218E+02 0.  0.
         12    1    1    2    0    0 -0.35060563073E+00 -0.76450905107E+00 -0.82704386370E+00  0.11795761739E+01  0.00000000000E+00 0. -1.
         11    1    3    3    0    0 -0.27345528725E+02  0.11879980755E+02 -0.48878529759E+01  0.30212629660E+02  0.51100000000E-03 0. -1.
        -11    1    3    3    0    0  0.27031955169E+01  0.11497382859E+02 -0.15862122363E+02  0.19776349631E+02  0.51100000000E-03 0.  1.
        -12    1    3    3    0    0  0.24992938839E+02 -0.22612854563E+02  0.21577019202E+02  0.40019444536E+02  0.00000000000E+00 0.  1.
</event>
<event>
 7    1  0.3276565E-015  0.9000753E+02  0.7816164E-02  0.1186339E+00
        -11   -1    0    0    0    0  0.00000000000E+00  0.00000000000E+00  0.45593999997E+02  0.45594000000E+02  0.51100000000E-03 0.  1.
         11   -1    0    0    0    0 -0.00000000000E+00 -0.00000000000E+00 -0.45593999997E+02  0.45594000000E+02  0.51100000000E-03 0. -1.
    9900012    2    1    2    0    0 -0.81135903225E+00 -0.14493196954E+00  0.84510674106E+00  0.90007527993E+02  0.89999786562E+02 0.  0.
         12    1    1    2    0    0  0.81135903225E+00  0.14493196954E+00 -0.84510674106E+00  0.11804720068E+01  0.00000000000E+00 0. -1.
         11    1    3    3    0    0 -0.73211955499E+00 -0.15303775049E+02 -0.34561892094E+02  0.37805633378E+02  0.51100000000E-03 0. -1.
        -11    1    3    3    0    0  0.14008607738E+01 -0.94670981314E+01  0.66717376995E+00  0.95934081034E+01  0.51100000000E-03 0.  1.
        -12    1    3    3    0    0 -0.14801002511E+01  0.24625941210E+02  0.34739825065E+02  0.42608486511E+02  0.00000000000E+00 0.  1.
</event>
<event>
 7    1  0.3276565E-015  0.9000756E+02  0.7816164E-02  0.1186339E+00
        -11   -1    0    0    0    0  0.00000000000E+00  0.00000000000E+00  0.45593999997E+02  0.45594000000E+02  0.51100000000E-03 0. -1.
         11   -1    0    0    0    0 -0.00000000000E+00 -0.00000000000E+00 -0.45593999997E+02  0.45594000000E+02  0.51100000000E-03 0.  1.
    9900012    2    1    2    0    0 -0.11620910842E+01  0.11505549037E+00 -0.17244556457E+00  0.90007563248E+02  0.89999822282E+02 0.  0.
         12    1    1    2    0    0  0.11620910842E+01 -0.11505549037E+00  0.17244556457E+00  0.11804367524E+01  0.00000000000E+00 0. -1.
         11    1    3    3    0    0 -0.40762799206E+02  0.12995806159E+02  0.26000151940E+01  0.42863234317E+02  0.51100000000E-03 0. -1.
        -11    1    3    3    0    0  0.83040448488E+01  0.53273376188E+01  0.33565021084E+01  0.10421314390E+02  0.51100000000E-03 0.  1.
        -12    1    3    3    0    0  0.31296663273E+02 -0.18208088287E+02 -0.61289628670E+01  0.36723014540E+02  0.00000000000E+00 0.  1.
</event>
<event>
 7    1  0.3276565E-015  0.9000774E+02  0.7816164E-02  0.1186339E+00
        -11   -1    0    0    0    0  0.00000000000E+00  0.00000000000E+00  0.45593999997E+02  0.45594000000E+02  0.51100000000E-03 0.  1.
         11   -1    0    0    0    0 -0.00000000000E+00 -0.00000000000E+00 -0.45593999997E+02  0.45594000000E+02  0.51100000000E-03 0. -1.
    9900012    2    1    2    0    0  0.63459887860E-01  0.11776851471E+01 -0.45273107348E-01  0.90007737691E+02  0.89999999029E+02 0.  0.
         12    1    1    2    0    0 -0.63459887860E-01 -0.11776851471E+01  0.45273107348E-01  0.11802623087E+01  0.00000000000E+00 0. -1.
         11    1    3    3    0    0  0.25702485941E+02 -0.25375599246E+02 -0.86463717899E+01  0.37138909058E+02  0.51100000000E-03 0. -1.
        -11    1    3    3    0    0  0.13573828449E+01 -0.75582993755E+01  0.51166573920E+01  0.92277061486E+01  0.51100000000E-03 0.  1.
        -12    1    3    3    0    0 -0.26996408898E+02  0.34111583769E+02  0.34844412905E+01  0.43641122484E+02  0.00000000000E+00 0.  1.
</event>
<event>
 7    1  0.3276565E-015  0.9000810E+02  0.7816164E-02  0.1186338E+00
        -11   -1    0    0    0    0  0.00000000000E+00  0.00000000000E+00  0.45593999997E+02  0.45594000000E+02  0.51100000000E-03 0. -1.
         11   -1    0    0    0    0 -0.00000000000E+00 -0.00000000000E+00 -0.45593999997E+02  0.45594000000E+02  0.51100000000E-03 0.  1.
    9900012    2    1    2    0    0  0.94252616162E-01  0.95351616033E+00  0.68853573621E+00  0.90008102511E+02  0.90000368664E+02 0.  0.
         12    1    1    2    0    0 -0.94252616162E-01 -0.95351616033E+00 -0.68853573621E+00  0.11798974886E+01  0.00000000000E+00 0. -1.
         11    1    3    3    0    0  0.10459995702E+02 -0.13708528082E+01 -0.36763497216E+01  0.11171673780E+02  0.51100000000E-03 0. -1.
        -11    1    3    3    0    0  0.10868423157E+02 -0.46515357949E+01 -0.33135132019E+02  0.35180909331E+02  0.51100000000E-03 0.  1.
         12    1    3    3    0    0 -0.21234166243E+02  0.69759047634E+01  0.37500017477E+02  0.43655519400E+02  0.00000000000E+00 0. -1.
</event>
<event>
 7    1  0.3276565E-015  0.9000664E+02  0.7816164E-02  0.1186341E+00
        -11   -1    0    0    0    0  0.00000000000E+00  0.00000000000E+00  0.45593999997E+02  0.45594000000E+02  0.51100000000E-03 0. -1.
         11   -1    0    0    0    0 -0.00000000000E+00 -0.00000000000E+00 -0.45593999997E+02  0.45594000000E+02  0.51100000000E-03 0.  1.
    9900012    2    1    2    0    0  0.16432826946E+00  0.13742895692E+00 -0.11617767150E+01  0.90006638229E+02  0.89998885047E+02 0.  0.
         12    1    1    2    0    0 -0.16432826946E+00 -0.13742895692E+00  0.11617767150E+01  0.11813617709E+01  0.00000000000E+00 0. -1.
         11    1    3    3    0    0 -0.13027522053E+01 -0.10469538489E+02 -0.25965873274E+01  0.10865112309E+02  0.51100000000E-03 0. -1.
        -11    1    3    3    0    0  0.68148359925E+01 -0.93473770798E+01 -0.35217221509E+02  0.37068425094E+02  0.51100000000E-03 0.  1.
         12    1    3    3    0    0 -0.53477555177E+01  0.19954344526E+02  0.36652032121E+02  0.42073100826E+02  0.00000000000E+00 0. -1.
</event>
<event>
 7    1  0.3276565E-015  0.9000771E+02  0.7816164E-02  0.1186339E+00
        -11   -1    0    0    0    0  0.00000000000E+00  0.00000000000E+00  0.45593999997E+02  0.45594000000E+02  0.51100000000E-03 0. -1.
         11   -1    0    0    0    0 -0.00000000000E+00 -0.00000000000E+00 -0.45593999997E+02  0.45594000000E+02  0.51100000000E-03 0.  1.
    9900012    2    1    2    0    0  0.29280400708E+00  0.10422451254E+01  0.47018319459E+00  0.90007711339E+02  0.89999972328E+02 0.  0.
         12    1    1    2    0    0 -0.29280400708E+00 -0.10422451254E+01 -0.47018319459E+00  0.11802886615E+01  0.00000000000E+00 0. -1.
         11    1    3    3    0    0  0.70381289646E+01  0.26557844974E+01 -0.58873001073E+01  0.95524213388E+01  0.51100000000E-03 0. -1.
        -11    1    3    3    0    0 -0.36920792353E+02 -0.22661621634E+02  0.15189550146E+01  0.43347447764E+02  0.51100000000E-03 0.  1.
         12    1    3    3    0    0  0.30175467395E+02  0.21048082262E+02  0.48385282873E+01  0.37107842236E+02  0.00000000000E+00 0. -1.
</event>
<event>
 7    1  0.3276565E-015  0.9000773E+02  0.7816164E-02  0.1186339E+00
        -11   -1    0    0    0    0  0.00000000000E+00  0.00000000000E+00  0.45593999997E+02  0.45594000000E+02  0.51100000000E-03 0. -1.
         11   -1    0    0    0    0 -0.00000000000E+00 -0.00000000000E+00 -0.45593999997E+02  0.45594000000E+02  0.51100000000E-03 0.  1.
    9900012    2    1    2    0    0 -0.63546702673E+00  0.29901404460E+00 -0.94857826563E+00  0.90007733730E+02  0.89999995016E+02 0.  0.
         12    1    1    2    0    0  0.63546702673E+00 -0.29901404460E+00  0.94857826563E+00  0.11802662695E+01  0.00000000000E+00 0. -1.
         11    1    3    3    0    0  0.78881964720E+00  0.99869908122E+01 -0.35942971317E+01  0.10643363850E+02  0.51100000000E-03 0. -1.
        -11    1    3    3    0    0 -0.27780975500E+02  0.12078974868E+02 -0.21815310571E+02  0.37330845278E+02  0.51100000000E-03 0.  1.
         12    1    3    3    0    0  0.26356688826E+02 -0.21766951636E+02  0.24461029437E+02  0.42033524602E+02  0.00000000000E+00 0. -1.
</event>
<event>
 7    1  0.3276565E-015  0.9000779E+02  0.7816164E-02  0.1186339E+00
        -11   -1    0    0    0    0  0.00000000000E+00  0.00000000000E+00  0.45593999997E+02  0.45594000000E+02  0.51100000000E-03 0. -1.
         11   -1    0    0    0    0 -0.00000000000E+00 -0.00000000000E+00 -0.45593999997E+02  0.45594000000E+02  0.51100000000E-03 0.  1.
    9900012    2    1    2    0    0 -0.31644493028E+00  0.44980491553E+00 -0.10442356751E+01  0.90007792391E+02  0.90000054450E+02 0.  0.
         12    1    1    2    0    0  0.31644493028E+00 -0.44980491553E+00  0.10442356751E+01  0.11802076093E+01  0.00000000000E+00 0. -1.
         11    1    3    3    0    0  0.41892159476E+01 -0.15785708144E+02 -0.75964431276E+01  0.18012330785E+02  0.51100000000E-03 0. -1.
        -11    1    3    3    0    0 -0.22511646857E+02  0.12770240363E+02 -0.24690257500E+02  0.35769569453E+02  0.51100000000E-03 0.  1.
         12    1    3    3    0    0  0.18005985979E+02  0.34652726959E+01  0.31242464953E+02  0.36225892153E+02  0.00000000000E+00 0. -1.
</event>
<event>
 7    1  0.3276565E-015  0.9000703E+02  0.7816164E-02  0.1186340E+00
        -11   -1    0    0    0    0  0.00000000000E+00  0.00000000000E+00  0.45593999997E+02  0.45594000000E+02  0.51100000000E-03 0.  1.
         11   -1    0    0    0    0 -0.00000000000E+00 -0.00000000000E+00 -0.45593999997E+02  0.45594000000E+02  0.51100000000E-03 0. -1.
    9900012    2    1    2    0    0  0.51830512355E+00  0.10051533576E+01  0.34017690897E+00  0.90007028450E+02  0.89999280422E+02 0.  0.
         12    1    1    2    0    0 -0.51830512355E+00 -0.10051533576E+01 -0.34017690897E+00  0.11809715504E+01  0.00000000000E+00 0. -1.
         11    1    3    3    0    0 -0.57687688415E+00  0.35933678425E+01  0.74941604241E+01  0.83311175789E+01  0.51100000000E-03 0. -1.
        -11    1    3    3    0    0  0.32838950980E+02 -0.16157335901E+02  0.16171516603E+02  0.40012175077E+02  0.51100000000E-03 0.  1.
         12    1    3    3    0    0 -0.31743768972E+02  0.13569121416E+02 -0.23325500118E+02  0.41663735794E+02  0.00000000000E+00 0. -1.
</event>
<event>
 7    1  0.3276565E-015  0.9000744E+02  0.7816164E-02  0.1186340E+00
        -11   -1    0    0    0    0  0.00000000000E+00  0.00000000000E+00  0.45593999997E+02  0.45594000000E+02  0.51100000000E-03 0.  1.
         11   -1    0    0    0    0 -0.00000000000E+00 -0.00000000000E+00 -0.45593999997E+02  0.45594000000E+02  0.51100000000E-03 0. -1.
    9900012    2    1    2    0    0  0.37869862586E+00  0.89007417492E-01  0.11146256178E+01  0.90007438592E+02  0.89999695981E+02 0.  0.
         12    1    1    2    0    0 -0.37869862586E+00 -0.89007417492E-01 -0.11146256178E+01  0.11805614077E+01  0.00000000000E+00 0. -1.
         11    1    3    3    0    0 -0.59950357030E+01  0.39950353711E+01  0.59927116651E+01  0.93708779769E+01  0.51100000000E-03 0. -1.
        -11    1    3    3    0    0  0.20410922559E+02  0.16592012809E+02 -0.33593020656E+02  0.42666048397E+02  0.51100000000E-03 0.  1.
         12    1    3    3    0    0 -0.14037188231E+02 -0.20498040763E+02  0.28714934609E+02  0.37970512218E+02  0.00000000000E+00 0. -1.
</event>
<event>
 7    1  0.3276565E-015  0.9000822E+02  0.7816164E-02  0.1186338E+00
        -11   -1    0    0    0    0  0.00000000000E+00  0.00000000000E+00  0.45593999997E+02  0.45594000000E+02  0.51100000000E-03 0. -1.
         11   -1    0    0    0    0 -0.00000000000E+00 -0.00000000000E+00 -0.45593999997E+02  0.45594000000E+02  0.51100000000E-03 0.  1.
    9900012    2    1    2    0    0 -0.41063434448E+00  0.10511600472E+01  0.34397687804E+00  0.90008221164E+02  0.90000488882E+02 0.  0.
         12    1    1    2    0    0  0.41063434448E+00 -0.10511600472E+01 -0.34397687804E+00  0.11797788362E+01  0.00000000000E+00 0. -1.
         11    1    3    3    0    0 -0.34198708393E+02  0.93810347038E+01 -0.26582969283E+01  0.35561524302E+02  0.51100000000E-03 0. -1.
        -11    1    3    3    0    0 -0.88182003890E+01  0.43500438589E+01 -0.57752651547E+00  0.98497247074E+01  0.51100000000E-03 0.  1.
        -12    1    3    3    0    0  0.42606274437E+02 -0.12679918515E+02  0.35798003218E+01  0.44596972154E+02  0.00000000000E+00 0.  1.
</event>
<event>
 7    1  0.3276565E-015  0.9000776E+02  0.7816164E-02  0.1186339E+00
        -11   -1    0    0    0    0  0.00000000000E+00  0.00000000000E+00  0.45593999997E+02  0.45594000000E+02  0.51100000000E-03 0. -1.
         11   -1    0    0    0    0 -0.00000000000E+00 -0.00000000000E+00 -0.45593999997E+02  0.45594000000E+02  0.51100000000E-03 0.  1.
    9900012    2    1    2    0    0  0.36652360149E+00 -0.11110388727E+01 -0.15561411409E+00  0.90007761601E+02  0.90000023254E+02 0.  0.
         12    1    1    2    0    0 -0.36652360149E+00  0.11110388727E+01  0.15561411409E+00  0.11802383995E+01  0.00000000000E+00 0. -1.
         11    1    3    3    0    0  0.67966438575E+01 -0.46696752899E+01 -0.81354356829E+00  0.82862590134E+01  0.51100000000E-03 0. -1.
        -11    1    3    3    0    0  0.34199886499E+02  0.36097250532E+01 -0.15849058732E+02  0.37866278064E+02  0.51100000000E-03 0.  1.
         12    1    3    3    0    0 -0.40630006755E+02 -0.51088635990E-01  0.16506988186E+02  0.43855224523E+02  0.00000000000E+00 0. -1.
</event>
<event>
 7    1  0.3276565E-015  0.9000773E+02  0.7816164E-02  0.1186339E+00
        -11   -1    0    0    0    0  0.00000000000E+00  0.00000000000E+00  0.45593999997E+02  0.45594000000E+02  0.51100000000E-03 0. -1.
         11   -1    0    0    0    0 -0.00000000000E+00 -0.00000000000E+00 -0.45593999997E+02  0.45594000000E+02  0.51100000000E-03 0.  1.
    9900012    2    1    2    0    0  0.10115409053E+00  0.51510247092E+00 -0.10571096592E+01  0.90007727346E+02  0.89999988547E+02 0.  0.
         12    1    1    2    0    0 -0.10115409053E+00 -0.51510247092E+00  0.10571096592E+01  0.11802726537E+01  0.00000000000E+00 0. -1.
         11    1    3    3    0    0  0.11535219262E+02  0.22734556196E+02  0.27373190974E+02  0.37406054499E+02  0.51100000000E-03 0. -1.
        -11    1    3    3    0    0 -0.37543291700E+01  0.76869969763E+01  0.24846458266E+01  0.89083317841E+01  0.51100000000E-03 0.  1.
        -12    1    3    3    0    0 -0.76797360015E+01 -0.29906450702E+02 -0.30914946460E+02  0.43693341063E+02  0.00000000000E+00 0.  1.
</event>
<event>
 7    1  0.3276565E-015  0.9000780E+02  0.7816164E-02  0.1186339E+00
        -11   -1    0    0    0    0  0.00000000000E+00  0.00000000000E+00  0.45593999997E+02  0.45594000000E+02  0.51100000000E-03 0.  1.
         11   -1    0    0    0    0 -0.00000000000E+00 -0.00000000000E+00 -0.45593999997E+02  0.45594000000E+02  0.51100000000E-03 0. -1.
    9900012    2    1    2    0    0 -0.28483019053E+00 -0.87103443231E+00  0.74366997960E+00  0.90007799060E+02  0.90000061208E+02 0.  0.
         12    1    1    2    0    0  0.28483019053E+00  0.87103443231E+00 -0.74366997960E+00  0.11802009398E+01  0.00000000000E+00 0. -1.
         11    1    3    3    0    0  0.34680512825E+01 -0.89910174013E+01  0.25846259412E+01  0.99772774405E+01  0.51100000000E-03 0. -1.
        -11    1    3    3    0    0  0.41894250607E+01 -0.30403630144E+02 -0.20077518276E+02  0.36674769920E+02  0.51100000000E-03 0.  1.
         12    1    3    3    0    0 -0.79423065337E+01  0.38523613113E+02  0.18236562315E+02  0.43355751700E+02  0.00000000000E+00 0. -1.
</event>
<event>
 7    1  0.3276565E-015  0.9000777E+02  0.7816164E-02  0.1186339E+00
        -11   -1    0    0    0    0  0.00000000000E+00  0.00000000000E+00  0.45593999997E+02  0.45594000000E+02  0.51100000000E-03 0. -1.
         11   -1    0    0    0    0 -0.00000000000E+00 -0.00000000000E+00 -0.45593999997E+02  0.45594000000E+02  0.51100000000E-03 0.  1.
    9900012    2    1    2    0    0 -0.50931955896E+00  0.84485356481E+00 -0.64788567306E+00  0.90007771291E+02  0.90000033072E+02 0.  0.
         12    1    1    2    0    0  0.50931955896E+00 -0.84485356481E+00  0.64788567306E+00  0.11802287085E+01  0.00000000000E+00 0. -1.
         11    1    3    3    0    0 -0.14123308206E+01 -0.66963943955E+01  0.82020006329E+01  0.10682190360E+02  0.51100000000E-03 0. -1.
        -11    1    3    3    0    0  0.33461662640E+02  0.25224278030E+01 -0.25752342259E+02  0.42299274707E+02  0.51100000000E-03 0.  1.
         12    1    3    3    0    0 -0.32558651378E+02  0.50188201573E+01  0.16902455953E+02  0.37026306224E+02  0.00000000000E+00 0. -1.
</event>
<event>
 7    1  0.3276565E-015  0.9000764E+02  0.7816164E-02  0.1186339E+00
        -11   -1    0    0    0    0  0.00000000000E+00  0.00000000000E+00  0.45593999997E+02  0.45594000000E+02  0.51100000000E-03 0. -1.
         11   -1    0    0    0    0 -0.00000000000E+00 -0.00000000000E+00 -0.45593999997E+02  0.45594000000E+02  0.51100000000E-03 0.  1.
    9900012    2    1    2    0    0 -0.11894325116E-01 -0.70970539411E+00 -0.94309493619E+00  0.90007639343E+02  0.89999899383E+02 0.  0.
         12    1    1    2    0    0  0.11894325116E-01  0.70970539411E+00  0.94309493619E+00  0.11803606568E+01  0.00000000000E+00 0. -1.
         11    1    3    3    0    0 -0.24920115679E+02 -0.20514681169E+02  0.23431126290E+02  0.39885862011E+02  0.51100000000E-03 0. -1.
        -11    1    3    3    0    0 -0.68614460241E+01  0.30530331595E+01 -0.68245508299E+01  0.10147657232E+02  0.51100000000E-03 0.  1.
        -12    1    3    3    0    0  0.31769667378E+02  0.16751942615E+02 -0.17549670396E+02  0.39974120099E+02  0.00000000000E+00 0.  1.
</event>
<event>
 7    1  0.3276565E-015  0.9000773E+02  0.7816164E-02  0.1186339E+00
        -11   -1    0    0    0    0  0.00000000000E+00  0.00000000000E+00  0.45593999997E+02  0.45594000000E+02  0.51100000000E-03 0.  1.
         11   -1    0    0    0    0 -0.00000000000E+00 -0.00000000000E+00 -0.45593999997E+02  0.45594000000E+02  0.51100000000E-03 0. -1.
    9900012    2    1    2    0    0  0.78250096976E+00  0.57865448663E+00  0.66774936010E+00  0.90007729696E+02  0.89999990928E+02 0.  0.
         12    1    1    2    0    0 -0.78250096976E+00 -0.57865448663E+00 -0.66774936010E+00  0.11802703040E+01  0.00000000000E+00 0. -1.
         11    1    3    3    0    0  0.10240946053E+01  0.77149347852E+00 -0.15844865824E+02  0.15896658303E+02  0.51100000000E-03 0. -1.
        -11    1    3    3    0    0  0.32068819798E+02  0.16227245748E+02  0.97813548597E+01  0.37247920895E+02  0.51100000000E-03 0.  1.
         12    1    3    3    0    0 -0.32310413434E+02 -0.16420084740E+02  0.67312603245E+01  0.36863150499E+02  0.00000000000E+00 0. -1.
</event>
<event>
 7    1  0.3276565E-015  0.9000788E+02  0.7816164E-02  0.1186339E+00
        -11   -1    0    0    0    0  0.00000000000E+00  0.00000000000E+00  0.45593999997E+02  0.45594000000E+02  0.51100000000E-03 0.  1.
         11   -1    0    0    0    0 -0.00000000000E+00 -0.00000000000E+00 -0.45593999997E+02  0.45594000000E+02  0.51100000000E-03 0. -1.
    9900012    2    1    2    0    0  0.22099973504E+00 -0.11579400456E+01  0.54977298320E-01  0.90007877746E+02  0.90000140932E+02 0.  0.
         12    1    1    2    0    0 -0.22099973504E+00  0.11579400456E+01 -0.54977298320E-01  0.11801222545E+01  0.00000000000E+00 0. -1.
         11    1    3    3    0    0  0.32335400681E-01  0.79897376771E+01 -0.63492729970E+01  0.10205401588E+02  0.51100000000E-03 0. -1.
        -11    1    3    3    0    0 -0.37226703793E+02 -0.15960036489E+02 -0.30375888729E+01  0.40617449285E+02  0.51100000000E-03 0.  1.
         12    1    3    3    0    0  0.37415368127E+02  0.68123587666E+01  0.94418391683E+01  0.39185026872E+02  0.00000000000E+00 0. -1.
</event>
<event>
 7    1  0.3276565E-015  0.9000774E+02  0.7816164E-02  0.1186339E+00
        -11   -1    0    0    0    0  0.00000000000E+00  0.00000000000E+00  0.45593999997E+02  0.45594000000E+02  0.51100000000E-03 0.  1.
         11   -1    0    0    0    0 -0.00000000000E+00 -0.00000000000E+00 -0.45593999997E+02  0.45594000000E+02  0.51100000000E-03 0. -1.
    9900012    2    1    2    0    0 -0.21389214445E+00  0.38434553225E+00  0.10952369344E+01  0.90007739317E+02  0.90000000676E+02 0.  0.
         12    1    1    2    0    0  0.21389214445E+00 -0.38434553225E+00 -0.10952369344E+01  0.11802606831E+01  0.00000000000E+00 0. -1.
         11    1    3    3    0    0 -0.84971112390E+00 -0.85415767048E+01  0.29022318404E+01  0.90610976991E+01  0.51100000000E-03 0. -1.
        -11    1    3    3    0    0 -0.94251787639E+01  0.37922784185E+02  0.19412738002E+02  0.43632854044E+02  0.51100000000E-03 0.  1.
         12    1    3    3    0    0  0.10060997743E+02 -0.28996861948E+02 -0.21219732907E+02  0.37313787574E+02  0.00000000000E+00 0. -1.
</event>
<event>
 7    1  0.3276565E-015  0.9000773E+02  0.7816164E-02  0.1186339E+00
        -11   -1    0    0    0    0  0.00000000000E+00  0.00000000000E+00  0.45593999997E+02  0.45594000000E+02  0.51100000000E-03 0. -1.
         11   -1    0    0    0    0 -0.00000000000E+00 -0.00000000000E+00 -0.45593999997E+02  0.45594000000E+02  0.51100000000E-03 0.  1.
    9900012    2    1    2    0    0  0.10159135507E+01 -0.50490484273E+00  0.32560891359E+00  0.90007732908E+02  0.89999994183E+02 0.  0.
         12    1    1    2    0    0 -0.10159135507E+01  0.50490484273E+00 -0.32560891359E+00  0.11802670915E+01  0.00000000000E+00 0. -1.
         11    1    3    3    0    0  0.14920491887E+02 -0.10461865811E+02 -0.22625471865E+01  0.18362756721E+02  0.51100000000E-03 0. -1.
        -11    1    3    3    0    0  0.16980934531E+02  0.29819454163E+02 -0.32249331570E+01  0.34466682147E+02  0.51100000000E-03 0.  1.
         12    1    3    3    0    0 -0.30885512867E+02 -0.19862493195E+02  0.58130892570E+01  0.37178294040E+02  0.00000000000E+00 0. -1.
</event>
<event>
 7    1  0.3276565E-015  0.9000756E+02  0.7816164E-02  0.1186339E+00
        -11   -1    0    0    0    0  0.00000000000E+00  0.00000000000E+00  0.45593999997E+02  0.45594000000E+02  0.51100000000E-03 0. -1.
         11   -1    0    0    0    0 -0.00000000000E+00 -0.00000000000E+00 -0.45593999997E+02  0.45594000000E+02  0.51100000000E-03 0.  1.
    9900012    2    1    2    0    0  0.63509724302E+00 -0.89187476132E+00  0.44118772157E+00  0.90007561224E+02  0.89999820232E+02 0.  0.
         12    1    1    2    0    0 -0.63509724302E+00  0.89187476132E+00 -0.44118772157E+00  0.11804387759E+01  0.00000000000E+00 0. -1.
         11    1    3    3    0    0  0.37183079008E+01 -0.77657708598E+01  0.14046566336E+01  0.87238793671E+01  0.51100000000E-03 0. -1.
        -11    1    3    3    0    0 -0.20202618357E+02  0.32074065795E+02  0.21364561804E+02  0.43512480812E+02  0.51100000000E-03 0.  1.
         12    1    3    3    0    0  0.17119407699E+02 -0.25200169696E+02 -0.22328030716E+02  0.37771201045E+02  0.00000000000E+00 0. -1.
</event>
<event>
 7    1  0.3276565E-015  0.9000776E+02  0.7816164E-02  0.1186339E+00
        -11   -1    0    0    0    0  0.00000000000E+00  0.00000000000E+00  0.45593999997E+02  0.45594000000E+02  0.51100000000E-03 0. -1.
         11   -1    0    0    0    0 -0.00000000000E+00 -0.00000000000E+00 -0.45593999997E+02  0.45594000000E+02  0.51100000000E-03 0.  1.
    9900012    2    1    2    0    0 -0.50840116697E+00  0.10582622192E+01 -0.12068720945E+00  0.90007764399E+02  0.90000026089E+02 0.  0.
         12    1    1    2    0    0  0.50840116697E+00 -0.10582622192E+01  0.12068720945E+00  0.11802356009E+01  0.00000000000E+00 0. -1.
         11    1    3    3    0    0  0.56426770863E+01 -0.94008555790E+01  0.10399861258E+02  0.15112015245E+02  0.51100000000E-03 0. -1.
        -11    1    3    3    0    0 -0.37828044348E+02  0.15676166678E+02  0.50750045602E+00  0.40950710591E+02  0.51100000000E-03 0.  1.
         12    1    3    3    0    0  0.31676966095E+02 -0.52170488801E+01 -0.11028048924E+02  0.33945038563E+02  0.00000000000E+00 0. -1.
</event>
<event>
 7    1  0.3276565E-015  0.9000700E+02  0.7816164E-02  0.1186341E+00
        -11   -1    0    0    0    0  0.00000000000E+00  0.00000000000E+00  0.45593999997E+02  0.45594000000E+02  0.51100000000E-03 0.  1.
         11   -1    0    0    0    0 -0.00000000000E+00 -0.00000000000E+00 -0.45593999997E+02  0.45594000000E+02  0.51100000000E-03 0. -1.
    9900012    2    1    2    0    0 -0.52541578055E+00  0.95394289009E+00  0.45683848184E+00  0.90006996114E+02  0.89999247660E+02 0.  0.
         12    1    1    2    0    0  0.52541578055E+00 -0.95394289009E+00 -0.45683848184E+00  0.11810038859E+01  0.00000000000E+00 0. -1.
         11    1    3    3    0    0  0.57338875534E+00 -0.44241805251E+01  0.83502584198E+01  0.94672574657E+01  0.51100000000E-03 0. -1.
        -11    1    3    3    0    0  0.15836423600E+02 -0.25329616802E+02  0.19814106591E+02  0.35846626342E+02  0.51100000000E-03 0.  1.
         12    1    3    3    0    0 -0.16935228136E+02  0.30707740218E+02 -0.27707526529E+02  0.44693112307E+02  0.00000000000E+00 0. -1.
</event>
<event>
 7    1  0.3276565E-015  0.9000769E+02  0.7816164E-02  0.1186339E+00
        -11   -1    0    0    0    0  0.00000000000E+00  0.00000000000E+00  0.45593999997E+02  0.45594000000E+02  0.51100000000E-03 0.  1.
         11   -1    0    0    0    0 -0.00000000000E+00 -0.00000000000E+00 -0.45593999997E+02  0.45594000000E+02  0.51100000000E-03 0. -1.
    9900012    2    1    2    0    0  0.10188018988E+00 -0.29861033916E+00  0.11373593900E+01  0.90007688986E+02  0.89999949681E+02 0.  0.
         12    1    1    2    0    0 -0.10188018988E+00  0.29861033916E+00 -0.11373593900E+01  0.11803110140E+01  0.00000000000E+00 0. -1.
         11    1    3    3    0    0  0.34409767048E+02 -0.13187374269E+01 -0.10011034163E+02  0.35860729802E+02  0.51100000000E-03 0. -1.
        -11    1    3    3    0    0  0.83253652225E+01  0.49888791238E+01  0.49110627006E+01  0.10877461014E+02  0.51100000000E-03 0.  1.
        -12    1    3    3    0    0 -0.42633252081E+02 -0.39687520360E+01  0.62373308521E+01  0.43269498170E+02  0.00000000000E+00 0.  1.
</event>
<event>
 7    1  0.3276565E-015  0.9000760E+02  0.7816164E-02  0.1186339E+00
        -11   -1    0    0    0    0  0.00000000000E+00  0.00000000000E+00  0.45593999997E+02  0.45594000000E+02  0.51100000000E-03 0. -1.
         11   -1    0    0    0    0 -0.00000000000E+00 -0.00000000000E+00 -0.45593999997E+02  0.45594000000E+02  0.51100000000E-03 0.  1.
    9900012    2    1    2    0    0  0.64733281882E+00 -0.95345618714E+00 -0.25541381445E+00  0.90007595537E+02  0.89999854998E+02 0.  0.
         12    1    1    2    0    0 -0.64733281882E+00  0.95345618714E+00  0.25541381445E+00  0.11804044628E+01  0.00000000000E+00 0. -1.
         11    1    3    3    0    0  0.10382075203E+02  0.38033766481E+02 -0.91435254303E+01  0.40471705373E+02  0.51100000000E-03 0. -1.
        -11    1    3    3    0    0  0.68455748202E+01 -0.81236378233E+01 -0.51339221421E+01  0.11798836507E+02  0.51100000000E-03 0.  1.
        -12    1    3    3    0    0 -0.16580317204E+02 -0.30863584844E+02  0.14022033758E+02  0.37737053657E+02  0.00000000000E+00 0.  1.
</event>
<event>
 7    1  0.3276565E-015  0.9000768E+02  0.7816164E-02  0.1186339E+00
        -11   -1    0    0    0    0  0.00000000000E+00  0.00000000000E+00  0.45593999997E+02  0.45594000000E+02  0.51100000000E-03 0. -1.
         11   -1    0    0    0    0 -0.00000000000E+00 -0.00000000000E+00 -0.45593999997E+02  0.45594000000E+02  0.51100000000E-03 0.  1.
    9900012    2    1    2    0    0 -0.91822058896E-01 -0.10347174416E+01 -0.56043613898E+00  0.90007677951E+02  0.89999938500E+02 0.  0.
         12    1    1    2    0    0  0.91822058896E-01  0.10347174416E+01  0.56043613898E+00  0.11803220494E+01  0.00000000000E+00 0. -1.
         11    1    3    3    0    0  0.58165303037E+01 -0.59792754552E+01  0.72973948361E+00  0.83735464242E+01  0.51100000000E-03 0. -1.
        -11    1    3    3    0    0 -0.76172545456E+01 -0.18160296265E+02 -0.35336043309E+02  0.40453119586E+02  0.51100000000E-03 0.  1.
         12    1    3    3    0    0  0.17089021830E+01  0.23104854278E+02  0.34045867687E+02  0.41181011940E+02  0.00000000000E+00 0. -1.
</event>
<event>
 7    1  0.3276565E-015  0.9000746E+02  0.7816164E-02  0.1186340E+00
        -11   -1    0    0    0    0  0.00000000000E+00  0.00000000000E+00  0.45593999997E+02  0.45594000000E+02  0.51100000000E-03 0. -1.
         11   -1    0    0    0    0 -0.00000000000E+00 -0.00000000000E+00 -0.45593999997E+02  0.45594000000E+02  0.51100000000E-03 0.  1.
    9900012    2    1    2    0    0 -0.67505276798E+00  0.48146846646E+00 -0.84034266875E+00  0.90007456089E+02  0.89999713709E+02 0.  0.
         12    1    1    2    0    0  0.67505276798E+00 -0.48146846646E+00  0.84034266875E+00  0.11805439105E+01  0.00000000000E+00 0. -1.
         11    1    3    3    0    0  0.11323662961E+02 -0.34460569154E+02  0.12774615354E+02  0.38457079543E+02  0.51100000000E-03 0. -1.
        -11    1    3    3    0    0 -0.35830194597E+01 -0.33551554005E+01  0.59629967756E+01  0.77234983665E+01  0.51100000000E-03 0.  1.
        -12    1    3    3    0    0 -0.84156962689E+01  0.38297193021E+02 -0.19577954798E+02  0.43826878180E+02  0.00000000000E+00 0.  1.
</event>
<event>
 7    1  0.3276565E-015  0.9000775E+02  0.7816164E-02  0.1186339E+00
        -11   -1    0    0    0    0  0.00000000000E+00  0.00000000000E+00  0.45593999997E+02  0.45594000000E+02  0.51100000000E-03 0.  1.
         11   -1    0    0    0    0 -0.00000000000E+00 -0.00000000000E+00 -0.45593999997E+02  0.45594000000E+02  0.51100000000E-03 0. -1.
    9900012    2    1    2    0    0 -0.56802399405E+00  0.10225594901E+01  0.15718102953E+00  0.90007752126E+02  0.90000013654E+02 0.  0.
         12    1    1    2    0    0  0.56802399405E+00 -0.10225594901E+01 -0.15718102953E+00  0.11802478742E+01  0.00000000000E+00 0. -1.
         11    1    3    3    0    0 -0.16642594331E+02  0.25305392951E+02 -0.20940050758E+02  0.36821523386E+02  0.51100000000E-03 0. -1.
        -11    1    3    3    0    0 -0.99048143099E+01 -0.99106784955E+00 -0.34384434686E+01  0.10531403313E+02  0.51100000000E-03 0.  1.
        -12    1    3    3    0    0  0.25979384646E+02 -0.23291765611E+02  0.24535675256E+02  0.42654825427E+02  0.00000000000E+00 0.  1.
</event>
<event>
 7    1  0.3276565E-015  0.9000776E+02  0.7816164E-02  0.1186339E+00
        -11   -1    0    0    0    0  0.00000000000E+00  0.00000000000E+00  0.45593999997E+02  0.45594000000E+02  0.51100000000E-03 0.  1.
         11   -1    0    0    0    0 -0.00000000000E+00 -0.00000000000E+00 -0.45593999997E+02  0.45594000000E+02  0.51100000000E-03 0. -1.
    9900012    2    1    2    0    0 -0.78734438722E-01  0.12438106784E+00  0.11710265209E+01  0.90007757281E+02  0.90000018878E+02 0.  0.
         12    1    1    2    0    0  0.78734438722E-01 -0.12438106784E+00 -0.11710265209E+01  0.11802427185E+01  0.00000000000E+00 0. -1.
         11    1    3    3    0    0 -0.16076278727E+02 -0.27065607740E+02  0.16517417441E+02  0.35550231212E+02  0.51100000000E-03 0. -1.
        -11    1    3    3    0    0 -0.79860209871E+01 -0.11487561614E+01  0.73750081829E+01  0.10931007176E+02  0.51100000000E-03 0.  1.
        -12    1    3    3    0    0  0.23983565276E+02  0.28338744969E+02 -0.22721399103E+02  0.43526518893E+02  0.00000000000E+00 0.  1.
</event>
<event>
 7    1  0.3276565E-015  0.9000765E+02  0.7816164E-02  0.1186339E+00
        -11   -1    0    0    0    0  0.00000000000E+00  0.00000000000E+00  0.45593999997E+02  0.45594000000E+02  0.51100000000E-03 0. -1.
         11   -1    0    0    0    0 -0.00000000000E+00 -0.00000000000E+00 -0.45593999997E+02  0.45594000000E+02  0.51100000000E-03 0.  1.
    9900012    2    1    2    0    0 -0.71197469161E+00  0.92411229815E+00 -0.17979505141E+00  0.90007653542E+02  0.89999913768E+02 0.  0.
         12    1    1    2    0    0  0.71197469161E+00 -0.92411229815E+00  0.17979505141E+00  0.11803464583E+01  0.00000000000E+00 0. -1.
         11    1    3    3    0    0 -0.10670442221E+02  0.25868226466E+02  0.15726491627E+02  0.32099003362E+02  0.51100000000E-03 0. -1.
        -11    1    3    3    0    0  0.11656080726E+02  0.76899171248E+01  0.91802974751E+01  0.16711579975E+02  0.51100000000E-03 0.  1.
        -12    1    3    3    0    0 -0.16976131963E+01 -0.32634031292E+02 -0.25086584154E+02  0.41197070205E+02  0.00000000000E+00 0.  1.
</event>
<event>
 7    1  0.3276565E-015  0.9000772E+02  0.7816164E-02  0.1186339E+00
        -11   -1    0    0    0    0  0.00000000000E+00  0.00000000000E+00  0.45593999997E+02  0.45594000000E+02  0.51100000000E-03 0. -1.
         11   -1    0    0    0    0 -0.00000000000E+00 -0.00000000000E+00 -0.45593999997E+02  0.45594000000E+02  0.51100000000E-03 0.  1.
    9900012    2    1    2    0    0 -0.22765544775E+00 -0.11321989776E+01  0.24365359885E+00  0.90007716727E+02  0.89999977788E+02 0.  0.
         12    1    1    2    0    0  0.22765544775E+00  0.11321989776E+01 -0.24365359885E+00  0.11802832728E+01  0.00000000000E+00 0. -1.
         11    1    3    3    0    0  0.10340361605E+02  0.22845775896E+00  0.38005466798E+02  0.39387698306E+02  0.51100000000E-03 0. -1.
        -11    1    3    3    0    0 -0.48279910069E+01 -0.73553080583E+01  0.27880653664E+01  0.92294833302E+01  0.51100000000E-03 0.  1.
        -12    1    3    3    0    0 -0.57400260454E+01  0.59946513217E+01 -0.40549878565E+02  0.41390535091E+02  0.00000000000E+00 0.  1.
</event>
<event>
 7    1  0.3276565E-015  0.9000767E+02  0.7816164E-02  0.1186339E+00
        -11   -1    0    0    0    0  0.00000000000E+00  0.00000000000E+00  0.45593999997E+02  0.45594000000E+02  0.51100000000E-03 0. -1.
         11   -1    0    0    0    0 -0.00000000000E+00 -0.00000000000E+00 -0.45593999997E+02  0.45594000000E+02  0.51100000000E-03 0.  1.
    9900012    2    1    2    0    0  0.10421287745E+01 -0.45948613601E+00  0.30988590389E+00  0.90007665655E+02  0.89999926042E+02 0.  0.
         12    1    1    2    0    0 -0.10421287745E+01  0.45948613601E+00 -0.30988590389E+00  0.11803343447E+01  0.00000000000E+00 0. -1.
         11    1    3    3    0    0  0.55186616405E+01 -0.68569439598E+01 -0.83622893085E+01  0.12140889157E+02  0.51100000000E-03 0. -1.
        -11    1    3    3    0    0 -0.14931574728E+02 -0.32940835564E+02  0.85447287229E+01  0.37162655459E+02  0.51100000000E-03 0.  1.
         12    1    3    3    0    0  0.10455041862E+02  0.39338293388E+02  0.12744648944E+00  0.40704121040E+02  0.00000000000E+00 0. -1.
</event>
<event>
 7    1  0.3276565E-015  0.9000754E+02  0.7816164E-02  0.1186339E+00
        -11   -1    0    0    0    0  0.00000000000E+00  0.00000000000E+00  0.45593999997E+02  0.45594000000E+02  0.51100000000E-03 0. -1.
         11   -1    0    0    0    0 -0.00000000000E+00 -0.00000000000E+00 -0.45593999997E+02  0.45594000000E+02  0.51100000000E-03 0.  1.
    9900012    2    1    2    0    0  0.40307560865E+00 -0.80492357104E+00  0.76362381302E+00  0.90007536858E+02  0.89999795544E+02 0.  0.
         12    1    1    2    0    0 -0.40307560865E+00  0.80492357104E+00 -0.76362381302E+00  0.11804631419E+01  0.00000000000E+00 0. -1.
         11    1    3    3    0    0 -0.81967367198E+01 -0.24516778025E+01 -0.37549545810E+01  0.93432810654E+01  0.51100000000E-03 0. -1.
        -11    1    3    3    0    0 -0.26919034917E+02  0.18778407447E+02 -0.15660801854E+02  0.36366519521E+02  0.51100000000E-03 0.  1.
         12    1    3    3    0    0  0.35518847246E+02 -0.17131653215E+02  0.20179380248E+02  0.44297736271E+02  0.00000000000E+00 0. -1.
</event>
<event>
 7    1  0.3276565E-015  0.9000773E+02  0.7816164E-02  0.1186339E+00
        -11   -1    0    0    0    0  0.00000000000E+00  0.00000000000E+00  0.45593999997E+02  0.45594000000E+02  0.51100000000E-03 0. -1.
         11   -1    0    0    0    0 -0.00000000000E+00 -0.00000000000E+00 -0.45593999997E+02  0.45594000000E+02  0.51100000000E-03 0.  1.
    9900012    2    1    2    0    0 -0.10073720721E+01  0.53932610224E+00 -0.29558276782E+00  0.90007728714E+02  0.89999989933E+02 0.  0.
         12    1    1    2    0    0  0.10073720721E+01 -0.53932610224E+00  0.29558276782E+00  0.11802712861E+01  0.00000000000E+00 0. -1.
         11    1    3    3    0    0 -0.16149028419E+02 -0.38519192887E+02  0.99466482150E+01  0.42935476596E+02  0.51100000000E-03 0. -1.
        -11    1    3    3    0    0  0.26005275788E+01  0.30631786296E+01 -0.79236918111E+01  0.88842950865E+01  0.51100000000E-03 0.  1.
        -12    1    3    3    0    0  0.12541128768E+02  0.35995340359E+02 -0.23185391717E+01  0.38187957032E+02  0.00000000000E+00 0.  1.
</event>
<event>
 7    1  0.3276565E-015  0.9000776E+02  0.7816164E-02  0.1186339E+00
        -11   -1    0    0    0    0  0.00000000000E+00  0.00000000000E+00  0.45593999997E+02  0.45594000000E+02  0.51100000000E-03 0.  1.
         11   -1    0    0    0    0 -0.00000000000E+00 -0.00000000000E+00 -0.45593999997E+02  0.45594000000E+02  0.51100000000E-03 0. -1.
    9900012    2    1    2    0    0 -0.79664418643E+00  0.78732110374E+00  0.37209831004E+00  0.90007756960E+02  0.90000018552E+02 0.  0.
         12    1    1    2    0    0  0.79664418643E+00 -0.78732110374E+00 -0.37209831004E+00  0.11802430396E+01  0.00000000000E+00 0. -1.
         11    1    3    3    0    0  0.17803257585E+02 -0.29365385836E+02 -0.42049158964E+01  0.34597155720E+02  0.51100000000E-03 0. -1.
        -11    1    3    3    0    0  0.11065675958E+02 -0.16841135365E+01  0.40140957693E+01  0.11891105412E+02  0.51100000000E-03 0.  1.
        -12    1    3    3    0    0 -0.29665577729E+02  0.31836820477E+02  0.56291843712E+00  0.43519495829E+02  0.00000000000E+00 0.  1.
</event>
<event>
 7    1  0.3276565E-015  0.9000710E+02  0.7816164E-02  0.1186340E+00
        -11   -1    0    0    0    0  0.00000000000E+00  0.00000000000E+00  0.45593999997E+02  0.45594000000E+02  0.51100000000E-03 0. -1.
         11   -1    0    0    0    0 -0.00000000000E+00 -0.00000000000E+00 -0.45593999997E+02  0.45594000000E+02  0.51100000000E-03 0.  1.
    9900012    2    1    2    0    0  0.10675287119E+00 -0.11624462418E+01 -0.17846043321E+00  0.90007099680E+02  0.89999352593E+02 0.  0.
         12    1    1    2    0    0 -0.10675287119E+00  0.11624462418E+01  0.17846043321E+00  0.11809003205E+01  0.00000000000E+00 0. -1.
         11    1    3    3    0    0 -0.19637214920E+02  0.21151280695E+02  0.24270864116E+02  0.37710366347E+02  0.51100000000E-03 0. -1.
        -11    1    3    3    0    0  0.68615333936E+01  0.95039585906E+01 -0.42547127270E+01  0.12470302725E+02  0.51100000000E-03 0.  1.
        -12    1    3    3    0    0  0.12882434398E+02 -0.31817685527E+02 -0.20194611822E+02  0.39826430608E+02  0.00000000000E+00 0.  1.
</event>
<event>
 7    1  0.3276565E-015  0.9000768E+02  0.7816164E-02  0.1186339E+00
        -11   -1    0    0    0    0  0.00000000000E+00  0.00000000000E+00  0.45593999997E+02  0.45594000000E+02  0.51100000000E-03 0. -1.
         11   -1    0    0    0    0 -0.00000000000E+00 -0.00000000000E+00 -0.45593999997E+02  0.45594000000E+02  0.51100000000E-03 0.  1.
    9900012    2    1    2    0    0  0.10018577844E+01 -0.31935766186E+00  0.53615053282E+00  0.90007675583E+02  0.89999936100E+02 0.  0.
         12    1    1    2    0    0 -0.10018577844E+01  0.31935766186E+00 -0.53615053282E+00  0.11803244174E+01  0.00000000000E+00 0. -1.
         11    1    3    3    0    0  0.14243797491E+02  0.29441924890E+02  0.26198475312E+02  0.41905522514E+02  0.51100000000E-03 0. -1.
        -11    1    3    3    0    0  0.68165790458E+01 -0.57120864475E+01 -0.89003779879E+01  0.12582146481E+02  0.51100000000E-03 0.  1.
        -12    1    3    3    0    0 -0.20058518752E+02 -0.24049196104E+02 -0.16761946792E+02  0.35520006588E+02  0.00000000000E+00 0.  1.
</event>
<event>
 7    1  0.3276565E-015  0.9000755E+02  0.7816164E-02  0.1186339E+00
        -11   -1    0    0    0    0  0.00000000000E+00  0.00000000000E+00  0.45593999997E+02  0.45594000000E+02  0.51100000000E-03 0.  1.
         11   -1    0    0    0    0 -0.00000000000E+00 -0.00000000000E+00 -0.45593999997E+02  0.45594000000E+02  0.51100000000E-03 0. -1.
    9900012    2    1    2    0    0 -0.30207584729E-01 -0.10928517683E+01  0.44521332382E+00  0.90007554157E+02  0.89999813071E+02 0.  0.
         12    1    1    2    0    0  0.30207584729E-01  0.10928517683E+01 -0.44521332382E+00  0.11804458434E+01  0.00000000000E+00 0. -1.
         11    1    3    3    0    0  0.38141087525E+00  0.10228564377E+02 -0.41149213995E+01  0.11031843991E+02  0.51100000000E-03 0. -1.
        -11    1    3    3    0    0 -0.30606019703E+02  0.18551650412E+02 -0.26741602418E+01  0.35889320254E+02  0.51100000000E-03 0.  1.
         12    1    3    3    0    0  0.30194401243E+02 -0.29873066557E+02  0.72342949651E+01  0.43086389911E+02  0.00000000000E+00 0. -1.
</event>
<event>
 7    1  0.3276565E-015  0.9000754E+02  0.7816164E-02  0.1186339E+00
        -11   -1    0    0    0    0  0.00000000000E+00  0.00000000000E+00  0.45593999997E+02  0.45594000000E+02  0.51100000000E-03 0.  1.
         11   -1    0    0    0    0 -0.00000000000E+00 -0.00000000000E+00 -0.45593999997E+02  0.45594000000E+02  0.51100000000E-03 0. -1.
    9900012    2    1    2    0    0  0.60722937618E+00 -0.90874030164E+00 -0.44603131290E+00  0.90007542299E+02  0.89999801057E+02 0.  0.
         12    1    1    2    0    0 -0.60722937618E+00  0.90874030164E+00  0.44603131290E+00  0.11804577007E+01  0.00000000000E+00 0. -1.
         11    1    3    3    0    0  0.69959737171E+01 -0.25875991885E+01  0.47896802273E+01  0.88645560945E+01  0.51100000000E-03 0. -1.
        -11    1    3    3    0    0 -0.16698782261E+02  0.38344442800E+02  0.38100731753E+01  0.41995979337E+02  0.51100000000E-03 0.  1.
         12    1    3    3    0    0  0.10310037920E+02 -0.36665583913E+02 -0.90457847156E+01  0.39147006868E+02  0.00000000000E+00 0. -1.
</event>
<event>
 7    1  0.3276565E-015  0.9000770E+02  0.7816164E-02  0.1186339E+00
        -11   -1    0    0    0    0  0.00000000000E+00  0.00000000000E+00  0.45593999997E+02  0.45594000000E+02  0.51100000000E-03 0.  1.
         11   -1    0    0    0    0 -0.00000000000E+00 -0.00000000000E+00 -0.45593999997E+02  0.45594000000E+02  0.51100000000E-03 0. -1.
    9900012    2    1    2    0    0  0.84186718439E-01  0.16276496343E+00  0.11659859197E+01  0.90007702155E+02  0.89999963024E+02 0.  0.
         12    1    1    2    0    0 -0.84186718439E-01 -0.16276496343E+00 -0.11659859197E+01  0.11802978445E+01  0.00000000000E+00 0. -1.
         11    1    3    3    0    0  0.81472690827E+01  0.22204013467E+01 -0.23263806717E+01  0.87590081024E+01  0.51100000000E-03 0. -1.
        -11    1    3    3    0    0 -0.24881719879E+02  0.49005472956E+01  0.35974580453E+02  0.44014608791E+02  0.51100000000E-03 0.  1.
         12    1    3    3    0    0  0.16818637515E+02 -0.69581836789E+01 -0.32482213862E+02  0.37234085262E+02  0.00000000000E+00 0. -1.
</event>
<event>
 7    1  0.3276565E-015  0.9000767E+02  0.7816164E-02  0.1186339E+00
        -11   -1    0    0    0    0  0.00000000000E+00  0.00000000000E+00  0.45593999997E+02  0.45594000000E+02  0.51100000000E-03 0.  1.
         11   -1    0    0    0    0 -0.00000000000E+00 -0.00000000000E+00 -0.45593999997E+02  0.45594000000E+02  0.51100000000E-03 0. -1.
    9900012    2    1    2    0    0  0.90524631405E+00 -0.74702806852E+00 -0.12516925424E+00  0.90007665655E+02  0.89999926041E+02 0.  0.
         12    1    1    2    0    0 -0.90524631405E+00  0.74702806852E+00  0.12516925424E+00  0.11803343452E+01  0.00000000000E+00 0. -1.
         11    1    3    3    0    0 -0.58243382709E+01  0.63084086348E+01  0.28178996507E+01  0.90365643084E+01  0.51100000000E-03 0. -1.
        -11    1    3    3    0    0 -0.90849454782E+00 -0.20497386110E+02  0.34680276951E+02  0.40295034549E+02  0.51100000000E-03 0.  1.
         12    1    3    3    0    0  0.76380791328E+01  0.13441949407E+02 -0.37623345856E+02  0.40676066797E+02  0.00000000000E+00 0. -1.
</event>
<event>
 7    1  0.3276565E-015  0.9000777E+02  0.7816164E-02  0.1186339E+00
        -11   -1    0    0    0    0  0.00000000000E+00  0.00000000000E+00  0.45593999997E+02  0.45594000000E+02  0.51100000000E-03 0.  1.
         11   -1    0    0    0    0 -0.00000000000E+00 -0.00000000000E+00 -0.45593999997E+02  0.45594000000E+02  0.51100000000E-03 0. -1.
    9900012    2    1    2    0    0 -0.11741207987E+01  0.11995635157E+00  0.14389619586E-02  0.90007766444E+02  0.90000028161E+02 0.  0.
         12    1    1    2    0    0  0.11741207987E+01 -0.11995635157E+00 -0.14389619586E-02  0.11802335561E+01  0.00000000000E+00 0. -1.
         11    1    3    3    0    0  0.63130771767E+01 -0.88692961289E+01 -0.45900439150E+01  0.11814730664E+02  0.51100000000E-03 0. -1.
        -11    1    3    3    0    0  0.22778070155E+02  0.28347035143E+02  0.17055760625E+02  0.40165829409E+02  0.51100000000E-03 0.  1.
         12    1    3    3    0    0 -0.30265268130E+02 -0.19357782662E+02 -0.12464277748E+02  0.38027206371E+02  0.00000000000E+00 0. -1.
</event>
<event>
 7    1  0.3276565E-015  0.9000748E+02  0.7816164E-02  0.1186340E+00
        -11   -1    0    0    0    0  0.00000000000E+00  0.00000000000E+00  0.45593999997E+02  0.45594000000E+02  0.51100000000E-03 0. -1.
         11   -1    0    0    0    0 -0.00000000000E+00 -0.00000000000E+00 -0.45593999997E+02  0.45594000000E+02  0.51100000000E-03 0.  1.
    9900012    2    1    2    0    0  0.66523084394E+00 -0.80632832027E+00  0.54858148528E+00  0.90007475082E+02  0.89999732953E+02 0.  0.
         12    1    1    2    0    0 -0.66523084394E+00  0.80632832027E+00 -0.54858148528E+00  0.11805249179E+01  0.00000000000E+00 0. -1.
         11    1    3    3    0    0  0.24578477391E+02 -0.17352978602E+02  0.70134452519E+01  0.30893621215E+02  0.51100000000E-03 0. -1.
        -11    1    3    3    0    0 -0.25002296883E+01 -0.68466969614E+01 -0.22446845785E+02  0.23600620622E+02  0.51100000000E-03 0.  1.
        -12    1    3    3    0    0 -0.21413016859E+02  0.23393347244E+02  0.15981982018E+02  0.35513233245E+02  0.00000000000E+00 0.  1.
</event>
<event>
 7    1  0.3276565E-015  0.9000775E+02  0.7816164E-02  0.1186339E+00
        -11   -1    0    0    0    0  0.00000000000E+00  0.00000000000E+00  0.45593999997E+02  0.45594000000E+02  0.51100000000E-03 0. -1.
         11   -1    0    0    0    0 -0.00000000000E+00 -0.00000000000E+00 -0.45593999997E+02  0.45594000000E+02  0.51100000000E-03 0.  1.
    9900012    2    1    2    0    0  0.25849008464E+00 -0.11481284928E+01 -0.89325510838E-01  0.90007747821E+02  0.90000009292E+02 0.  0.
         12    1    1    2    0    0 -0.25849008464E+00  0.11481284928E+01  0.89325510838E-01  0.11802521793E+01  0.00000000000E+00 0. -1.
         11    1    3    3    0    0  0.30261160017E+02  0.12242586554E+01  0.24696666193E+02  0.39078919332E+02  0.51100000000E-03 0. -1.
        -11    1    3    3    0    0  0.33383054536E+01 -0.52070180121E+00  0.50986727401E+01  0.61165249643E+01  0.51100000000E-03 0.  1.
        -12    1    3    3    0    0 -0.33340975386E+02 -0.18516853470E+01 -0.29884664444E+02  0.44812303525E+02  0.00000000000E+00 0.  1.
</event>
<event>
 7    1  0.3276565E-015  0.9000767E+02  0.7816164E-02  0.1186339E+00
        -11   -1    0    0    0    0  0.00000000000E+00  0.00000000000E+00  0.45593999997E+02  0.45594000000E+02  0.51100000000E-03 0.  1.
         11   -1    0    0    0    0 -0.00000000000E+00 -0.00000000000E+00 -0.45593999997E+02  0.45594000000E+02  0.51100000000E-03 0. -1.
    9900012    2    1    2    0    0 -0.10625533963E+01  0.24316188926E+00 -0.45279826421E+00  0.90007672210E+02  0.89999932683E+02 0.  0.
         12    1    1    2    0    0  0.10625533963E+01 -0.24316188926E+00  0.45279826421E+00  0.11803277902E+01  0.00000000000E+00 0. -1.
         11    1    3    3    0    0 -0.10593047584E+02  0.13743809496E+02 -0.30245983934E+02  0.34870108990E+02  0.51100000000E-03 0. -1.
        -11    1    3    3    0    0 -0.20132056385E+00  0.11389413868E+02 -0.39827893151E+01  0.12067389494E+02  0.51100000000E-03 0.  1.
        -12    1    3    3    0    0  0.97318147520E+01 -0.24890061474E+02  0.33775974985E+02  0.43070173725E+02  0.00000000000E+00 0.  1.
</event>
<event>
 7    1  0.3276565E-015  0.9000776E+02  0.7816164E-02  0.1186339E+00
        -11   -1    0    0    0    0  0.00000000000E+00  0.00000000000E+00  0.45593999997E+02  0.45594000000E+02  0.51100000000E-03 0.  1.
         11   -1    0    0    0    0 -0.00000000000E+00 -0.00000000000E+00 -0.45593999997E+02  0.45594000000E+02  0.51100000000E-03 0. -1.
    9900012    2    1    2    0    0 -0.71040305130E+00  0.11316330238E+00  0.93567372212E+00  0.90007761150E+02  0.90000022797E+02 0.  0.
         12    1    1    2    0    0  0.71040305130E+00 -0.11316330238E+00 -0.93567372212E+00  0.11802388498E+01  0.00000000000E+00 0. -1.
         11    1    3    3    0    0  0.12881444542E+02 -0.74430403502E-01  0.56984454008E+01  0.14085788357E+02  0.51100000000E-03 0. -1.
        -11    1    3    3    0    0 -0.63592461763E+01 -0.20874624919E+02  0.28498703275E+02  0.35893816544E+02  0.51100000000E-03 0.  1.
         12    1    3    3    0    0 -0.72326014174E+01  0.21062218625E+02 -0.33261474953E+02  0.40028156250E+02  0.00000000000E+00 0. -1.
</event>
<event>
 7    1  0.3276565E-015  0.9000778E+02  0.7816164E-02  0.1186339E+00
        -11   -1    0    0    0    0  0.00000000000E+00  0.00000000000E+00  0.45593999997E+02  0.45594000000E+02  0.51100000000E-03 0. -1.
         11   -1    0    0    0    0 -0.00000000000E+00 -0.00000000000E+00 -0.45593999997E+02  0.45594000000E+02  0.51100000000E-03 0.  1.
    9900012    2    1    2    0    0 -0.62969873240E+00 -0.42926828482E+00  0.90118418532E+00  0.90007777695E+02  0.90000039560E+02 0.  0.
         12    1    1    2    0    0  0.62969873240E+00  0.42926828482E+00 -0.90118418532E+00  0.11802223053E+01  0.00000000000E+00 0. -1.
         11    1    3    3    0    0 -0.33083080781E+02  0.25605771586E+02 -0.31842839806E+01  0.41955755711E+02  0.51100000000E-03 0. -1.
        -11    1    3    3    0    0 -0.10072721222E+01 -0.64824828267E+01  0.64832590914E+01  0.92233307126E+01  0.51100000000E-03 0.  1.
        -12    1    3    3    0    0  0.33460654171E+02 -0.19552557044E+02 -0.23977909255E+01  0.38828691272E+02  0.00000000000E+00 0.  1.
</event>
<event>
 7    1  0.3276565E-015  0.9000772E+02  0.7816164E-02  0.1186339E+00
        -11   -1    0    0    0    0  0.00000000000E+00  0.00000000000E+00  0.45593999997E+02  0.45594000000E+02  0.51100000000E-03 0. -1.
         11   -1    0    0    0    0 -0.00000000000E+00 -0.00000000000E+00 -0.45593999997E+02  0.45594000000E+02  0.51100000000E-03 0.  1.
    9900012    2    1    2    0    0  0.21302704830E+00 -0.49548042409E+00 -0.10498495973E+01  0.90007718021E+02  0.89999979098E+02 0.  0.
         12    1    1    2    0    0 -0.21302704830E+00  0.49548042409E+00  0.10498495973E+01  0.11802819794E+01  0.00000000000E+00 0. -1.
         11    1    3    3    0    0  0.67375723828E+01  0.13764891647E+01  0.22483098326E+02  0.23511259316E+02  0.51100000000E-03 0. -1.
        -11    1    3    3    0    0  0.13552803427E+02 -0.17317626681E+02  0.10257743978E+02  0.24265201140E+02  0.51100000000E-03 0.  1.
        -12    1    3    3    0    0 -0.20077348762E+02  0.15445657092E+02 -0.33790691901E+02  0.42231257564E+02  0.00000000000E+00 0.  1.
</event>
<event>
 7    1  0.3276565E-015  0.9000758E+02  0.7816164E-02  0.1186339E+00
        -11   -1    0    0    0    0  0.00000000000E+00  0.00000000000E+00  0.45593999997E+02  0.45594000000E+02  0.51100000000E-03 0. -1.
         11   -1    0    0    0    0 -0.00000000000E+00 -0.00000000000E+00 -0.45593999997E+02  0.45594000000E+02  0.51100000000E-03 0.  1.
    9900012    2    1    2    0    0 -0.88136265942E+00 -0.29956120386E+00  0.72584495584E+00  0.90007581450E+02  0.89999840725E+02 0.  0.
         12    1    1    2    0    0  0.88136265942E+00  0.29956120386E+00 -0.72584495584E+00  0.11804185496E+01  0.00000000000E+00 0. -1.
         11    1    3    3    0    0  0.39394297307E+01 -0.58729177290E+01 -0.43683813987E+01  0.83122214576E+01  0.51100000000E-03 0. -1.
        -11    1    3    3    0    0 -0.36711001085E+02 -0.53596687778E+01 -0.17592903132E+02  0.41060125316E+02  0.51100000000E-03 0.  1.
         12    1    3    3    0    0  0.31890208695E+02  0.10933025303E+02  0.22687129487E+02  0.40635234677E+02  0.00000000000E+00 0. -1.
</event>
<event>
 7    1  0.3276565E-015  0.9000776E+02  0.7816164E-02  0.1186339E+00
        -11   -1    0    0    0    0  0.00000000000E+00  0.00000000000E+00  0.45593999997E+02  0.45594000000E+02  0.51100000000E-03 0.  1.
         11   -1    0    0    0    0 -0.00000000000E+00 -0.00000000000E+00 -0.45593999997E+02  0.45594000000E+02  0.51100000000E-03 0. -1.
    9900012    2    1    2    0    0 -0.97619114160E+00  0.65162381555E+00  0.12414663658E+00  0.90007756326E+02  0.90000017910E+02 0.  0.
         12    1    1    2    0    0  0.97619114160E+00 -0.65162381555E+00 -0.12414663658E+00  0.11802436737E+01  0.00000000000E+00 0. -1.
         11    1    3    3    0    0  0.12496033917E+02 -0.15904577238E+02 -0.36914401591E+02  0.42092511042E+02  0.51100000000E-03 0. -1.
        -11    1    3    3    0    0 -0.43465359426E+01 -0.52137215173E+01  0.79310046734E+01  0.10439161947E+02  0.51100000000E-03 0.  1.
        -12    1    3    3    0    0 -0.91256891162E+01  0.21769922571E+02  0.29107543554E+02  0.37476083337E+02  0.00000000000E+00 0.  1.
</event>
<event>
 7    1  0.3276565E-015  0.9000774E+02  0.7816164E-02  0.1186339E+00
        -11   -1    0    0    0    0  0.00000000000E+00  0.00000000000E+00  0.45593999997E+02  0.45594000000E+02  0.51100000000E-03 0.  1.
         11   -1    0    0    0    0 -0.00000000000E+00 -0.00000000000E+00 -0.45593999997E+02  0.45594000000E+02  0.51100000000E-03 0. -1.
    9900012    2    1    2    0    0 -0.98337696837E+00 -0.62769935638E+00  0.17882797781E+00  0.90007738932E+02  0.90000000285E+02 0.  0.
         12    1    1    2    0    0  0.98337696837E+00  0.62769935638E+00 -0.17882797781E+00  0.11802610684E+01  0.00000000000E+00 0. -1.
         11    1    3    3    0    0  0.72404747964E+01 -0.45471543042E+01 -0.47947630944E+01  0.98025935821E+01  0.51100000000E-03 0. -1.
        -11    1    3    3    0    0 -0.17231008707E+02  0.19789035146E+02 -0.30548297401E+02  0.40270486060E+02  0.51100000000E-03 0.  1.
         12    1    3    3    0    0  0.90071569427E+01 -0.15869580199E+02  0.35521888473E+02  0.39934659290E+02  0.00000000000E+00 0. -1.
</event>
<event>
 7    1  0.3276565E-015  0.9000761E+02  0.7816164E-02  0.1186339E+00
        -11   -1    0    0    0    0  0.00000000000E+00  0.00000000000E+00  0.45593999997E+02  0.45594000000E+02  0.51100000000E-03 0.  1.
         11   -1    0    0    0    0 -0.00000000000E+00 -0.00000000000E+00 -0.45593999997E+02  0.45594000000E+02  0.51100000000E-03 0. -1.
    9900012    2    1    2    0    0  0.82838551842E+00  0.58622832284E+00  0.60285255486E+00  0.90007611328E+02  0.89999870998E+02 0.  0.
         12    1    1    2    0    0 -0.82838551842E+00 -0.58622832284E+00 -0.60285255486E+00  0.11803886718E+01  0.00000000000E+00 0. -1.
         11    1    3    3    0    0 -0.29289130771E+01  0.92518084730E+01 -0.44304408730E+01  0.10667862880E+02  0.51100000000E-03 0. -1.
        -11    1    3    3    0    0  0.18330299158E+02  0.30374873835E+02 -0.65751950787E+01  0.36081380493E+02  0.51100000000E-03 0.  1.
         12    1    3    3    0    0 -0.14573000563E+02 -0.39040453985E+02  0.11608488507E+02  0.43258367955E+02  0.00000000000E+00 0. -1.
</event>
<event>
 7    1  0.3276565E-015  0.9000773E+02  0.7816164E-02  0.1186339E+00
        -11   -1    0    0    0    0  0.00000000000E+00  0.00000000000E+00  0.45593999997E+02  0.45594000000E+02  0.51100000000E-03 0.  1.
         11   -1    0    0    0    0 -0.00000000000E+00 -0.00000000000E+00 -0.45593999997E+02  0.45594000000E+02  0.51100000000E-03 0. -1.
    9900012    2    1    2    0    0  0.20654580950E+00 -0.96895425654E+00  0.64148621189E+00  0.90007729657E+02  0.89999990888E+02 0.  0.
         12    1    1    2    0    0 -0.20654580950E+00  0.96895425654E+00 -0.64148621189E+00  0.11802703431E+01  0.00000000000E+00 0. -1.
         11    1    3    3    0    0  0.65452727483E+01 -0.36172667652E+01 -0.44679143714E+01  0.87113416470E+01  0.51100000000E-03 0. -1.
        -11    1    3    3    0    0  0.35176494076E+02 -0.78247574189E+01  0.11889579733E+02  0.37946998177E+02  0.51100000000E-03 0.  1.
         12    1    3    3    0    0 -0.41515221015E+02  0.10473069928E+02 -0.67801791498E+01  0.43349389833E+02  0.00000000000E+00 0. -1.
</event>
<event>
 7    1  0.3276565E-015  0.9000780E+02  0.7816164E-02  0.1186339E+00
        -11   -1    0    0    0    0  0.00000000000E+00  0.00000000000E+00  0.45593999997E+02  0.45594000000E+02  0.51100000000E-03 0. -1.
         11   -1    0    0    0    0 -0.00000000000E+00 -0.00000000000E+00 -0.45593999997E+02  0.45594000000E+02  0.51100000000E-03 0.  1.
    9900012    2    1    2    0    0 -0.46913644282E+00 -0.23874832126E+00 -0.10563085948E+01  0.90007797640E+02  0.90000059769E+02 0.  0.
         12    1    1    2    0    0  0.46913644282E+00  0.23874832126E+00  0.10563085948E+01  0.11802023599E+01  0.00000000000E+00 0. -1.
         11    1    3    3    0    0  0.11026640269E+02 -0.71854315678E+01 -0.87375206360E+01  0.15797515297E+02  0.51100000000E-03 0. -1.
        -11    1    3    3    0    0 -0.18018808486E+02  0.18235656305E+02 -0.26956253365E+02  0.37200217955E+02  0.51100000000E-03 0.  1.
        -12    1    3    3    0    0  0.65230317741E+01 -0.11288973059E+02  0.34637465406E+02  0.37010064388E+02  0.00000000000E+00 0.  1.
</event>
<event>
 7    1  0.3276565E-015  0.9000785E+02  0.7816164E-02  0.1186339E+00
        -11   -1    0    0    0    0  0.00000000000E+00  0.00000000000E+00  0.45593999997E+02  0.45594000000E+02  0.51100000000E-03 0.  1.
         11   -1    0    0    0    0 -0.00000000000E+00 -0.00000000000E+00 -0.45593999997E+02  0.45594000000E+02  0.51100000000E-03 0. -1.
    9900012    2    1    2    0    0 -0.34525863170E+00 -0.26724642675E+00  0.10964149982E+01  0.90007851694E+02  0.90000114537E+02 0.  0.
         12    1    1    2    0    0  0.34525863170E+00  0.26724642675E+00 -0.10964149982E+01  0.11801483058E+01  0.00000000000E+00 0. -1.
         11    1    3    3    0    0 -0.64989973620E+00 -0.11727047803E+02  0.11245471991E+02  0.16260586103E+02  0.51100000000E-03 0. -1.
        -11    1    3    3    0    0  0.25060460412E+02 -0.55964065847E+01  0.18946046807E+02  0.31910799623E+02  0.51100000000E-03 0.  1.
         12    1    3    3    0    0 -0.24755819307E+02  0.17056207961E+02 -0.29095103800E+02  0.41836465968E+02  0.00000000000E+00 0. -1.
</event>
<event>
 7    1  0.3276565E-015  0.9000775E+02  0.7816164E-02  0.1186339E+00
        -11   -1    0    0    0    0  0.00000000000E+00  0.00000000000E+00  0.45593999997E+02  0.45594000000E+02  0.51100000000E-03 0.  1.
         11   -1    0    0    0    0 -0.00000000000E+00 -0.00000000000E+00 -0.45593999997E+02  0.45594000000E+02  0.51100000000E-03 0. -1.
    9900012    2    1    2    0    0  0.54768412119E+00  0.10250564827E+01  0.20566755438E+00  0.90007746708E+02  0.90000008165E+02 0.  0.
         12    1    1    2    0    0 -0.54768412119E+00 -0.10250564827E+01 -0.20566755438E+00  0.11802532915E+01  0.00000000000E+00 0. -1.
         11    1    3    3    0    0  0.27680112645E+01 -0.40301769938E+01 -0.83850642270E+01  0.97063646806E+01  0.51100000000E-03 0. -1.
        -11    1    3    3    0    0  0.27501214578E+02  0.52816666487E+01 -0.23502295868E+02  0.36559139996E+02  0.51100000000E-03 0.  1.
         12    1    3    3    0    0 -0.29721541722E+02 -0.22643317224E+00  0.32093027650E+02  0.43742242032E+02  0.00000000000E+00 0. -1.
</event>
<event>
 7    1  0.3276565E-015  0.9000781E+02  0.7816164E-02  0.1186339E+00
        -11   -1    0    0    0    0  0.00000000000E+00  0.00000000000E+00  0.45593999997E+02  0.45594000000E+02  0.51100000000E-03 0.  1.
         11   -1    0    0    0    0 -0.00000000000E+00 -0.00000000000E+00 -0.45593999997E+02  0.45594000000E+02  0.51100000000E-03 0. -1.
    9900012    2    1    2    0    0  0.23111942104E+00  0.83837468933E+00  0.79785103212E+00  0.90007807399E+02  0.90000069656E+02 0.  0.
         12    1    1    2    0    0 -0.23111942104E+00 -0.83837468933E+00 -0.79785103212E+00  0.11801926012E+01  0.00000000000E+00 0. -1.
         11    1    3    3    0    0 -0.59329773369E+01  0.36419019551E+01 -0.47887441533E+01  0.84496000353E+01  0.51100000000E-03 0. -1.
        -11    1    3    3    0    0  0.26182039978E+02  0.26548170802E+02  0.21041639045E+02  0.42814193491E+02  0.51100000000E-03 0.  1.
         12    1    3    3    0    0 -0.20017943220E+02 -0.29351698068E+02 -0.15455043860E+02  0.38744013872E+02  0.00000000000E+00 0. -1.
</event>
<event>
 7    1  0.4772770E-015  0.9000776E+02  0.7816164E-02  0.1186339E+00
        -11   -1    0    0    0    0  0.00000000000E+00  0.00000000000E+00  0.45593999997E+02  0.45594000000E+02  0.51100000000E-03 0.  1.
         11   -1    0    0    0    0 -0.00000000000E+00 -0.00000000000E+00 -0.45593999997E+02  0.45594000000E+02  0.51100000000E-03 0. -1.
    9900012    2    1    2    0    0  0.10339825311E+01  0.31244736402E+00 -0.47562943539E+00  0.90007759944E+02  0.90000021575E+02 0.  0.
         12    1    1    2    0    0 -0.10339825311E+01 -0.31244736402E+00  0.47562943539E+00  0.11802400560E+01  0.00000000000E+00 0. -1.
         11    1    3    3    0    0 -0.64765366957E+01 -0.21469727272E+00 -0.70419288256E+01  0.95697640690E+01  0.51100000000E-03 0. -1.
        -11    1    3    3    0    0 -0.15158228226E+02  0.32218585441E+02 -0.11598204041E+02  0.37447663052E+02  0.51100000000E-03 0.  1.
         12    1    3    3    0    0  0.22668747453E+02 -0.31691440804E+02  0.18164503431E+02  0.42990332823E+02  0.00000000000E+00 0. -1.
</event>
<event>
 7    1  0.3276565E-015  0.9000766E+02  0.7816164E-02  0.1186339E+00
        -11   -1    0    0    0    0  0.00000000000E+00  0.00000000000E+00  0.45593999997E+02  0.45594000000E+02  0.51100000000E-03 0.  1.
         11   -1    0    0    0    0 -0.00000000000E+00 -0.00000000000E+00 -0.45593999997E+02  0.45594000000E+02  0.51100000000E-03 0. -1.
    9900012    2    1    2    0    0  0.10706556826E+01 -0.28475032769E+00  0.40719852854E+00  0.90007662344E+02  0.89999922687E+02 0.  0.
         12    1    1    2    0    0 -0.10706556826E+01  0.28475032769E+00 -0.40719852854E+00  0.11803376557E+01  0.00000000000E+00 0. -1.
         11    1    3    3    0    0 -0.30747734871E+01 -0.68498154715E+01 -0.56466256923E+01  0.93946040875E+01  0.51100000000E-03 0. -1.
        -11    1    3    3    0    0  0.15526900686E+01 -0.34980184139E+02  0.14907249665E+02  0.38055882879E+02  0.51100000000E-03 0.  1.
         12    1    3    3    0    0  0.25927391011E+01  0.41545249283E+02 -0.88534254440E+01  0.42557175378E+02  0.00000000000E+00 0. -1.
</event>
<event>
 7    1  0.3978489E-015  0.9000774E+02  0.7816164E-02  0.1186339E+00
        -11   -1    0    0    0    0  0.00000000000E+00  0.00000000000E+00  0.45593999997E+02  0.45594000000E+02  0.51100000000E-03 0. -1.
         11   -1    0    0    0    0 -0.00000000000E+00 -0.00000000000E+00 -0.45593999997E+02  0.45594000000E+02  0.51100000000E-03 0.  1.
    9900012    2    1    2    0    0 -0.70933568099E-01 -0.82851691925E+00 -0.83758604953E+00  0.90007736365E+02  0.89999997686E+02 0.  0.
         12    1    1    2    0    0  0.70933568099E-01  0.82851691925E+00  0.83758604953E+00  0.11802636345E+01  0.00000000000E+00 0. -1.
         11    1    3    3    0    0 -0.59284625195E+01 -0.50132679399E+01 -0.63181992858E+01  0.10009953334E+02  0.51100000000E-03 0. -1.
        -11    1    3    3    0    0  0.70305880109E+00  0.79915586242E+01 -0.36581264500E+02  0.37450610324E+02  0.51100000000E-03 0.  1.
         12    1    3    3    0    0  0.51544701503E+01 -0.38068076036E+01  0.42061877737E+02  0.42547172707E+02  0.00000000000E+00 0. -1.
</event>
<event>
 7    1  0.3276565E-015  0.9000785E+02  0.7816164E-02  0.1186339E+00
        -11   -1    0    0    0    0  0.00000000000E+00  0.00000000000E+00  0.45593999997E+02  0.45594000000E+02  0.51100000000E-03 0. -1.
         11   -1    0    0    0    0 -0.00000000000E+00 -0.00000000000E+00 -0.45593999997E+02  0.45594000000E+02  0.51100000000E-03 0.  1.
    9900012    2    1    2    0    0 -0.90100730234E-01  0.81489478083E+00 -0.84887653898E+00  0.90007846186E+02  0.90000108956E+02 0.  0.
         12    1    1    2    0    0  0.90100730234E-01 -0.81489478083E+00  0.84887653898E+00  0.11801538136E+01  0.00000000000E+00 0. -1.
         11    1    3    3    0    0 -0.39641242492E+02 -0.46463253710E+01 -0.58859994732E+01  0.40344286285E+02  0.51100000000E-03 0. -1.
        -11    1    3    3    0    0  0.10592878849E+01  0.37284400884E+01  0.10084322473E+02  0.10803560354E+02  0.51100000000E-03 0.  1.
        -12    1    3    3    0    0  0.38491853877E+02  0.17327800635E+01 -0.50471995391E+01  0.38859999547E+02  0.00000000000E+00 0.  1.
</event>
<event>
 7    1  0.3276565E-015  0.9000695E+02  0.7816164E-02  0.1186341E+00
        -11   -1    0    0    0    0  0.00000000000E+00  0.00000000000E+00  0.45593999997E+02  0.45594000000E+02  0.51100000000E-03 0.  1.
         11   -1    0    0    0    0 -0.00000000000E+00 -0.00000000000E+00 -0.45593999997E+02  0.45594000000E+02  0.51100000000E-03 0. -1.
    9900012    2    1    2    0    0  0.91400430459E+00 -0.74269447385E+00  0.88797764119E-01  0.90006947930E+02  0.89999198839E+02 0.  0.
         12    1    1    2    0    0 -0.91400430459E+00  0.74269447385E+00 -0.88797764119E-01  0.11810520705E+01  0.00000000000E+00 0. -1.
         11    1    3    3    0    0 -0.89142115925E+01  0.14987087295E+01 -0.30376274698E+01  0.95360619271E+01  0.51100000000E-03 0. -1.
        -11    1    3    3    0    0 -0.31864812985E+02  0.82139357100E+01  0.14572868638E+02  0.35988936453E+02  0.51100000000E-03 0.  1.
         12    1    3    3    0    0  0.41693028882E+02 -0.10455338913E+02 -0.11446443404E+02  0.44481949550E+02  0.00000000000E+00 0. -1.
</event>
<event>
 7    1  0.3276565E-015  0.9000743E+02  0.7816164E-02  0.1186340E+00
        -11   -1    0    0    0    0  0.00000000000E+00  0.00000000000E+00  0.45593999997E+02  0.45594000000E+02  0.51100000000E-03 0.  1.
         11   -1    0    0    0    0 -0.00000000000E+00 -0.00000000000E+00 -0.45593999997E+02  0.45594000000E+02  0.51100000000E-03 0. -1.
    9900012    2    1    2    0    0 -0.50021688939E+00  0.40050637265E+00  0.99152436470E+00  0.90007431130E+02  0.89999688420E+02 0.  0.
         12    1    1    2    0    0  0.50021688939E+00 -0.40050637265E+00 -0.99152436470E+00  0.11805688700E+01  0.00000000000E+00 0. -1.
         11    1    3    3    0    0 -0.73257240356E+01  0.35446563047E+01 -0.12281099238E+02  0.14732827961E+02  0.51100000000E-03 0. -1.
        -11    1    3    3    0    0  0.27151960664E+02 -0.29821626607E+02  0.43190489900E+01  0.40561219975E+02  0.51100000000E-03 0.  1.
         12    1    3    3    0    0 -0.20326453518E+02  0.26677476675E+02  0.89535746132E+01  0.34713383194E+02  0.00000000000E+00 0. -1.
</event>
<event>
 7    1  0.3276565E-015  0.9000775E+02  0.7816164E-02  0.1186339E+00
        -11   -1    0    0    0    0  0.00000000000E+00  0.00000000000E+00  0.45593999997E+02  0.45594000000E+02  0.51100000000E-03 0. -1.
         11   -1    0    0    0    0 -0.00000000000E+00 -0.00000000000E+00 -0.45593999997E+02  0.45594000000E+02  0.51100000000E-03 0.  1.
    9900012    2    1    2    0    0 -0.10738875398E+01 -0.39412341587E+00 -0.29056157387E+00  0.90007748441E+02  0.90000009920E+02 0.  0.
         12    1    1    2    0    0  0.10738875398E+01  0.39412341587E+00  0.29056157387E+00  0.11802515593E+01  0.00000000000E+00 0. -1.
         11    1    3    3    0    0 -0.64957367987E+01 -0.75970682496E+01 -0.72255177153E+01  0.12333618652E+02  0.51100000000E-03 0. -1.
        -11    1    3    3    0    0 -0.51456580132E+01 -0.98437521141E+01 -0.32002177653E+02  0.33875014787E+02  0.51100000000E-03 0.  1.
         12    1    3    3    0    0  0.10567507272E+02  0.17046696948E+02  0.38937133794E+02  0.43799115001E+02  0.00000000000E+00 0. -1.
</event>
<event>
 7    1  0.3276565E-015  0.9000784E+02  0.7816164E-02  0.1186339E+00
        -11   -1    0    0    0    0  0.00000000000E+00  0.00000000000E+00  0.45593999997E+02  0.45594000000E+02  0.51100000000E-03 0. -1.
         11   -1    0    0    0    0 -0.00000000000E+00 -0.00000000000E+00 -0.45593999997E+02  0.45594000000E+02  0.51100000000E-03 0.  1.
    9900012    2    1    2    0    0 -0.90339069175E+00 -0.73409816181E+00  0.19435511058E+00  0.90007835282E+02  0.90000097907E+02 0.  0.
         12    1    1    2    0    0  0.90339069175E+00  0.73409816181E+00 -0.19435511058E+00  0.11801647182E+01  0.00000000000E+00 0. -1.
         11    1    3    3    0    0  0.25433226017E+02 -0.24053048019E+02  0.20536339855E+02  0.40584964698E+02  0.51100000000E-03 0. -1.
        -11    1    3    3    0    0  0.52644337092E+01  0.73318705581E-01 -0.51178200920E+01  0.73424601236E+01  0.51100000000E-03 0.  1.
        -12    1    3    3    0    0 -0.31601050418E+02  0.23245631152E+02 -0.15224164652E+02  0.42080410460E+02  0.00000000000E+00 0.  1.
</event>
<event>
 7    1  0.3276565E-015  0.9000762E+02  0.7816164E-02  0.1186339E+00
        -11   -1    0    0    0    0  0.00000000000E+00  0.00000000000E+00  0.45593999997E+02  0.45594000000E+02  0.51100000000E-03 0. -1.
         11   -1    0    0    0    0 -0.00000000000E+00 -0.00000000000E+00 -0.45593999997E+02  0.45594000000E+02  0.51100000000E-03 0.  1.
    9900012    2    1    2    0    0  0.28170958844E+00 -0.70725060935E+00 -0.90207548855E+00  0.90007617052E+02  0.89999876797E+02 0.  0.
         12    1    1    2    0    0 -0.28170958844E+00  0.70725060935E+00  0.90207548855E+00  0.11803829479E+01  0.00000000000E+00 0. -1.
         11    1    3    3    0    0 -0.29039043744E+02  0.12877059764E+02  0.14669081508E+02  0.34989522464E+02  0.51100000000E-03 0. -1.
        -11    1    3    3    0    0  0.10450265791E+01  0.23487974030E+01  0.12098410360E+02  0.12368527127E+02  0.51100000000E-03 0.  1.
        -12    1    3    3    0    0  0.28275726753E+02 -0.15933107777E+02 -0.27669567357E+02  0.42649567461E+02  0.00000000000E+00 0.  1.
</event>
<event>
 7    1  0.3276565E-015  0.9000769E+02  0.7816164E-02  0.1186339E+00
        -11   -1    0    0    0    0  0.00000000000E+00  0.00000000000E+00  0.45593999997E+02  0.45594000000E+02  0.51100000000E-03 0.  1.
         11   -1    0    0    0    0 -0.00000000000E+00 -0.00000000000E+00 -0.45593999997E+02  0.45594000000E+02  0.51100000000E-03 0. -1.
    9900012    2    1    2    0    0  0.51246034111E+00  0.62998323114E+00  0.85652373377E+00  0.90007691829E+02  0.89999952561E+02 0.  0.
         12    1    1    2    0    0 -0.51246034111E+00 -0.62998323114E+00 -0.85652373377E+00  0.11803081713E+01  0.00000000000E+00 0. -1.
         11    1    3    3    0    0 -0.18191925308E+02  0.30310920887E+02 -0.51699485984E+01  0.35727110718E+02  0.51100000000E-03 0. -1.
        -11    1    3    3    0    0  0.11081215289E+01  0.19982152056E+01 -0.13104800708E+02  0.13302503494E+02  0.51100000000E-03 0.  1.
        -12    1    3    3    0    0  0.17596264121E+02 -0.31679152862E+02  0.19131273041E+02  0.40978077617E+02  0.00000000000E+00 0.  1.
</event>
<event>
 7    1  0.3276565E-015  0.9000769E+02  0.7816164E-02  0.1186339E+00
        -11   -1    0    0    0    0  0.00000000000E+00  0.00000000000E+00  0.45593999997E+02  0.45594000000E+02  0.51100000000E-03 0.  1.
         11   -1    0    0    0    0 -0.00000000000E+00 -0.00000000000E+00 -0.45593999997E+02  0.45594000000E+02  0.51100000000E-03 0. -1.
    9900012    2    1    2    0    0 -0.59572552546E+00 -0.89558738879E+00  0.48598095295E+00  0.90007685144E+02  0.89999945788E+02 0.  0.
         12    1    1    2    0    0  0.59572552546E+00  0.89558738879E+00 -0.48598095295E+00  0.11803148560E+01  0.00000000000E+00 0. -1.
         11    1    3    3    0    0  0.20223396379E+02  0.35379526557E+02 -0.51034181609E+01  0.41069959066E+02  0.51100000000E-03 0. -1.
        -11    1    3    3    0    0 -0.72642434168E+01  0.15180273011E+01  0.46866698601E+01  0.87771586487E+01  0.51100000000E-03 0.  1.
        -12    1    3    3    0    0 -0.13554878488E+02 -0.37793141247E+02  0.90272925376E+00  0.40160567429E+02  0.00000000000E+00 0.  1.
</event>
<event>
 7    1  0.3276565E-015  0.9000774E+02  0.7816164E-02  0.1186339E+00
        -11   -1    0    0    0    0  0.00000000000E+00  0.00000000000E+00  0.45593999997E+02  0.45594000000E+02  0.51100000000E-03 0.  1.
         11   -1    0    0    0    0 -0.00000000000E+00 -0.00000000000E+00 -0.45593999997E+02  0.45594000000E+02  0.51100000000E-03 0. -1.
    9900012    2    1    2    0    0  0.72932315917E+00 -0.31322893090E+00  0.87349143320E+00  0.90007740741E+02  0.90000002119E+02 0.  0.
         12    1    1    2    0    0 -0.72932315917E+00  0.31322893090E+00 -0.87349143320E+00  0.11802592586E+01  0.00000000000E+00 0. -1.
         11    1    3    3    0    0 -0.96641350663E+01  0.92467566826E+01  0.10973389385E+02  0.17300673125E+02  0.51100000000E-03 0. -1.
        -11    1    3    3    0    0 -0.28514393145E+02  0.14000950324E+01  0.60420923787E+01  0.29181119977E+02  0.51100000000E-03 0.  1.
         12    1    3    3    0    0  0.38907851371E+02 -0.10960080646E+02 -0.16141990331E+02  0.43525947639E+02  0.00000000000E+00 0. -1.
</event>
<event>
 7    1  0.3276565E-015  0.9000784E+02  0.7816164E-02  0.1186339E+00
        -11   -1    0    0    0    0  0.00000000000E+00  0.00000000000E+00  0.45593999997E+02  0.45594000000E+02  0.51100000000E-03 0.  1.
         11   -1    0    0    0    0 -0.00000000000E+00 -0.00000000000E+00 -0.45593999997E+02  0.45594000000E+02  0.51100000000E-03 0. -1.
    9900012    2    1    2    0    0  0.45076058992E+00  0.71271879556E+00  0.82560136265E+00  0.90007842891E+02  0.90000105617E+02 0.  0.
         12    1    1    2    0    0 -0.45076058992E+00 -0.71271879556E+00 -0.82560136265E+00  0.11801571086E+01  0.00000000000E+00 0. -1.
         11    1    3    3    0    0  0.70770038559E+00 -0.39107722444E+01 -0.83901245509E+01  0.92838122355E+01  0.51100000000E-03 0. -1.
        -11    1    3    3    0    0 -0.19883622345E+02  0.35752789806E+02 -0.51226063601E+01  0.41229376816E+02  0.51100000000E-03 0.  1.
         12    1    3    3    0    0  0.19626682549E+02 -0.31129298766E+02  0.14338332274E+02  0.39494653840E+02  0.00000000000E+00 0. -1.
</event>
<event>
 7    1  0.3276565E-015  0.9000776E+02  0.7816164E-02  0.1186339E+00
        -11   -1    0    0    0    0  0.00000000000E+00  0.00000000000E+00  0.45593999997E+02  0.45594000000E+02  0.51100000000E-03 0.  1.
         11   -1    0    0    0    0 -0.00000000000E+00 -0.00000000000E+00 -0.45593999997E+02  0.45594000000E+02  0.51100000000E-03 0. -1.
    9900012    2    1    2    0    0  0.52691300245E+00 -0.99045109136E+00  0.36651604987E+00  0.90007760748E+02  0.90000022390E+02 0.  0.
         12    1    1    2    0    0 -0.52691300245E+00  0.99045109136E+00 -0.36651604987E+00  0.11802392517E+01  0.00000000000E+00 0. -1.
         11    1    3    3    0    0  0.64733587121E+01 -0.67748005827E+01  0.28383657875E+01  0.97907413691E+01  0.51100000000E-03 0. -1.
        -11    1    3    3    0    0 -0.94723901043E+01 -0.29987191826E+02  0.20517675027E+02  0.37549072381E+02  0.51100000000E-03 0.  1.
         12    1    3    3    0    0  0.35259443946E+01  0.35771541317E+02 -0.22989524765E+02  0.42667946998E+02  0.00000000000E+00 0. -1.
</event>
<event>
 7    1  0.3276565E-015  0.9000790E+02  0.7816164E-02  0.1186339E+00
        -11   -1    0    0    0    0  0.00000000000E+00  0.00000000000E+00  0.45593999997E+02  0.45594000000E+02  0.51100000000E-03 0.  1.
         11   -1    0    0    0    0 -0.00000000000E+00 -0.00000000000E+00 -0.45593999997E+02  0.45594000000E+02  0.51100000000E-03 0. -1.
    9900012    2    1    2    0    0 -0.10565536620E+01 -0.51102583763E+00  0.12317912772E+00  0.90007904180E+02  0.90000167715E+02 0.  0.
         12    1    1    2    0    0  0.10565536620E+01  0.51102583763E+00 -0.12317912772E+00  0.11800958203E+01  0.00000000000E+00 0. -1.
         11    1    3    3    0    0  0.61818456900E+01 -0.11509823020E+01 -0.58040869352E+01  0.85573010819E+01  0.51100000000E-03 0. -1.
        -11    1    3    3    0    0 -0.23593987926E+02 -0.27611494443E+02 -0.18423436475E+02  0.40724610537E+02  0.51100000000E-03 0.  1.
         12    1    3    3    0    0  0.16355588574E+02  0.28251450907E+02  0.24350702538E+02  0.40725992561E+02  0.00000000000E+00 0. -1.
</event>
<event>
 7    1  0.3276565E-015  0.9000769E+02  0.7816164E-02  0.1186339E+00
        -11   -1    0    0    0    0  0.00000000000E+00  0.00000000000E+00  0.45593999997E+02  0.45594000000E+02  0.51100000000E-03 0.  1.
         11   -1    0    0    0    0 -0.00000000000E+00 -0.00000000000E+00 -0.45593999997E+02  0.45594000000E+02  0.51100000000E-03 0. -1.
    9900012    2    1    2    0    0  0.27892944177E+00 -0.11123217291E+01  0.27943103010E+00  0.90007685227E+02  0.89999945872E+02 0.  0.
         12    1    1    2    0    0 -0.27892944177E+00  0.11123217291E+01 -0.27943103010E+00  0.11803147729E+01  0.00000000000E+00 0. -1.
         11    1    3    3    0    0  0.23387719318E+01  0.85231369053E+01  0.59368510708E+00  0.88581137452E+01  0.51100000000E-03 0. -1.
        -11    1    3    3    0    0 -0.29465283572E+01  0.13018249424E+02  0.35969063419E+02  0.38365744759E+02  0.51100000000E-03 0.  1.
         12    1    3    3    0    0  0.88668586726E+00 -0.22653708058E+02 -0.36283317496E+02  0.42783826723E+02  0.00000000000E+00 0. -1.
</event>
<event>
 7    1  0.3276565E-015  0.9000782E+02  0.7816164E-02  0.1186339E+00
        -11   -1    0    0    0    0  0.00000000000E+00  0.00000000000E+00  0.45593999997E+02  0.45594000000E+02  0.51100000000E-03 0.  1.
         11   -1    0    0    0    0 -0.00000000000E+00 -0.00000000000E+00 -0.45593999997E+02  0.45594000000E+02  0.51100000000E-03 0. -1.
    9900012    2    1    2    0    0  0.33027429751E+00 -0.61438301675E+00  0.95198302518E+00  0.90007822351E+02  0.90000084806E+02 0.  0.
         12    1    1    2    0    0 -0.33027429751E+00  0.61438301675E+00 -0.95198302518E+00  0.11801776490E+01  0.00000000000E+00 0. -1.
         11    1    3    3    0    0 -0.14992496767E+02  0.20042546940E+02 -0.13602047634E+01  0.25066487676E+02  0.51100000000E-03 0. -1.
        -11    1    3    3    0    0  0.89197526644E-01 -0.26775764644E+01  0.29123166869E+02  0.29246131721E+02  0.51100000000E-03 0.  1.
         12    1    3    3    0    0  0.15233573537E+02 -0.17979353492E+02 -0.26810979080E+02  0.35695202954E+02  0.00000000000E+00 0. -1.
</event>
<event>
 7    1  0.3276565E-015  0.9000791E+02  0.7816164E-02  0.1186339E+00
        -11   -1    0    0    0    0  0.00000000000E+00  0.00000000000E+00  0.45593999997E+02  0.45594000000E+02  0.51100000000E-03 0.  1.
         11   -1    0    0    0    0 -0.00000000000E+00 -0.00000000000E+00 -0.45593999997E+02  0.45594000000E+02  0.51100000000E-03 0. -1.
    9900012    2    1    2    0    0 -0.29081092669E+00 -0.10555682500E+01  0.44025358138E+00  0.90007907401E+02  0.90000170979E+02 0.  0.
         12    1    1    2    0    0  0.29081092669E+00  0.10555682500E+01 -0.44025358138E+00  0.11800925987E+01  0.00000000000E+00 0. -1.
         11    1    3    3    0    0 -0.63402155267E+01  0.60147138539E+01 -0.15989765214E+01  0.88843593943E+01  0.51100000000E-03 0. -1.
        -11    1    3    3    0    0 -0.15218054012E+02  0.27598646624E+02  0.19282344978E+02  0.36947033596E+02  0.51100000000E-03 0.  1.
         12    1    3    3    0    0  0.21267458612E+02 -0.34668928728E+02 -0.17243114876E+02  0.44176514412E+02  0.00000000000E+00 0. -1.
</event>
<event>
 7    1  0.3276565E-015  0.9000761E+02  0.7816164E-02  0.1186339E+00
        -11   -1    0    0    0    0  0.00000000000E+00  0.00000000000E+00  0.45593999997E+02  0.45594000000E+02  0.51100000000E-03 0. -1.
         11   -1    0    0    0    0 -0.00000000000E+00 -0.00000000000E+00 -0.45593999997E+02  0.45594000000E+02  0.51100000000E-03 0.  1.
    9900012    2    1    2    0    0  0.10073193802E+01 -0.50340119330E+00 -0.35386576219E+00  0.90007607661E+02  0.89999867283E+02 0.  0.
         12    1    1    2    0    0 -0.10073193802E+01  0.50340119330E+00  0.35386576219E+00  0.11803923385E+01  0.00000000000E+00 0. -1.
         11    1    3    3    0    0 -0.92138484107E+01 -0.10199600452E+02  0.33840802050E+02  0.36525699659E+02  0.51100000000E-03 0. -1.
        -11    1    3    3    0    0 -0.12600066584E+01 -0.84508492934E+01  0.41766270100E+01  0.95104513037E+01  0.51100000000E-03 0.  1.
        -12    1    3    3    0    0  0.11481174449E+02  0.18147048552E+02 -0.38371294822E+02  0.43971456699E+02  0.00000000000E+00 0.  1.
</event>
<event>
 7    1  0.3276565E-015  0.9000772E+02  0.7816164E-02  0.1186339E+00
        -11   -1    0    0    0    0  0.00000000000E+00  0.00000000000E+00  0.45593999997E+02  0.45594000000E+02  0.51100000000E-03 0.  1.
         11   -1    0    0    0    0 -0.00000000000E+00 -0.00000000000E+00 -0.45593999997E+02  0.45594000000E+02  0.51100000000E-03 0. -1.
    9900012    2    1    2    0    0 -0.92603758559E+00 -0.52246398458E+00  0.51239678138E+00  0.90007718387E+02  0.89999979469E+02 0.  0.
         12    1    1    2    0    0  0.92603758559E+00  0.52246398458E+00 -0.51239678138E+00  0.11802816133E+01  0.00000000000E+00 0. -1.
         11    1    3    3    0    0  0.20612075480E+02 -0.35304784889E+02  0.93602330855E+01  0.41939235273E+02  0.51100000000E-03 0. -1.
        -11    1    3    3    0    0 -0.95140828524E-01  0.82185989114E+01  0.66543030655E+01  0.10575167582E+02  0.51100000000E-03 0.  1.
        -12    1    3    3    0    0 -0.21442972237E+02  0.26563721993E+02 -0.15502139370E+02  0.37493315531E+02  0.00000000000E+00 0.  1.
</event>
<event>
 7    1  0.3276565E-015  0.9000772E+02  0.7816164E-02  0.1186339E+00
        -11   -1    0    0    0    0  0.00000000000E+00  0.00000000000E+00  0.45593999997E+02  0.45594000000E+02  0.51100000000E-03 0.  1.
         11   -1    0    0    0    0 -0.00000000000E+00 -0.00000000000E+00 -0.45593999997E+02  0.45594000000E+02  0.51100000000E-03 0. -1.
    9900012    2    1    2    0    0 -0.10443697720E+00  0.55853564934E-01  0.11743268131E+01  0.90007716065E+02  0.89999977117E+02 0.  0.
         12    1    1    2    0    0  0.10443697720E+00 -0.55853564934E-01 -0.11743268131E+01  0.11802839349E+01  0.00000000000E+00 0. -1.
         11    1    3    3    0    0 -0.66193298294E+01 -0.59080323785E+01 -0.19678377065E+01  0.90880558689E+01  0.51100000000E-03 0. -1.
        -11    1    3    3    0    0 -0.29942022133E+02  0.22263546103E+02  0.13473402816E+02  0.39670174668E+02  0.51100000000E-03 0.  1.
         12    1    3    3    0    0  0.36456914986E+02 -0.16299660160E+02 -0.10331238296E+02  0.41249485528E+02  0.00000000000E+00 0. -1.
</event>
<event>
 7    1  0.3276565E-015  0.9000769E+02  0.7816164E-02  0.1186339E+00
        -11   -1    0    0    0    0  0.00000000000E+00  0.00000000000E+00  0.45593999997E+02  0.45594000000E+02  0.51100000000E-03 0.  1.
         11   -1    0    0    0    0 -0.00000000000E+00 -0.00000000000E+00 -0.45593999997E+02  0.45594000000E+02  0.51100000000E-03 0. -1.
    9900012    2    1    2    0    0  0.55352785452E+00  0.32162658554E+00  0.99161342858E+00  0.90007689050E+02  0.89999949746E+02 0.  0.
         12    1    1    2    0    0 -0.55352785452E+00 -0.32162658554E+00 -0.99161342858E+00  0.11803109497E+01  0.00000000000E+00 0. -1.
         11    1    3    3    0    0 -0.17754205947E+02  0.24226632110E+02 -0.24443958097E+02  0.38725296899E+02  0.51100000000E-03 0. -1.
        -11    1    3    3    0    0 -0.35797828372E+01  0.30023590664E+01 -0.37190827518E+01  0.59716481729E+01  0.51100000000E-03 0.  1.
        -12    1    3    3    0    0  0.21887516639E+02 -0.26907364591E+02  0.29154654277E+02  0.45310743978E+02  0.00000000000E+00 0.  1.
</event>
<event>
 7    1  0.3276565E-015  0.9000773E+02  0.7816164E-02  0.1186339E+00
        -11   -1    0    0    0    0  0.00000000000E+00  0.00000000000E+00  0.45593999997E+02  0.45594000000E+02  0.51100000000E-03 0. -1.
         11   -1    0    0    0    0 -0.00000000000E+00 -0.00000000000E+00 -0.45593999997E+02  0.45594000000E+02  0.51100000000E-03 0.  1.
    9900012    2    1    2    0    0 -0.84147475589E+00  0.78009144260E+00  0.27641952489E+00  0.90007733006E+02  0.89999994282E+02 0.  0.
         12    1    1    2    0    0  0.84147475589E+00 -0.78009144260E+00 -0.27641952489E+00  0.11802669941E+01  0.00000000000E+00 0. -1.
         11    1    3    3    0    0  0.56384874825E+01  0.42764378752E+00 -0.73788631484E+01  0.92963994063E+01  0.51100000000E-03 0. -1.
        -11    1    3    3    0    0  0.21458501053E+01 -0.32854842224E+02 -0.18319814296E+02  0.37678388054E+02  0.51100000000E-03 0.  1.
         12    1    3    3    0    0 -0.86258123437E+01  0.33207289879E+02  0.25975096970E+02  0.43032945545E+02  0.00000000000E+00 0. -1.
</event>
<event>
 7    1  0.6042493E-015  0.9000792E+02  0.7816164E-02  0.1186339E+00
        -11   -1    0    0    0    0  0.00000000000E+00  0.00000000000E+00  0.45593999997E+02  0.45594000000E+02  0.51100000000E-03 0. -1.
         11   -1    0    0    0    0 -0.00000000000E+00 -0.00000000000E+00 -0.45593999997E+02  0.45594000000E+02  0.51100000000E-03 0.  1.
    9900012    2    1    2    0    0 -0.24116590082E+00 -0.58471427400E+00 -0.99625940102E+00  0.90007921796E+02  0.90000185563E+02 0.  0.
         12    1    1    2    0    0  0.24116590082E+00  0.58471427400E+00  0.99625940102E+00  0.11800782042E+01  0.00000000000E+00 0. -1.
         11    1    3    3    0    0 -0.30609730310E+00  0.92392962281E+01  0.20470200894E+01  0.94682935029E+01  0.51100000000E-03 0. -1.
        -11    1    3    3    0    0  0.18648226259E-01  0.30021576681E+02 -0.21199839470E+02  0.36752259904E+02  0.51100000000E-03 0.  1.
         12    1    3    3    0    0  0.46283176018E-01 -0.39845587184E+02  0.18156559980E+02  0.43787368389E+02  0.00000000000E+00 0. -1.
</event>
<event>
 7    1  0.3276565E-015  0.9000765E+02  0.7816164E-02  0.1186339E+00
        -11   -1    0    0    0    0  0.00000000000E+00  0.00000000000E+00  0.45593999997E+02  0.45594000000E+02  0.51100000000E-03 0.  1.
         11   -1    0    0    0    0 -0.00000000000E+00 -0.00000000000E+00 -0.45593999997E+02  0.45594000000E+02  0.51100000000E-03 0. -1.
    9900012    2    1    2    0    0  0.80523501946E+00  0.80439417748E+00  0.31269700503E+00  0.90007647152E+02  0.89999907294E+02 0.  0.
         12    1    1    2    0    0 -0.80523501946E+00 -0.80439417748E+00 -0.31269700503E+00  0.11803528482E+01  0.00000000000E+00 0. -1.
         11    1    3    3    0    0 -0.83831184020E+01  0.19014474063E+01 -0.33310001238E+02  0.34401284266E+02  0.51100000000E-03 0. -1.
        -11    1    3    3    0    0  0.85838005912E+01  0.53388763424E+01 -0.83668794500E+01  0.13122115118E+02  0.51100000000E-03 0.  1.
        -12    1    3    3    0    0  0.60455283025E+00 -0.64359295712E+01  0.41989577693E+02  0.42484247768E+02  0.00000000000E+00 0.  1.
</event>
<event>
 7    1  0.3276565E-015  0.9000770E+02  0.7816164E-02  0.1186339E+00
        -11   -1    0    0    0    0  0.00000000000E+00  0.00000000000E+00  0.45593999997E+02  0.45594000000E+02  0.51100000000E-03 0.  1.
         11   -1    0    0    0    0 -0.00000000000E+00 -0.00000000000E+00 -0.45593999997E+02  0.45594000000E+02  0.51100000000E-03 0. -1.
    9900012    2    1    2    0    0 -0.10348059911E+01  0.48859707140E+00 -0.28907388123E+00  0.90007697392E+02  0.89999958198E+02 0.  0.
         12    1    1    2    0    0  0.10348059911E+01 -0.48859707140E+00  0.28907388123E+00  0.11803026079E+01  0.00000000000E+00 0. -1.
         11    1    3    3    0    0 -0.21932358388E+02 -0.24482703613E+02  0.20115984882E+02  0.38536787213E+02  0.51100000000E-03 0. -1.
        -11    1    3    3    0    0 -0.18068802842E+01 -0.12091180751E+01  0.69747660539E+01  0.73057610588E+01  0.51100000000E-03 0.  1.
        -12    1    3    3    0    0  0.22704432681E+02  0.26180418759E+02 -0.27379824817E+02  0.44165149120E+02  0.00000000000E+00 0.  1.
</event>
<event>
 7    1  0.3276565E-015  0.9000814E+02  0.7816164E-02  0.1186338E+00
        -11   -1    0    0    0    0  0.00000000000E+00  0.00000000000E+00  0.45593999997E+02  0.45594000000E+02  0.51100000000E-03 0. -1.
         11   -1    0    0    0    0 -0.00000000000E+00 -0.00000000000E+00 -0.45593999997E+02  0.45594000000E+02  0.51100000000E-03 0.  1.
    9900012    2    1    2    0    0 -0.10995058956E+01  0.29498794700E+00 -0.31005532853E+00  0.90008141784E+02  0.90000408455E+02 0.  0.
         12    1    1    2    0    0  0.10995058956E+01 -0.29498794700E+00  0.31005532853E+00  0.11798582161E+01  0.00000000000E+00 0. -1.
         11    1    3    3    0    0  0.17504570244E+02  0.17624956664E+02  0.27921743849E+02  0.37372086598E+02  0.51100000000E-03 0. -1.
        -11    1    3    3    0    0 -0.15516367370E+01  0.77472381450E+01  0.35899275919E+01  0.86784132084E+01  0.51100000000E-03 0.  1.
        -12    1    3    3    0    0 -0.17052439403E+02 -0.25077206862E+02 -0.31821726770E+02  0.43957641977E+02  0.00000000000E+00 0.  1.
</event>
<event>
 7    1  0.3276565E-015  0.9000773E+02  0.7816164E-02  0.1186339E+00
        -11   -1    0    0    0    0  0.00000000000E+00  0.00000000000E+00  0.45593999997E+02  0.45594000000E+02  0.51100000000E-03 0.  1.
         11   -1    0    0    0    0 -0.00000000000E+00 -0.00000000000E+00 -0.45593999997E+02  0.45594000000E+02  0.51100000000E-03 0. -1.
    9900012    2    1    2    0    0 -0.11535913367E+01 -0.21805941350E+00  0.12133270570E+00  0.90007726936E+02  0.89999988132E+02 0.  0.
         12    1    1    2    0    0  0.11535913367E+01  0.21805941350E+00 -0.12133270570E+00  0.11802730639E+01  0.00000000000E+00 0. -1.
         11    1    3    3    0    0 -0.66520888994E+01 -0.68294668405E+01  0.50549086575E+01  0.10790922382E+02  0.51100000000E-03 0. -1.
        -11    1    3    3    0    0  0.25094248294E+02 -0.25462564444E+02  0.12382187518E+02  0.37833610104E+02  0.51100000000E-03 0.  1.
         12    1    3    3    0    0 -0.19595750732E+02  0.32073971871E+02 -0.17315763470E+02  0.41383194450E+02  0.00000000000E+00 0. -1.
</event>
<event>
 7    1  0.3276565E-015  0.9000783E+02  0.7816164E-02  0.1186339E+00
        -11   -1    0    0    0    0  0.00000000000E+00  0.00000000000E+00  0.45593999997E+02  0.45594000000E+02  0.51100000000E-03 0.  1.
         11   -1    0    0    0    0 -0.00000000000E+00 -0.00000000000E+00 -0.45593999997E+02  0.45594000000E+02  0.51100000000E-03 0. -1.
    9900012    2    1    2    0    0  0.57631725504E+00 -0.54164008166E+00 -0.87594603418E+00  0.90007831787E+02  0.90000094366E+02 0.  0.
         12    1    1    2    0    0 -0.57631725504E+00  0.54164008166E+00  0.87594603418E+00  0.11801682131E+01  0.00000000000E+00 0. -1.
         11    1    3    3    0    0  0.14088881126E+02 -0.57333941735E+01 -0.13373202699E+02  0.20253664627E+02  0.51100000000E-03 0. -1.
        -11    1    3    3    0    0  0.25545891536E+02 -0.55170326627E+01 -0.31763939336E+01  0.26327166624E+02  0.51100000000E-03 0.  1.
         12    1    3    3    0    0 -0.39058455407E+02  0.10708786755E+02  0.15673650598E+02  0.43427000536E+02  0.00000000000E+00 0. -1.
</event>
<event>
 7    1  0.3276565E-015  0.9000797E+02  0.7816164E-02  0.1186339E+00
        -11   -1    0    0    0    0  0.00000000000E+00  0.00000000000E+00  0.45593999997E+02  0.45594000000E+02  0.51100000000E-03 0.  1.
         11   -1    0    0    0    0 -0.00000000000E+00 -0.00000000000E+00 -0.45593999997E+02  0.45594000000E+02  0.51100000000E-03 0. -1.
    9900012    2    1    2    0    0 -0.10474316468E+01 -0.53239903396E+00  0.10917699913E+00  0.90007965508E+02  0.90000229852E+02 0.  0.
         12    1    1    2    0    0  0.10474316468E+01  0.53239903396E+00 -0.10917699913E+00  0.11800344924E+01  0.00000000000E+00 0. -1.
         11    1    3    3    0    0  0.29043916887E+02  0.20156029329E+02 -0.57723964012E+01  0.35820876412E+02  0.51100000000E-03 0. -1.
        -11    1    3    3    0    0  0.29082706597E+01  0.54851724995E+01 -0.77378071624E+01  0.99206257627E+01  0.51100000000E-03 0.  1.
        -12    1    3    3    0    0 -0.32999619194E+02 -0.26173600863E+02  0.13619380563E+02  0.44266463333E+02  0.00000000000E+00 0.  1.
</event>
<event>
 7    1  0.3276565E-015  0.9000722E+02  0.7816164E-02  0.1186340E+00
        -11   -1    0    0    0    0  0.00000000000E+00  0.00000000000E+00  0.45593999997E+02  0.45594000000E+02  0.51100000000E-03 0. -1.
         11   -1    0    0    0    0 -0.00000000000E+00 -0.00000000000E+00 -0.45593999997E+02  0.45594000000E+02  0.51100000000E-03 0.  1.
    9900012    2    1    2    0    0  0.28811437438E-01 -0.58435125861E+00 -0.10256419720E+01  0.90007221466E+02  0.89999475987E+02 0.  0.
         12    1    1    2    0    0 -0.28811437438E-01  0.58435125861E+00  0.10256419720E+01  0.11807785343E+01  0.00000000000E+00 0. -1.
         11    1    3    3    0    0 -0.16888484368E+02 -0.20441501368E+02  0.28839988903E+02  0.39176789591E+02  0.51100000000E-03 0. -1.
        -11    1    3    3    0    0 -0.19558088889E+01  0.58229092619E+01  0.55753490662E+01  0.82955396541E+01  0.51100000000E-03 0.  1.
        -12    1    3    3    0    0  0.18873104695E+02  0.14034240848E+02 -0.35440979942E+02  0.42534892220E+02  0.00000000000E+00 0.  1.
</event>
<event>
 7    1  0.3276565E-015  0.9000769E+02  0.7816164E-02  0.1186339E+00
        -11   -1    0    0    0    0  0.00000000000E+00  0.00000000000E+00  0.45593999997E+02  0.45594000000E+02  0.51100000000E-03 0.  1.
         11   -1    0    0    0    0 -0.00000000000E+00 -0.00000000000E+00 -0.45593999997E+02  0.45594000000E+02  0.51100000000E-03 0. -1.
    9900012    2    1    2    0    0 -0.58443447588E+00 -0.19067472529E+00  0.10075775307E+01  0.90007689453E+02  0.89999950154E+02 0.  0.
         12    1    1    2    0    0  0.58443447588E+00  0.19067472529E+00 -0.10075775307E+01  0.11803105472E+01  0.00000000000E+00 0. -1.
         11    1    3    3    0    0 -0.38873177317E+02 -0.11686748566E+02 -0.17765859142E+02  0.44309477068E+02  0.51100000000E-03 0. -1.
        -11    1    3    3    0    0  0.50160771102E+01  0.47761090413E+00  0.71984383071E+01  0.87867318199E+01  0.51100000000E-03 0.  1.
        -12    1    3    3    0    0  0.33272665731E+02  0.11018462937E+02  0.11574998366E+02  0.36911480565E+02  0.00000000000E+00 0.  1.
</event>
<event>
 7    1  0.3276565E-015  0.9000776E+02  0.7816164E-02  0.1186339E+00
        -11   -1    0    0    0    0  0.00000000000E+00  0.00000000000E+00  0.45593999997E+02  0.45594000000E+02  0.51100000000E-03 0.  1.
         11   -1    0    0    0    0 -0.00000000000E+00 -0.00000000000E+00 -0.45593999997E+02  0.45594000000E+02  0.51100000000E-03 0. -1.
    9900012    2    1    2    0    0 -0.65794423658E+00 -0.94591890412E+00 -0.25555100425E+00  0.90007762944E+02  0.90000024615E+02 0.  0.
         12    1    1    2    0    0  0.65794423658E+00  0.94591890412E+00  0.25555100425E+00  0.11802370556E+01  0.00000000000E+00 0. -1.
         11    1    3    3    0    0  0.55367930937E+01 -0.46996723866E+01  0.65825242289E+01  0.98016643377E+01  0.51100000000E-03 0. -1.
        -11    1    3    3    0    0  0.13961494999E+02 -0.61487501120E+01  0.31939057567E+02  0.35395393331E+02  0.51100000000E-03 0.  1.
         12    1    3    3    0    0 -0.20156232329E+02  0.99025035945E+01 -0.38777132800E+02  0.44810705276E+02  0.00000000000E+00 0. -1.
</event>
<event>
 7    1  0.3276565E-015  0.9000774E+02  0.7816164E-02  0.1186339E+00
        -11   -1    0    0    0    0  0.00000000000E+00  0.00000000000E+00  0.45593999997E+02  0.45594000000E+02  0.51100000000E-03 0. -1.
         11   -1    0    0    0    0 -0.00000000000E+00 -0.00000000000E+00 -0.45593999997E+02  0.45594000000E+02  0.51100000000E-03 0.  1.
    9900012    2    1    2    0    0 -0.78313237810E+00 -0.72214540699E+00 -0.50816096762E+00  0.90007738216E+02  0.89999999560E+02 0.  0.
         12    1    1    2    0    0  0.78313237810E+00  0.72214540699E+00  0.50816096762E+00  0.11802617843E+01  0.00000000000E+00 0. -1.
         11    1    3    3    0    0 -0.35252922453E+02 -0.57342702549E+01 -0.12576638106E+02  0.37865845074E+02  0.51100000000E-03 0. -1.
        -11    1    3    3    0    0 -0.27706011944E+00 -0.73261685578E+00 -0.10359020836E+02  0.10388590025E+02  0.51100000000E-03 0.  1.
        -12    1    3    3    0    0  0.34746850195E+02  0.57447417037E+01  0.22427497975E+02  0.41753303116E+02  0.00000000000E+00 0.  1.
</event>
<event>
 7    1  0.3276565E-015  0.9000793E+02  0.7816164E-02  0.1186339E+00
        -11   -1    0    0    0    0  0.00000000000E+00  0.00000000000E+00  0.45593999997E+02  0.45594000000E+02  0.51100000000E-03 0. -1.
         11   -1    0    0    0    0 -0.00000000000E+00 -0.00000000000E+00 -0.45593999997E+02  0.45594000000E+02  0.51100000000E-03 0.  1.
    9900012    2    1    2    0    0  0.46381592150E+00  0.10806361271E+01  0.98281960658E-01  0.90007932632E+02  0.90000196543E+02 0.  0.
         12    1    1    2    0    0 -0.46381592150E+00 -0.10806361271E+01 -0.98281960658E-01  0.11800673676E+01  0.00000000000E+00 0. -1.
         11    1    3    3    0    0 -0.33490388529E+02 -0.19146653302E+02 -0.21540351529E+01  0.38637291884E+02  0.51100000000E-03 0. -1.
        -11    1    3    3    0    0 -0.29597675520E+00 -0.37656931922E+01  0.82986496334E+01  0.91178743935E+01  0.51100000000E-03 0.  1.
        -12    1    3    3    0    0  0.34250181206E+02  0.23992982621E+02 -0.60463325198E+01  0.42252766354E+02  0.00000000000E+00 0.  1.
</event>
<event>
 7    1  0.3276565E-015  0.9000775E+02  0.7816164E-02  0.1186339E+00
        -11   -1    0    0    0    0  0.00000000000E+00  0.00000000000E+00  0.45593999997E+02  0.45594000000E+02  0.51100000000E-03 0. -1.
         11   -1    0    0    0    0 -0.00000000000E+00 -0.00000000000E+00 -0.45593999997E+02  0.45594000000E+02  0.51100000000E-03 0.  1.
    9900012    2    1    2    0    0 -0.78065961239E+00  0.18763195156E+00 -0.86507550890E+00  0.90007749681E+02  0.90000011177E+02 0.  0.
         12    1    1    2    0    0  0.78065961239E+00 -0.18763195156E+00  0.86507550890E+00  0.11802503191E+01  0.00000000000E+00 0. -1.
         11    1    3    3    0    0 -0.12386143087E+02 -0.18072535603E+02  0.35398112775E+02  0.41630030891E+02  0.51100000000E-03 0. -1.
        -11    1    3    3    0    0  0.94181134207E+01 -0.32938554755E+00 -0.24623282925E+01  0.97402472312E+01  0.51100000000E-03 0.  1.
        -12    1    3    3    0    0  0.21873700539E+01  0.18589553102E+02 -0.33800859992E+02  0.38637471559E+02  0.00000000000E+00 0.  1.
</event>
<event>
 7    1  0.3276565E-015  0.9000775E+02  0.7816164E-02  0.1186339E+00
        -11   -1    0    0    0    0  0.00000000000E+00  0.00000000000E+00  0.45593999997E+02  0.45594000000E+02  0.51100000000E-03 0. -1.
         11   -1    0    0    0    0 -0.00000000000E+00 -0.00000000000E+00 -0.45593999997E+02  0.45594000000E+02  0.51100000000E-03 0.  1.
    9900012    2    1    2    0    0 -0.53001782787E+00  0.10542016525E+01  0.26852864437E-01  0.90007753798E+02  0.90000015348E+02 0.  0.
         12    1    1    2    0    0  0.53001782787E+00 -0.10542016525E+01 -0.26852864437E-01  0.11802462024E+01  0.00000000000E+00 0. -1.
         11    1    3    3    0    0 -0.88827198913E+01 -0.38064749945E+02 -0.89867556998E+01  0.40107227270E+02  0.51100000000E-03 0. -1.
        -11    1    3    3    0    0  0.25072596126E+01 -0.40280070985E+01 -0.17357632865E+01  0.50521348357E+01  0.51100000000E-03 0.  1.
        -12    1    3    3    0    0  0.58454424509E+01  0.43146958696E+02  0.10749371851E+02  0.44848391692E+02  0.00000000000E+00 0.  1.
</event>
<event>
 7    1  0.3276565E-015  0.9000767E+02  0.7816164E-02  0.1186339E+00
        -11   -1    0    0    0    0  0.00000000000E+00  0.00000000000E+00  0.45593999997E+02  0.45594000000E+02  0.51100000000E-03 0. -1.
         11   -1    0    0    0    0 -0.00000000000E+00 -0.00000000000E+00 -0.45593999997E+02  0.45594000000E+02  0.51100000000E-03 0.  1.
    9900012    2    1    2    0    0 -0.10602736364E+01  0.22292085197E-01 -0.51817725235E+00  0.90007667510E+02  0.89999927922E+02 0.  0.
         12    1    1    2    0    0  0.10602736364E+01 -0.22292085197E-01  0.51817725235E+00  0.11803324895E+01  0.00000000000E+00 0. -1.
         11    1    3    3    0    0  0.85835491292E+01 -0.32688801167E+01  0.35522651052E+01  0.98479175723E+01  0.51100000000E-03 0. -1.
        -11    1    3    3    0    0  0.97489569238E+01 -0.70040981886E+01 -0.37941339896E+02  0.39795035192E+02  0.51100000000E-03 0.  1.
         12    1    3    3    0    0 -0.19392779689E+02  0.10295270390E+02  0.33870897539E+02  0.40364714746E+02  0.00000000000E+00 0. -1.
</event>
<event>
 7    1  0.3276565E-015  0.9000825E+02  0.7816164E-02  0.1186338E+00
        -11   -1    0    0    0    0  0.00000000000E+00  0.00000000000E+00  0.45593999997E+02  0.45594000000E+02  0.51100000000E-03 0.  1.
         11   -1    0    0    0    0 -0.00000000000E+00 -0.00000000000E+00 -0.45593999997E+02  0.45594000000E+02  0.51100000000E-03 0. -1.
    9900012    2    1    2    0    0  0.10736454908E+01 -0.63822218876E-01  0.48478859287E+00  0.90008250919E+02  0.90000519029E+02 0.  0.
         12    1    1    2    0    0 -0.10736454908E+01  0.63822218876E-01 -0.48478859287E+00  0.11797490815E+01  0.00000000000E+00 0. -1.
         11    1    3    3    0    0 -0.42130042438E+01  0.26475193936E+02 -0.21838632136E+02  0.34577610567E+02  0.51100000000E-03 0. -1.
        -11    1    3    3    0    0 -0.10370443917E+02  0.70306416624E+01  0.71993214984E+00  0.12549674569E+02  0.51100000000E-03 0.  1.
        -12    1    3    3    0    0  0.15657093652E+02 -0.33569657818E+02  0.21603488579E+02  0.42880965782E+02  0.00000000000E+00 0.  1.
</event>
<event>
 7    1  0.3276565E-015  0.9000778E+02  0.7816164E-02  0.1186339E+00
        -11   -1    0    0    0    0  0.00000000000E+00  0.00000000000E+00  0.45593999997E+02  0.45594000000E+02  0.51100000000E-03 0. -1.
         11   -1    0    0    0    0 -0.00000000000E+00 -0.00000000000E+00 -0.45593999997E+02  0.45594000000E+02  0.51100000000E-03 0.  1.
    9900012    2    1    2    0    0  0.68424461490E+00 -0.96159730531E+00  0.84165270261E-02  0.90007775060E+02  0.90000036891E+02 0.  0.
         12    1    1    2    0    0 -0.68424461490E+00  0.96159730531E+00 -0.84165270261E-02  0.11802249398E+01  0.00000000000E+00 0. -1.
         11    1    3    3    0    0 -0.13753823405E+01 -0.17845509642E+01 -0.91871282042E+01  0.94593669782E+01  0.51100000000E-03 0. -1.
        -11    1    3    3    0    0 -0.30059634183E+02  0.20341656644E+02 -0.10941569498E+02  0.37908871595E+02  0.51100000000E-03 0.  1.
         12    1    3    3    0    0  0.32119261139E+02 -0.19518702985E+02  0.20137114229E+02  0.42639536487E+02  0.00000000000E+00 0. -1.
</event>
<event>
 7    1  0.3276565E-015  0.9000792E+02  0.7816164E-02  0.1186339E+00
        -11   -1    0    0    0    0  0.00000000000E+00  0.00000000000E+00  0.45593999997E+02  0.45594000000E+02  0.51100000000E-03 0.  1.
         11   -1    0    0    0    0 -0.00000000000E+00 -0.00000000000E+00 -0.45593999997E+02  0.45594000000E+02  0.51100000000E-03 0. -1.
    9900012    2    1    2    0    0  0.11551904525E+01 -0.17810649723E+00  0.16248728242E+00  0.90007919908E+02  0.90000183651E+02 0.  0.
         12    1    1    2    0    0 -0.11551904525E+01  0.17810649723E+00 -0.16248728242E+00  0.11800800917E+01  0.00000000000E+00 0. -1.
         11    1    3    3    0    0  0.64269951215E+01  0.78424505079E+01 -0.34122031186E+02  0.35596675530E+02  0.51100000000E-03 0. -1.
        -11    1    3    3    0    0  0.15590038453E+01  0.47625458469E+01 -0.81513380785E+01  0.95685238498E+01  0.51100000000E-03 0.  1.
        -12    1    3    3    0    0 -0.68308085144E+01 -0.12783102852E+02  0.42435856547E+02  0.44842720528E+02  0.00000000000E+00 0.  1.
</event>
<event>
 7    1  0.3276565E-015  0.9000773E+02  0.7816164E-02  0.1186339E+00
        -11   -1    0    0    0    0  0.00000000000E+00  0.00000000000E+00  0.45593999997E+02  0.45594000000E+02  0.51100000000E-03 0. -1.
         11   -1    0    0    0    0 -0.00000000000E+00 -0.00000000000E+00 -0.45593999997E+02  0.45594000000E+02  0.51100000000E-03 0.  1.
    9900012    2    1    2    0    0  0.81285792313E+00 -0.85000344881E+00  0.98978278819E-01  0.90007728605E+02  0.89999989823E+02 0.  0.
         12    1    1    2    0    0 -0.81285792313E+00  0.85000344881E+00 -0.98978278819E-01  0.11802713950E+01  0.00000000000E+00 0. -1.
         11    1    3    3    0    0 -0.85645924067E+01 -0.21176805792E+02  0.28513881235E+02  0.36535609615E+02  0.51100000000E-03 0. -1.
        -11    1    3    3    0    0  0.56133504869E+01  0.49495821725E-01  0.90825460332E+01  0.10677302854E+02  0.51100000000E-03 0.  1.
        -12    1    3    3    0    0  0.37640998430E+01  0.20277306522E+02 -0.37497448989E+02  0.42794816136E+02  0.00000000000E+00 0.  1.
</event>
<event>
 7    1  0.3276565E-015  0.9000772E+02  0.7816164E-02  0.1186339E+00
        -11   -1    0    0    0    0  0.00000000000E+00  0.00000000000E+00  0.45593999997E+02  0.45594000000E+02  0.51100000000E-03 0. -1.
         11   -1    0    0    0    0 -0.00000000000E+00 -0.00000000000E+00 -0.45593999997E+02  0.45594000000E+02  0.51100000000E-03 0.  1.
    9900012    2    1    2    0    0 -0.80264283214E+00 -0.47331060570E+00 -0.72443399940E+00  0.90007719074E+02  0.89999980165E+02 0.  0.
         12    1    1    2    0    0  0.80264283214E+00  0.47331060570E+00  0.72443399940E+00  0.11802809263E+01  0.00000000000E+00 0. -1.
         11    1    3    3    0    0 -0.11122597843E+01 -0.60008478130E+01 -0.67086411361E+01  0.90693529238E+01  0.51100000000E-03 0. -1.
        -11    1    3    3    0    0 -0.28656500889E+02 -0.21319459307E+02  0.17535426634E+02  0.39789515904E+02  0.51100000000E-03 0.  1.
         12    1    3    3    0    0  0.28966117842E+02  0.26846996515E+02 -0.11551219497E+02  0.41148850246E+02  0.00000000000E+00 0. -1.
</event>
<event>
 7    1  0.3276565E-015  0.9000774E+02  0.7816164E-02  0.1186339E+00
        -11   -1    0    0    0    0  0.00000000000E+00  0.00000000000E+00  0.45593999997E+02  0.45594000000E+02  0.51100000000E-03 0.  1.
         11   -1    0    0    0    0 -0.00000000000E+00 -0.00000000000E+00 -0.45593999997E+02  0.45594000000E+02  0.51100000000E-03 0. -1.
    9900012    2    1    2    0    0 -0.88571136047E+00 -0.90995134255E-01  0.77476315161E+00  0.90007736186E+02  0.89999997504E+02 0.  0.
         12    1    1    2    0    0  0.88571136047E+00  0.90995134255E-01 -0.77476315161E+00  0.11802638136E+01  0.00000000000E+00 0. -1.
         11    1    3    3    0    0  0.44446084165E+01  0.21921302819E+01  0.43682469628E+01  0.66061759693E+01  0.51100000000E-03 0. -1.
        -11    1    3    3    0    0  0.11347519980E+02  0.33867061108E+02 -0.19305898327E+02  0.40601253038E+02  0.51100000000E-03 0.  1.
        -12    1    3    3    0    0 -0.16677839757E+02 -0.36150186524E+02  0.15712414516E+02  0.42800307179E+02  0.00000000000E+00 0.  1.
</event>
<event>
 7    1  0.3276565E-015  0.9000785E+02  0.7816164E-02  0.1186339E+00
        -11   -1    0    0    0    0  0.00000000000E+00  0.00000000000E+00  0.45593999997E+02  0.45594000000E+02  0.51100000000E-03 0.  1.
         11   -1    0    0    0    0 -0.00000000000E+00 -0.00000000000E+00 -0.45593999997E+02  0.45594000000E+02  0.51100000000E-03 0. -1.
    9900012    2    1    2    0    0  0.54210472009E+00 -0.72698092986E+00  0.75523228512E+00  0.90007849753E+02  0.90000112570E+02 0.  0.
         12    1    1    2    0    0 -0.54210472009E+00  0.72698092986E+00 -0.75523228512E+00  0.11801502465E+01  0.00000000000E+00 0. -1.
         11    1    3    3    0    0  0.32213681152E+02  0.21191320677E+02  0.72199822651E+01  0.39229089583E+02  0.51100000000E-03 0. -1.
        -11    1    3    3    0    0 -0.21020756210E+01  0.30233256827E+01  0.85296515135E+01  0.92905422502E+01  0.51100000000E-03 0.  1.
        -12    1    3    3    0    0 -0.29569500811E+02 -0.24941627289E+02 -0.14994401493E+02  0.41488217920E+02  0.00000000000E+00 0.  1.
</event>
<event>
 7    1  0.3276565E-015  0.9000758E+02  0.7816164E-02  0.1186339E+00
        -11   -1    0    0    0    0  0.00000000000E+00  0.00000000000E+00  0.45593999997E+02  0.45594000000E+02  0.51100000000E-03 0.  1.
         11   -1    0    0    0    0 -0.00000000000E+00 -0.00000000000E+00 -0.45593999997E+02  0.45594000000E+02  0.51100000000E-03 0. -1.
    9900012    2    1    2    0    0 -0.43135828155E+00  0.15460472325E+00  0.10878521369E+01  0.90007578525E+02  0.89999837761E+02 0.  0.
         12    1    1    2    0    0  0.43135828155E+00 -0.15460472325E+00 -0.10878521369E+01  0.11804214752E+01  0.00000000000E+00 0. -1.
         11    1    3    3    0    0 -0.37003939537E+01  0.80506154771E+01  0.37880366572E+01  0.96361064207E+01  0.51100000000E-03 0. -1.
        -11    1    3    3    0    0 -0.25538312972E+02  0.17773956460E+02 -0.21129759939E+02  0.37610978623E+02  0.51100000000E-03 0.  1.
         12    1    3    3    0    0  0.28807348644E+02 -0.25669967213E+02  0.18429575418E+02  0.42760493481E+02  0.00000000000E+00 0. -1.
</event>
<event>
 7    1  0.3276565E-015  0.9000766E+02  0.7816164E-02  0.1186339E+00
        -11   -1    0    0    0    0  0.00000000000E+00  0.00000000000E+00  0.45593999997E+02  0.45594000000E+02  0.51100000000E-03 0.  1.
         11   -1    0    0    0    0 -0.00000000000E+00 -0.00000000000E+00 -0.45593999997E+02  0.45594000000E+02  0.51100000000E-03 0. -1.
    9900012    2    1    2    0    0  0.95291019020E+00  0.61575434337E+00 -0.32557852646E+00  0.90007664192E+02  0.89999924560E+02 0.  0.
         12    1    1    2    0    0 -0.95291019020E+00 -0.61575434337E+00  0.32557852646E+00  0.11803358077E+01  0.00000000000E+00 0. -1.
         11    1    3    3    0    0 -0.83564599612E+01  0.47950644492E+00  0.58525112910E+00  0.83906417311E+01  0.51100000000E-03 0. -1.
        -11    1    3    3    0    0 -0.28682856599E+02  0.19260005544E+02 -0.13754134606E+02  0.37186426224E+02  0.51100000000E-03 0.  1.
         12    1    3    3    0    0  0.37992226751E+02 -0.19123757646E+02  0.12843304950E+02  0.44430596238E+02  0.00000000000E+00 0. -1.
</event>
<event>
 7    1  0.3276565E-015  0.9000793E+02  0.7816164E-02  0.1186339E+00
        -11   -1    0    0    0    0  0.00000000000E+00  0.00000000000E+00  0.45593999997E+02  0.45594000000E+02  0.51100000000E-03 0. -1.
         11   -1    0    0    0    0 -0.00000000000E+00 -0.00000000000E+00 -0.45593999997E+02  0.45594000000E+02  0.51100000000E-03 0.  1.
    9900012    2    1    2    0    0  0.40272327158E+00  0.69189801162E+00  0.86698376852E+00  0.90007928076E+02  0.90000191926E+02 0.  0.
         12    1    1    2    0    0 -0.40272327158E+00 -0.69189801162E+00 -0.86698376852E+00  0.11800719244E+01  0.00000000000E+00 0. -1.
         11    1    3    3    0    0  0.34095138607E+01  0.58230595304E+01 -0.32106403909E+01  0.74726848616E+01  0.51100000000E-03 0. -1.
        -11    1    3    3    0    0 -0.16989961101E+02 -0.38393513133E+01 -0.36041284764E+02  0.40029659059E+02  0.51100000000E-03 0.  1.
         12    1    3    3    0    0  0.13983170511E+02 -0.12918102055E+01  0.40118908923E+02  0.42505584155E+02  0.00000000000E+00 0. -1.
</event>
<event>
 7    1  0.3276565E-015  0.9000894E+02  0.7816164E-02  0.1186337E+00
        -11   -1    0    0    0    0  0.00000000000E+00  0.00000000000E+00  0.45593999997E+02  0.45594000000E+02  0.51100000000E-03 0. -1.
         11   -1    0    0    0    0 -0.00000000000E+00 -0.00000000000E+00 -0.45593999997E+02  0.45594000000E+02  0.51100000000E-03 0.  1.
    9900012    2    1    2    0    0 -0.14803224928E+00 -0.10233324777E+01 -0.56662742826E+00  0.90008937004E+02  0.90001214164E+02 0.  0.
         12    1    1    2    0    0  0.14803224928E+00  0.10233324777E+01  0.56662742826E+00  0.11790629963E+01  0.00000000000E+00 0. -1.
         11    1    3    3    0    0 -0.75619496194E+01  0.22982576756E+02  0.29445831858E+02  0.38110876800E+02  0.51100000000E-03 0. -1.
        -11    1    3    3    0    0  0.17724646290E+01  0.95860334682E+00  0.67833713415E+01  0.70763463917E+01  0.51100000000E-03 0.  1.
        -12    1    3    3    0    0  0.56414527412E+01 -0.24964512581E+02 -0.36795830628E+02  0.44821713812E+02  0.00000000000E+00 0.  1.
</event>
<event>
 7    1  0.3276565E-015  0.9000780E+02  0.7816164E-02  0.1186339E+00
        -11   -1    0    0    0    0  0.00000000000E+00  0.00000000000E+00  0.45593999997E+02  0.45594000000E+02  0.51100000000E-03 0. -1.
         11   -1    0    0    0    0 -0.00000000000E+00 -0.00000000000E+00 -0.45593999997E+02  0.45594000000E+02  0.51100000000E-03 0.  1.
    9900012    2    1    2    0    0  0.48871108314E+00  0.10202099836E+00 -0.10694008537E+01  0.90007802986E+02  0.90000065185E+02 0.  0.
         12    1    1    2    0    0 -0.48871108314E+00 -0.10202099836E+00  0.10694008537E+01  0.11801970144E+01  0.00000000000E+00 0. -1.
         11    1    3    3    0    0  0.38531097191E+01 -0.90325465752E+01  0.18533924880E+01  0.99934186401E+01  0.51100000000E-03 0. -1.
        -11    1    3    3    0    0 -0.33198711629E+02 -0.18551289809E+02  0.55712971674E+01  0.38436234984E+02  0.51100000000E-03 0.  1.
         12    1    3    3    0    0  0.29834312993E+02  0.27685857382E+02 -0.84940905091E+01  0.41578149361E+02  0.00000000000E+00 0. -1.
</event>
<event>
 7    1  0.3276565E-015  0.9000768E+02  0.7816164E-02  0.1186339E+00
        -11   -1    0    0    0    0  0.00000000000E+00  0.00000000000E+00  0.45593999997E+02  0.45594000000E+02  0.51100000000E-03 0.  1.
         11   -1    0    0    0    0 -0.00000000000E+00 -0.00000000000E+00 -0.45593999997E+02  0.45594000000E+02  0.51100000000E-03 0. -1.
    9900012    2    1    2    0    0  0.92900973366E+00 -0.73560754666E-03 -0.72808113159E+00  0.90007677264E+02  0.89999937804E+02 0.  0.
         12    1    1    2    0    0 -0.92900973366E+00  0.73560754666E-03  0.72808113159E+00  0.11803227358E+01  0.00000000000E+00 0. -1.
         11    1    3    3    0    0  0.20465509839E+01 -0.10190854434E+01 -0.68824714105E+01  0.72522630294E+01  0.51100000000E-03 0. -1.
        -11    1    3    3    0    0 -0.25417402882E+02  0.14412624046E+02  0.33048861002E+02  0.44113436899E+02  0.51100000000E-03 0.  1.
         12    1    3    3    0    0  0.24299861632E+02 -0.13394274210E+02 -0.26894470723E+02  0.38641977336E+02  0.00000000000E+00 0. -1.
</event>
<event>
 7    1  0.3276565E-015  0.9000786E+02  0.7816164E-02  0.1186339E+00
        -11   -1    0    0    0    0  0.00000000000E+00  0.00000000000E+00  0.45593999997E+02  0.45594000000E+02  0.51100000000E-03 0.  1.
         11   -1    0    0    0    0 -0.00000000000E+00 -0.00000000000E+00 -0.45593999997E+02  0.45594000000E+02  0.51100000000E-03 0. -1.
    9900012    2    1    2    0    0  0.33676414501E+00 -0.99699366649E+00  0.53416402820E+00  0.90007856928E+02  0.90000119840E+02 0.  0.
         12    1    1    2    0    0 -0.33676414501E+00  0.99699366649E+00 -0.53416402820E+00  0.11801430716E+01  0.00000000000E+00 0. -1.
         11    1    3    3    0    0  0.46158496937E+01  0.34388558512E+01 -0.26298900570E+01  0.63283583917E+01  0.51100000000E-03 0. -1.
        -11    1    3    3    0    0  0.33502501778E+02 -0.20755543692E+02 -0.96503214237E+01  0.40575102258E+02  0.51100000000E-03 0.  1.
         12    1    3    3    0    0 -0.37781587327E+02  0.16319694175E+02  0.12814375509E+02  0.43104396279E+02  0.00000000000E+00 0. -1.
</event>
<event>
 7    1  0.3276565E-015  0.9000768E+02  0.7816164E-02  0.1186339E+00
        -11   -1    0    0    0    0  0.00000000000E+00  0.00000000000E+00  0.45593999997E+02  0.45594000000E+02  0.51100000000E-03 0. -1.
         11   -1    0    0    0    0 -0.00000000000E+00 -0.00000000000E+00 -0.45593999997E+02  0.45594000000E+02  0.51100000000E-03 0.  1.
    9900012    2    1    2    0    0 -0.11423886143E+01 -0.71426651061E-01 -0.28811356944E+00  0.90007676764E+02  0.89999937297E+02 0.  0.
         12    1    1    2    0    0  0.11423886143E+01  0.71426651061E-01  0.28811356944E+00  0.11803232360E+01  0.00000000000E+00 0. -1.
         11    1    3    3    0    0 -0.10068784705E+02 -0.56875536056E+01  0.20693629025E+02  0.23705589509E+02  0.51100000000E-03 0. -1.
        -11    1    3    3    0    0 -0.22061024618E+01 -0.24453994637E+02 -0.23695898284E+02  0.34122724650E+02  0.51100000000E-03 0.  1.
        -12    1    3    3    0    0  0.11132498552E+02  0.30070121592E+02  0.27141556897E+01  0.32179362605E+02  0.00000000000E+00 0.  1.
</event>
<event>
 7    1  0.3276565E-015  0.9000777E+02  0.7816164E-02  0.1186339E+00
        -11   -1    0    0    0    0  0.00000000000E+00  0.00000000000E+00  0.45593999997E+02  0.45594000000E+02  0.51100000000E-03 0.  1.
         11   -1    0    0    0    0 -0.00000000000E+00 -0.00000000000E+00 -0.45593999997E+02  0.45594000000E+02  0.51100000000E-03 0. -1.
    9900012    2    1    2    0    0  0.22338380887E+00 -0.11123269983E+01  0.32523574722E+00  0.90007766985E+02  0.90000028710E+02 0.  0.
         12    1    1    2    0    0 -0.22338380887E+00  0.11123269983E+01 -0.32523574722E+00  0.11802330145E+01  0.00000000000E+00 0. -1.
         11    1    3    3    0    0 -0.12480196733E+01  0.70527752167E+01 -0.35473575144E+02  0.36189414546E+02  0.51100000000E-03 0. -1.
        -11    1    3    3    0    0 -0.68455194373E+01  0.14700015784E+01 -0.65563373122E+01  0.95920592272E+01  0.51100000000E-03 0.  1.
        -12    1    3    3    0    0  0.83169229195E+01 -0.96351037934E+01  0.42355148204E+02  0.44226293213E+02  0.00000000000E+00 0.  1.
</event>
<event>
 7    1  0.3276565E-015  0.9000773E+02  0.7816164E-02  0.1186339E+00
        -11   -1    0    0    0    0  0.00000000000E+00  0.00000000000E+00  0.45593999997E+02  0.45594000000E+02  0.51100000000E-03 0. -1.
         11   -1    0    0    0    0 -0.00000000000E+00 -0.00000000000E+00 -0.45593999997E+02  0.45594000000E+02  0.51100000000E-03 0.  1.
    9900012    2    1    2    0    0 -0.70410305332E+00  0.78373843145E+00  0.53199948607E+00  0.90007732873E+02  0.89999994147E+02 0.  0.
         12    1    1    2    0    0  0.70410305332E+00 -0.78373843145E+00 -0.53199948607E+00  0.11802671273E+01  0.00000000000E+00 0. -1.
         11    1    3    3    0    0  0.39343042412E+01 -0.75619154193E+01 -0.67539045447E+01  0.10875501898E+02  0.51100000000E-03 0. -1.
        -11    1    3    3    0    0 -0.32354998352E+02 -0.20546591332E+02  0.76976344701E+01  0.39092990554E+02  0.51100000000E-03 0.  1.
         12    1    3    3    0    0  0.27716591057E+02  0.28892245183E+02 -0.41173043936E+00  0.40039240421E+02  0.00000000000E+00 0. -1.
</event>
<event>
 7    1  0.3276565E-015  0.9000767E+02  0.7816164E-02  0.1186339E+00
        -11   -1    0    0    0    0  0.00000000000E+00  0.00000000000E+00  0.45593999997E+02  0.45594000000E+02  0.51100000000E-03 0. -1.
         11   -1    0    0    0    0 -0.00000000000E+00 -0.00000000000E+00 -0.45593999997E+02  0.45594000000E+02  0.51100000000E-03 0.  1.
    9900012    2    1    2    0    0  0.21227907153E+00 -0.10299534412E+01 -0.53601745771E+00  0.90007669025E+02  0.89999929456E+02 0.  0.
         12    1    1    2    0    0 -0.21227907153E+00  0.10299534412E+01  0.53601745771E+00  0.11803309749E+01  0.00000000000E+00 0. -1.
         11    1    3    3    0    0 -0.37108767529E+01  0.31773240739E+02  0.23155744247E+02  0.39490478918E+02  0.51100000000E-03 0. -1.
        -11    1    3    3    0    0  0.61093672710E+01 -0.46700639798E+01  0.58515600927E+01  0.96630544761E+01  0.51100000000E-03 0.  1.
        -12    1    3    3    0    0 -0.21862114466E+01 -0.28133130200E+02 -0.29543321797E+02  0.40854135631E+02  0.00000000000E+00 0.  1.
</event>
<event>
 7    1  0.3276565E-015  0.9000770E+02  0.7816164E-02  0.1186339E+00
        -11   -1    0    0    0    0  0.00000000000E+00  0.00000000000E+00  0.45593999997E+02  0.45594000000E+02  0.51100000000E-03 0. -1.
         11   -1    0    0    0    0 -0.00000000000E+00 -0.00000000000E+00 -0.45593999997E+02  0.45594000000E+02  0.51100000000E-03 0.  1.
    9900012    2    1    2    0    0 -0.11176244764E+01  0.90899600187E-01 -0.36846168336E+00  0.90007698674E+02  0.89999959497E+02 0.  0.
         12    1    1    2    0    0  0.11176244764E+01 -0.90899600187E-01  0.36846168336E+00  0.11803013258E+01  0.00000000000E+00 0. -1.
         11    1    3    3    0    0  0.34508033544E+01 -0.40644485719E+01  0.25767950045E+02  0.26313780340E+02  0.51100000000E-03 0. -1.
        -11    1    3    3    0    0 -0.31209416489E+00  0.26112964483E+02  0.37311783245E+01  0.26380030492E+02  0.51100000000E-03 0.  1.
         12    1    3    3    0    0 -0.42563336659E+01 -0.21957616310E+02 -0.29867590053E+02  0.37313887842E+02  0.00000000000E+00 0. -1.
</event>
<event>
 7    1  0.3276565E-015  0.9000763E+02  0.7816164E-02  0.1186339E+00
        -11   -1    0    0    0    0  0.00000000000E+00  0.00000000000E+00  0.45593999997E+02  0.45594000000E+02  0.51100000000E-03 0.  1.
         11   -1    0    0    0    0 -0.00000000000E+00 -0.00000000000E+00 -0.45593999997E+02  0.45594000000E+02  0.51100000000E-03 0. -1.
    9900012    2    1    2    0    0 -0.72179630810E+00  0.55062395274E+00  0.75437952518E+00  0.90007633482E+02  0.89999893444E+02 0.  0.
         12    1    1    2    0    0  0.72179630810E+00 -0.55062395274E+00 -0.75437952518E+00  0.11803665175E+01  0.00000000000E+00 0. -1.
         11    1    3    3    0    0 -0.61644295841E+01 -0.11745359012E+02 -0.73415264111E+01  0.15160859498E+02  0.51100000000E-03 0. -1.
        -11    1    3    3    0    0 -0.13764096026E+02 -0.61823459261E+01  0.34298851001E+02  0.37471094470E+02  0.51100000000E-03 0.  1.
         12    1    3    3    0    0  0.19206729302E+02  0.18478328891E+02 -0.26202945065E+02  0.37375679514E+02  0.00000000000E+00 0. -1.
</event>
<event>
 7    1  0.3276565E-015  0.9000784E+02  0.7816164E-02  0.1186339E+00
        -11   -1    0    0    0    0  0.00000000000E+00  0.00000000000E+00  0.45593999997E+02  0.45594000000E+02  0.51100000000E-03 0. -1.
         11   -1    0    0    0    0 -0.00000000000E+00 -0.00000000000E+00 -0.45593999997E+02  0.45594000000E+02  0.51100000000E-03 0.  1.
    9900012    2    1    2    0    0 -0.80256664086E-01 -0.11136453581E+01  0.38225492842E+00  0.90007844948E+02  0.90000107702E+02 0.  0.
         12    1    1    2    0    0  0.80256664086E-01  0.11136453581E+01 -0.38225492842E+00  0.11801550517E+01  0.00000000000E+00 0. -1.
         11    1    3    3    0    0 -0.20057348314E+01  0.96153723622E+01 -0.36628493374E+01  0.10483073185E+02  0.51100000000E-03 0. -1.
        -11    1    3    3    0    0 -0.30168887245E+02  0.11071255989E+02 -0.15950641139E+02  0.35876976179E+02  0.51100000000E-03 0.  1.
         12    1    3    3    0    0  0.32094365412E+02 -0.21800273709E+02  0.19995745405E+02  0.43647795584E+02  0.00000000000E+00 0. -1.
</event>
<event>
 7    1  0.3276565E-015  0.9000788E+02  0.7816164E-02  0.1186339E+00
        -11   -1    0    0    0    0  0.00000000000E+00  0.00000000000E+00  0.45593999997E+02  0.45594000000E+02  0.51100000000E-03 0.  1.
         11   -1    0    0    0    0 -0.00000000000E+00 -0.00000000000E+00 -0.45593999997E+02  0.45594000000E+02  0.51100000000E-03 0. -1.
    9900012    2    1    2    0    0 -0.19400363126E-01  0.45288082497E+00  0.10895900777E+01  0.90007879687E+02  0.90000142899E+02 0.  0.
         12    1    1    2    0    0  0.19400363126E-01 -0.45288082497E+00 -0.10895900777E+01  0.11801203129E+01  0.00000000000E+00 0. -1.
         11    1    3    3    0    0  0.35718813308E+02  0.14806810403E+02 -0.16214595739E+02  0.41928371942E+02  0.51100000000E-03 0. -1.
        -11    1    3    3    0    0 -0.32203902776E+01  0.36419532313E+01  0.86458738613E+01  0.99189652669E+01  0.51100000000E-03 0.  1.
        -12    1    3    3    0    0 -0.32517823394E+02 -0.17995882809E+02  0.86583119550E+01  0.38160542479E+02  0.00000000000E+00 0.  1.
</event>
<event>
 7    1  0.3276565E-015  0.9000775E+02  0.7816164E-02  0.1186339E+00
        -11   -1    0    0    0    0  0.00000000000E+00  0.00000000000E+00  0.45593999997E+02  0.45594000000E+02  0.51100000000E-03 0.  1.
         11   -1    0    0    0    0 -0.00000000000E+00 -0.00000000000E+00 -0.45593999997E+02  0.45594000000E+02  0.51100000000E-03 0. -1.
    9900012    2    1    2    0    0 -0.34201672630E+00 -0.10409155022E+01  0.43875323816E+00  0.90007752175E+02  0.90000013704E+02 0.  0.
         12    1    1    2    0    0  0.34201672630E+00  0.10409155022E+01 -0.43875323816E+00  0.11802478247E+01  0.00000000000E+00 0. -1.
         11    1    3    3    0    0  0.31390297892E+00 -0.48426341692E+00 -0.91440634102E+01  0.91622563841E+01  0.51100000000E-03 0. -1.
        -11    1    3    3    0    0  0.17506940785E+02  0.48079878289E+01  0.40616537501E+02  0.44489468883E+02  0.51100000000E-03 0.  1.
         12    1    3    3    0    0 -0.18162860490E+02 -0.53646399142E+01 -0.31033720853E+02  0.36356026908E+02  0.00000000000E+00 0. -1.
</event>
<event>
 7    1  0.3276565E-015  0.9000775E+02  0.7816164E-02  0.1186339E+00
        -11   -1    0    0    0    0  0.00000000000E+00  0.00000000000E+00  0.45593999997E+02  0.45594000000E+02  0.51100000000E-03 0.  1.
         11   -1    0    0    0    0 -0.00000000000E+00 -0.00000000000E+00 -0.45593999997E+02  0.45594000000E+02  0.51100000000E-03 0. -1.
    9900012    2    1    2    0    0  0.88113839171E+00  0.21872764177E+00 -0.75414473159E+00  0.90007753872E+02  0.90000015423E+02 0.  0.
         12    1    1    2    0    0 -0.88113839171E+00 -0.21872764177E+00  0.75414473159E+00  0.11802461281E+01  0.00000000000E+00 0. -1.
         11    1    3    3    0    0 -0.37418032550E+01 -0.70039551094E+01  0.17890059564E+02  0.19573214101E+02  0.51100000000E-03 0. -1.
        -11    1    3    3    0    0  0.84895368641E+01 -0.81585432580E+01  0.23018587335E+02  0.25855162491E+02  0.51100000000E-03 0.  1.
         12    1    3    3    0    0 -0.38665952174E+01  0.15381226009E+02 -0.41662791631E+02  0.44579377280E+02  0.00000000000E+00 0. -1.
</event>
<event>
 7    1  0.3276565E-015  0.9000765E+02  0.7816164E-02  0.1186339E+00
        -11   -1    0    0    0    0  0.00000000000E+00  0.00000000000E+00  0.45593999997E+02  0.45594000000E+02  0.51100000000E-03 0. -1.
         11   -1    0    0    0    0 -0.00000000000E+00 -0.00000000000E+00 -0.45593999997E+02  0.45594000000E+02  0.51100000000E-03 0.  1.
    9900012    2    1    2    0    0  0.31911427008E+00  0.10604615177E+01  0.40843363839E+00  0.90007648110E+02  0.89999908265E+02 0.  0.
         12    1    1    2    0    0 -0.31911427008E+00 -0.10604615177E+01 -0.40843363839E+00  0.11803518903E+01  0.00000000000E+00 0. -1.
         11    1    3    3    0    0 -0.77026441233E+00  0.22259545060E+01 -0.59158899035E+01  0.63675689505E+01  0.51100000000E-03 0. -1.
        -11    1    3    3    0    0 -0.27524007515E+02 -0.21152746327E+02 -0.19872997077E+02  0.39999320993E+02  0.51100000000E-03 0.  1.
         12    1    3    3    0    0  0.28613386197E+02  0.19987253338E+02  0.26197320619E+02  0.43640758166E+02  0.00000000000E+00 0. -1.
</event>
<event>
 7    1  0.3276565E-015  0.9000786E+02  0.7816164E-02  0.1186339E+00
        -11   -1    0    0    0    0  0.00000000000E+00  0.00000000000E+00  0.45593999997E+02  0.45594000000E+02  0.51100000000E-03 0.  1.
         11   -1    0    0    0    0 -0.00000000000E+00 -0.00000000000E+00 -0.45593999997E+02  0.45594000000E+02  0.51100000000E-03 0. -1.
    9900012    2    1    2    0    0 -0.10104582667E+01  0.58382329813E+00 -0.17566594326E+00  0.90007858451E+02  0.90000121382E+02 0.  0.
         12    1    1    2    0    0  0.10104582667E+01 -0.58382329813E+00  0.17566594326E+00  0.11801415490E+01  0.00000000000E+00 0. -1.
         11    1    3    3    0    0 -0.13719010173E+01  0.86941325925E+01  0.71350402128E+01  0.11330439225E+02  0.51100000000E-03 0. -1.
        -11    1    3    3    0    0  0.21288667262E+01 -0.63860786553E+01  0.35329849845E+02  0.35965432911E+02  0.51100000000E-03 0.  1.
         12    1    3    3    0    0 -0.17674239756E+01 -0.17242306391E+01 -0.42640556002E+02  0.42711986314E+02  0.00000000000E+00 0. -1.
</event>
<event>
 7    1  0.3276565E-015  0.9000764E+02  0.7816164E-02  0.1186339E+00
        -11   -1    0    0    0    0  0.00000000000E+00  0.00000000000E+00  0.45593999997E+02  0.45594000000E+02  0.51100000000E-03 0.  1.
         11   -1    0    0    0    0 -0.00000000000E+00 -0.00000000000E+00 -0.45593999997E+02  0.45594000000E+02  0.51100000000E-03 0. -1.
    9900012    2    1    2    0    0  0.85041333326E-01 -0.10817945577E+01  0.46448779904E+00  0.90007635476E+02  0.89999895464E+02 0.  0.
         12    1    1    2    0    0 -0.85041333326E-01  0.10817945577E+01 -0.46448779904E+00  0.11803645237E+01  0.00000000000E+00 0. -1.
         11    1    3    3    0    0 -0.33381684855E+02 -0.72447747704E+01 -0.12057767792E+02  0.36224486327E+02  0.51100000000E-03 0. -1.
        -11    1    3    3    0    0 -0.50527992525E+01 -0.83112922590E+01 -0.23885935135E+01  0.10015674642E+02  0.51100000000E-03 0.  1.
        -12    1    3    3    0    0  0.38519525441E+02  0.14474272472E+02  0.14910849105E+02  0.43767474508E+02  0.00000000000E+00 0.  1.
</event>
<event>
 7    1  0.3276565E-015  0.9000777E+02  0.7816164E-02  0.1186339E+00
        -11   -1    0    0    0    0  0.00000000000E+00  0.00000000000E+00  0.45593999997E+02  0.45594000000E+02  0.51100000000E-03 0. -1.
         11   -1    0    0    0    0 -0.00000000000E+00 -0.00000000000E+00 -0.45593999997E+02  0.45594000000E+02  0.51100000000E-03 0.  1.
    9900012    2    1    2    0    0  0.35327767669E+00  0.79947444460E+00 -0.79308215846E+00  0.90007769593E+02  0.90000031351E+02 0.  0.
         12    1    1    2    0    0 -0.35327767669E+00 -0.79947444460E+00  0.79308215846E+00  0.11802304074E+01  0.00000000000E+00 0. -1.
         11    1    3    3    0    0  0.11892605373E+02 -0.27907011446E+02  0.16480046795E+02  0.34522851751E+02  0.51100000000E-03 0. -1.
        -11    1    3    3    0    0 -0.15901992307E+01 -0.10722391300E+02  0.10347694102E+01  0.10888946541E+02  0.51100000000E-03 0.  1.
        -12    1    3    3    0    0 -0.99491284660E+01  0.39428877190E+02 -0.18307898364E+02  0.44595971300E+02  0.00000000000E+00 0.  1.
</event>
<event>
 7    1  0.3276565E-015  0.9000779E+02  0.7816164E-02  0.1186339E+00
        -11   -1    0    0    0    0  0.00000000000E+00  0.00000000000E+00  0.45593999997E+02  0.45594000000E+02  0.51100000000E-03 0.  1.
         11   -1    0    0    0    0 -0.00000000000E+00 -0.00000000000E+00 -0.45593999997E+02  0.45594000000E+02  0.51100000000E-03 0. -1.
    9900012    2    1    2    0    0 -0.93745131031E+00  0.17511414720E+00  0.69528506445E+00  0.90007787627E+02  0.90000049624E+02 0.  0.
         12    1    1    2    0    0  0.93745131031E+00 -0.17511414720E+00 -0.69528506445E+00  0.11802123727E+01  0.00000000000E+00 0. -1.
         11    1    3    3    0    0  0.22551269739E+01 -0.79365417790E+01  0.16920005960E+01  0.84224200415E+01  0.51100000000E-03 0. -1.
        -11    1    3    3    0    0 -0.82729189627E+01 -0.29017395334E+02  0.22245955301E+02  0.37487770641E+02  0.51100000000E-03 0.  1.
         12    1    3    3    0    0  0.50803406786E+01  0.37129051260E+02 -0.23242670832E+02  0.44097596945E+02  0.00000000000E+00 0. -1.
</event>
<event>
 7    1  0.3276565E-015  0.9000779E+02  0.7816164E-02  0.1186339E+00
        -11   -1    0    0    0    0  0.00000000000E+00  0.00000000000E+00  0.45593999997E+02  0.45594000000E+02  0.51100000000E-03 0. -1.
         11   -1    0    0    0    0 -0.00000000000E+00 -0.00000000000E+00 -0.45593999997E+02  0.45594000000E+02  0.51100000000E-03 0.  1.
    9900012    2    1    2    0    0 -0.71889105691E+00  0.27541154898E+00 -0.89456598647E+00  0.90007786385E+02  0.90000048365E+02 0.  0.
         12    1    1    2    0    0  0.71889105691E+00 -0.27541154898E+00  0.89456598647E+00  0.11802136151E+01  0.00000000000E+00 0. -1.
         11    1    3    3    0    0 -0.52795717201E+00  0.11442943178E+02  0.55772129391E+01  0.12740682548E+02  0.51100000000E-03 0. -1.
        -11    1    3    3    0    0 -0.18035317422E+02 -0.18414738202E+02  0.27827189933E+02  0.37930564949E+02  0.51100000000E-03 0.  1.
         12    1    3    3    0    0  0.17844383537E+02  0.72472065731E+01 -0.34298968858E+02  0.39336538888E+02  0.00000000000E+00 0. -1.
</event>
<event>
 7    1  0.3276565E-015  0.9000774E+02  0.7816164E-02  0.1186339E+00
        -11   -1    0    0    0    0  0.00000000000E+00  0.00000000000E+00  0.45593999997E+02  0.45594000000E+02  0.51100000000E-03 0. -1.
         11   -1    0    0    0    0 -0.00000000000E+00 -0.00000000000E+00 -0.45593999997E+02  0.45594000000E+02  0.51100000000E-03 0.  1.
    9900012    2    1    2    0    0 -0.82198918231E+00 -0.73913244734E-01 -0.84373856559E+00  0.90007735559E+02  0.89999996868E+02 0.  0.
         12    1    1    2    0    0  0.82198918231E+00  0.73913244734E-01  0.84373856559E+00  0.11802644410E+01  0.00000000000E+00 0. -1.
         11    1    3    3    0    0 -0.21362968312E+01  0.82412093796E+01 -0.11353480248E+02  0.14190941131E+02  0.51100000000E-03 0. -1.
        -11    1    3    3    0    0  0.33630888223E+02 -0.97832740482E-01  0.22408239126E+02  0.40412564815E+02  0.51100000000E-03 0.  1.
         12    1    3    3    0    0 -0.32316580575E+02 -0.82172898838E+01 -0.11898497444E+02  0.35404229613E+02  0.00000000000E+00 0. -1.
</event>
<event>
 7    1  0.3276565E-015  0.9000743E+02  0.7816164E-02  0.1186340E+00
        -11   -1    0    0    0    0  0.00000000000E+00  0.00000000000E+00  0.45593999997E+02  0.45594000000E+02  0.51100000000E-03 0. -1.
         11   -1    0    0    0    0 -0.00000000000E+00 -0.00000000000E+00 -0.45593999997E+02  0.45594000000E+02  0.51100000000E-03 0.  1.
    9900012    2    1    2    0    0 -0.89476383917E+00  0.31119956902E+00 -0.70448346120E+00  0.90007430457E+02  0.89999687738E+02 0.  0.
         12    1    1    2    0    0  0.89476383917E+00 -0.31119956902E+00  0.70448346120E+00  0.11805695434E+01  0.00000000000E+00 0. -1.
         11    1    3    3    0    0 -0.76981739296E+01  0.31139989977E+02  0.23165302339E+02  0.39567563614E+02  0.51100000000E-03 0. -1.
        -11    1    3    3    0    0  0.20340976910E+01 -0.14506010985E+01  0.70760962094E+01  0.75041944798E+01  0.51100000000E-03 0.  1.
        -12    1    3    3    0    0  0.47693123994E+01 -0.29378189310E+02 -0.30945882010E+02  0.42935672363E+02  0.00000000000E+00 0.  1.
</event>
<event>
 7    1  0.3276565E-015  0.9000787E+02  0.7816164E-02  0.1186339E+00
        -11   -1    0    0    0    0  0.00000000000E+00  0.00000000000E+00  0.45593999997E+02  0.45594000000E+02  0.51100000000E-03 0. -1.
         11   -1    0    0    0    0 -0.00000000000E+00 -0.00000000000E+00 -0.45593999997E+02  0.45594000000E+02  0.51100000000E-03 0.  1.
    9900012    2    1    2    0    0 -0.72105005945E+00  0.93397819093E+00  0.22066107085E-01  0.90007866379E+02  0.90000129416E+02 0.  0.
         12    1    1    2    0    0  0.72105005945E+00 -0.93397819093E+00 -0.22066107085E-01  0.11801336206E+01  0.00000000000E+00 0. -1.
         11    1    3    3    0    0  0.51072425890E+01  0.40608357582E+02  0.12171957357E+02  0.42699873284E+02  0.51100000000E-03 0. -1.
        -11    1    3    3    0    0  0.25740714364E+01 -0.57766255700E+01  0.53148373677E+01  0.82609166103E+01  0.51100000000E-03 0.  1.
        -12    1    3    3    0    0 -0.84023640848E+01 -0.33897753821E+02 -0.17464728618E+02  0.39047076485E+02  0.00000000000E+00 0.  1.
</event>
<event>
 7    1  0.3276565E-015  0.9000773E+02  0.7816164E-02  0.1186339E+00
        -11   -1    0    0    0    0  0.00000000000E+00  0.00000000000E+00  0.45593999997E+02  0.45594000000E+02  0.51100000000E-03 0. -1.
         11   -1    0    0    0    0 -0.00000000000E+00 -0.00000000000E+00 -0.45593999997E+02  0.45594000000E+02  0.51100000000E-03 0.  1.
    9900012    2    1    2    0    0 -0.81355564181E+00  0.75104332528E+00  0.40877043532E+00  0.90007732180E+02  0.89999993445E+02 0.  0.
         12    1    1    2    0    0  0.81355564181E+00 -0.75104332528E+00 -0.40877043532E+00  0.11802678203E+01  0.00000000000E+00 0. -1.
         11    1    3    3    0    0 -0.12393169708E+01  0.28566299177E+02  0.25861434313E+02  0.38553639779E+02  0.51100000000E-03 0. -1.
        -11    1    3    3    0    0 -0.12697449821E+02  0.11874512999E+01 -0.55295033321E+01  0.13900024458E+02  0.51100000000E-03 0.  1.
        -12    1    3    3    0    0  0.13123211150E+02 -0.29002707151E+02 -0.19923160545E+02  0.37554067944E+02  0.00000000000E+00 0.  1.
</event>
<event>
 7    1  0.3276565E-015  0.9000779E+02  0.7816164E-02  0.1186339E+00
        -11   -1    0    0    0    0  0.00000000000E+00  0.00000000000E+00  0.45593999997E+02  0.45594000000E+02  0.51100000000E-03 0.  1.
         11   -1    0    0    0    0 -0.00000000000E+00 -0.00000000000E+00 -0.45593999997E+02  0.45594000000E+02  0.51100000000E-03 0. -1.
    9900012    2    1    2    0    0  0.10921622195E+01  0.10329698043E+00  0.43521052622E+00  0.90007789518E+02  0.90000051540E+02 0.  0.
         12    1    1    2    0    0 -0.10921622195E+01 -0.10329698043E+00 -0.43521052622E+00  0.11802104821E+01  0.00000000000E+00 0. -1.
         11    1    3    3    0    0  0.62994846694E+01 -0.12549050391E+02  0.54103268894E+01  0.15047717771E+02  0.51100000000E-03 0. -1.
        -11    1    3    3    0    0  0.28954068284E+02 -0.13207614415E+02  0.21414810119E-01  0.31824198460E+02  0.51100000000E-03 0.  1.
         12    1    3    3    0    0 -0.34161390734E+02  0.25859961787E+02 -0.49965311733E+01  0.43135873287E+02  0.00000000000E+00 0. -1.
</event>
<event>
 7    1  0.3276565E-015  0.9000776E+02  0.7816164E-02  0.1186339E+00
        -11   -1    0    0    0    0  0.00000000000E+00  0.00000000000E+00  0.45593999997E+02  0.45594000000E+02  0.51100000000E-03 0.  1.
         11   -1    0    0    0    0 -0.00000000000E+00 -0.00000000000E+00 -0.45593999997E+02  0.45594000000E+02  0.51100000000E-03 0. -1.
    9900012    2    1    2    0    0 -0.20535359284E+00  0.19424487420E+00  0.11458900332E+01  0.90007760559E+02  0.90000022199E+02 0.  0.
         12    1    1    2    0    0  0.20535359284E+00 -0.19424487420E+00 -0.11458900332E+01  0.11802394407E+01  0.00000000000E+00 0. -1.
         11    1    3    3    0    0  0.15165222085E+02  0.11410757146E+02  0.30782004833E+02  0.36162427481E+02  0.51100000000E-03 0. -1.
        -11    1    3    3    0    0 -0.18701794582E+00  0.11360001698E+02  0.26071701467E+01  0.11656841370E+02  0.51100000000E-03 0.  1.
        -12    1    3    3    0    0 -0.15183557732E+02 -0.22576513970E+02 -0.32243284946E+02  0.42188491708E+02  0.00000000000E+00 0.  1.
</event>
<event>
 7    1  0.3276565E-015  0.9000771E+02  0.7816164E-02  0.1186339E+00
        -11   -1    0    0    0    0  0.00000000000E+00  0.00000000000E+00  0.45593999997E+02  0.45594000000E+02  0.51100000000E-03 0. -1.
         11   -1    0    0    0    0 -0.00000000000E+00 -0.00000000000E+00 -0.45593999997E+02  0.45594000000E+02  0.51100000000E-03 0.  1.
    9900012    2    1    2    0    0 -0.19664617167E+00 -0.10533411372E+01  0.49485620620E+00  0.90007711928E+02  0.89999972925E+02 0.  0.
         12    1    1    2    0    0  0.19664617167E+00  0.10533411372E+01 -0.49485620620E+00  0.11802880721E+01  0.00000000000E+00 0. -1.
         11    1    3    3    0    0 -0.40111222116E+01 -0.62811869729E+01  0.36734548440E+02  0.37482922252E+02  0.51100000000E-03 0. -1.
        -11    1    3    3    0    0 -0.33455153619E+00  0.46890421113E+01  0.73554419098E+01  0.87293508695E+01  0.51100000000E-03 0.  1.
        -12    1    3    3    0    0  0.41490275762E+01  0.53880372435E+00 -0.43595134144E+02  0.43795438807E+02  0.00000000000E+00 0.  1.
</event>
<event>
 7    1  0.3276565E-015  0.9000774E+02  0.7816164E-02  0.1186339E+00
        -11   -1    0    0    0    0  0.00000000000E+00  0.00000000000E+00  0.45593999997E+02  0.45594000000E+02  0.51100000000E-03 0.  1.
         11   -1    0    0    0    0 -0.00000000000E+00 -0.00000000000E+00 -0.45593999997E+02  0.45594000000E+02  0.51100000000E-03 0. -1.
    9900012    2    1    2    0    0 -0.61441928375E+00  0.53005440798E+00 -0.85704980256E+00  0.90007744479E+02  0.90000005906E+02 0.  0.
         12    1    1    2    0    0  0.61441928375E+00 -0.53005440798E+00  0.85704980256E+00  0.11802555214E+01  0.00000000000E+00 0. -1.
         11    1    3    3    0    0 -0.12220075186E+01  0.31229887409E+02 -0.77301118516E+00  0.31263344615E+02  0.51100000000E-03 0. -1.
        -11    1    3    3    0    0  0.78513612307E+01  0.10562881183E+02  0.89132514430E+01  0.15895420209E+02  0.51100000000E-03 0.  1.
        -12    1    3    3    0    0 -0.72437729959E+01 -0.41262714184E+02 -0.89972900604E+01  0.42848979655E+02  0.00000000000E+00 0.  1.
</event>
<event>
 7    1  0.3276565E-015  0.9000762E+02  0.7816164E-02  0.1186339E+00
        -11   -1    0    0    0    0  0.00000000000E+00  0.00000000000E+00  0.45593999997E+02  0.45594000000E+02  0.51100000000E-03 0.  1.
         11   -1    0    0    0    0 -0.00000000000E+00 -0.00000000000E+00 -0.45593999997E+02  0.45594000000E+02  0.51100000000E-03 0. -1.
    9900012    2    1    2    0    0 -0.38986508137E+00 -0.10566703271E+00  0.11091123864E+01  0.90007622692E+02  0.89999882511E+02 0.  0.
         12    1    1    2    0    0  0.38986508137E+00  0.10566703271E+00 -0.11091123864E+01  0.11803773080E+01  0.00000000000E+00 0. -1.
         11    1    3    3    0    0  0.13949560773E+02  0.37237123185E+02 -0.21840659521E+01  0.39824160169E+02  0.51100000000E-03 0. -1.
        -11    1    3    3    0    0  0.55899823145E+01 -0.24636085170E+01  0.76350885772E+01  0.97781310609E+01  0.51100000000E-03 0.  1.
        -12    1    3    3    0    0 -0.19929408169E+02 -0.34879181700E+02 -0.43419102387E+01  0.40405331462E+02  0.00000000000E+00 0.  1.
</event>
<event>
 7    1  0.3276565E-015  0.9000772E+02  0.7816164E-02  0.1186339E+00
        -11   -1    0    0    0    0  0.00000000000E+00  0.00000000000E+00  0.45593999997E+02  0.45594000000E+02  0.51100000000E-03 0. -1.
         11   -1    0    0    0    0 -0.00000000000E+00 -0.00000000000E+00 -0.45593999997E+02  0.45594000000E+02  0.51100000000E-03 0.  1.
    9900012    2    1    2    0    0 -0.81993033016E+00 -0.84431898926E+00  0.88828987273E-01  0.90007724231E+02  0.89999985391E+02 0.  0.
         12    1    1    2    0    0  0.81993033016E+00  0.84431898926E+00 -0.88828987273E-01  0.11802757690E+01  0.00000000000E+00 0. -1.
         11    1    3    3    0    0 -0.82285646517E+01  0.74259663634E+01 -0.27762348419E+01  0.11426361311E+02  0.51100000000E-03 0. -1.
        -11    1    3    3    0    0 -0.33829540623E+02 -0.83754049302E+00  0.11609588901E+02  0.35775995410E+02  0.51100000000E-03 0.  1.
         12    1    3    3    0    0  0.41238174945E+02 -0.74327448597E+01 -0.87445250714E+01  0.42805367510E+02  0.00000000000E+00 0. -1.
</event>
<event>
 7    1  0.3276565E-015  0.9000773E+02  0.7816164E-02  0.1186339E+00
        -11   -1    0    0    0    0  0.00000000000E+00  0.00000000000E+00  0.45593999997E+02  0.45594000000E+02  0.51100000000E-03 0. -1.
         11   -1    0    0    0    0 -0.00000000000E+00 -0.00000000000E+00 -0.45593999997E+02  0.45594000000E+02  0.51100000000E-03 0.  1.
    9900012    2    1    2    0    0 -0.44696956759E+00  0.31101745566E+00 -0.10471450275E+01  0.90007734623E+02  0.89999995920E+02 0.  0.
         12    1    1    2    0    0  0.44696956759E+00 -0.31101745566E+00  0.10471450275E+01  0.11802653772E+01  0.00000000000E+00 0. -1.
         11    1    3    3    0    0 -0.20320931128E+01 -0.93533827940E+01 -0.16178424028E+01  0.97073470326E+01  0.51100000000E-03 0. -1.
        -11    1    3    3    0    0  0.28346624916E+02 -0.11272691811E+02  0.24178525657E+02  0.38925644863E+02  0.51100000000E-03 0.  1.
         12    1    3    3    0    0 -0.26761501371E+02  0.20937092060E+02 -0.23607828282E+02  0.41374742727E+02  0.00000000000E+00 0. -1.
</event>
<event>
 7    1  0.3276565E-015  0.9000848E+02  0.7816164E-02  0.1186338E+00
        -11   -1    0    0    0    0  0.00000000000E+00  0.00000000000E+00  0.45593999997E+02  0.45594000000E+02  0.51100000000E-03 0. -1.
         11   -1    0    0    0    0 -0.00000000000E+00 -0.00000000000E+00 -0.45593999997E+02  0.45594000000E+02  0.51100000000E-03 0.  1.
    9900012    2    1    2    0    0  0.10067925232E+01  0.60199439923E+00 -0.12343304756E+00  0.90008481387E+02  0.90000752538E+02 0.  0.
         12    1    1    2    0    0 -0.10067925232E+01 -0.60199439923E+00  0.12343304756E+00  0.11795186131E+01  0.00000000000E+00 0. -1.
         11    1    3    3    0    0 -0.16253557404E+02 -0.20578089887E+02  0.30964146476E+02  0.40576030843E+02  0.51100000000E-03 0. -1.
        -11    1    3    3    0    0  0.75753822521E+01  0.62266148133E+01  0.35929004781E+01  0.10443470803E+02  0.51100000000E-03 0.  1.
        -12    1    3    3    0    0  0.96849676754E+01  0.14953469473E+02 -0.34680480002E+02  0.38988979742E+02  0.00000000000E+00 0.  1.
</event>
<event>
 7    1  0.3276565E-015  0.9000767E+02  0.7816164E-02  0.1186339E+00
        -11   -1    0    0    0    0  0.00000000000E+00  0.00000000000E+00  0.45593999997E+02  0.45594000000E+02  0.51100000000E-03 0. -1.
         11   -1    0    0    0    0 -0.00000000000E+00 -0.00000000000E+00 -0.45593999997E+02  0.45594000000E+02  0.51100000000E-03 0.  1.
    9900012    2    1    2    0    0  0.31751448129E+00  0.10956176000E+01 -0.30330106989E+00  0.90007667458E+02  0.89999927868E+02 0.  0.
         12    1    1    2    0    0 -0.31751448129E+00 -0.10956176000E+01  0.30330106989E+00  0.11803325422E+01  0.00000000000E+00 0. -1.
         11    1    3    3    0    0 -0.36152887051E+01  0.90423498618E+01  0.11547038012E+01  0.98065154144E+01  0.51100000000E-03 0. -1.
        -11    1    3    3    0    0 -0.26240914226E+02  0.21858799326E+02 -0.12511161606E+02  0.36371992692E+02  0.51100000000E-03 0.  1.
         12    1    3    3    0    0  0.30173717412E+02 -0.29805531588E+02  0.11053156735E+02  0.43829159352E+02  0.00000000000E+00 0. -1.
</event>
<event>
 7    1  0.3276565E-015  0.9000768E+02  0.7816164E-02  0.1186339E+00
        -11   -1    0    0    0    0  0.00000000000E+00  0.00000000000E+00  0.45593999997E+02  0.45594000000E+02  0.51100000000E-03 0.  1.
         11   -1    0    0    0    0 -0.00000000000E+00 -0.00000000000E+00 -0.45593999997E+02  0.45594000000E+02  0.51100000000E-03 0. -1.
    9900012    2    1    2    0    0 -0.96052602941E-01  0.95503641094E+00  0.68689397897E+00  0.90007684793E+02  0.89999945433E+02 0.  0.
         12    1    1    2    0    0  0.96052602941E-01 -0.95503641094E+00 -0.68689397897E+00  0.11803152067E+01  0.00000000000E+00 0. -1.
         11    1    3    3    0    0 -0.23840100161E+01 -0.42894172176E+01  0.68583007836E+01  0.84332018666E+01  0.51100000000E-03 0. -1.
        -11    1    3    3    0    0  0.72206385710E+01 -0.44506760998E+01  0.36533865139E+02  0.37505592135E+02  0.51100000000E-03 0.  1.
         12    1    3    3    0    0 -0.49326811579E+01  0.96951297284E+01 -0.42705271944E+02  0.44068890792E+02  0.00000000000E+00 0. -1.
</event>
<event>
 7    1  0.3276565E-015  0.9000774E+02  0.7816164E-02  0.1186339E+00
        -11   -1    0    0    0    0  0.00000000000E+00  0.00000000000E+00  0.45593999997E+02  0.45594000000E+02  0.51100000000E-03 0.  1.
         11   -1    0    0    0    0 -0.00000000000E+00 -0.00000000000E+00 -0.45593999997E+02  0.45594000000E+02  0.51100000000E-03 0. -1.
    9900012    2    1    2    0    0 -0.87398380965E+00 -0.76431299281E+00 -0.21213260960E+00  0.90007736345E+02  0.89999997665E+02 0.  0.
         12    1    1    2    0    0  0.87398380965E+00  0.76431299281E+00  0.21213260960E+00  0.11802636547E+01  0.00000000000E+00 0. -1.
         11    1    3    3    0    0 -0.82554433844E+01 -0.55368900269E+01 -0.26519578070E+01  0.10287972449E+02  0.51100000000E-03 0. -1.
        -11    1    3    3    0    0  0.15296062656E+01 -0.36485891480E+02  0.88065239837E+01  0.37564808497E+02  0.51100000000E-03 0.  1.
         12    1    3    3    0    0  0.58518533091E+01  0.41258468514E+02 -0.63666987863E+01  0.42154955400E+02  0.00000000000E+00 0. -1.
</event>
<event>
 7    1  0.3276565E-015  0.9000772E+02  0.7816164E-02  0.1186339E+00
        -11   -1    0    0    0    0  0.00000000000E+00  0.00000000000E+00  0.45593999997E+02  0.45594000000E+02  0.51100000000E-03 0.  1.
         11   -1    0    0    0    0 -0.00000000000E+00 -0.00000000000E+00 -0.45593999997E+02  0.45594000000E+02  0.51100000000E-03 0. -1.
    9900012    2    1    2    0    0 -0.53092946027E+00 -0.54588522692E+00  0.90176686306E+00  0.90007720267E+02  0.89999981375E+02 0.  0.
         12    1    1    2    0    0  0.53092946027E+00  0.54588522692E+00 -0.90176686306E+00  0.11802797330E+01  0.00000000000E+00 0. -1.
         11    1    3    3    0    0 -0.28098630100E+01  0.42268645960E+02  0.80469490071E+01  0.43119452107E+02  0.51100000000E-03 0. -1.
        -11    1    3    3    0    0 -0.66855226403E+01 -0.91864806477E+01 -0.85587342855E-02  0.11361677393E+02  0.51100000000E-03 0.  1.
        -12    1    3    3    0    0  0.89644561901E+01 -0.33628050539E+02 -0.71366234097E+01  0.35526590767E+02  0.00000000000E+00 0.  1.
</event>
<event>
 7    1  0.3276565E-015  0.9000769E+02  0.7816164E-02  0.1186339E+00
        -11   -1    0    0    0    0  0.00000000000E+00  0.00000000000E+00  0.45593999997E+02  0.45594000000E+02  0.51100000000E-03 0.  1.
         11   -1    0    0    0    0 -0.00000000000E+00 -0.00000000000E+00 -0.45593999997E+02  0.45594000000E+02  0.51100000000E-03 0. -1.
    9900012    2    1    2    0    0  0.41581453417E-01 -0.99157378333E+00  0.63889519346E+00  0.90007688747E+02  0.89999949439E+02 0.  0.
         12    1    1    2    0    0 -0.41581453417E-01  0.99157378333E+00 -0.63889519346E+00  0.11803112527E+01  0.00000000000E+00 0. -1.
         11    1    3    3    0    0  0.29054839385E+02  0.22177330719E+02  0.32210092518E+01  0.36693222676E+02  0.51100000000E-03 0. -1.
        -11    1    3    3    0    0  0.49527408458E+01  0.36445936706E+01  0.66596972126E+01  0.90644510112E+01  0.51100000000E-03 0.  1.
        -12    1    3    3    0    0 -0.33965998777E+02 -0.26813498173E+02 -0.92418112710E+01  0.44250015060E+02  0.00000000000E+00 0.  1.
</event>
<event>
 7    1  0.3276565E-015  0.9000783E+02  0.7816164E-02  0.1186339E+00
        -11   -1    0    0    0    0  0.00000000000E+00  0.00000000000E+00  0.45593999997E+02  0.45594000000E+02  0.51100000000E-03 0.  1.
         11   -1    0    0    0    0 -0.00000000000E+00 -0.00000000000E+00 -0.45593999997E+02  0.45594000000E+02  0.51100000000E-03 0. -1.
    9900012    2    1    2    0    0  0.66493902888E-01 -0.47463150634E+00  0.10784686277E+01  0.90007834297E+02  0.90000096910E+02 0.  0.
         12    1    1    2    0    0 -0.66493902888E-01  0.47463150634E+00 -0.10784686277E+01  0.11801657031E+01  0.00000000000E+00 0. -1.
         11    1    3    3    0    0 -0.26341773075E+01  0.27555295486E+02 -0.26608214269E+02  0.38395706351E+02  0.51100000000E-03 0. -1.
        -11    1    3    3    0    0  0.13083407525E+02  0.36658468486E+00  0.59681553700E+01  0.14385020528E+02  0.51100000000E-03 0.  1.
        -12    1    3    3    0    0 -0.10382736315E+02 -0.28396511677E+02  0.21718527526E+02  0.37227107418E+02  0.00000000000E+00 0.  1.
</event>
<event>
 7    1  0.3276565E-015  0.9000781E+02  0.7816164E-02  0.1186339E+00
        -11   -1    0    0    0    0  0.00000000000E+00  0.00000000000E+00  0.45593999997E+02  0.45594000000E+02  0.51100000000E-03 0. -1.
         11   -1    0    0    0    0 -0.00000000000E+00 -0.00000000000E+00 -0.45593999997E+02  0.45594000000E+02  0.51100000000E-03 0.  1.
    9900012    2    1    2    0    0 -0.25565283838E+00  0.11265007102E+01 -0.24185527773E+00  0.90007806711E+02  0.90000068960E+02 0.  0.
         12    1    1    2    0    0  0.25565283838E+00 -0.11265007102E+01  0.24185527773E+00  0.11801932889E+01  0.00000000000E+00 0. -1.
         11    1    3    3    0    0 -0.12644756861E+02  0.46079670124E+01 -0.66084140950E+01  0.14993144206E+02  0.51100000000E-03 0. -1.
        -11    1    3    3    0    0  0.25074074882E+02 -0.32301288726E+02 -0.57148950116E+01  0.41288527581E+02  0.51100000000E-03 0.  1.
         12    1    3    3    0    0 -0.12684970859E+02  0.28819822424E+02  0.12081453829E+02  0.33726134924E+02  0.00000000000E+00 0. -1.
</event>
<event>
 7    1  0.3276565E-015  0.9000772E+02  0.7816164E-02  0.1186339E+00
        -11   -1    0    0    0    0  0.00000000000E+00  0.00000000000E+00  0.45593999997E+02  0.45594000000E+02  0.51100000000E-03 0. -1.
         11   -1    0    0    0    0 -0.00000000000E+00 -0.00000000000E+00 -0.45593999997E+02  0.45594000000E+02  0.51100000000E-03 0.  1.
    9900012    2    1    2    0    0  0.55182689804E+00  0.96710646520E+00  0.39146622318E+00  0.90007723065E+02  0.89999984209E+02 0.  0.
         12    1    1    2    0    0 -0.55182689804E+00 -0.96710646520E+00 -0.39146622318E+00  0.11802769354E+01  0.00000000000E+00 0. -1.
         11    1    3    3    0    0 -0.26375783921E+02 -0.11296547969E+02  0.22032521165E+02  0.36176317704E+02  0.51100000000E-03 0. -1.
        -11    1    3    3    0    0 -0.93539724332E+01  0.34804003263E+00  0.10360354394E+01  0.94176059504E+01  0.51100000000E-03 0.  1.
        -12    1    3    3    0    0  0.36281583252E+02  0.11915614401E+02 -0.22677090381E+02  0.44413799410E+02  0.00000000000E+00 0.  1.
</event>
<event>
 7    1  0.3276565E-015  0.9000781E+02  0.7816164E-02  0.1186339E+00
        -11   -1    0    0    0    0  0.00000000000E+00  0.00000000000E+00  0.45593999997E+02  0.45594000000E+02  0.51100000000E-03 0.  1.
         11   -1    0    0    0    0 -0.00000000000E+00 -0.00000000000E+00 -0.45593999997E+02  0.45594000000E+02  0.51100000000E-03 0. -1.
    9900012    2    1    2    0    0  0.31551082897E+00  0.11205899124E+01 -0.19385349673E+00  0.90007810179E+02  0.90000072474E+02 0.  0.
         12    1    1    2    0    0 -0.31551082897E+00 -0.11205899124E+01  0.19385349673E+00  0.11801898208E+01  0.00000000000E+00 0. -1.
         11    1    3    3    0    0  0.16760845258E+02  0.20870913655E+02 -0.23157926754E+02  0.35395063814E+02  0.51100000000E-03 0. -1.
        -11    1    3    3    0    0  0.59887208596E+01  0.36435382222E+00 -0.89159975991E+01  0.10746745772E+02  0.51100000000E-03 0.  1.
        -12    1    3    3    0    0 -0.22434055289E+02 -0.20114677564E+02  0.31880070857E+02  0.43866000593E+02  0.00000000000E+00 0.  1.
</event>
<event>
 7    1  0.3276565E-015  0.9000775E+02  0.7816164E-02  0.1186339E+00
        -11   -1    0    0    0    0  0.00000000000E+00  0.00000000000E+00  0.45593999997E+02  0.45594000000E+02  0.51100000000E-03 0.  1.
         11   -1    0    0    0    0 -0.00000000000E+00 -0.00000000000E+00 -0.45593999997E+02  0.45594000000E+02  0.51100000000E-03 0. -1.
    9900012    2    1    2    0    0  0.26849683625E+00 -0.71323783019E+00 -0.90121481441E+00  0.90007751342E+02  0.90000012860E+02 0.  0.
         12    1    1    2    0    0 -0.26849683625E+00  0.71323783019E+00  0.90121481441E+00  0.11802486582E+01  0.00000000000E+00 0. -1.
         11    1    3    3    0    0  0.93694562604E+01  0.62099244530E+01  0.31638569518E+00  0.11244997665E+02  0.51100000000E-03 0. -1.
        -11    1    3    3    0    0 -0.19157511839E+01  0.23046286936E+02  0.27986458899E+02  0.36304866424E+02  0.51100000000E-03 0.  1.
         12    1    3    3    0    0 -0.71852082403E+01 -0.29969449219E+02 -0.29204059409E+02  0.42457887252E+02  0.00000000000E+00 0. -1.
</event>
<event>
 7    1  0.3276565E-015  0.9000839E+02  0.7816164E-02  0.1186338E+00
        -11   -1    0    0    0    0  0.00000000000E+00  0.00000000000E+00  0.45593999997E+02  0.45594000000E+02  0.51100000000E-03 0. -1.
         11   -1    0    0    0    0 -0.00000000000E+00 -0.00000000000E+00 -0.45593999997E+02  0.45594000000E+02  0.51100000000E-03 0.  1.
    9900012    2    1    2    0    0 -0.90388673083E+00 -0.43621629808E+00 -0.61982629154E+00  0.90008389678E+02  0.90000659619E+02 0.  0.
         12    1    1    2    0    0  0.90388673083E+00  0.43621629808E+00  0.61982629154E+00  0.11796103223E+01  0.00000000000E+00 0. -1.
         11    1    3    3    0    0 -0.10402781288E+02 -0.56212027499E+01  0.38922334545E+02  0.40678789382E+02  0.51100000000E-03 0. -1.
        -11    1    3    3    0    0  0.99763601783E+01 -0.62465034686E+00 -0.66515148854E+00  0.10018002657E+02  0.51100000000E-03 0.  1.
        -12    1    3    3    0    0 -0.47746562156E+00  0.58096367987E+01 -0.38877009348E+02  0.39311597640E+02  0.00000000000E+00 0.  1.
</event>
<event>
 7    1  0.3276565E-015  0.9000771E+02  0.7816164E-02  0.1186339E+00
        -11   -1    0    0    0    0  0.00000000000E+00  0.00000000000E+00  0.45593999997E+02  0.45594000000E+02  0.51100000000E-03 0.  1.
         11   -1    0    0    0    0 -0.00000000000E+00 -0.00000000000E+00 -0.45593999997E+02  0.45594000000E+02  0.51100000000E-03 0. -1.
    9900012    2    1    2    0    0  0.71637206690E+00  0.79146441692E+00  0.50346255581E+00  0.90007712151E+02  0.89999973151E+02 0.  0.
         12    1    1    2    0    0 -0.71637206690E+00 -0.79146441692E+00 -0.50346255581E+00  0.11802878490E+01  0.00000000000E+00 0. -1.
         11    1    3    3    0    0  0.64576902611E+01  0.37231718798E+02  0.69707466883E+01  0.38425173491E+02  0.51100000000E-03 0. -1.
        -11    1    3    3    0    0  0.91490348139E+01 -0.18437048035E+01  0.69100190928E+01  0.11612598742E+02  0.51100000000E-03 0.  1.
        -12    1    3    3    0    0 -0.14890353008E+02 -0.34596549578E+02 -0.13377303225E+02  0.39969939917E+02  0.00000000000E+00 0.  1.
</event>
<event>
 7    1  0.3276565E-015  0.9000778E+02  0.7816164E-02  0.1186339E+00
        -11   -1    0    0    0    0  0.00000000000E+00  0.00000000000E+00  0.45593999997E+02  0.45594000000E+02  0.51100000000E-03 0.  1.
         11   -1    0    0    0    0 -0.00000000000E+00 -0.00000000000E+00 -0.45593999997E+02  0.45594000000E+02  0.51100000000E-03 0. -1.
    9900012    2    1    2    0    0  0.11129455799E+00 -0.49458180587E+00  0.10657963337E+01  0.90007779908E+02  0.90000041802E+02 0.  0.
         12    1    1    2    0    0 -0.11129455799E+00  0.49458180587E+00 -0.10657963337E+01  0.11802200923E+01  0.00000000000E+00 0. -1.
         11    1    3    3    0    0  0.70532827919E+00  0.73208331158E+01  0.49267901932E+01  0.88524204238E+01  0.51100000000E-03 0. -1.
        -11    1    3    3    0    0  0.25300640147E+02  0.19435855146E+02  0.19023777716E+02  0.37145376240E+02  0.51100000000E-03 0.  1.
         12    1    3    3    0    0 -0.25894673869E+02 -0.27251270068E+02 -0.22884771575E+02  0.44009983244E+02  0.00000000000E+00 0. -1.
</event>
<event>
 7    1  0.3276565E-015  0.9000770E+02  0.7816164E-02  0.1186339E+00
        -11   -1    0    0    0    0  0.00000000000E+00  0.00000000000E+00  0.45593999997E+02  0.45594000000E+02  0.51100000000E-03 0. -1.
         11   -1    0    0    0    0 -0.00000000000E+00 -0.00000000000E+00 -0.45593999997E+02  0.45594000000E+02  0.51100000000E-03 0.  1.
    9900012    2    1    2    0    0  0.10357413487E+01 -0.13328337121E+00  0.55007563876E+00  0.90007700120E+02  0.89999960962E+02 0.  0.
         12    1    1    2    0    0 -0.10357413487E+01  0.13328337121E+00 -0.55007563876E+00  0.11802998800E+01  0.00000000000E+00 0. -1.
         11    1    3    3    0    0  0.29261827031E+02 -0.15202067108E+02  0.75704488737E-01  0.32975189112E+02  0.51100000000E-03 0. -1.
        -11    1    3    3    0    0  0.96734988410E+01 -0.49366405529E+01 -0.78185940252E+01  0.13381980891E+02  0.51100000000E-03 0.  1.
        -12    1    3    3    0    0 -0.37899584524E+02  0.20005424290E+02  0.82929651752E+01  0.43650530117E+02  0.00000000000E+00 0.  1.
</event>
<event>
 7    1  0.3276565E-015  0.9000772E+02  0.7816164E-02  0.1186339E+00
        -11   -1    0    0    0    0  0.00000000000E+00  0.00000000000E+00  0.45593999997E+02  0.45594000000E+02  0.51100000000E-03 0.  1.
         11   -1    0    0    0    0 -0.00000000000E+00 -0.00000000000E+00 -0.45593999997E+02  0.45594000000E+02  0.51100000000E-03 0. -1.
    9900012    2    1    2    0    0  0.67163042814E+00  0.96557540649E+00 -0.98219066980E-01  0.90007716016E+02  0.89999977067E+02 0.  0.
         12    1    1    2    0    0 -0.67163042814E+00 -0.96557540649E+00  0.98219066980E-01  0.11802839839E+01  0.00000000000E+00 0. -1.
         11    1    3    3    0    0 -0.95465771654E+01  0.20520200831E+01  0.16959854489E+01  0.99108167625E+01  0.51100000000E-03 0. -1.
        -11    1    3    3    0    0  0.27973038942E+02  0.26190653146E+02 -0.19553180921E+02  0.43020554439E+02  0.51100000000E-03 0.  1.
         12    1    3    3    0    0 -0.17754831349E+02 -0.27277097822E+02  0.17758976405E+02  0.37076344814E+02  0.00000000000E+00 0. -1.
</event>
<event>
 7    1  0.3276565E-015  0.9000767E+02  0.7816164E-02  0.1186339E+00
        -11   -1    0    0    0    0  0.00000000000E+00  0.00000000000E+00  0.45593999997E+02  0.45594000000E+02  0.51100000000E-03 0. -1.
         11   -1    0    0    0    0 -0.00000000000E+00 -0.00000000000E+00 -0.45593999997E+02  0.45594000000E+02  0.51100000000E-03 0.  1.
    9900012    2    1    2    0    0 -0.47250601090E+00  0.62437812850E+00 -0.88320951636E+00  0.90007674186E+02  0.89999934685E+02 0.  0.
         12    1    1    2    0    0  0.47250601090E+00 -0.62437812850E+00  0.88320951636E+00  0.11803258141E+01  0.00000000000E+00 0. -1.
         11    1    3    3    0    0 -0.19479845517E+01  0.32638658921E+02 -0.17066040709E+02  0.36882603565E+02  0.51100000000E-03 0. -1.
        -11    1    3    3    0    0 -0.33663705792E+01  0.88002707865E+01  0.41785301642E+01  0.10307149528E+02  0.51100000000E-03 0.  1.
        -12    1    3    3    0    0  0.48418491201E+01 -0.40814551579E+02  0.12004301029E+02  0.42817921093E+02  0.00000000000E+00 0.  1.
</event>
<event>
 7    1  0.3276565E-015  0.9000773E+02  0.7816164E-02  0.1186339E+00
        -11   -1    0    0    0    0  0.00000000000E+00  0.00000000000E+00  0.45593999997E+02  0.45594000000E+02  0.51100000000E-03 0.  1.
         11   -1    0    0    0    0 -0.00000000000E+00 -0.00000000000E+00 -0.45593999997E+02  0.45594000000E+02  0.51100000000E-03 0. -1.
    9900012    2    1    2    0    0  0.31942075663E+00  0.57903177464E+00 -0.97761162348E+00  0.90007732275E+02  0.89999993541E+02 0.  0.
         12    1    1    2    0    0 -0.31942075663E+00 -0.57903177464E+00  0.97761162348E+00  0.11802677248E+01  0.00000000000E+00 0. -1.
         11    1    3    3    0    0 -0.31281358487E+02 -0.36307530110E+01  0.14020869366E+02  0.34471590249E+02  0.51100000000E-03 0. -1.
        -11    1    3    3    0    0 -0.69999146216E+01  0.25367200730E+01  0.77115313175E+01  0.10719210277E+02  0.51100000000E-03 0.  1.
        -12    1    3    3    0    0  0.38600693866E+02  0.16730647127E+01 -0.22710012307E+02  0.44816931749E+02  0.00000000000E+00 0.  1.
</event>
<event>
 7    1  0.3276565E-015  0.9000778E+02  0.7816164E-02  0.1186339E+00
        -11   -1    0    0    0    0  0.00000000000E+00  0.00000000000E+00  0.45593999997E+02  0.45594000000E+02  0.51100000000E-03 0. -1.
         11   -1    0    0    0    0 -0.00000000000E+00 -0.00000000000E+00 -0.45593999997E+02  0.45594000000E+02  0.51100000000E-03 0.  1.
    9900012    2    1    2    0    0  0.72085651296E+00  0.38772616479E+00 -0.85027336070E+00  0.90007775242E+02  0.90000037075E+02 0.  0.
         12    1    1    2    0    0 -0.72085651296E+00 -0.38772616479E+00  0.85027336070E+00  0.11802247579E+01  0.00000000000E+00 0. -1.
         11    1    3    3    0    0 -0.31232829926E+01  0.14361456098E+02  0.30964880516E+02  0.34275795301E+02  0.51100000000E-03 0. -1.
        -11    1    3    3    0    0 -0.85755970415E+01  0.31437684256E+01  0.70146316947E+01  0.11516475268E+02  0.51100000000E-03 0.  1.
        -12    1    3    3    0    0  0.12419736547E+02 -0.17117498359E+02 -0.38829785571E+02  0.44215504673E+02  0.00000000000E+00 0.  1.
</event>
<event>
 7    1  0.3276565E-015  0.9000772E+02  0.7816164E-02  0.1186339E+00
        -11   -1    0    0    0    0  0.00000000000E+00  0.00000000000E+00  0.45593999997E+02  0.45594000000E+02  0.51100000000E-03 0. -1.
         11   -1    0    0    0    0 -0.00000000000E+00 -0.00000000000E+00 -0.45593999997E+02  0.45594000000E+02  0.51100000000E-03 0.  1.
    9900012    2    1    2    0    0  0.42316006170E+00 -0.59893254146E+00 -0.92480752737E+00  0.90007723088E+02  0.89999984232E+02 0.  0.
         12    1    1    2    0    0 -0.42316006170E+00  0.59893254146E+00  0.92480752737E+00  0.11802769123E+01  0.00000000000E+00 0. -1.
         11    1    3    3    0    0 -0.66404645036E+00  0.45445026123E+01 -0.92258444559E+01  0.10305807483E+02  0.51100000000E-03 0. -1.
        -11    1    3    3    0    0  0.60681671071E+00 -0.40596870724E+02 -0.67936811487E+01  0.41165862591E+02  0.51100000000E-03 0.  1.
         12    1    3    3    0    0  0.48038980135E+00  0.35453435570E+02  0.15094718077E+02  0.38536053014E+02  0.00000000000E+00 0. -1.
</event>
<event>
 7    1  0.3276565E-015  0.9000768E+02  0.7816164E-02  0.1186339E+00
        -11   -1    0    0    0    0  0.00000000000E+00  0.00000000000E+00  0.45593999997E+02  0.45594000000E+02  0.51100000000E-03 0.  1.
         11   -1    0    0    0    0 -0.00000000000E+00 -0.00000000000E+00 -0.45593999997E+02  0.45594000000E+02  0.51100000000E-03 0. -1.
    9900012    2    1    2    0    0 -0.94790869392E+00 -0.12359993547E+00  0.69235039663E+00  0.90007679320E+02  0.89999939887E+02 0.  0.
         12    1    1    2    0    0  0.94790869392E+00  0.12359993547E+00 -0.69235039663E+00  0.11803206801E+01  0.00000000000E+00 0. -1.
         11    1    3    3    0    0 -0.35324993389E+02 -0.69719100471E+01  0.13896432420E+02  0.38594993482E+02  0.51100000000E-03 0. -1.
        -11    1    3    3    0    0 -0.60389018822E+01  0.62043181673E+01  0.65215179501E+00  0.86825803819E+01  0.51100000000E-03 0.  1.
        -12    1    3    3    0    0  0.40415986577E+02  0.64399194438E+00 -0.13856233819E+02  0.42730105456E+02  0.00000000000E+00 0.  1.
</event>
<event>
 7    1  0.3276565E-015  0.9000769E+02  0.7816164E-02  0.1186339E+00
        -11   -1    0    0    0    0  0.00000000000E+00  0.00000000000E+00  0.45593999997E+02  0.45594000000E+02  0.51100000000E-03 0.  1.
         11   -1    0    0    0    0 -0.00000000000E+00 -0.00000000000E+00 -0.45593999997E+02  0.45594000000E+02  0.51100000000E-03 0. -1.
    9900012    2    1    2    0    0 -0.91866884656E+00 -0.36408151343E+00  0.64546592680E+00  0.90007688998E+02  0.89999949693E+02 0.  0.
         12    1    1    2    0    0  0.91866884656E+00  0.36408151343E+00 -0.64546592680E+00  0.11803110017E+01  0.00000000000E+00 0. -1.
         11    1    3    3    0    0 -0.22325205349E+02 -0.32897173237E+02  0.17743511653E+01  0.39796823029E+02  0.51100000000E-03 0. -1.
        -11    1    3    3    0    0  0.68351734928E+01 -0.59390610199E+01  0.41861050324E-01  0.90550425225E+01  0.51100000000E-03 0.  1.
        -12    1    3    3    0    0  0.14571363010E+02  0.38472152744E+02 -0.11707462889E+01  0.41155823447E+02  0.00000000000E+00 0.  1.
</event>
<event>
 7    1  0.3276565E-015  0.9000782E+02  0.7816164E-02  0.1186339E+00
        -11   -1    0    0    0    0  0.00000000000E+00  0.00000000000E+00  0.45593999997E+02  0.45594000000E+02  0.51100000000E-03 0. -1.
         11   -1    0    0    0    0 -0.00000000000E+00 -0.00000000000E+00 -0.45593999997E+02  0.45594000000E+02  0.51100000000E-03 0.  1.
    9900012    2    1    2    0    0  0.74741733899E+00 -0.45595005985E+00 -0.79138534905E+00  0.90007824629E+02  0.90000087114E+02 0.  0.
         12    1    1    2    0    0 -0.74741733899E+00  0.45595005985E+00  0.79138534905E+00  0.11801753710E+01  0.00000000000E+00 0. -1.
         11    1    3    3    0    0 -0.14374460734E+02 -0.20495945620E+02 -0.35328611235E+02  0.43299187986E+02  0.51100000000E-03 0. -1.
        -11    1    3    3    0    0 -0.44378070009E+01  0.30337122009E+01  0.77768405330E+01  0.94539298512E+01  0.51100000000E-03 0.  1.
        -12    1    3    3    0    0  0.19559685074E+02  0.17006283359E+02  0.26760385353E+02  0.37254706791E+02  0.00000000000E+00 0.  1.
</event>
<event>
 7    1  0.3276565E-015  0.9000767E+02  0.7816164E-02  0.1186339E+00
        -11   -1    0    0    0    0  0.00000000000E+00  0.00000000000E+00  0.45593999997E+02  0.45594000000E+02  0.51100000000E-03 0.  1.
         11   -1    0    0    0    0 -0.00000000000E+00 -0.00000000000E+00 -0.45593999997E+02  0.45594000000E+02  0.51100000000E-03 0. -1.
    9900012    2    1    2    0    0 -0.89456462956E+00  0.65615931352E+00  0.40298105730E+00  0.90007667566E+02  0.89999927978E+02 0.  0.
         12    1    1    2    0    0  0.89456462956E+00 -0.65615931352E+00 -0.40298105730E+00  0.11803324336E+01  0.00000000000E+00 0. -1.
         11    1    3    3    0    0 -0.23331575457E+02  0.34011789913E+02  0.81424022146E+01  0.42041205745E+02  0.51100000000E-03 0. -1.
        -11    1    3    3    0    0  0.12038695752E+02 -0.25034707118E+01  0.46293053938E+01  0.13138798640E+02  0.51100000000E-03 0.  1.
        -12    1    3    3    0    0  0.10398315075E+02 -0.30852159888E+02 -0.12368726551E+02  0.34827663181E+02  0.00000000000E+00 0.  1.
</event>
<event>
 7    1  0.3276565E-015  0.9000780E+02  0.7816164E-02  0.1186339E+00
        -11   -1    0    0    0    0  0.00000000000E+00  0.00000000000E+00  0.45593999997E+02  0.45594000000E+02  0.51100000000E-03 0.  1.
         11   -1    0    0    0    0 -0.00000000000E+00 -0.00000000000E+00 -0.45593999997E+02  0.45594000000E+02  0.51100000000E-03 0. -1.
    9900012    2    1    2    0    0 -0.59915674945E-01 -0.95605943876E+00  0.68937480010E+00  0.90007797834E+02  0.90000059965E+02 0.  0.
         12    1    1    2    0    0  0.59915674945E-01  0.95605943876E+00 -0.68937480010E+00  0.11802021664E+01  0.00000000000E+00 0. -1.
         11    1    3    3    0    0 -0.94453021028E+01  0.13535209632E+01  0.33714703085E+01  0.10119909244E+02  0.51100000000E-03 0. -1.
        -11    1    3    3    0    0  0.26224855366E+02  0.30306365469E+02  0.95447737512E+01  0.41198562270E+02  0.51100000000E-03 0.  1.
         12    1    3    3    0    0 -0.16839468938E+02 -0.32615945871E+02 -0.12226869260E+02  0.38689326319E+02  0.00000000000E+00 0. -1.
</event>
<event>
 7    1  0.3276565E-015  0.9000771E+02  0.7816164E-02  0.1186339E+00
        -11   -1    0    0    0    0  0.00000000000E+00  0.00000000000E+00  0.45593999997E+02  0.45594000000E+02  0.51100000000E-03 0.  1.
         11   -1    0    0    0    0 -0.00000000000E+00 -0.00000000000E+00 -0.45593999997E+02  0.45594000000E+02  0.51100000000E-03 0. -1.
    9900012    2    1    2    0    0 -0.44718716284E+00  0.55957504356E+00  0.93806999300E+00  0.90007713637E+02  0.89999974657E+02 0.  0.
         12    1    1    2    0    0  0.44718716284E+00 -0.55957504356E+00 -0.93806999300E+00  0.11802863634E+01  0.00000000000E+00 0. -1.
         11    1    3    3    0    0  0.26352302342E+01  0.32815571247E+00  0.96623007032E+01  0.10020587792E+02  0.51100000000E-03 0. -1.
        -11    1    3    3    0    0  0.37883539754E+02  0.38546881645E+01 -0.69905158314E+00  0.38085559974E+02  0.51100000000E-03 0.  1.
         12    1    3    3    0    0 -0.40965957151E+02 -0.36232688334E+01 -0.80251791271E+01  0.41901565870E+02  0.00000000000E+00 0. -1.
</event>
<event>
 7    1  0.3276565E-015  0.9000775E+02  0.7816164E-02  0.1186339E+00
        -11   -1    0    0    0    0  0.00000000000E+00  0.00000000000E+00  0.45593999997E+02  0.45594000000E+02  0.51100000000E-03 0.  1.
         11   -1    0    0    0    0 -0.00000000000E+00 -0.00000000000E+00 -0.45593999997E+02  0.45594000000E+02  0.51100000000E-03 0. -1.
    9900012    2    1    2    0    0 -0.34279782210E+00 -0.11291861166E+01  0.20258986383E-01  0.90007753391E+02  0.90000014935E+02 0.  0.
         12    1    1    2    0    0  0.34279782210E+00  0.11291861166E+01 -0.20258986383E-01  0.11802466095E+01  0.00000000000E+00 0. -1.
         11    1    3    3    0    0  0.16019004742E+02  0.36229154301E+02 -0.38636111440E+01  0.39800598307E+02  0.51100000000E-03 0. -1.
        -11    1    3    3    0    0 -0.23795175635E+01  0.42293855601E+01  0.40666417068E+01  0.63314596330E+01  0.51100000000E-03 0.  1.
        -12    1    3    3    0    0 -0.13982285001E+02 -0.41587725977E+02 -0.18277157649E+00  0.43875695450E+02  0.00000000000E+00 0.  1.
</event>
<event>
 7    1  0.4818923E-015  0.9000801E+02  0.7816164E-02  0.1186339E+00
        -11   -1    0    0    0    0  0.00000000000E+00  0.00000000000E+00  0.45593999997E+02  0.45594000000E+02  0.51100000000E-03 0. -1.
         11   -1    0    0    0    0 -0.00000000000E+00 -0.00000000000E+00 -0.45593999997E+02  0.45594000000E+02  0.51100000000E-03 0.  1.
    9900012    2    1    2    0    0  0.53099394990E+00  0.35144460204E+00 -0.99343049845E+00  0.90008011848E+02  0.90000276804E+02 0.  0.
         12    1    1    2    0    0 -0.53099394990E+00 -0.35144460204E+00  0.99343049845E+00  0.11799881518E+01  0.00000000000E+00 0. -1.
         11    1    3    3    0    0  0.66708465143E+01  0.52876209365E+01  0.29309668040E+01  0.90027604130E+01  0.51100000000E-03 0. -1.
        -11    1    3    3    0    0  0.12286275408E+02  0.68689265946E+01 -0.37991408232E+02  0.40515204746E+02  0.51100000000E-03 0.  1.
         12    1    3    3    0    0 -0.18426127972E+02 -0.11805102929E+02  0.34067010929E+02  0.40490046689E+02  0.00000000000E+00 0. -1.
</event>
<event>
 7    1  0.3276565E-015  0.9000770E+02  0.7816164E-02  0.1186339E+00
        -11   -1    0    0    0    0  0.00000000000E+00  0.00000000000E+00  0.45593999997E+02  0.45594000000E+02  0.51100000000E-03 0.  1.
         11   -1    0    0    0    0 -0.00000000000E+00 -0.00000000000E+00 -0.45593999997E+02  0.45594000000E+02  0.51100000000E-03 0. -1.
    9900012    2    1    2    0    0 -0.63229921017E+00 -0.98450471145E+00  0.15507907570E+00  0.90007702860E+02  0.89999963738E+02 0.  0.
         12    1    1    2    0    0  0.63229921017E+00  0.98450471145E+00 -0.15507907570E+00  0.11802971396E+01  0.00000000000E+00 0. -1.
         11    1    3    3    0    0 -0.29244400585E+02  0.88196858106E+01 -0.26879536808E+02  0.40688220932E+02  0.51100000000E-03 0. -1.
        -11    1    3    3    0    0 -0.35559588445E+01  0.42838033822E+01  0.68033238042E+01  0.87909629602E+01  0.51100000000E-03 0.  1.
        -12    1    3    3    0    0  0.32168060219E+02 -0.14087993904E+02  0.20231292080E+02  0.40528518968E+02  0.00000000000E+00 0.  1.
</event>
<event>
 7    1  0.3276565E-015  0.9000776E+02  0.7816164E-02  0.1186339E+00
        -11   -1    0    0    0    0  0.00000000000E+00  0.00000000000E+00  0.45593999997E+02  0.45594000000E+02  0.51100000000E-03 0. -1.
         11   -1    0    0    0    0 -0.00000000000E+00 -0.00000000000E+00 -0.45593999997E+02  0.45594000000E+02  0.51100000000E-03 0.  1.
    9900012    2    1    2    0    0 -0.87852538911E+00  0.73567284083E+00  0.28272879464E+00  0.90007764024E+02  0.90000025709E+02 0.  0.
         12    1    1    2    0    0  0.87852538911E+00 -0.73567284083E+00 -0.28272879464E+00  0.11802359761E+01  0.00000000000E+00 0. -1.
         11    1    3    3    0    0 -0.31837217258E+01  0.35427526867E+02 -0.10532158744E+02  0.37096793824E+02  0.51100000000E-03 0. -1.
        -11    1    3    3    0    0 -0.37008197851E+01  0.77581298487E+01  0.40714468830E+01  0.95111159079E+01  0.51100000000E-03 0.  1.
        -12    1    3    3    0    0  0.60060161218E+01 -0.42449983875E+02  0.67434406559E+01  0.43399854292E+02  0.00000000000E+00 0.  1.
</event>
<event>
 7    1  0.3276565E-015  0.9000731E+02  0.7816164E-02  0.1186340E+00
        -11   -1    0    0    0    0  0.00000000000E+00  0.00000000000E+00  0.45593999997E+02  0.45594000000E+02  0.51100000000E-03 0. -1.
         11   -1    0    0    0    0 -0.00000000000E+00 -0.00000000000E+00 -0.45593999997E+02  0.45594000000E+02  0.51100000000E-03 0.  1.
    9900012    2    1    2    0    0 -0.38575042245E+00  0.10408614341E+01 -0.40228522704E+00  0.90007309813E+02  0.89999565502E+02 0.  0.
         12    1    1    2    0    0  0.38575042245E+00 -0.10408614341E+01  0.40228522704E+00  0.11806901868E+01  0.00000000000E+00 0. -1.
         11    1    3    3    0    0 -0.11308618717E+01 -0.78246129640E+01  0.62303967466E+01  0.10065846238E+02  0.51100000000E-03 0. -1.
        -11    1    3    3    0    0  0.85464253525E+01  0.47725600567E+01 -0.42189151820E+02  0.43309851621E+02  0.51100000000E-03 0.  1.
         12    1    3    3    0    0 -0.78013139033E+01  0.40929143413E+01  0.35556469847E+02  0.36631611955E+02  0.00000000000E+00 0. -1.
</event>
<event>
 7    1  0.3276565E-015  0.9000781E+02  0.7816164E-02  0.1186339E+00
        -11   -1    0    0    0    0  0.00000000000E+00  0.00000000000E+00  0.45593999997E+02  0.45594000000E+02  0.51100000000E-03 0. -1.
         11   -1    0    0    0    0 -0.00000000000E+00 -0.00000000000E+00 -0.45593999997E+02  0.45594000000E+02  0.51100000000E-03 0.  1.
    9900012    2    1    2    0    0 -0.88709792864E+00 -0.57147902266E+00 -0.52850114121E+00  0.90007811683E+02  0.90000073997E+02 0.  0.
         12    1    1    2    0    0  0.88709792864E+00  0.57147902266E+00  0.52850114121E+00  0.11801883174E+01  0.00000000000E+00 0. -1.
         11    1    3    3    0    0 -0.17470467669E+02 -0.17013242202E+02  0.27379589100E+02  0.36664827155E+02  0.51100000000E-03 0. -1.
        -11    1    3    3    0    0 -0.42221036773E+01 -0.10142632228E+02 -0.29941045814E+01  0.11387001822E+02  0.51100000000E-03 0.  1.
        -12    1    3    3    0    0  0.20805473417E+02  0.26584395408E+02 -0.24913985660E+02  0.41955982705E+02  0.00000000000E+00 0.  1.
</event>
<event>
 7    1  0.3710976E-015  0.9000778E+02  0.7816164E-02  0.1186339E+00
        -11   -1    0    0    0    0  0.00000000000E+00  0.00000000000E+00  0.45593999997E+02  0.45594000000E+02  0.51100000000E-03 0. -1.
         11   -1    0    0    0    0 -0.00000000000E+00 -0.00000000000E+00 -0.45593999997E+02  0.45594000000E+02  0.51100000000E-03 0.  1.
    9900012    2    1    2    0    0  0.44425147498E+00  0.26226556216E+00 -0.10615002299E+01  0.90007777421E+02  0.90000039283E+02 0.  0.
         12    1    1    2    0    0 -0.44425147498E+00 -0.26226556216E+00  0.10615002299E+01  0.11802225791E+01  0.00000000000E+00 0. -1.
         11    1    3    3    0    0 -0.11508980135E+01 -0.87953162364E+01 -0.33126669465E+01  0.94686808213E+01  0.51100000000E-03 0. -1.
        -11    1    3    3    0    0 -0.37370044286E+02  0.35750826343E+01 -0.10831867691E+02  0.39072122846E+02  0.51100000000E-03 0.  1.
         12    1    3    3    0    0  0.38965193774E+02  0.54824991642E+01  0.13083034407E+02  0.41466973753E+02  0.00000000000E+00 0. -1.
</event>
<event>
 7    1  0.3276565E-015  0.9000774E+02  0.7816164E-02  0.1186339E+00
        -11   -1    0    0    0    0  0.00000000000E+00  0.00000000000E+00  0.45593999997E+02  0.45594000000E+02  0.51100000000E-03 0.  1.
         11   -1    0    0    0    0 -0.00000000000E+00 -0.00000000000E+00 -0.45593999997E+02  0.45594000000E+02  0.51100000000E-03 0. -1.
    9900012    2    1    2    0    0 -0.37106366279E+00  0.33431401555E+00  0.10693685058E+01  0.90007744475E+02  0.90000005902E+02 0.  0.
         12    1    1    2    0    0  0.37106366279E+00 -0.33431401555E+00 -0.10693685058E+01  0.11802555249E+01  0.00000000000E+00 0. -1.
         11    1    3    3    0    0 -0.22259186682E+02  0.22877574119E+02  0.78978118346E+01  0.32882065345E+02  0.51100000000E-03 0. -1.
        -11    1    3    3    0    0 -0.71799958526E+01  0.55469586652E+01  0.98546577568E+01  0.13395348844E+02  0.51100000000E-03 0.  1.
        -12    1    3    3    0    0  0.29068118871E+02 -0.28090218768E+02 -0.16683101086E+02  0.43730330287E+02  0.00000000000E+00 0.  1.
</event>
<event>
 7    1  0.3276565E-015  0.9000771E+02  0.7816164E-02  0.1186339E+00
        -11   -1    0    0    0    0  0.00000000000E+00  0.00000000000E+00  0.45593999997E+02  0.45594000000E+02  0.51100000000E-03 0.  1.
         11   -1    0    0    0    0 -0.00000000000E+00 -0.00000000000E+00 -0.45593999997E+02  0.45594000000E+02  0.51100000000E-03 0. -1.
    9900012    2    1    2    0    0 -0.55945327226E-01  0.64246760774E+00  0.98853418777E+00  0.90007705822E+02  0.89999966739E+02 0.  0.
         12    1    1    2    0    0  0.55945327226E-01 -0.64246760774E+00 -0.98853418777E+00  0.11802941782E+01  0.00000000000E+00 0. -1.
         11    1    3    3    0    0 -0.21029965508E+01 -0.16879217688E+01 -0.89893114096E+01  0.93850622944E+01  0.51100000000E-03 0. -1.
        -11    1    3    3    0    0  0.29270695407E+02 -0.23916006076E+02 -0.81799928287E+01  0.38673779738E+02  0.51100000000E-03 0.  1.
         12    1    3    3    0    0 -0.27223644184E+02  0.26246395453E+02  0.18157838426E+02  0.41948863789E+02  0.00000000000E+00 0. -1.
</event>
<event>
 7    1  0.3276565E-015  0.9000774E+02  0.7816164E-02  0.1186339E+00
        -11   -1    0    0    0    0  0.00000000000E+00  0.00000000000E+00  0.45593999997E+02  0.45594000000E+02  0.51100000000E-03 0.  1.
         11   -1    0    0    0    0 -0.00000000000E+00 -0.00000000000E+00 -0.45593999997E+02  0.45594000000E+02  0.51100000000E-03 0. -1.
    9900012    2    1    2    0    0 -0.11248759096E+01 -0.23432572294E+00  0.26975759362E+00  0.90007735828E+02  0.89999997141E+02 0.  0.
         12    1    1    2    0    0  0.11248759096E+01  0.23432572294E+00 -0.26975759362E+00  0.11802641720E+01  0.00000000000E+00 0. -1.
         11    1    3    3    0    0  0.29303672841E+01  0.23174328620E+02 -0.30470282927E+02  0.38393680487E+02  0.51100000000E-03 0. -1.
        -11    1    3    3    0    0 -0.32221874733E+01  0.85407054303E+01  0.40991677618E+01  0.10006463809E+02  0.51100000000E-03 0.  1.
        -12    1    3    3    0    0 -0.83305572041E+00 -0.31949359774E+02  0.26640872759E+02  0.41607591532E+02  0.00000000000E+00 0.  1.
</event>
<event>
 7    1  0.3276565E-015  0.9000783E+02  0.7816164E-02  0.1186339E+00
        -11   -1    0    0    0    0  0.00000000000E+00  0.00000000000E+00  0.45593999997E+02  0.45594000000E+02  0.51100000000E-03 0.  1.
         11   -1    0    0    0    0 -0.00000000000E+00 -0.00000000000E+00 -0.45593999997E+02  0.45594000000E+02  0.51100000000E-03 0. -1.
    9900012    2    1    2    0    0  0.67052781877E-01  0.81496729092E+00  0.85096496679E+00  0.90007826650E+02  0.90000089162E+02 0.  0.
         12    1    1    2    0    0 -0.67052781877E-01 -0.81496729092E+00 -0.85096496679E+00  0.11801733498E+01  0.00000000000E+00 0. -1.
         11    1    3    3    0    0  0.28245857775E+02 -0.16547795052E+02 -0.18078572579E+02  0.37396427494E+02  0.51100000000E-03 0. -1.
        -11    1    3    3    0    0  0.52099770847E+00 -0.26476546192E+01 -0.80113857512E+01  0.84536273582E+01  0.51100000000E-03 0.  1.
        -12    1    3    3    0    0 -0.28699802702E+02  0.20010416962E+02  0.26940923297E+02  0.44157771798E+02  0.00000000000E+00 0.  1.
</event>
<event>
 7    1  0.3276565E-015  0.9000767E+02  0.7816164E-02  0.1186339E+00
        -11   -1    0    0    0    0  0.00000000000E+00  0.00000000000E+00  0.45593999997E+02  0.45594000000E+02  0.51100000000E-03 0.  1.
         11   -1    0    0    0    0 -0.00000000000E+00 -0.00000000000E+00 -0.45593999997E+02  0.45594000000E+02  0.51100000000E-03 0. -1.
    9900012    2    1    2    0    0  0.99912546454E+00  0.33341812397E+00  0.53269125948E+00  0.90007669827E+02  0.89999930269E+02 0.  0.
         12    1    1    2    0    0 -0.99912546454E+00 -0.33341812397E+00 -0.53269125948E+00  0.11803301730E+01  0.00000000000E+00 0. -1.
         11    1    3    3    0    0 -0.53478077412E+01  0.41239432081E+01  0.54659491035E+01  0.86880696984E+01  0.51100000000E-03 0. -1.
        -11    1    3    3    0    0  0.30513309644E+02  0.21689376045E+02  0.15693065089E+02  0.40592651931E+02  0.51100000000E-03 0.  1.
         12    1    3    3    0    0 -0.24166376438E+02 -0.25479901130E+02 -0.20626322933E+02  0.40726948197E+02  0.00000000000E+00 0. -1.
</event>
<event>
 7    1  0.3276565E-015  0.9000772E+02  0.7816164E-02  0.1186339E+00
        -11   -1    0    0    0    0  0.00000000000E+00  0.00000000000E+00  0.45593999997E+02  0.45594000000E+02  0.51100000000E-03 0.  1.
         11   -1    0    0    0    0 -0.00000000000E+00 -0.00000000000E+00 -0.45593999997E+02  0.45594000000E+02  0.51100000000E-03 0. -1.
    9900012    2    1    2    0    0 -0.66840315162E+00  0.72349276823E+00  0.65026957154E+00  0.90007722459E+02  0.89999983595E+02 0.  0.
         12    1    1    2    0    0  0.66840315162E+00 -0.72349276823E+00 -0.65026957154E+00  0.11802775413E+01  0.00000000000E+00 0. -1.
         11    1    3    3    0    0  0.33413262185E+01 -0.11486667141E+00  0.76155216102E+01  0.83170803115E+01  0.51100000000E-03 0. -1.
        -11    1    3    3    0    0  0.28901420524E+02 -0.26019986782E+02 -0.43376872137E+01  0.39129877985E+02  0.51100000000E-03 0.  1.
         12    1    3    3    0    0 -0.32911149895E+02  0.26858346222E+02 -0.26275648250E+01  0.42560764162E+02  0.00000000000E+00 0. -1.
</event>
<event>
 7    1  0.3276565E-015  0.9000757E+02  0.7816164E-02  0.1186339E+00
        -11   -1    0    0    0    0  0.00000000000E+00  0.00000000000E+00  0.45593999997E+02  0.45594000000E+02  0.51100000000E-03 0. -1.
         11   -1    0    0    0    0 -0.00000000000E+00 -0.00000000000E+00 -0.45593999997E+02  0.45594000000E+02  0.51100000000E-03 0.  1.
    9900012    2    1    2    0    0  0.12381371014E+00 -0.49012506413E+00 -0.10667035918E+01  0.90007572549E+02  0.89999831707E+02 0.  0.
         12    1    1    2    0    0 -0.12381371014E+00  0.49012506413E+00  0.10667035918E+01  0.11804274506E+01  0.00000000000E+00 0. -1.
         11    1    3    3    0    0 -0.19381651017E+02 -0.34508973405E+02 -0.16289756458E+00  0.39579592942E+02  0.51100000000E-03 0. -1.
        -11    1    3    3    0    0 -0.66950042729E+01  0.66226798374E+01  0.69636643205E+01  0.11712198405E+02  0.51100000000E-03 0.  1.
        -12    1    3    3    0    0  0.26200469000E+02  0.27396168503E+02 -0.78674703477E+01  0.38715781203E+02  0.00000000000E+00 0.  1.
</event>
<event>
 7    1  0.3276565E-015  0.9000780E+02  0.7816164E-02  0.1186339E+00
        -11   -1    0    0    0    0  0.00000000000E+00  0.00000000000E+00  0.45593999997E+02  0.45594000000E+02  0.51100000000E-03 0. -1.
         11   -1    0    0    0    0 -0.00000000000E+00 -0.00000000000E+00 -0.45593999997E+02  0.45594000000E+02  0.51100000000E-03 0.  1.
    9900012    2    1    2    0    0 -0.27623319833E-01 -0.94379439253E+00 -0.70807005380E+00  0.90007799125E+02  0.90000061274E+02 0.  0.
         12    1    1    2    0    0  0.27623319833E-01  0.94379439253E+00  0.70807005380E+00  0.11802008745E+01  0.00000000000E+00 0. -1.
         11    1    3    3    0    0 -0.11143090528E+02 -0.11154163113E+01  0.64753911837E+01  0.12936124277E+02  0.51100000000E-03 0. -1.
        -11    1    3    3    0    0 -0.11674911281E+02 -0.23496053515E+02 -0.27845039550E+02  0.38258519470E+02  0.51100000000E-03 0.  1.
         12    1    3    3    0    0  0.22790378489E+02  0.23667675434E+02  0.20661578313E+02  0.38813155379E+02  0.00000000000E+00 0. -1.
</event>
<event>
 7    1  0.3276565E-015  0.9000778E+02  0.7816164E-02  0.1186339E+00
        -11   -1    0    0    0    0  0.00000000000E+00  0.00000000000E+00  0.45593999997E+02  0.45594000000E+02  0.51100000000E-03 0.  1.
         11   -1    0    0    0    0 -0.00000000000E+00 -0.00000000000E+00 -0.45593999997E+02  0.45594000000E+02  0.51100000000E-03 0. -1.
    9900012    2    1    2    0    0  0.98967945489E+00 -0.15350365572E+00  0.62441940424E+00  0.90007776128E+02  0.90000037973E+02 0.  0.
         12    1    1    2    0    0 -0.98967945489E+00  0.15350365572E+00 -0.62441940424E+00  0.11802238720E+01  0.00000000000E+00 0. -1.
         11    1    3    3    0    0 -0.55752592130E+01 -0.38190933397E+00  0.57829763332E+01  0.80419018623E+01  0.51100000000E-03 0. -1.
        -11    1    3    3    0    0  0.31980048494E+02  0.10664212575E+02  0.24396713422E+02  0.41613081567E+02  0.51100000000E-03 0.  1.
         12    1    3    3    0    0 -0.25415109826E+02 -0.10435806897E+02 -0.29555270351E+02  0.40352792698E+02  0.00000000000E+00 0. -1.
</event>
<event>
 7    1  0.3276565E-015  0.9000758E+02  0.7816164E-02  0.1186339E+00
        -11   -1    0    0    0    0  0.00000000000E+00  0.00000000000E+00  0.45593999997E+02  0.45594000000E+02  0.51100000000E-03 0. -1.
         11   -1    0    0    0    0 -0.00000000000E+00 -0.00000000000E+00 -0.45593999997E+02  0.45594000000E+02  0.51100000000E-03 0.  1.
    9900012    2    1    2    0    0 -0.36901094302E+00 -0.10575802684E+01  0.37248004509E+00  0.90007582072E+02  0.89999841355E+02 0.  0.
         12    1    1    2    0    0  0.36901094302E+00  0.10575802684E+01 -0.37248004509E+00  0.11804179278E+01  0.00000000000E+00 0. -1.
         11    1    3    3    0    0  0.14535685149E+01  0.29228328016E+02  0.24134435189E+02  0.37932558340E+02  0.51100000000E-03 0. -1.
        -11    1    3    3    0    0 -0.86741129319E+01  0.36994244307E+01  0.98263397289E+00  0.94811152329E+01  0.51100000000E-03 0.  1.
        -12    1    3    3    0    0  0.68515334739E+01 -0.33985332716E+02 -0.24744589116E+02  0.42593908500E+02  0.00000000000E+00 0.  1.
</event>
<event>
 7    1  0.3276565E-015  0.9000774E+02  0.7816164E-02  0.1186339E+00
        -11   -1    0    0    0    0  0.00000000000E+00  0.00000000000E+00  0.45593999997E+02  0.45594000000E+02  0.51100000000E-03 0. -1.
         11   -1    0    0    0    0 -0.00000000000E+00 -0.00000000000E+00 -0.45593999997E+02  0.45594000000E+02  0.51100000000E-03 0.  1.
    9900012    2    1    2    0    0  0.35911404725E+00  0.47130411015E+00 -0.10207442087E+01  0.90007741891E+02  0.90000003284E+02 0.  0.
         12    1    1    2    0    0 -0.35911404725E+00 -0.47130411015E+00  0.10207442087E+01  0.11802581085E+01  0.00000000000E+00 0. -1.
         11    1    3    3    0    0 -0.33896624861E+01 -0.20296437972E+00  0.14642663078E+01  0.36979835573E+01  0.51100000000E-03 0. -1.
        -11    1    3    3    0    0 -0.19423569680E+02  0.82639273959E+00 -0.38703887467E+02  0.43312225634E+02  0.51100000000E-03 0.  1.
         12    1    3    3    0    0  0.23172346213E+02 -0.15212424972E+00  0.36218876950E+02  0.42997532700E+02  0.00000000000E+00 0. -1.
</event>
<event>
 7    1  0.3276565E-015  0.9000777E+02  0.7816164E-02  0.1186339E+00
        -11   -1    0    0    0    0  0.00000000000E+00  0.00000000000E+00  0.45593999997E+02  0.45594000000E+02  0.51100000000E-03 0.  1.
         11   -1    0    0    0    0 -0.00000000000E+00 -0.00000000000E+00 -0.45593999997E+02  0.45594000000E+02  0.51100000000E-03 0. -1.
    9900012    2    1    2    0    0  0.39859449444E+00  0.10792264830E+01  0.26329529185E+00  0.90007774690E+02  0.90000036516E+02 0.  0.
         12    1    1    2    0    0 -0.39859449444E+00 -0.10792264830E+01 -0.26329529185E+00  0.11802253104E+01  0.00000000000E+00 0. -1.
         11    1    3    3    0    0 -0.82860743177E+01  0.34447393015E+01  0.18497045655E+01  0.91622411939E+01  0.51100000000E-03 0. -1.
        -11    1    3    3    0    0  0.18594062424E+02  0.24016763216E+02 -0.28664078564E+02  0.41763302946E+02  0.51100000000E-03 0.  1.
         12    1    3    3    0    0 -0.99093936119E+01 -0.26382276034E+02  0.27077669291E+02  0.39082230549E+02  0.00000000000E+00 0. -1.
</event>
<event>
 7    1  0.3276565E-015  0.9000776E+02  0.7816164E-02  0.1186339E+00
        -11   -1    0    0    0    0  0.00000000000E+00  0.00000000000E+00  0.45593999997E+02  0.45594000000E+02  0.51100000000E-03 0.  1.
         11   -1    0    0    0    0 -0.00000000000E+00 -0.00000000000E+00 -0.45593999997E+02  0.45594000000E+02  0.51100000000E-03 0. -1.
    9900012    2    1    2    0    0 -0.92863082091E+00 -0.86962622456E-01  0.72322299769E+00  0.90007758837E+02  0.90000020453E+02 0.  0.
         12    1    1    2    0    0  0.92863082091E+00  0.86962622456E-01 -0.72322299769E+00  0.11802411633E+01  0.00000000000E+00 0. -1.
         11    1    3    3    0    0 -0.78048634744E+01  0.38190708066E+01  0.19380610786E+01  0.89026555974E+01  0.51100000000E-03 0. -1.
        -11    1    3    3    0    0 -0.31919211661E+02 -0.12966682247E+02 -0.16794257692E+02  0.38327770784E+02  0.51100000000E-03 0.  1.
         12    1    3    3    0    0  0.38795444315E+02  0.90606488183E+01  0.15579419611E+02  0.42777332455E+02  0.00000000000E+00 0. -1.
</event>
<event>
 7    1  0.3276565E-015  0.9000772E+02  0.7816164E-02  0.1186339E+00
        -11   -1    0    0    0    0  0.00000000000E+00  0.00000000000E+00  0.45593999997E+02  0.45594000000E+02  0.51100000000E-03 0.  1.
         11   -1    0    0    0    0 -0.00000000000E+00 -0.00000000000E+00 -0.45593999997E+02  0.45594000000E+02  0.51100000000E-03 0. -1.
    9900012    2    1    2    0    0  0.47149185053E+00  0.15390629602E+00  0.10710184790E+01  0.90007715163E+02  0.89999976204E+02 0.  0.
         12    1    1    2    0    0 -0.47149185053E+00 -0.15390629602E+00 -0.10710184790E+01  0.11802848366E+01  0.00000000000E+00 0. -1.
         11    1    3    3    0    0 -0.12735327781E+01  0.71420034585E+01  0.53954124038E+01  0.90410494085E+01  0.51100000000E-03 0. -1.
        -11    1    3    3    0    0  0.31856847018E+02  0.67654354759E+01 -0.25764253786E+02  0.41526215726E+02  0.51100000000E-03 0.  1.
         12    1    3    3    0    0 -0.30111822389E+02 -0.13753532638E+02  0.21439859861E+02  0.39440450029E+02  0.00000000000E+00 0. -1.
</event>
<event>
 7    1  0.3276565E-015  0.9000778E+02  0.7816164E-02  0.1186339E+00
        -11   -1    0    0    0    0  0.00000000000E+00  0.00000000000E+00  0.45593999997E+02  0.45594000000E+02  0.51100000000E-03 0.  1.
         11   -1    0    0    0    0 -0.00000000000E+00 -0.00000000000E+00 -0.45593999997E+02  0.45594000000E+02  0.51100000000E-03 0. -1.
    9900012    2    1    2    0    0 -0.16731894118E+00 -0.10222157094E+01 -0.56567938654E+00  0.90007782328E+02  0.90000044255E+02 0.  0.
         12    1    1    2    0    0  0.16731894118E+00  0.10222157094E+01  0.56567938654E+00  0.11802176718E+01  0.00000000000E+00 0. -1.
         11    1    3    3    0    0 -0.41361817594E+01  0.84774562527E+01  0.61240662908E+01  0.11246308384E+02  0.51100000000E-03 0. -1.
        -11    1    3    3    0    0  0.20438242383E+02  0.23171500279E+02  0.16911045764E+02  0.35222487788E+02  0.51100000000E-03 0.  1.
         12    1    3    3    0    0 -0.16469379565E+02 -0.32671172241E+02 -0.23600791442E+02  0.43538986156E+02  0.00000000000E+00 0. -1.
</event>
<event>
 7    1  0.3354426E-015  0.9000783E+02  0.7816164E-02  0.1186339E+00
        -11   -1    0    0    0    0  0.00000000000E+00  0.00000000000E+00  0.45593999997E+02  0.45594000000E+02  0.51100000000E-03 0.  1.
         11   -1    0    0    0    0 -0.00000000000E+00 -0.00000000000E+00 -0.45593999997E+02  0.45594000000E+02  0.51100000000E-03 0. -1.
    9900012    2    1    2    0    0  0.93595612193E+00 -0.23619142315E+00  0.67897084487E+00  0.90007829818E+02  0.90000092371E+02 0.  0.
         12    1    1    2    0    0 -0.93595612193E+00  0.23619142315E+00 -0.67897084487E+00  0.11801701821E+01  0.00000000000E+00 0. -1.
         11    1    3    3    0    0  0.32610723300E+01  0.35173636913E+01 -0.78951587316E+01  0.92379636142E+01  0.51100000000E-03 0. -1.
        -11    1    3    3    0    0  0.38621448465E+02 -0.62852679170E+01  0.67268177670E+01  0.39703538279E+02  0.51100000000E-03 0.  1.
         12    1    3    3    0    0 -0.40946564674E+02  0.25317128026E+01  0.18473118095E+01  0.41066327924E+02  0.00000000000E+00 0. -1.
</event>
<event>
 7    1  0.3276565E-015  0.9000791E+02  0.7816164E-02  0.1186339E+00
        -11   -1    0    0    0    0  0.00000000000E+00  0.00000000000E+00  0.45593999997E+02  0.45594000000E+02  0.51100000000E-03 0.  1.
         11   -1    0    0    0    0 -0.00000000000E+00 -0.00000000000E+00 -0.45593999997E+02  0.45594000000E+02  0.51100000000E-03 0. -1.
    9900012    2    1    2    0    0  0.14837898286E+00  0.11361333800E+01  0.28248024968E+00  0.90007910821E+02  0.90000174443E+02 0.  0.
         12    1    1    2    0    0 -0.14837898286E+00 -0.11361333800E+01 -0.28248024968E+00  0.11800891793E+01  0.00000000000E+00 0. -1.
         11    1    3    3    0    0  0.56785463099E+01  0.76698458950E+01  0.31089402767E+01  0.10036828889E+02  0.51100000000E-03 0. -1.
        -11    1    3    3    0    0 -0.13585701214E+02 -0.13649060999E+02  0.35379975431E+02  0.40281643529E+02  0.51100000000E-03 0.  1.
         12    1    3    3    0    0  0.80555338869E+01  0.71153484845E+01 -0.38206435458E+02  0.39689438402E+02  0.00000000000E+00 0. -1.
</event>
<event>
 7    1  0.3276565E-015  0.9000774E+02  0.7816164E-02  0.1186339E+00
        -11   -1    0    0    0    0  0.00000000000E+00  0.00000000000E+00  0.45593999997E+02  0.45594000000E+02  0.51100000000E-03 0. -1.
         11   -1    0    0    0    0 -0.00000000000E+00 -0.00000000000E+00 -0.45593999997E+02  0.45594000000E+02  0.51100000000E-03 0.  1.
    9900012    2    1    2    0    0  0.33778103604E+00 -0.96797952567E+00 -0.58475989711E+00  0.90007735399E+02  0.89999996707E+02 0.  0.
         12    1    1    2    0    0 -0.33778103604E+00  0.96797952567E+00  0.58475989711E+00  0.11802646007E+01  0.00000000000E+00 0. -1.
         11    1    3    3    0    0 -0.16042423373E+02 -0.31227464610E+02  0.20177410144E+02  0.40492490342E+02  0.51100000000E-03 0. -1.
        -11    1    3    3    0    0  0.78699566384E+01 -0.18741304386E+01  0.30276382038E+01  0.86380076259E+01  0.51100000000E-03 0.  1.
        -12    1    3    3    0    0  0.85102477711E+01  0.32133615523E+02 -0.23789808245E+02  0.40877237432E+02  0.00000000000E+00 0.  1.
</event>
<event>
 7    1  0.3276565E-015  0.9000785E+02  0.7816164E-02  0.1186339E+00
        -11   -1    0    0    0    0  0.00000000000E+00  0.00000000000E+00  0.45593999997E+02  0.45594000000E+02  0.51100000000E-03 0.  1.
         11   -1    0    0    0    0 -0.00000000000E+00 -0.00000000000E+00 -0.45593999997E+02  0.45594000000E+02  0.51100000000E-03 0. -1.
    9900012    2    1    2    0    0  0.24107965751E+00  0.10886317997E+01  0.38667616399E+00  0.90007848716E+02  0.90000111519E+02 0.  0.
         12    1    1    2    0    0 -0.24107965751E+00 -0.10886317997E+01 -0.38667616399E+00  0.11801512837E+01  0.00000000000E+00 0. -1.
         11    1    3    3    0    0  0.31985858351E+02 -0.11220246140E+02 -0.26864866737E+02  0.43251706590E+02  0.51100000000E-03 0. -1.
        -11    1    3    3    0    0 -0.32874852158E+00  0.30895779058E+01  0.84449083989E+01  0.89983356991E+01  0.51100000000E-03 0.  1.
        -12    1    3    3    0    0 -0.31416030172E+02  0.92193000344E+01  0.18806634502E+02  0.37757806427E+02  0.00000000000E+00 0.  1.
</event>
<event>
 7    1  0.3276565E-015  0.9000701E+02  0.7816164E-02  0.1186340E+00
        -11   -1    0    0    0    0  0.00000000000E+00  0.00000000000E+00  0.45593999997E+02  0.45594000000E+02  0.51100000000E-03 0. -1.
         11   -1    0    0    0    0 -0.00000000000E+00 -0.00000000000E+00 -0.45593999997E+02  0.45594000000E+02  0.51100000000E-03 0.  1.
    9900012    2    1    2    0    0 -0.10409865766E+01  0.51670617751E+00  0.20997111991E+00  0.90007014734E+02  0.89999266526E+02 0.  0.
         12    1    1    2    0    0  0.10409865766E+01 -0.51670617751E+00 -0.20997111991E+00  0.11809852657E+01  0.00000000000E+00 0. -1.
         11    1    3    3    0    0 -0.36945958200E+01 -0.91092644047E+01  0.13002460549E+01  0.99156127563E+01  0.51100000000E-03 0. -1.
        -11    1    3    3    0    0 -0.13351329067E+01  0.43893635147E+02  0.74735565548E+01  0.44545345819E+02  0.51100000000E-03 0.  1.
         12    1    3    3    0    0  0.39887421501E+01 -0.34267664565E+02 -0.85638314898E+01  0.35546056159E+02  0.00000000000E+00 0. -1.
</event>
<event>
 7    1  0.3276565E-015  0.9000774E+02  0.7816164E-02  0.1186339E+00
        -11   -1    0    0    0    0  0.00000000000E+00  0.00000000000E+00  0.45593999997E+02  0.45594000000E+02  0.51100000000E-03 0. -1.
         11   -1    0    0    0    0 -0.00000000000E+00 -0.00000000000E+00 -0.45593999997E+02  0.45594000000E+02  0.51100000000E-03 0.  1.
    9900012    2    1    2    0    0  0.69790083883E+00  0.84761349121E+00 -0.43302400830E+00  0.90007735622E+02  0.89999996932E+02 0.  0.
         12    1    1    2    0    0 -0.69790083883E+00 -0.84761349121E+00  0.43302400830E+00  0.11802643785E+01  0.00000000000E+00 0. -1.
         11    1    3    3    0    0 -0.29617445110E+02 -0.23743806497E+02  0.57643460624E+01  0.38395170107E+02  0.51100000000E-03 0. -1.
        -11    1    3    3    0    0  0.19754064692E+01 -0.56186738435E+01  0.59775173474E+01  0.84381538489E+01  0.51100000000E-03 0.  1.
        -12    1    3    3    0    0  0.28339939479E+02  0.30210093832E+02 -0.12174887418E+02  0.43174411665E+02  0.00000000000E+00 0.  1.
</event>
<event>
 7    1  0.3276565E-015  0.9000772E+02  0.7816164E-02  0.1186339E+00
        -11   -1    0    0    0    0  0.00000000000E+00  0.00000000000E+00  0.45593999997E+02  0.45594000000E+02  0.51100000000E-03 0. -1.
         11   -1    0    0    0    0 -0.00000000000E+00 -0.00000000000E+00 -0.45593999997E+02  0.45594000000E+02  0.51100000000E-03 0.  1.
    9900012    2    1    2    0    0 -0.22052576072E+00  0.11587708517E+01 -0.40886589367E-01  0.90007723248E+02  0.89999984395E+02 0.  0.
         12    1    1    2    0    0  0.22052576072E+00 -0.11587708517E+01  0.40886589367E-01  0.11802767519E+01  0.00000000000E+00 0. -1.
         11    1    3    3    0    0  0.66200556508E+01  0.14056523366E+01  0.43376284419E+02  0.43901059732E+02  0.51100000000E-03 0. -1.
        -11    1    3    3    0    0 -0.34309737151E+01  0.51711526485E+01 -0.80478669026E+01  0.10162704477E+02  0.51100000000E-03 0.  1.
        -12    1    3    3    0    0 -0.34096076964E+01 -0.54180341334E+01 -0.35369304106E+02  0.35943959039E+02  0.00000000000E+00 0.  1.
</event>
<event>
 7    1  0.3276565E-015  0.9000771E+02  0.7816164E-02  0.1186339E+00
        -11   -1    0    0    0    0  0.00000000000E+00  0.00000000000E+00  0.45593999997E+02  0.45594000000E+02  0.51100000000E-03 0. -1.
         11   -1    0    0    0    0 -0.00000000000E+00 -0.00000000000E+00 -0.45593999997E+02  0.45594000000E+02  0.51100000000E-03 0.  1.
    9900012    2    1    2    0    0  0.11602739439E+01 -0.21487632887E+00  0.26209470946E-01  0.90007705800E+02  0.89999966717E+02 0.  0.
         12    1    1    2    0    0 -0.11602739439E+01  0.21487632887E+00 -0.26209470946E-01  0.11802941998E+01  0.00000000000E+00 0. -1.
         11    1    3    3    0    0 -0.33669694707E+01  0.80011939786E+01  0.27542305605E+01  0.91072155318E+01  0.51100000000E-03 0. -1.
        -11    1    3    3    0    0  0.58666670717E+01  0.20553748488E+02 -0.32871394438E+02  0.39209730068E+02  0.51100000000E-03 0.  1.
         12    1    3    3    0    0 -0.13394236570E+01 -0.28769818796E+02  0.30143373348E+02  0.41690760200E+02  0.00000000000E+00 0. -1.
</event>
<event>
 7    1  0.3588288E-015  0.9000768E+02  0.7816164E-02  0.1186339E+00
        -11   -1    0    0    0    0  0.00000000000E+00  0.00000000000E+00  0.45593999997E+02  0.45594000000E+02  0.51100000000E-03 0.  1.
         11   -1    0    0    0    0 -0.00000000000E+00 -0.00000000000E+00 -0.45593999997E+02  0.45594000000E+02  0.51100000000E-03 0. -1.
    9900012    2    1    2    0    0  0.30346852215E+00 -0.10247390862E+01  0.50096374415E+00  0.90007683088E+02  0.89999943705E+02 0.  0.
         12    1    1    2    0    0 -0.30346852215E+00  0.10247390862E+01 -0.50096374415E+00  0.11803169115E+01  0.00000000000E+00 0. -1.
         11    1    3    3    0    0  0.48114613310E+01  0.63071699675E+01  0.55389921962E+01  0.96752771510E+01  0.51100000000E-03 0. -1.
        -11    1    3    3    0    0  0.19250716342E+02 -0.30047961816E+02  0.18217562270E+02  0.40066815001E+02  0.51100000000E-03 0.  1.
         12    1    3    3    0    0 -0.23758709151E+02  0.22716052763E+02 -0.23255590722E+02  0.40265590937E+02  0.00000000000E+00 0. -1.
</event>
<event>
 7    1  0.3276565E-015  0.9000729E+02  0.7816164E-02  0.1186340E+00
        -11   -1    0    0    0    0  0.00000000000E+00  0.00000000000E+00  0.45593999997E+02  0.45594000000E+02  0.51100000000E-03 0. -1.
         11   -1    0    0    0    0 -0.00000000000E+00 -0.00000000000E+00 -0.45593999997E+02  0.45594000000E+02  0.51100000000E-03 0.  1.
    9900012    2    1    2    0    0 -0.10607824063E+01  0.50546394553E+00 -0.11538824938E+00  0.90007293617E+02  0.89999549092E+02 0.  0.
         12    1    1    2    0    0  0.10607824063E+01 -0.50546394553E+00  0.11538824938E+00  0.11807063826E+01  0.00000000000E+00 0. -1.
         11    1    3    3    0    0  0.60160540882E+01  0.67471405703E+01 -0.26371477438E+01  0.94165471990E+01  0.51100000000E-03 0. -1.
        -11    1    3    3    0    0 -0.19130929497E+01  0.29981136079E+02 -0.21391910423E+02  0.36880106793E+02  0.51100000000E-03 0.  1.
         12    1    3    3    0    0 -0.51637435448E+01 -0.36222812704E+02  0.23913669917E+02  0.43710639626E+02  0.00000000000E+00 0. -1.
</event>
<event>
 7    1  0.3276565E-015  0.9000767E+02  0.7816164E-02  0.1186339E+00
        -11   -1    0    0    0    0  0.00000000000E+00  0.00000000000E+00  0.45593999997E+02  0.45594000000E+02  0.51100000000E-03 0.  1.
         11   -1    0    0    0    0 -0.00000000000E+00 -0.00000000000E+00 -0.45593999997E+02  0.45594000000E+02  0.51100000000E-03 0. -1.
    9900012    2    1    2    0    0  0.47122226077E+00  0.23711510525E+00  0.10558850155E+01  0.90007674978E+02  0.89999935487E+02 0.  0.
         12    1    1    2    0    0 -0.47122226077E+00 -0.23711510525E+00 -0.10558850155E+01  0.11803250222E+01  0.00000000000E+00 0. -1.
         11    1    3    3    0    0  0.13896013740E+01  0.89905475024E+01  0.41459826252E+01  0.99975051169E+01  0.51100000000E-03 0. -1.
        -11    1    3    3    0    0  0.22822537091E+02  0.27774396555E+02 -0.55569533902E+01  0.36375335524E+02  0.51100000000E-03 0.  1.
         12    1    3    3    0    0 -0.23740916204E+02 -0.36527828952E+02  0.24668557805E+01  0.43634834337E+02  0.00000000000E+00 0. -1.
</event>
<event>
 7    1  0.3276565E-015  0.9000769E+02  0.7816164E-02  0.1186339E+00
        -11   -1    0    0    0    0  0.00000000000E+00  0.00000000000E+00  0.45593999997E+02  0.45594000000E+02  0.51100000000E-03 0. -1.
         11   -1    0    0    0    0 -0.00000000000E+00 -0.00000000000E+00 -0.45593999997E+02  0.45594000000E+02  0.51100000000E-03 0.  1.
    9900012    2    1    2    0    0  0.56241108254E-01  0.10173633581E+01 -0.59577176565E+00  0.90007688490E+02  0.89999949178E+02 0.  0.
         12    1    1    2    0    0 -0.56241108254E-01 -0.10173633581E+01  0.59577176565E+00  0.11803115104E+01  0.00000000000E+00 0. -1.
         11    1    3    3    0    0 -0.40090915559E+00 -0.61935455830E+01 -0.57370804339E+01  0.84519126360E+01  0.51100000000E-03 0. -1.
        -11    1    3    3    0    0 -0.25540717612E+02 -0.62044581231E+01 -0.27283317963E+02  0.37884073119E+02  0.51100000000E-03 0.  1.
         12    1    3    3    0    0  0.25997867876E+02  0.13415367064E+02  0.32424626632E+02  0.43671702735E+02  0.00000000000E+00 0. -1.
</event>
<event>
 7    1  0.3276565E-015  0.9000774E+02  0.7816164E-02  0.1186339E+00
        -11   -1    0    0    0    0  0.00000000000E+00  0.00000000000E+00  0.45593999997E+02  0.45594000000E+02  0.51100000000E-03 0. -1.
         11   -1    0    0    0    0 -0.00000000000E+00 -0.00000000000E+00 -0.45593999997E+02  0.45594000000E+02  0.51100000000E-03 0.  1.
    9900012    2    1    2    0    0 -0.87233062497E+00 -0.79389546378E+00 -0.42251108740E-01  0.90007739062E+02  0.90000000417E+02 0.  0.
         12    1    1    2    0    0  0.87233062497E+00  0.79389546378E+00  0.42251108740E-01  0.11802609385E+01  0.00000000000E+00 0. -1.
         11    1    3    3    0    0  0.90221064471E+01 -0.64908025881E+01  0.16409714994E+01  0.11234843599E+02  0.51100000000E-03 0. -1.
        -11    1    3    3    0    0  0.19971778097E+02  0.25766930201E+02 -0.20152377752E+02  0.38326556610E+02  0.51100000000E-03 0.  1.
         12    1    3    3    0    0 -0.29866215169E+02 -0.20070023076E+02  0.18469155143E+02  0.40446338852E+02  0.00000000000E+00 0. -1.
</event>
<event>
 7    1  0.4158550E-015  0.9000769E+02  0.7816164E-02  0.1186339E+00
        -11   -1    0    0    0    0  0.00000000000E+00  0.00000000000E+00  0.45593999997E+02  0.45594000000E+02  0.51100000000E-03 0.  1.
         11   -1    0    0    0    0 -0.00000000000E+00 -0.00000000000E+00 -0.45593999997E+02  0.45594000000E+02  0.51100000000E-03 0. -1.
    9900012    2    1    2    0    0  0.90332550487E+00 -0.74094522556E+00 -0.16773159681E+00  0.90007690429E+02  0.89999951143E+02 0.  0.
         12    1    1    2    0    0 -0.90332550487E+00  0.74094522556E+00  0.16773159681E+00  0.11803095711E+01  0.00000000000E+00 0. -1.
         11    1    3    3    0    0  0.28891970504E+01  0.19546931261E+01 -0.88423178047E+01  0.95055178309E+01  0.51100000000E-03 0. -1.
        -11    1    3    3    0    0  0.98818265847E+01  0.26469912330E+02 -0.22555816042E+02  0.36153445106E+02  0.51100000000E-03 0.  1.
         12    1    3    3    0    0 -0.11867698130E+02 -0.29165550682E+02  0.31230402250E+02  0.44348727492E+02  0.00000000000E+00 0. -1.
</event>
<event>
 7    1  0.3276565E-015  0.9000773E+02  0.7816164E-02  0.1186339E+00
        -11   -1    0    0    0    0  0.00000000000E+00  0.00000000000E+00  0.45593999997E+02  0.45594000000E+02  0.51100000000E-03 0.  1.
         11   -1    0    0    0    0 -0.00000000000E+00 -0.00000000000E+00 -0.45593999997E+02  0.45594000000E+02  0.51100000000E-03 0. -1.
    9900012    2    1    2    0    0 -0.11208145167E+01 -0.78933060602E-01  0.36135775278E+00  0.90007730948E+02  0.89999992197E+02 0.  0.
         12    1    1    2    0    0  0.11208145167E+01  0.78933060602E-01 -0.36135775278E+00  0.11802690517E+01  0.00000000000E+00 0. -1.
         11    1    3    3    0    0 -0.79286268224E+00  0.98659016168E+01 -0.37569587828E+02  0.38851493868E+02  0.51100000000E-03 0. -1.
        -11    1    3    3    0    0  0.69912444699E+01 -0.78085346531E+01 -0.18571011820E+01  0.10644225558E+02  0.51100000000E-03 0.  1.
        -12    1    3    3    0    0 -0.73191963044E+01 -0.21363000243E+01  0.39788046763E+02  0.40512011522E+02  0.00000000000E+00 0.  1.
</event>
<event>
 7    1  0.3276565E-015  0.9000776E+02  0.7816164E-02  0.1186339E+00
        -11   -1    0    0    0    0  0.00000000000E+00  0.00000000000E+00  0.45593999997E+02  0.45594000000E+02  0.51100000000E-03 0. -1.
         11   -1    0    0    0    0 -0.00000000000E+00 -0.00000000000E+00 -0.45593999997E+02  0.45594000000E+02  0.51100000000E-03 0.  1.
    9900012    2    1    2    0    0 -0.76766550863E+00 -0.66824790321E+00 -0.59757540630E+00  0.90007761906E+02  0.90000023563E+02 0.  0.
         12    1    1    2    0    0  0.76766550863E+00  0.66824790321E+00  0.59757540630E+00  0.11802380944E+01  0.00000000000E+00 0. -1.
         11    1    3    3    0    0 -0.13364098327E+02 -0.30572900737E+02  0.15725794380E+02  0.36886338836E+02  0.51100000000E-03 0. -1.
        -11    1    3    3    0    0 -0.98582183787E+00 -0.89894874875E+01 -0.52700504013E+01  0.10466907923E+02  0.51100000000E-03 0.  1.
        -12    1    3    3    0    0  0.13582254657E+02  0.38894140322E+02 -0.11053319385E+02  0.42654515146E+02  0.00000000000E+00 0.  1.
</event>
<event>
 7    1  0.3276565E-015  0.9000780E+02  0.7816164E-02  0.1186339E+00
        -11   -1    0    0    0    0  0.00000000000E+00  0.00000000000E+00  0.45593999997E+02  0.45594000000E+02  0.51100000000E-03 0. -1.
         11   -1    0    0    0    0 -0.00000000000E+00 -0.00000000000E+00 -0.45593999997E+02  0.45594000000E+02  0.51100000000E-03 0.  1.
    9900012    2    1    2    0    0 -0.62874899975E-01 -0.11445041995E+01 -0.28110620560E+00  0.90007803485E+02  0.90000065691E+02 0.  0.
         12    1    1    2    0    0  0.62874899975E-01  0.11445041995E+01  0.28110620560E+00  0.11801965153E+01  0.00000000000E+00 0. -1.
         11    1    3    3    0    0  0.55258165097E+00 -0.16204853849E+02  0.14945874086E+02  0.22051797822E+02  0.51100000000E-03 0. -1.
        -11    1    3    3    0    0  0.11521241931E+02  0.37853822021E+02 -0.39075915975E+01  0.39760786330E+02  0.51100000000E-03 0.  1.
         12    1    3    3    0    0 -0.12136698482E+02 -0.22793472372E+02 -0.11319388694E+02  0.28195219333E+02  0.00000000000E+00 0. -1.
</event>
<event>
 7    1  0.3276565E-015  0.9000777E+02  0.7816164E-02  0.1186339E+00
        -11   -1    0    0    0    0  0.00000000000E+00  0.00000000000E+00  0.45593999997E+02  0.45594000000E+02  0.51100000000E-03 0.  1.
         11   -1    0    0    0    0 -0.00000000000E+00 -0.00000000000E+00 -0.45593999997E+02  0.45594000000E+02  0.51100000000E-03 0. -1.
    9900012    2    1    2    0    0 -0.95172015701E+00  0.67732617398E+00  0.16855625658E+00  0.90007765610E+02  0.90000027316E+02 0.  0.
         12    1    1    2    0    0  0.95172015701E+00 -0.67732617398E+00 -0.16855625658E+00  0.11802343898E+01  0.00000000000E+00 0. -1.
         11    1    3    3    0    0 -0.38246566086E+02  0.15999125201E+02  0.20156808526E+01  0.41507045114E+02  0.51100000000E-03 0. -1.
        -11    1    3    3    0    0 -0.11616225718E+01 -0.81090352538E+01  0.36887367327E+01  0.89840190723E+01  0.51100000000E-03 0.  1.
        -12    1    3    3    0    0  0.38456468500E+02 -0.72127637733E+01 -0.55358613287E+01  0.39516701424E+02  0.00000000000E+00 0.  1.
</event>
<event>
 7    1  0.3276565E-015  0.9000768E+02  0.7816164E-02  0.1186339E+00
        -11   -1    0    0    0    0  0.00000000000E+00  0.00000000000E+00  0.45593999997E+02  0.45594000000E+02  0.51100000000E-03 0.  1.
         11   -1    0    0    0    0 -0.00000000000E+00 -0.00000000000E+00 -0.45593999997E+02  0.45594000000E+02  0.51100000000E-03 0. -1.
    9900012    2    1    2    0    0  0.91525132447E+00 -0.74407956760E+00 -0.42556124317E-01  0.90007682071E+02  0.89999942674E+02 0.  0.
         12    1    1    2    0    0 -0.91525132447E+00  0.74407956760E+00  0.42556124317E-01  0.11803179290E+01  0.00000000000E+00 0. -1.
         11    1    3    3    0    0 -0.28894223093E+02  0.12554618934E+02 -0.17508695086E+02  0.36042322186E+02  0.51100000000E-03 0. -1.
        -11    1    3    3    0    0 -0.87456584287E+01 -0.26132712798E+01 -0.21934667262E+01  0.93875995160E+01  0.51100000000E-03 0.  1.
        -12    1    3    3    0    0  0.38555132846E+02 -0.10685427222E+02  0.19659605688E+02  0.44577760369E+02  0.00000000000E+00 0.  1.
</event>
<event>
 7    1  0.3276565E-015  0.9000777E+02  0.7816164E-02  0.1186339E+00
        -11   -1    0    0    0    0  0.00000000000E+00  0.00000000000E+00  0.45593999997E+02  0.45594000000E+02  0.51100000000E-03 0.  1.
         11   -1    0    0    0    0 -0.00000000000E+00 -0.00000000000E+00 -0.45593999997E+02  0.45594000000E+02  0.51100000000E-03 0. -1.
    9900012    2    1    2    0    0 -0.31794431137E+00  0.11064866949E+01  0.25989380520E+00  0.90007768590E+02  0.90000030335E+02 0.  0.
         12    1    1    2    0    0  0.31794431137E+00 -0.11064866949E+01 -0.25989380520E+00  0.11802314100E+01  0.00000000000E+00 0. -1.
         11    1    3    3    0    0  0.27415390390E+02  0.19702692483E+02 -0.99763057348E+01  0.35204067914E+02  0.51100000000E-03 0. -1.
        -11    1    3    3    0    0  0.10388870430E+02 -0.40557167356E+01 -0.36020951232E+01  0.11719750705E+02  0.51100000000E-03 0.  1.
        -12    1    3    3    0    0 -0.38122205131E+02 -0.14540489052E+02  0.13838294663E+02  0.43083949971E+02  0.00000000000E+00 0.  1.
</event>
<event>
 7    1  0.3276565E-015  0.9000768E+02  0.7816164E-02  0.1186339E+00
        -11   -1    0    0    0    0  0.00000000000E+00  0.00000000000E+00  0.45593999997E+02  0.45594000000E+02  0.51100000000E-03 0.  1.
         11   -1    0    0    0    0 -0.00000000000E+00 -0.00000000000E+00 -0.45593999997E+02  0.45594000000E+02  0.51100000000E-03 0. -1.
    9900012    2    1    2    0    0 -0.10388722361E+01  0.43003309594E+00 -0.35912835942E+00  0.90007679211E+02  0.89999939777E+02 0.  0.
         12    1    1    2    0    0  0.10388722361E+01 -0.43003309594E+00  0.35912835942E+00  0.11803207891E+01  0.00000000000E+00 0. -1.
         11    1    3    3    0    0  0.55898635956E+01  0.11231360659E+01 -0.69123968250E+01  0.89604263162E+01  0.51100000000E-03 0. -1.
        -11    1    3    3    0    0  0.22968476225E+02  0.30181120263E+02  0.12180082647E+01  0.37946468410E+02  0.51100000000E-03 0.  1.
         12    1    3    3    0    0 -0.29597212057E+02 -0.30874223233E+02  0.53352602009E+01  0.43100784484E+02  0.00000000000E+00 0. -1.
</event>
<event>
 7    1  0.3276565E-015  0.9000775E+02  0.7816164E-02  0.1186339E+00
        -11   -1    0    0    0    0  0.00000000000E+00  0.00000000000E+00  0.45593999997E+02  0.45594000000E+02  0.51100000000E-03 0. -1.
         11   -1    0    0    0    0 -0.00000000000E+00 -0.00000000000E+00 -0.45593999997E+02  0.45594000000E+02  0.51100000000E-03 0.  1.
    9900012    2    1    2    0    0  0.78235982463E+00  0.25326332398E+00 -0.84661834176E+00  0.90007749254E+02  0.90000010744E+02 0.  0.
         12    1    1    2    0    0 -0.78235982463E+00 -0.25326332398E+00  0.84661834176E+00  0.11802507458E+01  0.00000000000E+00 0. -1.
         11    1    3    3    0    0 -0.59858181609E+01 -0.59328687429E+01  0.70477243989E+01  0.10986326503E+02  0.51100000000E-03 0. -1.
        -11    1    3    3    0    0 -0.20757159082E+02  0.33659778158E+02 -0.12312573105E+01  0.39564584083E+02  0.51100000000E-03 0.  1.
         12    1    3    3    0    0  0.27525337068E+02 -0.27473646091E+02 -0.66630854302E+01  0.39456838668E+02  0.00000000000E+00 0. -1.
</event>
<event>
 7    1  0.3276565E-015  0.9000775E+02  0.7816164E-02  0.1186339E+00
        -11   -1    0    0    0    0  0.00000000000E+00  0.00000000000E+00  0.45593999997E+02  0.45594000000E+02  0.51100000000E-03 0.  1.
         11   -1    0    0    0    0 -0.00000000000E+00 -0.00000000000E+00 -0.45593999997E+02  0.45594000000E+02  0.51100000000E-03 0. -1.
    9900012    2    1    2    0    0  0.90630718581E+00  0.50788364428E+00  0.56005550042E+00  0.90007745504E+02  0.90000006945E+02 0.  0.
         12    1    1    2    0    0 -0.90630718581E+00 -0.50788364428E+00 -0.56005550042E+00  0.11802544957E+01  0.00000000000E+00 0. -1.
         11    1    3    3    0    0  0.58914840179E+01  0.49417128730E+01 -0.59579985560E+01  0.97276850847E+01  0.51100000000E-03 0. -1.
        -11    1    3    3    0    0 -0.42378729289E+02 -0.11659750933E+01  0.16193453578E+01  0.42425681771E+02  0.51100000000E-03 0.  1.
         12    1    3    3    0    0  0.37393552457E+02 -0.32678541354E+01  0.48987086987E+01  0.37854378649E+02  0.00000000000E+00 0. -1.
</event>
<event>
 7    1  0.3276565E-015  0.9000772E+02  0.7816164E-02  0.1186339E+00
        -11   -1    0    0    0    0  0.00000000000E+00  0.00000000000E+00  0.45593999997E+02  0.45594000000E+02  0.51100000000E-03 0. -1.
         11   -1    0    0    0    0 -0.00000000000E+00 -0.00000000000E+00 -0.45593999997E+02  0.45594000000E+02  0.51100000000E-03 0.  1.
    9900012    2    1    2    0    0  0.97169099091E+00  0.46424954341E+00  0.48305633113E+00  0.90007722728E+02  0.89999983868E+02 0.  0.
         12    1    1    2    0    0 -0.97169099091E+00 -0.46424954341E+00 -0.48305633113E+00  0.11802772723E+01  0.00000000000E+00 0. -1.
         11    1    3    3    0    0 -0.11798466881E+02  0.28858335010E+02 -0.26760835316E+02  0.41087098064E+02  0.51100000000E-03 0. -1.
        -11    1    3    3    0    0 -0.47399491771E+01  0.88265976805E+00  0.90607516535E+01  0.10263694620E+02  0.51100000000E-03 0.  1.
        -12    1    3    3    0    0  0.17510107049E+02 -0.29276745234E+02  0.18183139993E+02  0.38656930044E+02  0.00000000000E+00 0.  1.
</event>
<event>
 7    1  0.3276565E-015  0.9000778E+02  0.7816164E-02  0.1186339E+00
        -11   -1    0    0    0    0  0.00000000000E+00  0.00000000000E+00  0.45593999997E+02  0.45594000000E+02  0.51100000000E-03 0.  1.
         11   -1    0    0    0    0 -0.00000000000E+00 -0.00000000000E+00 -0.45593999997E+02  0.45594000000E+02  0.51100000000E-03 0. -1.
    9900012    2    1    2    0    0 -0.59499724143E+00 -0.22357169505E+00  0.99444495503E+00  0.90007776806E+02  0.90000038659E+02 0.  0.
         12    1    1    2    0    0  0.59499724143E+00  0.22357169505E+00 -0.99444495503E+00  0.11802231945E+01  0.00000000000E+00 0. -1.
         11    1    3    3    0    0 -0.68131720163E+01  0.53171046584E+01 -0.21834556267E+01  0.89139437740E+01  0.51100000000E-03 0. -1.
        -11    1    3    3    0    0 -0.37163076838E+02 -0.64809950420E+00 -0.14217979310E+01  0.37195911370E+02  0.51100000000E-03 0.  1.
         12    1    3    3    0    0  0.43381251613E+02 -0.48925768493E+01  0.45996985127E+01  0.43897921661E+02  0.00000000000E+00 0. -1.
</event>
<event>
 7    1  0.3276565E-015  0.9000783E+02  0.7816164E-02  0.1186339E+00
        -11   -1    0    0    0    0  0.00000000000E+00  0.00000000000E+00  0.45593999997E+02  0.45594000000E+02  0.51100000000E-03 0. -1.
         11   -1    0    0    0    0 -0.00000000000E+00 -0.00000000000E+00 -0.45593999997E+02  0.45594000000E+02  0.51100000000E-03 0.  1.
    9900012    2    1    2    0    0  0.54062361620E+00  0.44209094007E+00  0.95136320504E+00  0.90007826182E+02  0.90000088687E+02 0.  0.
         12    1    1    2    0    0 -0.54062361620E+00 -0.44209094007E+00 -0.95136320504E+00  0.11801738184E+01  0.00000000000E+00 0. -1.
         11    1    3    3    0    0  0.37686491665E+01 -0.77090185759E+01 -0.19018628295E+01  0.87891277398E+01  0.51100000000E-03 0. -1.
        -11    1    3    3    0    0  0.13697355206E+02 -0.15130034052E+02 -0.30791850781E+02  0.36941488124E+02  0.51100000000E-03 0.  1.
         12    1    3    3    0    0 -0.16925380756E+02  0.23281143568E+02  0.33645076816E+02  0.44277210317E+02  0.00000000000E+00 0. -1.
</event>
<event>
 7    1  0.3276565E-015  0.9000778E+02  0.7816164E-02  0.1186339E+00
        -11   -1    0    0    0    0  0.00000000000E+00  0.00000000000E+00  0.45593999997E+02  0.45594000000E+02  0.51100000000E-03 0. -1.
         11   -1    0    0    0    0 -0.00000000000E+00 -0.00000000000E+00 -0.45593999997E+02  0.45594000000E+02  0.51100000000E-03 0.  1.
    9900012    2    1    2    0    0 -0.10100061197E+01 -0.60579095543E+00  0.76296830452E-01  0.90007781270E+02  0.90000043183E+02 0.  0.
         12    1    1    2    0    0  0.10100061197E+01  0.60579095543E+00 -0.76296830452E-01  0.11802187297E+01  0.00000000000E+00 0. -1.
         11    1    3    3    0    0 -0.68461200558E+01  0.21330034943E+01  0.68233949640E+01  0.98983727360E+01  0.51100000000E-03 0. -1.
        -11    1    3    3    0    0 -0.17748514039E+02 -0.34033750754E+02 -0.12791859470E+02  0.40459085629E+02  0.51100000000E-03 0.  1.
         12    1    3    3    0    0  0.23584627975E+02  0.31294956304E+02  0.60447613368E+01  0.39650322905E+02  0.00000000000E+00 0. -1.
</event>
<event>
 7    1  0.3276565E-015  0.9000793E+02  0.7816164E-02  0.1186339E+00
        -11   -1    0    0    0    0  0.00000000000E+00  0.00000000000E+00  0.45593999997E+02  0.45594000000E+02  0.51100000000E-03 0.  1.
         11   -1    0    0    0    0 -0.00000000000E+00 -0.00000000000E+00 -0.45593999997E+02  0.45594000000E+02  0.51100000000E-03 0. -1.
    9900012    2    1    2    0    0  0.98135413746E+00 -0.52226200114E+00  0.39591363701E+00  0.90007931719E+02  0.90000195617E+02 0.  0.
         12    1    1    2    0    0 -0.98135413746E+00  0.52226200114E+00 -0.39591363701E+00  0.11800682815E+01  0.00000000000E+00 0. -1.
         11    1    3    3    0    0  0.23264729816E+02 -0.15817692705E+02 -0.22351708120E+02  0.35931127342E+02  0.51100000000E-03 0. -1.
        -11    1    3    3    0    0  0.17308067488E+01 -0.20640176997E+01 -0.97399231428E+01  0.10105541260E+02  0.51100000000E-03 0.  1.
        -12    1    3    3    0    0 -0.24014182427E+02  0.17359448403E+02  0.32487544899E+02  0.43971263117E+02  0.00000000000E+00 0.  1.
</event>
<event>
 7    1  0.3276565E-015  0.9000811E+02  0.7816164E-02  0.1186338E+00
        -11   -1    0    0    0    0  0.00000000000E+00  0.00000000000E+00  0.45593999997E+02  0.45594000000E+02  0.51100000000E-03 0. -1.
         11   -1    0    0    0    0 -0.00000000000E+00 -0.00000000000E+00 -0.45593999997E+02  0.45594000000E+02  0.51100000000E-03 0.  1.
    9900012    2    1    2    0    0  0.27803333422E+00  0.11378925244E+01 -0.14157607923E+00  0.90008107751E+02  0.90000373973E+02 0.  0.
         12    1    1    2    0    0 -0.27803333422E+00 -0.11378925244E+01  0.14157607923E+00  0.11798922486E+01  0.00000000000E+00 0. -1.
         11    1    3    3    0    0  0.14214752739E+01  0.10293246974E+02  0.45766614480E+01  0.11354177887E+02  0.51100000000E-03 0. -1.
        -11    1    3    3    0    0  0.33133310219E+02 -0.10943081896E+02 -0.20935427372E+02  0.40692252419E+02  0.51100000000E-03 0.  1.
         12    1    3    3    0    0 -0.34276752159E+02  0.17877274469E+01  0.16217189845E+02  0.37961677445E+02  0.00000000000E+00 0. -1.
</event>
<event>
 7    1  0.3276565E-015  0.9000772E+02  0.7816164E-02  0.1186339E+00
        -11   -1    0    0    0    0  0.00000000000E+00  0.00000000000E+00  0.45593999997E+02  0.45594000000E+02  0.51100000000E-03 0. -1.
         11   -1    0    0    0    0 -0.00000000000E+00 -0.00000000000E+00 -0.45593999997E+02  0.45594000000E+02  0.51100000000E-03 0.  1.
    9900012    2    1    2    0    0  0.12544484100E+00  0.90195619035E+00 -0.75086875924E+00  0.90007718139E+02  0.89999979219E+02 0.  0.
         12    1    1    2    0    0 -0.12544484100E+00 -0.90195619035E+00  0.75086875924E+00  0.11802818608E+01  0.00000000000E+00 0. -1.
         11    1    3    3    0    0 -0.31038885889E+01 -0.39657859843E+01  0.38892038274E+02  0.39216733981E+02  0.51100000000E-03 0. -1.
        -11    1    3    3    0    0 -0.90853684679E+00  0.71851807992E+01  0.30333778502E+01  0.78519834286E+01  0.51100000000E-03 0.  1.
        -12    1    3    3    0    0  0.41378702767E+01 -0.23174386246E+01 -0.42676284883E+02  0.42939000729E+02  0.00000000000E+00 0.  1.
</event>
<event>
 7    1  0.3276565E-015  0.9000773E+02  0.7816164E-02  0.1186339E+00
        -11   -1    0    0    0    0  0.00000000000E+00  0.00000000000E+00  0.45593999997E+02  0.45594000000E+02  0.51100000000E-03 0.  1.
         11   -1    0    0    0    0 -0.00000000000E+00 -0.00000000000E+00 -0.45593999997E+02  0.45594000000E+02  0.51100000000E-03 0. -1.
    9900012    2    1    2    0    0  0.25591150081E+00 -0.11374576629E-01  0.11521378901E+01  0.90007728084E+02  0.89999989295E+02 0.  0.
         12    1    1    2    0    0 -0.25591150081E+00  0.11374576629E-01 -0.11521378901E+01  0.11802719157E+01  0.00000000000E+00 0. -1.
         11    1    3    3    0    0 -0.12672919581E+02 -0.36072645388E+02 -0.15135317231E+02  0.41120754662E+02  0.51100000000E-03 0. -1.
        -11    1    3    3    0    0  0.37573370483E+01  0.56793961225E+01 -0.68138603753E+01  0.96333698926E+01  0.51100000000E-03 0.  1.
        -12    1    3    3    0    0  0.91714940337E+01  0.30381874689E+02  0.23101315496E+02  0.39253603530E+02  0.00000000000E+00 0.  1.
</event>
<event>
 7    1  0.3276565E-015  0.9000727E+02  0.7816164E-02  0.1186340E+00
        -11   -1    0    0    0    0  0.00000000000E+00  0.00000000000E+00  0.45593999997E+02  0.45594000000E+02  0.51100000000E-03 0.  1.
         11   -1    0    0    0    0 -0.00000000000E+00 -0.00000000000E+00 -0.45593999997E+02  0.45594000000E+02  0.51100000000E-03 0. -1.
    9900012    2    1    2    0    0 -0.22225227332E+00  0.27114860786E+00  0.11274753329E+01  0.90007272145E+02  0.89999527336E+02 0.  0.
         12    1    1    2    0    0  0.22225227332E+00 -0.27114860786E+00 -0.11274753329E+01  0.11807278547E+01  0.00000000000E+00 0. -1.
         11    1    3    3    0    0 -0.23675859161E+01 -0.16555935174E+01 -0.96504859546E+01  0.10073645437E+02  0.51100000000E-03 0. -1.
        -11    1    3    3    0    0 -0.10368103039E+02  0.34574353481E+02 -0.12192965914E+02  0.38099237490E+02  0.51100000000E-03 0.  1.
         12    1    3    3    0    0  0.12513436681E+02 -0.32647611356E+02  0.22970927202E+02  0.41834389219E+02  0.00000000000E+00 0. -1.
</event>
<event>
 7    1  0.3276565E-015  0.9000782E+02  0.7816164E-02  0.1186339E+00
        -11   -1    0    0    0    0  0.00000000000E+00  0.00000000000E+00  0.45593999997E+02  0.45594000000E+02  0.51100000000E-03 0.  1.
         11   -1    0    0    0    0 -0.00000000000E+00 -0.00000000000E+00 -0.45593999997E+02  0.45594000000E+02  0.51100000000E-03 0. -1.
    9900012    2    1    2    0    0 -0.28102273909E+00 -0.27815234837E+00  0.11119772763E+01  0.90007815281E+02  0.90000077642E+02 0.  0.
         12    1    1    2    0    0  0.28102273909E+00  0.27815234837E+00 -0.11119772763E+01  0.11801847193E+01  0.00000000000E+00 0. -1.
         11    1    3    3    0    0  0.26736231756E+02  0.25329268187E+02 -0.33898979569E+01  0.36984987817E+02  0.51100000000E-03 0. -1.
        -11    1    3    3    0    0  0.21825722184E+01  0.42215186908E+01 -0.81250256944E+01  0.94128042762E+01  0.51100000000E-03 0.  1.
        -12    1    3    3    0    0 -0.29199826713E+02 -0.29828939226E+02  0.12626900928E+02  0.43610023188E+02  0.00000000000E+00 0.  1.
</event>
<event>
 7    1  0.3276565E-015  0.9000785E+02  0.7816164E-02  0.1186339E+00
        -11   -1    0    0    0    0  0.00000000000E+00  0.00000000000E+00  0.45593999997E+02  0.45594000000E+02  0.51100000000E-03 0.  1.
         11   -1    0    0    0    0 -0.00000000000E+00 -0.00000000000E+00 -0.45593999997E+02  0.45594000000E+02  0.51100000000E-03 0. -1.
    9900012    2    1    2    0    0  0.54321513854E+00  0.55512430399E+00  0.88853868852E+00  0.90007853111E+02  0.90000115972E+02 0.  0.
         12    1    1    2    0    0 -0.54321513854E+00 -0.55512430399E+00 -0.88853868852E+00  0.11801468894E+01  0.00000000000E+00 0. -1.
         11    1    3    3    0    0 -0.20274450734E+01 -0.95313337891E+01  0.21570928094E+02  0.23669849946E+02  0.51100000000E-03 0.  1.
        -11    1    3    3    0    0  0.75494829817E+01  0.28001118400E+02 -0.33078204933E+02  0.43991191923E+02  0.51100000000E-03 0. -1.
         12    1    3    3    0    0 -0.49788227698E+01 -0.17914660307E+02  0.12395815527E+02  0.22346811242E+02  0.00000000000E+00 0. -1.
</event>
<event>
 7    1  0.3276565E-015  0.9000759E+02  0.7816164E-02  0.1186339E+00
        -11   -1    0    0    0    0  0.00000000000E+00  0.00000000000E+00  0.45593999997E+02  0.45594000000E+02  0.51100000000E-03 0. -1.
         11   -1    0    0    0    0 -0.00000000000E+00 -0.00000000000E+00 -0.45593999997E+02  0.45594000000E+02  0.51100000000E-03 0.  1.
    9900012    2    1    2    0    0 -0.19631768958E+00  0.67401815060E+00 -0.94895793782E+00  0.90007592329E+02  0.89999851747E+02 0.  0.
         12    1    1    2    0    0  0.19631768958E+00 -0.67401815060E+00  0.94895793782E+00  0.11804076712E+01  0.00000000000E+00 0. -1.
         11    1    3    3    0    0 -0.10654613995E+01 -0.92953839447E+00  0.10003520086E+02  0.10102953231E+02  0.51100000000E-03 0. -1.
        -11    1    3    3    0    0 -0.21263066654E+02  0.77866350902E+01 -0.38109831204E+02  0.44329549109E+02  0.51100000000E-03 0.  1.
         12    1    3    3    0    0  0.22132210364E+02 -0.61830785452E+01  0.27157353180E+02  0.35575089988E+02  0.00000000000E+00 0. -1.
</event>
<event>
 7    1  0.3276565E-015  0.9000701E+02  0.7816164E-02  0.1186340E+00
        -11   -1    0    0    0    0  0.00000000000E+00  0.00000000000E+00  0.45593999997E+02  0.45594000000E+02  0.51100000000E-03 0. -1.
         11   -1    0    0    0    0 -0.00000000000E+00 -0.00000000000E+00 -0.45593999997E+02  0.45594000000E+02  0.51100000000E-03 0.  1.
    9900012    2    1    2    0    0  0.42330331526E+00  0.95693948835E+00 -0.54755013521E+00  0.90007013111E+02  0.89999264881E+02 0.  0.
         12    1    1    2    0    0 -0.42330331526E+00 -0.95693948835E+00  0.54755013521E+00  0.11809868889E+01  0.00000000000E+00 0. -1.
         11    1    3    3    0    0  0.13876254286E+02 -0.38604035123E+02  0.35596324114E+00  0.41023757396E+02  0.51100000000E-03 0. -1.
        -11    1    3    3    0    0 -0.35355642860E+01  0.71654732283E-01 -0.69723227353E+01  0.78178407381E+01  0.51100000000E-03 0.  1.
        -12    1    3    3    0    0 -0.99173866851E+01  0.39489319879E+02  0.60688093589E+01  0.41165414977E+02  0.00000000000E+00 0.  1.
</event>
<event>
 7    1  0.3276565E-015  0.9000768E+02  0.7816164E-02  0.1186339E+00
        -11   -1    0    0    0    0  0.00000000000E+00  0.00000000000E+00  0.45593999997E+02  0.45594000000E+02  0.51100000000E-03 0. -1.
         11   -1    0    0    0    0 -0.00000000000E+00 -0.00000000000E+00 -0.45593999997E+02  0.45594000000E+02  0.51100000000E-03 0.  1.
    9900012    2    1    2    0    0  0.77355392944E+00 -0.80171921281E+00 -0.38987723021E+00  0.90007684944E+02  0.89999945585E+02 0.  0.
         12    1    1    2    0    0 -0.77355392944E+00  0.80171921281E+00  0.38987723021E+00  0.11803150565E+01  0.00000000000E+00 0. -1.
         11    1    3    3    0    0 -0.25410051834E+01  0.32317602250E+02  0.16906262748E+02  0.36560987991E+02  0.51100000000E-03 0. -1.
        -11    1    3    3    0    0 -0.65640430360E+01  0.65461729444E+01 -0.59814869403E+01  0.11032553080E+02  0.51100000000E-03 0.  1.
        -12    1    3    3    0    0  0.98786021488E+01 -0.39665494407E+02 -0.11314653038E+02  0.42414143872E+02  0.00000000000E+00 0.  1.
</event>
<event>
 7    1  0.3276565E-015  0.9000788E+02  0.7816164E-02  0.1186339E+00
        -11   -1    0    0    0    0  0.00000000000E+00  0.00000000000E+00  0.45593999997E+02  0.45594000000E+02  0.51100000000E-03 0.  1.
         11   -1    0    0    0    0 -0.00000000000E+00 -0.00000000000E+00 -0.45593999997E+02  0.45594000000E+02  0.51100000000E-03 0. -1.
    9900012    2    1    2    0    0 -0.45048648645E+00  0.10858849410E+01  0.10292516494E+00  0.90007882307E+02  0.90000145553E+02 0.  0.
         12    1    1    2    0    0  0.45048648645E+00 -0.10858849410E+01 -0.10292516494E+00  0.11801176929E+01  0.00000000000E+00 0. -1.
         11    1    3    3    0    0 -0.16193035196E+02  0.37058233411E+02 -0.46937788633E+01  0.40713125803E+02  0.51100000000E-03 0. -1.
        -11    1    3    3    0    0  0.22223021801E+01  0.81351232310E+00  0.95288406606E+01  0.98183111519E+01  0.51100000000E-03 0.  1.
        -12    1    3    3    0    0  0.13520246530E+02 -0.36785860793E+02 -0.47321366324E+01  0.39476445352E+02  0.00000000000E+00 0.  1.
</event>
<event>
 7    1  0.3276565E-015  0.9000823E+02  0.7816164E-02  0.1186338E+00
        -11   -1    0    0    0    0  0.00000000000E+00  0.00000000000E+00  0.45593999997E+02  0.45594000000E+02  0.51100000000E-03 0.  1.
         11   -1    0    0    0    0 -0.00000000000E+00 -0.00000000000E+00 -0.45593999997E+02  0.45594000000E+02  0.51100000000E-03 0. -1.
    9900012    2    1    2    0    0 -0.95093629442E+00 -0.41800940163E+00  0.55933644653E+00  0.90008225040E+02  0.90000492809E+02 0.  0.
         12    1    1    2    0    0  0.95093629442E+00  0.41800940163E+00 -0.55933644653E+00  0.11797749600E+01  0.00000000000E+00 0. -1.
         11    1    3    3    0    0 -0.10537572381E+02 -0.57523354558E+01  0.61255904785E+01  0.13477857910E+02  0.51100000000E-03 0. -1.
        -11    1    3    3    0    0  0.11139513083E+00 -0.14196602149E+02  0.30948919629E+02  0.34049839177E+02  0.51100000000E-03 0.  1.
         12    1    3    3    0    0  0.94752409557E+01  0.19530928203E+02 -0.36515173661E+02  0.42480527953E+02  0.00000000000E+00 0. -1.
</event>
<event>
 7    1  0.3793801E-015  0.9000781E+02  0.7816164E-02  0.1186339E+00
        -11   -1    0    0    0    0  0.00000000000E+00  0.00000000000E+00  0.45593999997E+02  0.45594000000E+02  0.51100000000E-03 0.  1.
         11   -1    0    0    0    0 -0.00000000000E+00 -0.00000000000E+00 -0.45593999997E+02  0.45594000000E+02  0.51100000000E-03 0. -1.
    9900012    2    1    2    0    0 -0.18782770415E+00  0.86127611227E+00  0.78470523310E+00  0.90007814383E+02  0.90000076733E+02 0.  0.
         12    1    1    2    0    0  0.18782770415E+00 -0.86127611227E+00 -0.78470523310E+00  0.11801856171E+01  0.00000000000E+00 0. -1.
         11    1    3    3    0    0  0.82519232496E+01  0.45463066477E+01 -0.18422284562E+01  0.95998410090E+01  0.51100000000E-03 0. -1.
        -11    1    3    3    0    0  0.40520516666E+01  0.24133524356E+02  0.30493521545E+02  0.39098605820E+02  0.51100000000E-03 0.  1.
         12    1    3    3    0    0 -0.12491802620E+02 -0.27818554892E+02 -0.27866587856E+02  0.41309367554E+02  0.00000000000E+00 0. -1.
</event>
<event>
 7    1  0.3276565E-015  0.9000735E+02  0.7816164E-02  0.1186340E+00
        -11   -1    0    0    0    0  0.00000000000E+00  0.00000000000E+00  0.45593999997E+02  0.45594000000E+02  0.51100000000E-03 0.  1.
         11   -1    0    0    0    0 -0.00000000000E+00 -0.00000000000E+00 -0.45593999997E+02  0.45594000000E+02  0.51100000000E-03 0. -1.
    9900012    2    1    2    0    0  0.90344329638E-01  0.11746950187E+01 -0.76627651049E-01  0.90007346672E+02  0.89999602847E+02 0.  0.
         12    1    1    2    0    0 -0.90344329638E-01 -0.11746950187E+01  0.76627651049E-01  0.11806533283E+01  0.00000000000E+00 0. -1.
         11    1    3    3    0    0 -0.10761225277E+02  0.59243197561E+01  0.39264690677E+00  0.12290472159E+02  0.51100000000E-03 0. -1.
        -11    1    3    3    0    0 -0.17407683235E+02  0.20755056290E+02 -0.21175384312E+02  0.34383087387E+02  0.51100000000E-03 0.  1.
         12    1    3    3    0    0  0.28259252842E+02 -0.25504681028E+02  0.20706109754E+02  0.43333787126E+02  0.00000000000E+00 0. -1.
</event>
<event>
 7    1  0.3276565E-015  0.9000774E+02  0.7816164E-02  0.1186339E+00
        -11   -1    0    0    0    0  0.00000000000E+00  0.00000000000E+00  0.45593999997E+02  0.45594000000E+02  0.51100000000E-03 0.  1.
         11   -1    0    0    0    0 -0.00000000000E+00 -0.00000000000E+00 -0.45593999997E+02  0.45594000000E+02  0.51100000000E-03 0. -1.
    9900012    2    1    2    0    0 -0.31957299293E+00 -0.10808944190E+01 -0.35006890517E+00  0.90007742451E+02  0.90000003852E+02 0.  0.
         12    1    1    2    0    0  0.31957299293E+00  0.10808944190E+01  0.35006890517E+00  0.11802575487E+01  0.00000000000E+00 0. -1.
         11    1    3    3    0    0 -0.51170261623E+01  0.10569573442E+01  0.10781266743E+02  0.11980685641E+02  0.51100000000E-03 0. -1.
        -11    1    3    3    0    0 -0.16577085499E+01  0.15432908902E+02  0.29475929550E+02  0.33312956908E+02  0.51100000000E-03 0.  1.
         12    1    3    3    0    0  0.64551617193E+01 -0.17570760665E+02 -0.40607265199E+02  0.44714099903E+02  0.00000000000E+00 0. -1.
</event>
<event>
 7    1  0.3276565E-015  0.9000771E+02  0.7816164E-02  0.1186339E+00
        -11   -1    0    0    0    0  0.00000000000E+00  0.00000000000E+00  0.45593999997E+02  0.45594000000E+02  0.51100000000E-03 0.  1.
         11   -1    0    0    0    0 -0.00000000000E+00 -0.00000000000E+00 -0.45593999997E+02  0.45594000000E+02  0.51100000000E-03 0. -1.
    9900012    2    1    2    0    0 -0.51750199202E+00 -0.10555679894E+01 -0.10509549455E+00  0.90007713105E+02  0.89999974118E+02 0.  0.
         12    1    1    2    0    0  0.51750199202E+00  0.10555679894E+01  0.10509549455E+00  0.11802868952E+01  0.00000000000E+00 0. -1.
         11    1    3    3    0    0  0.16616213001E+02 -0.86236804567E+01 -0.34406129871E+02  0.39169480110E+02  0.51100000000E-03 0. -1.
        -11    1    3    3    0    0 -0.10613298120E+02  0.57773989957E+00 -0.40041820989E+01  0.11358228511E+02  0.51100000000E-03 0.  1.
        -12    1    3    3    0    0 -0.65204168729E+01  0.69903725677E+01  0.38305216475E+02  0.39480004484E+02  0.00000000000E+00 0.  1.
</event>
<event>
 7    1  0.3276565E-015  0.9000777E+02  0.7816164E-02  0.1186339E+00
        -11   -1    0    0    0    0  0.00000000000E+00  0.00000000000E+00  0.45593999997E+02  0.45594000000E+02  0.51100000000E-03 0.  1.
         11   -1    0    0    0    0 -0.00000000000E+00 -0.00000000000E+00 -0.45593999997E+02  0.45594000000E+02  0.51100000000E-03 0. -1.
    9900012    2    1    2    0    0  0.60977535328E+00  0.97823245272E+00 -0.25333690829E+00  0.90007769386E+02  0.90000031142E+02 0.  0.
         12    1    1    2    0    0 -0.60977535328E+00 -0.97823245272E+00  0.25333690829E+00  0.11802306140E+01  0.00000000000E+00 0. -1.
         11    1    3    3    0    0  0.25841777649E+00  0.15860037401E+02  0.41383779414E+01  0.16393100328E+02  0.51100000000E-03 0. -1.
        -11    1    3    3    0    0 -0.29783721218E+02 -0.12517130001E+00  0.16538602401E+02  0.34067742618E+02  0.51100000000E-03 0.  1.
         12    1    3    3    0    0  0.30135078795E+02 -0.14756633649E+02 -0.20930317251E+02  0.39546926440E+02  0.00000000000E+00 0. -1.
</event>
<event>
 7    1  0.3276565E-015  0.9000801E+02  0.7816164E-02  0.1186339E+00
        -11   -1    0    0    0    0  0.00000000000E+00  0.00000000000E+00  0.45593999997E+02  0.45594000000E+02  0.51100000000E-03 0.  1.
         11   -1    0    0    0    0 -0.00000000000E+00 -0.00000000000E+00 -0.45593999997E+02  0.45594000000E+02  0.51100000000E-03 0. -1.
    9900012    2    1    2    0    0 -0.11068369862E+01  0.31186562658E+00  0.26462327746E+00  0.90008011118E+02  0.90000276064E+02 0.  0.
         12    1    1    2    0    0  0.11068369862E+01 -0.31186562658E+00 -0.26462327746E+00  0.11799888821E+01  0.00000000000E+00 0. -1.
         11    1    3    3    0    0 -0.65541030491E+01  0.22368000875E+02 -0.35277744621E+02  0.42282419464E+02  0.51100000000E-03 0. -1.
        -11    1    3    3    0    0  0.20345467869E+00  0.42025525317E+01  0.94208031252E+01  0.10317672866E+02  0.51100000000E-03 0.  1.
        -12    1    3    3    0    0  0.52438113842E+01 -0.26258687780E+02  0.26121564774E+02  0.37407918787E+02  0.00000000000E+00 0.  1.
</event>
<event>
 7    1  0.3276565E-015  0.9000780E+02  0.7816164E-02  0.1186339E+00
        -11   -1    0    0    0    0  0.00000000000E+00  0.00000000000E+00  0.45593999997E+02  0.45594000000E+02  0.51100000000E-03 0. -1.
         11   -1    0    0    0    0 -0.00000000000E+00 -0.00000000000E+00 -0.45593999997E+02  0.45594000000E+02  0.51100000000E-03 0.  1.
    9900012    2    1    2    0    0  0.11085675985E+01 -0.32246337700E-01 -0.40361687133E+00  0.90007801489E+02  0.90000063669E+02 0.  0.
         12    1    1    2    0    0 -0.11085675985E+01  0.32246337700E-01  0.40361687133E+00  0.11801985111E+01  0.00000000000E+00 0. -1.
         11    1    3    3    0    0  0.53727507502E+01 -0.35361254126E+02  0.14677457072E+02  0.38661511744E+02  0.51100000000E-03 0. -1.
        -11    1    3    3    0    0 -0.53028575111E+01  0.13569156756E+01  0.84070574717E+01  0.10031955618E+02  0.51100000000E-03 0.  1.
        -12    1    3    3    0    0  0.10386743593E+01  0.33972092113E+02 -0.23488131415E+02  0.41314334126E+02  0.00000000000E+00 0.  1.
</event>
<event>
 7    1  0.3276565E-015  0.9000778E+02  0.7816164E-02  0.1186339E+00
        -11   -1    0    0    0    0  0.00000000000E+00  0.00000000000E+00  0.45593999997E+02  0.45594000000E+02  0.51100000000E-03 0.  1.
         11   -1    0    0    0    0 -0.00000000000E+00 -0.00000000000E+00 -0.45593999997E+02  0.45594000000E+02  0.51100000000E-03 0. -1.
    9900012    2    1    2    0    0 -0.58015127384E-01  0.73861719590E+00  0.91869473513E+00  0.90007779201E+02  0.90000041087E+02 0.  0.
         12    1    1    2    0    0  0.58015127384E-01 -0.73861719590E+00 -0.91869473513E+00  0.11802207986E+01  0.00000000000E+00 0. -1.
         11    1    3    3    0    0 -0.34607438422E+01 -0.69914405292E+01 -0.53087678850E+01  0.94361011723E+01  0.51100000000E-03 0. -1.
        -11    1    3    3    0    0 -0.36366277182E+02  0.14290431340E+02 -0.31129378873E+01  0.39197103547E+02  0.51100000000E-03 0.  1.
         12    1    3    3    0    0  0.39769005896E+02 -0.65603736146E+01  0.93404005075E+01  0.41374574482E+02  0.00000000000E+00 0. -1.
</event>
<event>
 7    1  0.3276565E-015  0.9000780E+02  0.7816164E-02  0.1186339E+00
        -11   -1    0    0    0    0  0.00000000000E+00  0.00000000000E+00  0.45593999997E+02  0.45594000000E+02  0.51100000000E-03 0.  1.
         11   -1    0    0    0    0 -0.00000000000E+00 -0.00000000000E+00 -0.45593999997E+02  0.45594000000E+02  0.51100000000E-03 0. -1.
    9900012    2    1    2    0    0 -0.19989267066E+00 -0.59622744874E+00  0.99871100911E+00  0.90007801741E+02  0.90000063924E+02 0.  0.
         12    1    1    2    0    0  0.19989267066E+00  0.59622744874E+00 -0.99871100911E+00  0.11801982588E+01  0.00000000000E+00 0. -1.
         11    1    3    3    0    0 -0.26493974807E+02 -0.16875555756E+01 -0.11613780491E+02  0.28976860466E+02  0.51100000000E-03 0. -1.
        -11    1    3    3    0    0 -0.11624473402E+02 -0.13680760405E+02 -0.13618130731E+01  0.18004058493E+02  0.51100000000E-03 0.  1.
         12    1    3    3    0    0  0.37918555538E+02  0.14772088532E+02  0.13974304573E+02  0.43026882782E+02  0.00000000000E+00 0. -1.
</event>
<event>
 7    1  0.3276565E-015  0.9000778E+02  0.7816164E-02  0.1186339E+00
        -11   -1    0    0    0    0  0.00000000000E+00  0.00000000000E+00  0.45593999997E+02  0.45594000000E+02  0.51100000000E-03 0.  1.
         11   -1    0    0    0    0 -0.00000000000E+00 -0.00000000000E+00 -0.45593999997E+02  0.45594000000E+02  0.51100000000E-03 0. -1.
    9900012    2    1    2    0    0  0.62417872027E+00  0.48460032793E+00  0.87662861752E+00  0.90007782102E+02  0.90000044026E+02 0.  0.
         12    1    1    2    0    0 -0.62417872027E+00 -0.48460032793E+00 -0.87662861752E+00  0.11802178976E+01  0.00000000000E+00 0. -1.
         11    1    3    3    0    0 -0.44091571017E+01 -0.73090705988E+00 -0.72577617995E+00  0.45278739825E+01  0.51100000000E-03 0. -1.
        -11    1    3    3    0    0  0.11964910699E+02 -0.15613961494E+02  0.39116150002E+02  0.43783879143E+02  0.51100000000E-03 0.  1.
         12    1    3    3    0    0 -0.69315748768E+01  0.16829468882E+02 -0.37513745205E+02  0.41696028977E+02  0.00000000000E+00 0. -1.
</event>
<event>
 7    1  0.3276565E-015  0.9000788E+02  0.7816164E-02  0.1186339E+00
        -11   -1    0    0    0    0  0.00000000000E+00  0.00000000000E+00  0.45593999997E+02  0.45594000000E+02  0.51100000000E-03 0. -1.
         11   -1    0    0    0    0 -0.00000000000E+00 -0.00000000000E+00 -0.45593999997E+02  0.45594000000E+02  0.51100000000E-03 0.  1.
    9900012    2    1    2    0    0  0.66310916423E+00 -0.77505026411E+00  0.59352113091E+00  0.90007879664E+02  0.90000142875E+02 0.  0.
         12    1    1    2    0    0 -0.66310916423E+00  0.77505026411E+00 -0.59352113091E+00  0.11801203364E+01  0.00000000000E+00 0. -1.
         11    1    3    3    0    0 -0.37062622468E+02  0.14762167660E+02 -0.43378429904E+01  0.40129496138E+02  0.51100000000E-03 0. -1.
        -11    1    3    3    0    0  0.52427070474E+00 -0.59667612943E+01 -0.74133346290E+01  0.95307203661E+01  0.51100000000E-03 0.  1.
        -12    1    3    3    0    0  0.37201460927E+02 -0.95704566302E+01  0.12344698750E+02  0.40347663160E+02  0.00000000000E+00 0.  1.
</event>
<event>
 7    1  0.3276565E-015  0.9000770E+02  0.7816164E-02  0.1186339E+00
        -11   -1    0    0    0    0  0.00000000000E+00  0.00000000000E+00  0.45593999997E+02  0.45594000000E+02  0.51100000000E-03 0. -1.
         11   -1    0    0    0    0 -0.00000000000E+00 -0.00000000000E+00 -0.45593999997E+02  0.45594000000E+02  0.51100000000E-03 0.  1.
    9900012    2    1    2    0    0 -0.34244472324E+00 -0.10175938882E+01 -0.49025763828E+00  0.90007695691E+02  0.89999956474E+02 0.  0.
         12    1    1    2    0    0  0.34244472324E+00  0.10175938882E+01  0.49025763828E+00  0.11803043090E+01  0.00000000000E+00 0. -1.
         11    1    3    3    0    0 -0.11485914719E+01 -0.11259163739E+02  0.10372282075E+01  0.11365028512E+02  0.51100000000E-03 0. -1.
        -11    1    3    3    0    0 -0.34648168179E+02  0.17610697087E+02 -0.12461821536E+02  0.40815796039E+02  0.51100000000E-03 0.  1.
         12    1    3    3    0    0  0.35454314928E+02 -0.73691272364E+01  0.10934335690E+02  0.37826871140E+02  0.00000000000E+00 0. -1.
</event>
<event>
 7    1  0.3276565E-015  0.9000782E+02  0.7816164E-02  0.1186339E+00
        -11   -1    0    0    0    0  0.00000000000E+00  0.00000000000E+00  0.45593999997E+02  0.45594000000E+02  0.51100000000E-03 0.  1.
         11   -1    0    0    0    0 -0.00000000000E+00 -0.00000000000E+00 -0.45593999997E+02  0.45594000000E+02  0.51100000000E-03 0. -1.
    9900012    2    1    2    0    0 -0.33061864558E+00 -0.33563898767E+00  0.10820638024E+01  0.90007820229E+02  0.90000082656E+02 0.  0.
         12    1    1    2    0    0  0.33061864558E+00  0.33563898767E+00 -0.10820638024E+01  0.11801797707E+01  0.00000000000E+00 0. -1.
         11    1    3    3    0    0  0.96239711042E+01 -0.11241366321E+01  0.28347584377E+01  0.10095561334E+02  0.51100000000E-03 0. -1.
        -11    1    3    3    0    0  0.20124836636E+02  0.26704584946E+02  0.15211356877E+02  0.36735939964E+02  0.51100000000E-03 0.  1.
         12    1    3    3    0    0 -0.30079426386E+02 -0.25916087302E+02 -0.16964051513E+02  0.43176318931E+02  0.00000000000E+00 0. -1.
</event>
<event>
 7    1  0.3276565E-015  0.9000771E+02  0.7816164E-02  0.1186339E+00
        -11   -1    0    0    0    0  0.00000000000E+00  0.00000000000E+00  0.45593999997E+02  0.45594000000E+02  0.51100000000E-03 0.  1.
         11   -1    0    0    0    0 -0.00000000000E+00 -0.00000000000E+00 -0.45593999997E+02  0.45594000000E+02  0.51100000000E-03 0. -1.
    9900012    2    1    2    0    0 -0.10802368714E+01 -0.94210115717E-02  0.47547218551E+00  0.90007714334E+02  0.89999975363E+02 0.  0.
         12    1    1    2    0    0  0.10802368714E+01  0.94210115717E-02 -0.47547218551E+00  0.11802856658E+01  0.00000000000E+00 0. -1.
         11    1    3    3    0    0  0.25087292507E+02  0.96195772775E+00 -0.19251088553E+02  0.31637035555E+02  0.51100000000E-03 0. -1.
        -11    1    3    3    0    0 -0.80283982110E+01 -0.55076385180E+01 -0.15607048513E+02  0.18394815123E+02  0.51100000000E-03 0.  1.
        -12    1    3    3    0    0 -0.18139131167E+02  0.45362597787E+01  0.35333609251E+02  0.39975863655E+02  0.00000000000E+00 0.  1.
</event>
<event>
 7    1  0.3276565E-015  0.9000666E+02  0.7816164E-02  0.1186341E+00
        -11   -1    0    0    0    0  0.00000000000E+00  0.00000000000E+00  0.45593999997E+02  0.45594000000E+02  0.51100000000E-03 0.  1.
         11   -1    0    0    0    0 -0.00000000000E+00 -0.00000000000E+00 -0.45593999997E+02  0.45594000000E+02  0.51100000000E-03 0. -1.
    9900012    2    1    2    0    0  0.23739633172E+00  0.88962401936E+00  0.74012076460E+00  0.90006658957E+02  0.89998906048E+02 0.  0.
         12    1    1    2    0    0 -0.23739633172E+00 -0.88962401936E+00 -0.74012076460E+00  0.11813410432E+01  0.00000000000E+00 0. -1.
         11    1    3    3    0    0  0.39384655363E+02 -0.80536617330E+01 -0.87655616934E+01  0.41144229455E+02  0.51100000000E-03 0. -1.
        -11    1    3    3    0    0 -0.39223417321E+01  0.11936381259E+02  0.19983747600E+01  0.12722242890E+02  0.51100000000E-03 0.  1.
        -12    1    3    3    0    0 -0.35224917299E+02 -0.29930955063E+01  0.75073076980E+01  0.36140186612E+02  0.00000000000E+00 0.  1.
</event>
<event>
 7    1  0.3276565E-015  0.9000776E+02  0.7816164E-02  0.1186339E+00
        -11   -1    0    0    0    0  0.00000000000E+00  0.00000000000E+00  0.45593999997E+02  0.45594000000E+02  0.51100000000E-03 0.  1.
         11   -1    0    0    0    0 -0.00000000000E+00 -0.00000000000E+00 -0.45593999997E+02  0.45594000000E+02  0.51100000000E-03 0. -1.
    9900012    2    1    2    0    0 -0.29984422969E+00 -0.53299600782E-01  0.11402664161E+01  0.90007764892E+02  0.90000026589E+02 0.  0.
         12    1    1    2    0    0  0.29984422969E+00  0.53299600782E-01 -0.11402664161E+01  0.11802351076E+01  0.00000000000E+00 0. -1.
         11    1    3    3    0    0  0.15564299375E+02 -0.27818784058E+02 -0.20189253037E+02  0.37732454200E+02  0.51100000000E-03 0. -1.
        -11    1    3    3    0    0 -0.61599630914E+01 -0.52579035682E+01 -0.44786311932E+01  0.92546654637E+01  0.51100000000E-03 0.  1.
        -12    1    3    3    0    0 -0.97041805133E+01  0.33023388025E+02  0.25808150646E+02  0.43020645229E+02  0.00000000000E+00 0.  1.
</event>
<event>
 7    1  0.3276565E-015  0.9000760E+02  0.7816164E-02  0.1186339E+00
        -11   -1    0    0    0    0  0.00000000000E+00  0.00000000000E+00  0.45593999997E+02  0.45594000000E+02  0.51100000000E-03 0. -1.
         11   -1    0    0    0    0 -0.00000000000E+00 -0.00000000000E+00 -0.45593999997E+02  0.45594000000E+02  0.51100000000E-03 0.  1.
    9900012    2    1    2    0    0  0.14682268153E-01 -0.11211914746E+01 -0.36887076318E+00  0.90007596878E+02  0.89999856356E+02 0.  0.
         12    1    1    2    0    0 -0.14682268153E-01  0.11211914746E+01  0.36887076318E+00  0.11804031225E+01  0.00000000000E+00 0. -1.
         11    1    3    3    0    0 -0.92948557023E+01 -0.22317459268E+01 -0.35845378428E+01  0.10209012891E+02  0.51100000000E-03 0. -1.
        -11    1    3    3    0    0  0.19936172245E+02 -0.32198127704E+02  0.17887221694E+02  0.41882252705E+02  0.51100000000E-03 0.  1.
         12    1    3    3    0    0 -0.10626634274E+02  0.33308682157E+02 -0.14671554615E+02  0.37916331281E+02  0.00000000000E+00 0. -1.
</event>
<event>
 7    1  0.3276565E-015  0.9000769E+02  0.7816164E-02  0.1186339E+00
        -11   -1    0    0    0    0  0.00000000000E+00  0.00000000000E+00  0.45593999997E+02  0.45594000000E+02  0.51100000000E-03 0. -1.
         11   -1    0    0    0    0 -0.00000000000E+00 -0.00000000000E+00 -0.45593999997E+02  0.45594000000E+02  0.51100000000E-03 0.  1.
    9900012    2    1    2    0    0  0.26189074006E+00 -0.92386981734E+00 -0.68630862549E+00  0.90007685750E+02  0.89999946402E+02 0.  0.
         12    1    1    2    0    0 -0.26189074006E+00  0.92386981734E+00  0.68630862549E+00  0.11803142499E+01  0.00000000000E+00 0. -1.
         11    1    3    3    0    0 -0.35596266990E+02 -0.15302672251E+02  0.85767815470E+01  0.39684092324E+02  0.51100000000E-03 0. -1.
        -11    1    3    3    0    0 -0.13606610006E+01  0.82008317530E+00  0.72395855827E+01  0.74118509458E+01  0.51100000000E-03 0.  1.
        -12    1    3    3    0    0  0.37218818730E+02  0.13558719258E+02 -0.16502675755E+02  0.42911742480E+02  0.00000000000E+00 0.  1.
</event>
<event>
 7    1  0.3276565E-015  0.9000768E+02  0.7816164E-02  0.1186339E+00
        -11   -1    0    0    0    0  0.00000000000E+00  0.00000000000E+00  0.45593999997E+02  0.45594000000E+02  0.51100000000E-03 0. -1.
         11   -1    0    0    0    0 -0.00000000000E+00 -0.00000000000E+00 -0.45593999997E+02  0.45594000000E+02  0.51100000000E-03 0.  1.
    9900012    2    1    2    0    0 -0.26599625320E+00  0.85524685403E+00 -0.76873351043E+00  0.90007681230E+02  0.89999941823E+02 0.  0.
         12    1    1    2    0    0  0.26599625320E+00 -0.85524685403E+00  0.76873351043E+00  0.11803187697E+01  0.00000000000E+00 0. -1.
         11    1    3    3    0    0 -0.59492981814E+00  0.19560553576E+02  0.39078043879E+02  0.43704264224E+02  0.51100000000E-03 0. -1.
        -11    1    3    3    0    0 -0.44030403117E+01 -0.59633954709E+01 -0.51136588370E+01  0.90054625917E+01  0.51100000000E-03 0.  1.
        -12    1    3    3    0    0  0.47319738766E+01 -0.12741911251E+02 -0.34733118553E+02  0.37297954414E+02  0.00000000000E+00 0.  1.
</event>
<event>
 7    1  0.3276565E-015  0.9000777E+02  0.7816164E-02  0.1186339E+00
        -11   -1    0    0    0    0  0.00000000000E+00  0.00000000000E+00  0.45593999997E+02  0.45594000000E+02  0.51100000000E-03 0. -1.
         11   -1    0    0    0    0 -0.00000000000E+00 -0.00000000000E+00 -0.45593999997E+02  0.45594000000E+02  0.51100000000E-03 0.  1.
    9900012    2    1    2    0    0 -0.83624235784E+00 -0.73056021228E+00 -0.39989439889E+00  0.90007773312E+02  0.90000035120E+02 0.  0.
         12    1    1    2    0    0  0.83624235784E+00  0.73056021228E+00  0.39989439889E+00  0.11802266880E+01  0.00000000000E+00 0. -1.
         11    1    3    3    0    0 -0.15625813739E+02  0.29429465413E+02  0.16066367547E+02  0.36991724154E+02  0.51100000000E-03 0. -1.
        -11    1    3    3    0    0  0.20817590600E+01  0.75721803873E+01  0.33556591684E+01  0.85400284143E+01  0.51100000000E-03 0.  1.
        -12    1    3    3    0    0  0.12707812321E+02 -0.37732206012E+02 -0.19821921114E+02  0.44476020744E+02  0.00000000000E+00 0.  1.
</event>
<event>
 7    1  0.3276565E-015  0.9000817E+02  0.7816164E-02  0.1186338E+00
        -11   -1    0    0    0    0  0.00000000000E+00  0.00000000000E+00  0.45593999997E+02  0.45594000000E+02  0.51100000000E-03 0.  1.
         11   -1    0    0    0    0 -0.00000000000E+00 -0.00000000000E+00 -0.45593999997E+02  0.45594000000E+02  0.51100000000E-03 0. -1.
    9900012    2    1    2    0    0  0.44447024503E+00 -0.42432868989E+00  0.10071746333E+01  0.90008165530E+02  0.90000432513E+02 0.  0.
         12    1    1    2    0    0 -0.44447024503E+00  0.42432868989E+00 -0.10071746333E+01  0.11798344705E+01  0.00000000000E+00 0. -1.
         11    1    3    3    0    0  0.21671175658E+02 -0.22164596942E+02 -0.17354594811E+02  0.35525922554E+02  0.51100000000E-03 0. -1.
        -11    1    3    3    0    0  0.68730358520E+00 -0.73762864451E+01 -0.69136363046E+01  0.10133131557E+02  0.51100000000E-03 0.  1.
        -12    1    3    3    0    0 -0.21914008998E+02  0.29116554697E+02  0.25275405749E+02  0.44349111418E+02  0.00000000000E+00 0.  1.
</event>
<event>
 7    1  0.3276565E-015  0.9000775E+02  0.7816164E-02  0.1186339E+00
        -11   -1    0    0    0    0  0.00000000000E+00  0.00000000000E+00  0.45593999997E+02  0.45594000000E+02  0.51100000000E-03 0. -1.
         11   -1    0    0    0    0 -0.00000000000E+00 -0.00000000000E+00 -0.45593999997E+02  0.45594000000E+02  0.51100000000E-03 0.  1.
    9900012    2    1    2    0    0  0.94704164333E+00 -0.31271468249E+00 -0.63112241788E+00  0.90007748394E+02  0.90000009873E+02 0.  0.
         12    1    1    2    0    0 -0.94704164333E+00  0.31271468249E+00  0.63112241788E+00  0.11802516059E+01  0.00000000000E+00 0. -1.
         11    1    3    3    0    0 -0.34138794610E+02  0.99798766264E+01  0.10497292003E+02  0.37084341366E+02  0.51100000000E-03 0. -1.
        -11    1    3    3    0    0 -0.55469356503E+01 -0.52470269135E+01  0.47670526643E+01  0.90013653356E+01  0.51100000000E-03 0.  1.
        -12    1    3    3    0    0  0.40632771903E+02 -0.50455643954E+01 -0.15895467085E+02  0.43922041693E+02  0.00000000000E+00 0.  1.
</event>
<event>
 7    1  0.3276565E-015  0.9000747E+02  0.7816164E-02  0.1186340E+00
        -11   -1    0    0    0    0  0.00000000000E+00  0.00000000000E+00  0.45593999997E+02  0.45594000000E+02  0.51100000000E-03 0.  1.
         11   -1    0    0    0    0 -0.00000000000E+00 -0.00000000000E+00 -0.45593999997E+02  0.45594000000E+02  0.51100000000E-03 0. -1.
    9900012    2    1    2    0    0  0.10376774867E+01  0.35346477803E+00  0.43811397493E+00  0.90007468014E+02  0.89999725791E+02 0.  0.
         12    1    1    2    0    0 -0.10376774867E+01 -0.35346477803E+00 -0.43811397493E+00  0.11805319864E+01  0.00000000000E+00 0. -1.
         11    1    3    3    0    0 -0.66938662190E+01 -0.48396496070E+01 -0.37117830470E+02  0.38025825335E+02  0.51100000000E-03 0. -1.
        -11    1    3    3    0    0  0.44534168534E+01 -0.74034343467E+01 -0.31880376077E+01  0.92090903919E+01  0.51100000000E-03 0.  1.
        -12    1    3    3    0    0  0.32781268524E+01  0.12596548732E+02  0.40743982053E+02  0.42772552287E+02  0.00000000000E+00 0.  1.
</event>
<event>
 7    1  0.3276565E-015  0.9000778E+02  0.7816164E-02  0.1186339E+00
        -11   -1    0    0    0    0  0.00000000000E+00  0.00000000000E+00  0.45593999997E+02  0.45594000000E+02  0.51100000000E-03 0.  1.
         11   -1    0    0    0    0 -0.00000000000E+00 -0.00000000000E+00 -0.45593999997E+02  0.45594000000E+02  0.51100000000E-03 0. -1.
    9900012    2    1    2    0    0  0.73329236353E+00 -0.14528551509E+00  0.91329284445E+00  0.90007775703E+02  0.90000037542E+02 0.  0.
         12    1    1    2    0    0 -0.73329236353E+00  0.14528551509E+00 -0.91329284445E+00  0.11802242969E+01  0.00000000000E+00 0. -1.
         11    1    3    3    0    0  0.26835424239E+02  0.10455346236E+02  0.18248723516E+02  0.34095016780E+02  0.51100000000E-03 0. -1.
        -11    1    3    3    0    0 -0.54110874915E+01  0.51041232675E+01 -0.27145283664E+02  0.28146018682E+02  0.51100000000E-03 0.  1.
        -12    1    3    3    0    0 -0.20691044384E+02 -0.15704755019E+02  0.98098529926E+01  0.27766740241E+02  0.00000000000E+00 0.  1.
</event>
<event>
 7    1  0.3276565E-015  0.9000792E+02  0.7816164E-02  0.1186339E+00
        -11   -1    0    0    0    0  0.00000000000E+00  0.00000000000E+00  0.45593999997E+02  0.45594000000E+02  0.51100000000E-03 0. -1.
         11   -1    0    0    0    0 -0.00000000000E+00 -0.00000000000E+00 -0.45593999997E+02  0.45594000000E+02  0.51100000000E-03 0.  1.
    9900012    2    1    2    0    0 -0.11186964707E+01 -0.23851214165E+00  0.29021656363E+00  0.90007917169E+02  0.90000180875E+02 0.  0.
         12    1    1    2    0    0  0.11186964707E+01  0.23851214165E+00 -0.29021656363E+00  0.11800828314E+01  0.00000000000E+00 0. -1.
         11    1    3    3    0    0  0.85410378053E+01  0.51799300282E+01 -0.12981305892E+02  0.16379722367E+02  0.51100000000E-03 0. -1.
        -11    1    3    3    0    0  0.41957274305E+01 -0.26022914925E-02 -0.28748239182E+02  0.29052803510E+02  0.51100000000E-03 0.  1.
         12    1    3    3    0    0 -0.13855461707E+02 -0.54158398783E+01  0.42019761638E+02  0.44575391292E+02  0.00000000000E+00 0. -1.
</event>
<event>
 7    1  0.3276565E-015  0.9000773E+02  0.7816164E-02  0.1186339E+00
        -11   -1    0    0    0    0  0.00000000000E+00  0.00000000000E+00  0.45593999997E+02  0.45594000000E+02  0.51100000000E-03 0.  1.
         11   -1    0    0    0    0 -0.00000000000E+00 -0.00000000000E+00 -0.45593999997E+02  0.45594000000E+02  0.51100000000E-03 0. -1.
    9900012    2    1    2    0    0 -0.49589266642E+00  0.60602959500E+00  0.88309972304E+00  0.90007726079E+02  0.89999987264E+02 0.  0.
         12    1    1    2    0    0  0.49589266642E+00 -0.60602959500E+00 -0.88309972304E+00  0.11802739205E+01  0.00000000000E+00 0. -1.
         11    1    3    3    0    0  0.22562759307E+02 -0.13513703957E+02  0.30051669880E+01  0.26471292584E+02  0.51100000000E-03 0. -1.
        -11    1    3    3    0    0 -0.33310181906E+01  0.30853866249E+02  0.12916314572E+02  0.33613805602E+02  0.51100000000E-03 0.  1.
         12    1    3    3    0    0 -0.19727633783E+02 -0.16734132697E+02 -0.15038381837E+02  0.29922627894E+02  0.00000000000E+00 0. -1.
</event>
<event>
 7    1  0.3755089E-015  0.9000770E+02  0.7816164E-02  0.1186339E+00
        -11   -1    0    0    0    0  0.00000000000E+00  0.00000000000E+00  0.45593999997E+02  0.45594000000E+02  0.51100000000E-03 0.  1.
         11   -1    0    0    0    0 -0.00000000000E+00 -0.00000000000E+00 -0.45593999997E+02  0.45594000000E+02  0.51100000000E-03 0. -1.
    9900012    2    1    2    0    0  0.71572064488E+00  0.90720293681E+00 -0.24048250373E+00  0.90007701290E+02  0.89999962147E+02 0.  0.
         12    1    1    2    0    0 -0.71572064488E+00 -0.90720293681E+00  0.24048250373E+00  0.11802987099E+01  0.00000000000E+00 0. -1.
         11    1    3    3    0    0  0.85207154057E+01 -0.33448937682E+01 -0.42236749681E+01  0.10081187224E+02  0.51100000000E-03 0. -1.
        -11    1    3    3    0    0  0.20238206771E+02 -0.17392047548E+02  0.26776357160E+02  0.37802667026E+02  0.51100000000E-03 0.  1.
         12    1    3    3    0    0 -0.28043201532E+02  0.21644144253E+02 -0.22793164696E+02  0.42123847040E+02  0.00000000000E+00 0. -1.
</event>
<event>
 7    1  0.3276565E-015  0.9000768E+02  0.7816164E-02  0.1186339E+00
        -11   -1    0    0    0    0  0.00000000000E+00  0.00000000000E+00  0.45593999997E+02  0.45594000000E+02  0.51100000000E-03 0.  1.
         11   -1    0    0    0    0 -0.00000000000E+00 -0.00000000000E+00 -0.45593999997E+02  0.45594000000E+02  0.51100000000E-03 0. -1.
    9900012    2    1    2    0    0  0.46381818081E+00 -0.10832118565E+01  0.68453886096E-01  0.90007677516E+02  0.89999938060E+02 0.  0.
         12    1    1    2    0    0 -0.46381818081E+00  0.10832118565E+01 -0.68453886096E-01  0.11803224836E+01  0.00000000000E+00 0. -1.
         11    1    3    3    0    0 -0.25177162388E+01  0.66789048008E+01 -0.69936528007E+01  0.99928896799E+01  0.51100000000E-03 0. -1.
        -11    1    3    3    0    0  0.20875416130E+02  0.29051114890E+02  0.14156519116E+02  0.38472812591E+02  0.51100000000E-03 0.  1.
         12    1    3    3    0    0 -0.17893881710E+02 -0.36813231547E+02 -0.70944124293E+01  0.41541975245E+02  0.00000000000E+00 0. -1.
</event>
<event>
 7    1  0.3276565E-015  0.9000773E+02  0.7816164E-02  0.1186339E+00
        -11   -1    0    0    0    0  0.00000000000E+00  0.00000000000E+00  0.45593999997E+02  0.45594000000E+02  0.51100000000E-03 0.  1.
         11   -1    0    0    0    0 -0.00000000000E+00 -0.00000000000E+00 -0.45593999997E+02  0.45594000000E+02  0.51100000000E-03 0. -1.
    9900012    2    1    2    0    0  0.11478960785E+01  0.27451017953E+00  0.24715698755E-02  0.90007734202E+02  0.89999995493E+02 0.  0.
         12    1    1    2    0    0 -0.11478960785E+01 -0.27451017953E+00 -0.24715698755E-02  0.11802657982E+01  0.00000000000E+00 0. -1.
         11    1    3    3    0    0  0.16281899919E+02  0.14329093766E+02 -0.11902530062E+02  0.24740521726E+02  0.51100000000E-03 0. -1.
        -11    1    3    3    0    0 -0.17115873528E+02  0.21201649115E+02  0.12434637506E+02  0.29951348250E+02  0.51100000000E-03 0.  1.
         12    1    3    3    0    0  0.19818696875E+01 -0.35256232702E+02 -0.52963587328E+00  0.35315864225E+02  0.00000000000E+00 0. -1.
</event>
<event>
 7    1  0.3276565E-015  0.9000779E+02  0.7816164E-02  0.1186339E+00
        -11   -1    0    0    0    0  0.00000000000E+00  0.00000000000E+00  0.45593999997E+02  0.45594000000E+02  0.51100000000E-03 0.  1.
         11   -1    0    0    0    0 -0.00000000000E+00 -0.00000000000E+00 -0.45593999997E+02  0.45594000000E+02  0.51100000000E-03 0. -1.
    9900012    2    1    2    0    0  0.39172881601E+00  0.48760435080E+00  0.10008470284E+01  0.90007786357E+02  0.90000048337E+02 0.  0.
         12    1    1    2    0    0 -0.39172881601E+00 -0.48760435080E+00 -0.10008470284E+01  0.11802136427E+01  0.00000000000E+00 0. -1.
         11    1    3    3    0    0  0.77884479124E+01 -0.24568031750E+02 -0.22255222817E+02  0.34052063783E+02  0.51100000000E-03 0. -1.
        -11    1    3    3    0    0  0.55474364349E+01 -0.10197713396E+02 -0.32131971691E+00  0.11613382630E+02  0.51100000000E-03 0.  1.
        -12    1    3    3    0    0 -0.12944155531E+02  0.35253349497E+02  0.23577389562E+02  0.44342339944E+02  0.00000000000E+00 0.  1.
</event>
<event>
 7    1  0.3276565E-015  0.9000771E+02  0.7816164E-02  0.1186339E+00
        -11   -1    0    0    0    0  0.00000000000E+00  0.00000000000E+00  0.45593999997E+02  0.45594000000E+02  0.51100000000E-03 0.  1.
         11   -1    0    0    0    0 -0.00000000000E+00 -0.00000000000E+00 -0.45593999997E+02  0.45594000000E+02  0.51100000000E-03 0. -1.
    9900012    2    1    2    0    0  0.12357572671E+00 -0.17324523859E+00  0.11609483536E+01  0.90007709378E+02  0.89999970342E+02 0.  0.
         12    1    1    2    0    0 -0.12357572671E+00  0.17324523859E+00 -0.11609483536E+01  0.11802906221E+01  0.00000000000E+00 0. -1.
         11    1    3    3    0    0  0.15027499483E+01 -0.12116772551E+02  0.36879291619E+01  0.12754421046E+02  0.51100000000E-03 0. -1.
        -11    1    3    3    0    0 -0.33695629473E+02  0.10627118643E+01  0.17213125103E+02  0.37852562372E+02  0.51100000000E-03 0.  1.
         12    1    3    3    0    0  0.32316455251E+02  0.10880815448E+02 -0.19740105911E+02  0.39400725960E+02  0.00000000000E+00 0. -1.
</event>
<event>
 7    1  0.3276565E-015  0.9000763E+02  0.7816164E-02  0.1186339E+00
        -11   -1    0    0    0    0  0.00000000000E+00  0.00000000000E+00  0.45593999997E+02  0.45594000000E+02  0.51100000000E-03 0.  1.
         11   -1    0    0    0    0 -0.00000000000E+00 -0.00000000000E+00 -0.45593999997E+02  0.45594000000E+02  0.51100000000E-03 0. -1.
    9900012    2    1    2    0    0 -0.42695486801E+00  0.12768206981E-01  0.11003732256E+01  0.90007629413E+02  0.89999889321E+02 0.  0.
         12    1    1    2    0    0  0.42695486801E+00 -0.12768206981E-01 -0.11003732256E+01  0.11803705868E+01  0.00000000000E+00 0. -1.
         11    1    3    3    0    0  0.12175922664E+02 -0.89857823820E+01 -0.30740643594E+02  0.34263457890E+02  0.51100000000E-03 0. -1.
        -11    1    3    3    0    0 -0.31286054684E+01 -0.74192830283E+01 -0.81695041333E+01  0.11470602899E+02  0.51100000000E-03 0.  1.
        -12    1    3    3    0    0 -0.94742720641E+01  0.16417833617E+02  0.40010520952E+02  0.44273568624E+02  0.00000000000E+00 0.  1.
</event>
<event>
 7    1  0.3276565E-015  0.9000776E+02  0.7816164E-02  0.1186339E+00
        -11   -1    0    0    0    0  0.00000000000E+00  0.00000000000E+00  0.45593999997E+02  0.45594000000E+02  0.51100000000E-03 0. -1.
         11   -1    0    0    0    0 -0.00000000000E+00 -0.00000000000E+00 -0.45593999997E+02  0.45594000000E+02  0.51100000000E-03 0.  1.
    9900012    2    1    2    0    0 -0.10466235854E+01 -0.49974194310E+00  0.21864818193E+00  0.90007758513E+02  0.90000020126E+02 0.  0.
         12    1    1    2    0    0  0.10466235854E+01  0.49974194310E+00 -0.21864818193E+00  0.11802414866E+01  0.00000000000E+00 0. -1.
         11    1    3    3    0    0 -0.52772679180E+01  0.60375021275E+01  0.80066737461E+00  0.80586634825E+01  0.51100000000E-03 0. -1.
        -11    1    3    3    0    0  0.58390263259E+01  0.36466038827E+02 -0.92046799301E+01  0.38060377679E+02  0.51100000000E-03 0.  1.
         12    1    3    3    0    0 -0.16083819933E+01 -0.43003282898E+02  0.86226607374E+01  0.43888717352E+02  0.00000000000E+00 0. -1.
</event>
<event>
 7    1  0.3276565E-015  0.9000785E+02  0.7816164E-02  0.1186339E+00
        -11   -1    0    0    0    0  0.00000000000E+00  0.00000000000E+00  0.45593999997E+02  0.45594000000E+02  0.51100000000E-03 0. -1.
         11   -1    0    0    0    0 -0.00000000000E+00 -0.00000000000E+00 -0.45593999997E+02  0.45594000000E+02  0.51100000000E-03 0.  1.
    9900012    2    1    2    0    0 -0.44145940520E-01  0.79356169027E+00 -0.87238475781E+00  0.90007854167E+02  0.90000117042E+02 0.  0.
         12    1    1    2    0    0  0.44145940520E-01 -0.79356169027E+00  0.87238475781E+00  0.11801458325E+01  0.00000000000E+00 0. -1.
         11    1    3    3    0    0  0.37949357769E+01 -0.34957316434E+01 -0.12871655566E+02  0.13867270624E+02  0.51100000000E-03 0. -1.
        -11    1    3    3    0    0 -0.35941268301E+02 -0.12445479157E+02  0.10736368832E+00  0.38035197459E+02  0.51100000000E-03 0.  1.
         12    1    3    3    0    0  0.32102186583E+02  0.16734772490E+02  0.11891907120E+02  0.38105386085E+02  0.00000000000E+00 0. -1.
</event>
<event>
 7    1  0.3276565E-015  0.9000776E+02  0.7816164E-02  0.1186339E+00
        -11   -1    0    0    0    0  0.00000000000E+00  0.00000000000E+00  0.45593999997E+02  0.45594000000E+02  0.51100000000E-03 0. -1.
         11   -1    0    0    0    0 -0.00000000000E+00 -0.00000000000E+00 -0.45593999997E+02  0.45594000000E+02  0.51100000000E-03 0.  1.
    9900012    2    1    2    0    0 -0.78009467173E+00 -0.48761579391E+00 -0.73935814585E+00  0.90007759632E+02  0.90000021259E+02 0.  0.
         12    1    1    2    0    0  0.78009467173E+00  0.48761579391E+00  0.73935814585E+00  0.11802403684E+01  0.00000000000E+00 0. -1.
         11    1    3    3    0    0  0.62659354960E+01  0.10485314878E+02 -0.12706747285E+01  0.12280813909E+02  0.51100000000E-03 0. -1.
        -11    1    3    3    0    0 -0.32482252425E+02  0.19170071155E+02  0.49435023633E+01  0.38039802399E+02  0.51100000000E-03 0.  1.
         12    1    3    3    0    0  0.25436222257E+02 -0.30143001827E+02 -0.44121857807E+01  0.39687143324E+02  0.00000000000E+00 0. -1.
</event>
<event>
 7    1  0.3276565E-015  0.9000783E+02  0.7816164E-02  0.1186339E+00
        -11   -1    0    0    0    0  0.00000000000E+00  0.00000000000E+00  0.45593999997E+02  0.45594000000E+02  0.51100000000E-03 0. -1.
         11   -1    0    0    0    0 -0.00000000000E+00 -0.00000000000E+00 -0.45593999997E+02  0.45594000000E+02  0.51100000000E-03 0.  1.
    9900012    2    1    2    0    0 -0.74025383704E+00 -0.73245436023E+00  0.55527616416E+00  0.90007831897E+02  0.90000094478E+02 0.  0.
         12    1    1    2    0    0  0.74025383704E+00  0.73245436023E+00 -0.55527616416E+00  0.11801681031E+01  0.00000000000E+00 0. -1.
         11    1    3    3    0    0 -0.10273286569E+02  0.31005568688E+01  0.17584236202E+00  0.10732417744E+02  0.51100000000E-03 0. -1.
        -11    1    3    3    0    0 -0.17482988686E+02  0.63095130222E+01 -0.31312757136E+02  0.36413645899E+02  0.51100000000E-03 0.  1.
         12    1    3    3    0    0  0.27016021418E+02 -0.10142524251E+02  0.31692190938E+02  0.42861768254E+02  0.00000000000E+00 0. -1.
</event>
<event>
 7    1  0.3276565E-015  0.9000779E+02  0.7816164E-02  0.1186339E+00
        -11   -1    0    0    0    0  0.00000000000E+00  0.00000000000E+00  0.45593999997E+02  0.45594000000E+02  0.51100000000E-03 0.  1.
         11   -1    0    0    0    0 -0.00000000000E+00 -0.00000000000E+00 -0.45593999997E+02  0.45594000000E+02  0.51100000000E-03 0. -1.
    9900012    2    1    2    0    0  0.63770596835E+00 -0.88920746993E+00 -0.44218670417E+00  0.90007793277E+02  0.90000055349E+02 0.  0.
         12    1    1    2    0    0 -0.63770596835E+00  0.88920746993E+00  0.44218670417E+00  0.11802067226E+01  0.00000000000E+00 0. -1.
         11    1    3    3    0    0 -0.78403281186E+01 -0.34893546745E+02 -0.21650801383E+02  0.41806549131E+02  0.51100000000E-03 0. -1.
        -11    1    3    3    0    0  0.46522761541E+01 -0.10810125498E+01 -0.27808107659E+01  0.55267685245E+01  0.51100000000E-03 0.  1.
        -12    1    3    3    0    0  0.38257579328E+01  0.35085351825E+02  0.23989425445E+02  0.42674475622E+02  0.00000000000E+00 0.  1.
</event>
<event>
 7    1  0.3276565E-015  0.9000775E+02  0.7816164E-02  0.1186339E+00
        -11   -1    0    0    0    0  0.00000000000E+00  0.00000000000E+00  0.45593999997E+02  0.45594000000E+02  0.51100000000E-03 0.  1.
         11   -1    0    0    0    0 -0.00000000000E+00 -0.00000000000E+00 -0.45593999997E+02  0.45594000000E+02  0.51100000000E-03 0. -1.
    9900012    2    1    2    0    0  0.15204172627E+00 -0.11642818812E+01  0.11964748722E+00  0.90007752354E+02  0.90000013885E+02 0.  0.
         12    1    1    2    0    0 -0.15204172627E+00  0.11642818812E+01 -0.11964748722E+00  0.11802476463E+01  0.00000000000E+00 0. -1.
         11    1    3    3    0    0 -0.36192381606E+01 -0.21463592883E+00 -0.52314492142E+01  0.63649834711E+01  0.51100000000E-03 0. -1.
        -11    1    3    3    0    0 -0.35361304134E+02 -0.10081116667E+02  0.18761744795E+02  0.41280186668E+02  0.51100000000E-03 0.  1.
         12    1    3    3    0    0  0.39132584021E+02  0.91314707144E+01 -0.13410648094E+02  0.42362582215E+02  0.00000000000E+00 0. -1.
</event>
<event>
 7    1  0.3276565E-015  0.9000786E+02  0.7816164E-02  0.1186339E+00
        -11   -1    0    0    0    0  0.00000000000E+00  0.00000000000E+00  0.45593999997E+02  0.45594000000E+02  0.51100000000E-03 0.  1.
         11   -1    0    0    0    0 -0.00000000000E+00 -0.00000000000E+00 -0.45593999997E+02  0.45594000000E+02  0.51100000000E-03 0. -1.
    9900012    2    1    2    0    0  0.21514908590E+00  0.10282829484E+01  0.53765880710E+00  0.90007859354E+02  0.90000122298E+02 0.  0.
         12    1    1    2    0    0 -0.21514908590E+00 -0.10282829484E+01 -0.53765880710E+00  0.11801406459E+01  0.00000000000E+00 0. -1.
         11    1    3    3    0    0 -0.27350026641E+01 -0.96725319275E+01 -0.44050894356E+01  0.10974649273E+02  0.51100000000E-03 0. -1.
        -11    1    3    3    0    0  0.70062311727E+01  0.25334519380E+02  0.35933939355E+02  0.44521603130E+02  0.51100000000E-03 0.  1.
         12    1    3    3    0    0 -0.40560794227E+01 -0.14633704504E+02 -0.30991191112E+02  0.34511606951E+02  0.00000000000E+00 0. -1.
</event>
<event>
 7    1  0.3276565E-015  0.9000775E+02  0.7816164E-02  0.1186339E+00
        -11   -1    0    0    0    0  0.00000000000E+00  0.00000000000E+00  0.45593999997E+02  0.45594000000E+02  0.51100000000E-03 0. -1.
         11   -1    0    0    0    0 -0.00000000000E+00 -0.00000000000E+00 -0.45593999997E+02  0.45594000000E+02  0.51100000000E-03 0.  1.
    9900012    2    1    2    0    0  0.10386289562E+01  0.55317861769E+00 -0.90735801913E-01  0.90007750163E+02  0.90000011665E+02 0.  0.
         12    1    1    2    0    0 -0.10386289562E+01 -0.55317861769E+00  0.90735801913E-01  0.11802498368E+01  0.00000000000E+00 0. -1.
         11    1    3    3    0    0 -0.21620782122E+02  0.14267297821E+02  0.27976174796E+02  0.38127160439E+02  0.51100000000E-03 0. -1.
        -11    1    3    3    0    0 -0.65111164431E+01  0.49438641872E+01 -0.16818394176E+01  0.83465570462E+01  0.51100000000E-03 0.  1.
        -12    1    3    3    0    0  0.29170527521E+02 -0.18657983390E+02 -0.26385071180E+02  0.43534032678E+02  0.00000000000E+00 0.  1.
</event>
<event>
 7    1  0.4116726E-015  0.9000782E+02  0.7816164E-02  0.1186339E+00
        -11   -1    0    0    0    0  0.00000000000E+00  0.00000000000E+00  0.45593999997E+02  0.45594000000E+02  0.51100000000E-03 0. -1.
         11   -1    0    0    0    0 -0.00000000000E+00 -0.00000000000E+00 -0.45593999997E+02  0.45594000000E+02  0.51100000000E-03 0.  1.
    9900012    2    1    2    0    0 -0.86958469862E+00  0.79282455679E+00 -0.89925226398E-01  0.90007815746E+02  0.90000078114E+02 0.  0.
         12    1    1    2    0    0  0.86958469862E+00 -0.79282455679E+00  0.89925226398E-01  0.11801842535E+01  0.00000000000E+00 0. -1.
         11    1    3    3    0    0  0.74029812282E+01 -0.32625781913E+01 -0.52780226261E+01  0.96595067484E+01  0.51100000000E-03 0. -1.
        -11    1    3    3    0    0  0.34361467748E+02 -0.91173204894E+01  0.28468241838E+01  0.35664273536E+02  0.51100000000E-03 0.  1.
         12    1    3    3    0    0 -0.42634033675E+02  0.13172723238E+02  0.23412732159E+01  0.44684035462E+02  0.00000000000E+00 0. -1.
</event>
<event>
 7    1  0.3276565E-015  0.9000772E+02  0.7816164E-02  0.1186339E+00
        -11   -1    0    0    0    0  0.00000000000E+00  0.00000000000E+00  0.45593999997E+02  0.45594000000E+02  0.51100000000E-03 0.  1.
         11   -1    0    0    0    0 -0.00000000000E+00 -0.00000000000E+00 -0.45593999997E+02  0.45594000000E+02  0.51100000000E-03 0. -1.
    9900012    2    1    2    0    0 -0.15755979084E+00  0.93997825976E-01  0.11659363685E+01  0.90007716858E+02  0.89999977921E+02 0.  0.
         12    1    1    2    0    0  0.15755979084E+00 -0.93997825976E-01 -0.11659363685E+01  0.11802831416E+01  0.00000000000E+00 0. -1.
         11    1    3    3    0    0 -0.75485756379E+01  0.45266783098E+01 -0.17913655028E+01  0.89822492344E+01  0.51100000000E-03 0. -1.
        -11    1    3    3    0    0  0.17954795133E+02  0.32763191921E+02  0.15394193982E+02  0.40407704980E+02  0.51100000000E-03 0.  1.
         12    1    3    3    0    0 -0.10563779286E+02 -0.37195872405E+02 -0.12436892111E+02  0.40617762644E+02  0.00000000000E+00 0. -1.
</event>
<event>
 7    1  0.3276565E-015  0.9000769E+02  0.7816164E-02  0.1186339E+00
        -11   -1    0    0    0    0  0.00000000000E+00  0.00000000000E+00  0.45593999997E+02  0.45594000000E+02  0.51100000000E-03 0.  1.
         11   -1    0    0    0    0 -0.00000000000E+00 -0.00000000000E+00 -0.45593999997E+02  0.45594000000E+02  0.51100000000E-03 0. -1.
    9900012    2    1    2    0    0 -0.57277156132E+00 -0.89242332110E+00  0.51831250121E+00  0.90007688815E+02  0.89999949507E+02 0.  0.
         12    1    1    2    0    0  0.57277156132E+00  0.89242332110E+00 -0.51831250121E+00  0.11803111854E+01  0.00000000000E+00 0. -1.
         11    1    3    3    0    0  0.23088433424E+02 -0.25881410444E+02 -0.92991369464E+01  0.35908176127E+02  0.51100000000E-03 0. -1.
        -11    1    3    3    0    0 -0.14869035666E+02 -0.67514894251E+00 -0.12132965005E+02  0.19202939561E+02  0.51100000000E-03 0.  1.
        -12    1    3    3    0    0 -0.87921693193E+01  0.25664136066E+02  0.21950414452E+02  0.34896573126E+02  0.00000000000E+00 0.  1.
</event>
<event>
 7    1  0.3276565E-015  0.9000796E+02  0.7816164E-02  0.1186339E+00
        -11   -1    0    0    0    0  0.00000000000E+00  0.00000000000E+00  0.45593999997E+02  0.45594000000E+02  0.51100000000E-03 0.  1.
         11   -1    0    0    0    0 -0.00000000000E+00 -0.00000000000E+00 -0.45593999997E+02  0.45594000000E+02  0.51100000000E-03 0. -1.
    9900012    2    1    2    0    0 -0.77414527669E+00 -0.59995446294E+00  0.65821444246E+00  0.90007960798E+02  0.90000225080E+02 0.  0.
         12    1    1    2    0    0  0.77414527669E+00  0.59995446294E+00 -0.65821444246E+00  0.11800392024E+01  0.00000000000E+00 0. -1.
         11    1    3    3    0    0 -0.35684760668E+01 -0.12243829863E+02  0.67874411446E+01  0.14446963304E+02  0.51100000000E-03 0. -1.
        -11    1    3    3    0    0 -0.27174484152E+02  0.13176685173E+02  0.19624733667E+02  0.36016770994E+02  0.51100000000E-03 0.  1.
         12    1    3    3    0    0  0.29968814942E+02 -0.15328097736E+01 -0.25753960369E+02  0.39544226500E+02  0.00000000000E+00 0. -1.
</event>
<event>
 7    1  0.3276565E-015  0.9000773E+02  0.7816164E-02  0.1186339E+00
        -11   -1    0    0    0    0  0.00000000000E+00  0.00000000000E+00  0.45593999997E+02  0.45594000000E+02  0.51100000000E-03 0.  1.
         11   -1    0    0    0    0 -0.00000000000E+00 -0.00000000000E+00 -0.45593999997E+02  0.45594000000E+02  0.51100000000E-03 0. -1.
    9900012    2    1    2    0    0  0.76877069827E+00  0.79221460438E+00  0.41764282225E+00  0.90007729737E+02  0.89999990970E+02 0.  0.
         12    1    1    2    0    0 -0.76877069827E+00 -0.79221460438E+00 -0.41764282225E+00  0.11802702627E+01  0.00000000000E+00 0. -1.
         11    1    3    3    0    0  0.18529879267E+02  0.37180252910E+02 -0.39656560536E+01  0.41730732803E+02  0.51100000000E-03 0. -1.
        -11    1    3    3    0    0 -0.54967967743E+01 -0.24159858155E+01 -0.80820907377E+01  0.10068363978E+02  0.51100000000E-03 0.  1.
        -12    1    3    3    0    0 -0.12264311794E+02 -0.33972052490E+02  0.12465389614E+02  0.38208632956E+02  0.00000000000E+00 0.  1.
</event>
<event>
 7    1  0.3276565E-015  0.9000773E+02  0.7816164E-02  0.1186339E+00
        -11   -1    0    0    0    0  0.00000000000E+00  0.00000000000E+00  0.45593999997E+02  0.45594000000E+02  0.51100000000E-03 0.  1.
         11   -1    0    0    0    0 -0.00000000000E+00 -0.00000000000E+00 -0.45593999997E+02  0.45594000000E+02  0.51100000000E-03 0. -1.
    9900012    2    1    2    0    0 -0.78447003008E+00  0.60941271951E+00 -0.63738617645E+00  0.90007729595E+02  0.89999990826E+02 0.  0.
         12    1    1    2    0    0  0.78447003008E+00 -0.60941271951E+00  0.63738617645E+00  0.11802704049E+01  0.00000000000E+00 0. -1.
         11    1    3    3    0    0  0.39570654764E+01 -0.34719900913E+02 -0.78752645106E+01  0.35821078682E+02  0.51100000000E-03 0. -1.
        -11    1    3    3    0    0 -0.43324249023E+01 -0.71531261688E+01 -0.52876783634E+01  0.98942742158E+01  0.51100000000E-03 0.  1.
        -12    1    3    3    0    0 -0.40911060416E+00  0.42482439801E+02  0.12525556698E+02  0.44292376697E+02  0.00000000000E+00 0.  1.
</event>
<event>
 7    1  0.3276565E-015  0.9000771E+02  0.7816164E-02  0.1186339E+00
        -11   -1    0    0    0    0  0.00000000000E+00  0.00000000000E+00  0.45593999997E+02  0.45594000000E+02  0.51100000000E-03 0. -1.
         11   -1    0    0    0    0 -0.00000000000E+00 -0.00000000000E+00 -0.45593999997E+02  0.45594000000E+02  0.51100000000E-03 0.  1.
    9900012    2    1    2    0    0  0.23928357630E+00  0.10765699807E+01  0.42050157309E+00  0.90007711423E+02  0.89999972413E+02 0.  0.
         12    1    1    2    0    0 -0.23928357630E+00 -0.10765699807E+01 -0.42050157309E+00  0.11802885775E+01  0.00000000000E+00 0. -1.
         11    1    3    3    0    0 -0.26997718112E+01  0.29480569815E+01 -0.66639643566E+01  0.77709863599E+01  0.51100000000E-03 0. -1.
        -11    1    3    3    0    0  0.16736581038E+02  0.83914787742E+01 -0.33378820746E+02  0.38271082236E+02  0.51100000000E-03 0.  1.
         12    1    3    3    0    0 -0.13797525650E+02 -0.10262965775E+02  0.40463286676E+02  0.43965642827E+02  0.00000000000E+00 0. -1.
</event>
<event>
 7    1  0.3276565E-015  0.9000775E+02  0.7816164E-02  0.1186339E+00
        -11   -1    0    0    0    0  0.00000000000E+00  0.00000000000E+00  0.45593999997E+02  0.45594000000E+02  0.51100000000E-03 0. -1.
         11   -1    0    0    0    0 -0.00000000000E+00 -0.00000000000E+00 -0.45593999997E+02  0.45594000000E+02  0.51100000000E-03 0.  1.
    9900012    2    1    2    0    0  0.55772506803E+00  0.79332635236E+00 -0.67272523169E+00  0.90007752911E+02  0.90000014450E+02 0.  0.
         12    1    1    2    0    0 -0.55772506803E+00 -0.79332635236E+00  0.67272523169E+00  0.11802470886E+01  0.00000000000E+00 0. -1.
         11    1    3    3    0    0 -0.61138846819E+01  0.16525401323E+01  0.67497915217E+01  0.92558176645E+01  0.51100000000E-03 0. -1.
        -11    1    3    3    0    0 -0.10106573129E+02 -0.33849407089E+02  0.13986917347E+02  0.37994197423E+02  0.51100000000E-03 0.  1.
         12    1    3    3    0    0  0.16778182879E+02  0.32990193309E+02 -0.21409434101E+02  0.42757737824E+02  0.00000000000E+00 0. -1.
</event>
<event>
 7    1  0.3276565E-015  0.9000826E+02  0.7816164E-02  0.1186338E+00
        -11   -1    0    0    0    0  0.00000000000E+00  0.00000000000E+00  0.45593999997E+02  0.45594000000E+02  0.51100000000E-03 0. -1.
         11   -1    0    0    0    0 -0.00000000000E+00 -0.00000000000E+00 -0.45593999997E+02  0.45594000000E+02  0.51100000000E-03 0.  1.
    9900012    2    1    2    0    0  0.67251901695E+00 -0.85585542965E+00  0.45500144741E+00  0.90008255679E+02  0.90000523853E+02 0.  0.
         12    1    1    2    0    0 -0.67251901695E+00  0.85585542965E+00 -0.45500144741E+00  0.11797443205E+01  0.00000000000E+00 0. -1.
         11    1    3    3    0    0 -0.90644261012E+01  0.11604851368E+02 -0.37861186187E+01  0.15204311569E+02  0.51100000000E-03 0. -1.
        -11    1    3    3    0    0 -0.24281455070E+02  0.16814651837E+02  0.47822374822E+01  0.29919748868E+02  0.51100000000E-03 0.  1.
         12    1    3    3    0    0  0.34018400189E+02 -0.29275358634E+02 -0.54111741605E+00  0.44884195243E+02  0.00000000000E+00 0. -1.
</event>
<event>
 7    1  0.3276565E-015  0.9000775E+02  0.7816164E-02  0.1186339E+00
        -11   -1    0    0    0    0  0.00000000000E+00  0.00000000000E+00  0.45593999997E+02  0.45594000000E+02  0.51100000000E-03 0. -1.
         11   -1    0    0    0    0 -0.00000000000E+00 -0.00000000000E+00 -0.45593999997E+02  0.45594000000E+02  0.51100000000E-03 0.  1.
    9900012    2    1    2    0    0  0.68196590911E+00 -0.88604451469E+00 -0.37793035702E+00  0.90007752679E+02  0.90000014215E+02 0.  0.
         12    1    1    2    0    0 -0.68196590911E+00  0.88604451469E+00  0.37793035702E+00  0.11802473207E+01  0.00000000000E+00 0. -1.
         11    1    3    3    0    0 -0.42999307744E+01 -0.13489737892E+02  0.10415047740E+02  0.17576565442E+02  0.51100000000E-03 0. -1.
        -11    1    3    3    0    0 -0.41121586405E+00  0.34948818450E+02  0.14866181475E+02  0.37981473924E+02  0.51100000000E-03 0.  1.
         12    1    3    3    0    0  0.53931125476E+01 -0.22345125072E+02 -0.25659159572E+02  0.34449713313E+02  0.00000000000E+00 0. -1.
</event>
<event>
 7    1  0.3276565E-015  0.9000774E+02  0.7816164E-02  0.1186339E+00
        -11   -1    0    0    0    0  0.00000000000E+00  0.00000000000E+00  0.45593999997E+02  0.45594000000E+02  0.51100000000E-03 0. -1.
         11   -1    0    0    0    0 -0.00000000000E+00 -0.00000000000E+00 -0.45593999997E+02  0.45594000000E+02  0.51100000000E-03 0.  1.
    9900012    2    1    2    0    0  0.18258002003E+00 -0.89599985553E+00  0.74623158278E+00  0.90007740376E+02  0.90000001749E+02 0.  0.
         12    1    1    2    0    0 -0.18258002003E+00  0.89599985553E+00 -0.74623158278E+00  0.11802596240E+01  0.00000000000E+00 0. -1.
         11    1    3    3    0    0 -0.11570769996E+02  0.33154865732E+02  0.17012373562E+02  0.39019850006E+02  0.51100000000E-03 0. -1.
        -11    1    3    3    0    0 -0.65377917564E+01 -0.44117916543E+01  0.57709238289E+01  0.97729314308E+01  0.51100000000E-03 0.  1.
        -12    1    3    3    0    0  0.18291141773E+02 -0.29639073933E+02 -0.22037065808E+02  0.41214958939E+02  0.00000000000E+00 0.  1.
</event>
<event>
 7    1  0.3276565E-015  0.9000765E+02  0.7816164E-02  0.1186339E+00
        -11   -1    0    0    0    0  0.00000000000E+00  0.00000000000E+00  0.45593999997E+02  0.45594000000E+02  0.51100000000E-03 0.  1.
         11   -1    0    0    0    0 -0.00000000000E+00 -0.00000000000E+00 -0.45593999997E+02  0.45594000000E+02  0.51100000000E-03 0. -1.
    9900012    2    1    2    0    0 -0.50645364015E-01  0.60979266147E+00  0.10093676636E+01  0.90007646187E+02  0.89999906317E+02 0.  0.
         12    1    1    2    0    0  0.50645364015E-01 -0.60979266147E+00 -0.10093676636E+01  0.11803538127E+01  0.00000000000E+00 0. -1.
         11    1    3    3    0    0  0.78169691302E+01 -0.38098591761E+01 -0.35181063771E+01  0.93806772711E+01  0.51100000000E-03 0. -1.
        -11    1    3    3    0    0 -0.35099417304E+02 -0.93612781108E+01  0.24802501416E+02  0.43985982991E+02  0.51100000000E-03 0.  1.
         12    1    3    3    0    0  0.27231802810E+02  0.13780929948E+02 -0.20275027375E+02  0.36640985925E+02  0.00000000000E+00 0. -1.
</event>
<event>
 7    1  0.3276565E-015  0.9000787E+02  0.7816164E-02  0.1186339E+00
        -11   -1    0    0    0    0  0.00000000000E+00  0.00000000000E+00  0.45593999997E+02  0.45594000000E+02  0.51100000000E-03 0.  1.
         11   -1    0    0    0    0 -0.00000000000E+00 -0.00000000000E+00 -0.45593999997E+02  0.45594000000E+02  0.51100000000E-03 0. -1.
    9900012    2    1    2    0    0  0.26444110718E+00 -0.11465040311E+01  0.91085189800E-01  0.90007874115E+02  0.90000137253E+02 0.  0.
         12    1    1    2    0    0 -0.26444110718E+00  0.11465040311E+01 -0.91085189800E-01  0.11801258849E+01  0.00000000000E+00 0. -1.
         11    1    3    3    0    0  0.20165000280E+02 -0.31041929250E+02 -0.80400916392E+01  0.37879700126E+02  0.51100000000E-03 0. -1.
        -11    1    3    3    0    0  0.85752153287E+01  0.11126365597E+01 -0.44566907816E+01  0.97280198926E+01  0.51100000000E-03 0.  1.
        -12    1    3    3    0    0 -0.28475774501E+02  0.28782788659E+02  0.12587867611E+02  0.42400154096E+02  0.00000000000E+00 0.  1.
</event>
<event>
 7    1  0.3276565E-015  0.9000771E+02  0.7816164E-02  0.1186339E+00
        -11   -1    0    0    0    0  0.00000000000E+00  0.00000000000E+00  0.45593999997E+02  0.45594000000E+02  0.51100000000E-03 0. -1.
         11   -1    0    0    0    0 -0.00000000000E+00 -0.00000000000E+00 -0.45593999997E+02  0.45594000000E+02  0.51100000000E-03 0.  1.
    9900012    2    1    2    0    0 -0.72423948812E+00 -0.90743788835E+00 -0.21240600614E+00  0.90007710769E+02  0.89999971751E+02 0.  0.
         12    1    1    2    0    0  0.72423948812E+00  0.90743788835E+00  0.21240600614E+00  0.11802892310E+01  0.00000000000E+00 0. -1.
         11    1    3    3    0    0  0.29879338851E+02 -0.10756608989E+02  0.17182840282E+02  0.36107194955E+02  0.51100000000E-03 0. -1.
        -11    1    3    3    0    0  0.82465040878E+01 -0.46066334387E+01 -0.46805113190E+01  0.10541967927E+02  0.51100000000E-03 0.  1.
        -12    1    3    3    0    0 -0.38850082427E+02  0.14455804540E+02 -0.12714734969E+02  0.43358547886E+02  0.00000000000E+00 0.  1.
</event>
<event>
 7    1  0.3276565E-015  0.9000793E+02  0.7816164E-02  0.1186339E+00
        -11   -1    0    0    0    0  0.00000000000E+00  0.00000000000E+00  0.45593999997E+02  0.45594000000E+02  0.51100000000E-03 0.  1.
         11   -1    0    0    0    0 -0.00000000000E+00 -0.00000000000E+00 -0.45593999997E+02  0.45594000000E+02  0.51100000000E-03 0. -1.
    9900012    2    1    2    0    0 -0.37853557526E+00  0.10664260756E+01 -0.33466587308E+00  0.90007934323E+02  0.90000198255E+02 0.  0.
         12    1    1    2    0    0  0.37853557526E+00 -0.10664260756E+01  0.33466587308E+00  0.11800656775E+01  0.00000000000E+00 0. -1.
         11    1    3    3    0    0 -0.29354864018E+02  0.97224285454E+01 -0.20916776473E+02  0.37332896976E+02  0.51100000000E-03 0. -1.
        -11    1    3    3    0    0  0.25513518303E+01  0.13296222612E+02  0.22125583512E+01  0.13718394462E+02  0.51100000000E-03 0.  1.
        -12    1    3    3    0    0  0.26424976612E+02 -0.21952225081E+02  0.18369552249E+02  0.38956642884E+02  0.00000000000E+00 0.  1.
</event>
<event>
 7    1  0.3276565E-015  0.9000822E+02  0.7816164E-02  0.1186338E+00
        -11   -1    0    0    0    0  0.00000000000E+00  0.00000000000E+00  0.45593999997E+02  0.45594000000E+02  0.51100000000E-03 0.  1.
         11   -1    0    0    0    0 -0.00000000000E+00 -0.00000000000E+00 -0.45593999997E+02  0.45594000000E+02  0.51100000000E-03 0. -1.
    9900012    2    1    2    0    0  0.57650244417E+00 -0.15093671525E+00 -0.10182089408E+01  0.90008217644E+02  0.90000485316E+02 0.  0.
         12    1    1    2    0    0 -0.57650244417E+00  0.15093671525E+00  0.10182089408E+01  0.11797823559E+01  0.00000000000E+00 0. -1.
         11    1    3    3    0    0 -0.28032029517E+01  0.35430758021E+01 -0.36623426241E+02  0.36901039048E+02  0.51100000000E-03 0. -1.
        -11    1    3    3    0    0  0.17828948334E+01 -0.79282869491E+01 -0.67174435235E+01  0.10543267790E+02  0.51100000000E-03 0.  1.
        -12    1    3    3    0    0  0.15968105624E+01  0.42342744317E+01  0.42322660824E+02  0.42563910806E+02  0.00000000000E+00 0.  1.
</event>
<event>
 7    1  0.3276565E-015  0.9000775E+02  0.7816164E-02  0.1186339E+00
        -11   -1    0    0    0    0  0.00000000000E+00  0.00000000000E+00  0.45593999997E+02  0.45594000000E+02  0.51100000000E-03 0.  1.
         11   -1    0    0    0    0 -0.00000000000E+00 -0.00000000000E+00 -0.45593999997E+02  0.45594000000E+02  0.51100000000E-03 0. -1.
    9900012    2    1    2    0    0 -0.13922305830E+00  0.41006568934E+00  0.10979302720E+01  0.90007750954E+02  0.90000012466E+02 0.  0.
         12    1    1    2    0    0  0.13922305830E+00 -0.41006568934E+00 -0.10979302720E+01  0.11802490464E+01  0.00000000000E+00 0. -1.
         11    1    3    3    0    0  0.24597422432E+02 -0.25149884742E+02  0.21929345367E+02  0.41454144321E+02  0.51100000000E-03 0. -1.
        -11    1    3    3    0    0 -0.99575021407E+00  0.91492687058E+01  0.44162258646E+01  0.10208020743E+02  0.51100000000E-03 0.  1.
        -12    1    3    3    0    0 -0.23740895276E+02  0.16410681726E+02 -0.25247640960E+02  0.38345585890E+02  0.00000000000E+00 0.  1.
</event>
<event>
 7    1  0.3276565E-015  0.9000825E+02  0.7816164E-02  0.1186338E+00
        -11   -1    0    0    0    0  0.00000000000E+00  0.00000000000E+00  0.45593999997E+02  0.45594000000E+02  0.51100000000E-03 0. -1.
         11   -1    0    0    0    0 -0.00000000000E+00 -0.00000000000E+00 -0.45593999997E+02  0.45594000000E+02  0.51100000000E-03 0.  1.
    9900012    2    1    2    0    0  0.54704684301E+00  0.72389716991E+00 -0.75401183050E+00  0.90008245279E+02  0.90000513315E+02 0.  0.
         12    1    1    2    0    0 -0.54704684301E+00 -0.72389716991E+00  0.75401183050E+00  0.11797547209E+01  0.00000000000E+00 0. -1.
         11    1    3    3    0    0  0.15870908419E+01 -0.66838179545E+01  0.27310996335E+01  0.73926439964E+01  0.51100000000E-03 0. -1.
        -11    1    3    3    0    0  0.17650583476E+02  0.15327854148E+02 -0.36803595499E+02  0.43600353803E+02  0.51100000000E-03 0.  1.
         12    1    3    3    0    0 -0.18690627475E+02 -0.79201390234E+01  0.33318484035E+02  0.39015247480E+02  0.00000000000E+00 0. -1.
</event>
<event>
 7    1  0.3276565E-015  0.9000773E+02  0.7816164E-02  0.1186339E+00
        -11   -1    0    0    0    0  0.00000000000E+00  0.00000000000E+00  0.45593999997E+02  0.45594000000E+02  0.51100000000E-03 0.  1.
         11   -1    0    0    0    0 -0.00000000000E+00 -0.00000000000E+00 -0.45593999997E+02  0.45594000000E+02  0.51100000000E-03 0. -1.
    9900012    2    1    2    0    0 -0.31514859534E+00  0.10696994662E+01  0.38660132227E+00  0.90007730468E+02  0.89999991710E+02 0.  0.
         12    1    1    2    0    0  0.31514859534E+00 -0.10696994662E+01 -0.38660132227E+00  0.11802695317E+01  0.00000000000E+00 0. -1.
         11    1    3    3    0    0  0.30610790807E+02  0.23238171177E+02 -0.17270733181E+02  0.42134443610E+02  0.51100000000E-03 0. -1.
        -11    1    3    3    0    0 -0.70087148149E+00 -0.17125816100E+01  0.10524897802E+02  0.10686329145E+02  0.51100000000E-03 0.  1.
        -12    1    3    3    0    0 -0.30225067920E+02 -0.20455890101E+02  0.71324367019E+01  0.37186957713E+02  0.00000000000E+00 0.  1.
</event>
<event>
 7    1  0.3276565E-015  0.9000750E+02  0.7816164E-02  0.1186340E+00
        -11   -1    0    0    0    0  0.00000000000E+00  0.00000000000E+00  0.45593999997E+02  0.45594000000E+02  0.51100000000E-03 0. -1.
         11   -1    0    0    0    0 -0.00000000000E+00 -0.00000000000E+00 -0.45593999997E+02  0.45594000000E+02  0.51100000000E-03 0.  1.
    9900012    2    1    2    0    0  0.45560074906E+00 -0.91778186978E+00 -0.58625240573E+00  0.90007496935E+02  0.89999755094E+02 0.  0.
         12    1    1    2    0    0 -0.45560074906E+00  0.91778186978E+00  0.58625240573E+00  0.11805030649E+01  0.00000000000E+00 0. -1.
         11    1    3    3    0    0 -0.16559254474E+02 -0.18823965719E+02  0.10963113847E+02  0.27363122256E+02  0.51100000000E-03 0. -1.
        -11    1    3    3    0    0  0.34016506445E+01 -0.20077233262E+02 -0.88548448078E+01  0.22205287645E+02  0.51100000000E-03 0.  1.
        -12    1    3    3    0    0  0.13613204578E+02  0.37983417111E+02 -0.26945214449E+01  0.40439087034E+02  0.00000000000E+00 0.  1.
</event>
<event>
 7    1  0.3276565E-015  0.9000772E+02  0.7816164E-02  0.1186339E+00
        -11   -1    0    0    0    0  0.00000000000E+00  0.00000000000E+00  0.45593999997E+02  0.45594000000E+02  0.51100000000E-03 0.  1.
         11   -1    0    0    0    0 -0.00000000000E+00 -0.00000000000E+00 -0.45593999997E+02  0.45594000000E+02  0.51100000000E-03 0. -1.
    9900012    2    1    2    0    0  0.52278576692E+00  0.10557187397E+01 -0.72280752873E-01  0.90007715491E+02  0.89999976535E+02 0.  0.
         12    1    1    2    0    0 -0.52278576692E+00 -0.10557187397E+01  0.72280752873E-01  0.11802845092E+01  0.00000000000E+00 0. -1.
         11    1    3    3    0    0 -0.21293151351E+02 -0.16501917715E+02  0.25295827852E+02  0.36953896814E+02  0.51100000000E-03 0. -1.
        -11    1    3    3    0    0 -0.78402882316E+01 -0.73200559173E+00  0.26870444151E+01  0.83202259399E+01  0.51100000000E-03 0.  1.
        -12    1    3    3    0    0  0.29656225350E+02  0.18289642046E+02 -0.28055153020E+02  0.44733592737E+02  0.00000000000E+00 0.  1.
</event>
<event>
 7    1  0.3276565E-015  0.9000781E+02  0.7816164E-02  0.1186339E+00
        -11   -1    0    0    0    0  0.00000000000E+00  0.00000000000E+00  0.45593999997E+02  0.45594000000E+02  0.51100000000E-03 0.  1.
         11   -1    0    0    0    0 -0.00000000000E+00 -0.00000000000E+00 -0.45593999997E+02  0.45594000000E+02  0.51100000000E-03 0. -1.
    9900012    2    1    2    0    0  0.84198444061E+00 -0.10270641116E+00  0.82058099531E+00  0.90007813754E+02  0.90000076096E+02 0.  0.
         12    1    1    2    0    0 -0.84198444061E+00  0.10270641116E+00 -0.82058099531E+00  0.11801862459E+01  0.00000000000E+00 0. -1.
         11    1    3    3    0    0 -0.82652581157E+01  0.79535850012E+01 -0.15228331829E+00  0.11471582130E+02  0.51100000000E-03 0. -1.
        -11    1    3    3    0    0 -0.14716036034E+02  0.26110370741E+02 -0.15502761101E+02  0.33743870241E+02  0.51100000000E-03 0.  1.
         12    1    3    3    0    0  0.23823278590E+02 -0.34166662154E+02  0.16475625414E+02  0.44792361384E+02  0.00000000000E+00 0. -1.
</event>
<event>
 7    1  0.3276565E-015  0.9000786E+02  0.7816164E-02  0.1186339E+00
        -11   -1    0    0    0    0  0.00000000000E+00  0.00000000000E+00  0.45593999997E+02  0.45594000000E+02  0.51100000000E-03 0.  1.
         11   -1    0    0    0    0 -0.00000000000E+00 -0.00000000000E+00 -0.45593999997E+02  0.45594000000E+02  0.51100000000E-03 0. -1.
    9900012    2    1    2    0    0  0.10220492995E+01  0.26975631173E+00  0.52476749714E+00  0.90007858413E+02  0.90000121344E+02 0.  0.
         12    1    1    2    0    0 -0.10220492995E+01 -0.26975631173E+00 -0.52476749714E+00  0.11801415866E+01  0.00000000000E+00 0. -1.
         11    1    3    3    0    0 -0.45127547867E+01  0.31251514883E+01 -0.19547243404E+00  0.54926985465E+01  0.51100000000E-03 0. -1.
        -11    1    3    3    0    0 -0.21787137431E+02  0.38227550401E+01  0.34236721275E+02  0.40760837792E+02  0.51100000000E-03 0.  1.
        -12    1    3    3    0    0  0.27321941517E+02 -0.66781502166E+01 -0.33516481344E+02  0.43754322075E+02  0.00000000000E+00 0.  1.
</event>
<event>
 7    1  0.3276565E-015  0.9000774E+02  0.7816164E-02  0.1186339E+00
        -11   -1    0    0    0    0  0.00000000000E+00  0.00000000000E+00  0.45593999997E+02  0.45594000000E+02  0.51100000000E-03 0.  1.
         11   -1    0    0    0    0 -0.00000000000E+00 -0.00000000000E+00 -0.45593999997E+02  0.45594000000E+02  0.51100000000E-03 0. -1.
    9900012    2    1    2    0    0 -0.11170202205E+01  0.34462641005E+00 -0.16280287976E+00  0.90007743116E+02  0.90000004525E+02 0.  0.
         12    1    1    2    0    0  0.11170202205E+01 -0.34462641005E+00  0.16280287976E+00  0.11802568844E+01  0.00000000000E+00 0. -1.
         11    1    3    3    0    0 -0.14452103193E+00  0.36093957505E+01 -0.79778951149E+01  0.87575929763E+01  0.51100000000E-03 0. -1.
        -11    1    3    3    0    0  0.39311906380E+02 -0.71627492830E+01  0.81231651794E+01  0.40776424234E+02  0.51100000000E-03 0.  1.
         12    1    3    3    0    0 -0.40284405569E+02  0.38979799426E+01 -0.30807294424E+00  0.40473725905E+02  0.00000000000E+00 0. -1.
</event>
<event>
 7    1  0.3276565E-015  0.9000775E+02  0.7816164E-02  0.1186339E+00
        -11   -1    0    0    0    0  0.00000000000E+00  0.00000000000E+00  0.45593999997E+02  0.45594000000E+02  0.51100000000E-03 0.  1.
         11   -1    0    0    0    0 -0.00000000000E+00 -0.00000000000E+00 -0.45593999997E+02  0.45594000000E+02  0.51100000000E-03 0. -1.
    9900012    2    1    2    0    0 -0.89666304917E+00  0.41406666297E+00  0.64617099495E+00  0.90007748849E+02  0.90000010334E+02 0.  0.
         12    1    1    2    0    0  0.89666304917E+00 -0.41406666297E+00 -0.64617099495E+00  0.11802511512E+01  0.00000000000E+00 0. -1.
         11    1    3    3    0    0  0.12542025849E+02  0.31164575777E+01  0.69141956525E+01  0.14656767107E+02  0.51100000000E-03 0. -1.
        -11    1    3    3    0    0 -0.12072715818E+02 -0.37744643768E+02 -0.71637264343E+01  0.40270678876E+02  0.51100000000E-03 0.  1.
         12    1    3    3    0    0 -0.13659730802E+01  0.35042252854E+02  0.89570177670E+00  0.35080302866E+02  0.00000000000E+00 0. -1.
</event>
<event>
 7    1  0.3276565E-015  0.9000770E+02  0.7816164E-02  0.1186339E+00
        -11   -1    0    0    0    0  0.00000000000E+00  0.00000000000E+00  0.45593999997E+02  0.45594000000E+02  0.51100000000E-03 0. -1.
         11   -1    0    0    0    0 -0.00000000000E+00 -0.00000000000E+00 -0.45593999997E+02  0.45594000000E+02  0.51100000000E-03 0.  1.
    9900012    2    1    2    0    0  0.73733748545E+00 -0.81174849451E+00 -0.43647381071E+00  0.90007698524E+02  0.89999959345E+02 0.  0.
         12    1    1    2    0    0 -0.73733748545E+00  0.81174849451E+00  0.43647381071E+00  0.11803014756E+01  0.00000000000E+00 0. -1.
         11    1    3    3    0    0 -0.99481488646E+01  0.29558419190E+02  0.27256710796E+02  0.41419730739E+02  0.51100000000E-03 0. -1.
        -11    1    3    3    0    0  0.75345199187E+01  0.16791008326E+01 -0.54241600610E+01  0.94345048964E+01  0.51100000000E-03 0.  1.
        -12    1    3    3    0    0  0.31509664313E+01 -0.32049268517E+02 -0.22269024546E+02  0.39153462889E+02  0.00000000000E+00 0.  1.
</event>
<event>
 7    1  0.3276565E-015  0.9000776E+02  0.7816164E-02  0.1186339E+00
        -11   -1    0    0    0    0  0.00000000000E+00  0.00000000000E+00  0.45593999997E+02  0.45594000000E+02  0.51100000000E-03 0.  1.
         11   -1    0    0    0    0 -0.00000000000E+00 -0.00000000000E+00 -0.45593999997E+02  0.45594000000E+02  0.51100000000E-03 0. -1.
    9900012    2    1    2    0    0  0.45673699867E+00  0.23170450054E+00  0.10633279748E+01  0.90007761870E+02  0.90000023527E+02 0.  0.
         12    1    1    2    0    0 -0.45673699867E+00 -0.23170450054E+00 -0.10633279748E+01  0.11802381300E+01  0.00000000000E+00 0. -1.
         11    1    3    3    0    0 -0.71791492765E+01 -0.23657672231E+01  0.61448573054E+01  0.97414737310E+01  0.51100000000E-03 0. -1.
        -11    1    3    3    0    0 -0.16732626879E+02 -0.32027058715E+02  0.56840706659E+01  0.36578982378E+02  0.51100000000E-03 0.  1.
         12    1    3    3    0    0  0.24368513154E+02  0.34624530438E+02 -0.10765599996E+02  0.43687305761E+02  0.00000000000E+00 0. -1.
</event>
<event>
 7    1  0.3276565E-015  0.9000771E+02  0.7816164E-02  0.1186339E+00
        -11   -1    0    0    0    0  0.00000000000E+00  0.00000000000E+00  0.45593999997E+02  0.45594000000E+02  0.51100000000E-03 0.  1.
         11   -1    0    0    0    0 -0.00000000000E+00 -0.00000000000E+00 -0.45593999997E+02  0.45594000000E+02  0.51100000000E-03 0. -1.
    9900012    2    1    2    0    0  0.56247626610E+00  0.78519495098E+00 -0.67836057538E+00  0.90007710319E+02  0.89999971295E+02 0.  0.
         12    1    1    2    0    0 -0.56247626610E+00 -0.78519495098E+00  0.67836057538E+00  0.11802896811E+01  0.00000000000E+00 0. -1.
         11    1    3    3    0    0  0.17941765680E+02 -0.66225591487E+01  0.13480986327E+02  0.23398765736E+02  0.51100000000E-03 0. -1.
        -11    1    3    3    0    0 -0.76394961136E+01 -0.27582470205E+02 -0.84518385179E+01  0.29842723369E+02  0.51100000000E-03 0.  1.
         12    1    3    3    0    0 -0.97397933000E+01  0.34990224304E+02 -0.57075083842E+01  0.36766221214E+02  0.00000000000E+00 0. -1.
</event>
<event>
 7    1  0.3276565E-015  0.9000679E+02  0.7816164E-02  0.1186341E+00
        -11   -1    0    0    0    0  0.00000000000E+00  0.00000000000E+00  0.45593999997E+02  0.45594000000E+02  0.51100000000E-03 0.  1.
         11   -1    0    0    0    0 -0.00000000000E+00 -0.00000000000E+00 -0.45593999997E+02  0.45594000000E+02  0.51100000000E-03 0. -1.
    9900012    2    1    2    0    0  0.10243992616E+01 -0.49158983549E+00  0.32279211047E+00  0.90006793346E+02  0.89999042213E+02 0.  0.
         12    1    1    2    0    0 -0.10243992616E+01  0.49158983549E+00 -0.32279211047E+00  0.11812066543E+01  0.00000000000E+00 0. -1.
         11    1    3    3    0    0 -0.23957197603E+01 -0.28522467036E+01  0.21423855908E+01  0.42970455791E+01  0.51100000000E-03 0. -1.
        -11    1    3    3    0    0  0.10517976804E+01 -0.41567846178E+02 -0.31218566639E+01  0.41698178660E+02  0.51100000000E-03 0.  1.
         12    1    3    3    0    0  0.23683213415E+01  0.43928503046E+02  0.13022631836E+01  0.44011569107E+02  0.00000000000E+00 0. -1.
</event>
<event>
 7    1  0.3276565E-015  0.9000776E+02  0.7816164E-02  0.1186339E+00
        -11   -1    0    0    0    0  0.00000000000E+00  0.00000000000E+00  0.45593999997E+02  0.45594000000E+02  0.51100000000E-03 0.  1.
         11   -1    0    0    0    0 -0.00000000000E+00 -0.00000000000E+00 -0.45593999997E+02  0.45594000000E+02  0.51100000000E-03 0. -1.
    9900012    2    1    2    0    0 -0.32517278844E+00  0.10914589624E+01  0.30976701129E+00  0.90007756123E+02  0.90000017703E+02 0.  0.
         12    1    1    2    0    0  0.32517278844E+00 -0.10914589624E+01 -0.30976701129E+00  0.11802438775E+01  0.00000000000E+00 0. -1.
         11    1    3    3    0    0 -0.20426278317E+01  0.10563225203E+02 -0.22290320809E+01  0.10987385468E+02  0.51100000000E-03 0. -1.
        -11    1    3    3    0    0 -0.11655766861E+02 -0.38235437121E+02 -0.15095135524E+02  0.42727844197E+02  0.51100000000E-03 0.  1.
         12    1    3    3    0    0  0.13373221905E+02  0.28763670880E+02  0.17633934616E+02  0.36292526458E+02  0.00000000000E+00 0. -1.
</event>
<event>
 7    1  0.3276565E-015  0.9000774E+02  0.7816164E-02  0.1186339E+00
        -11   -1    0    0    0    0  0.00000000000E+00  0.00000000000E+00  0.45593999997E+02  0.45594000000E+02  0.51100000000E-03 0.  1.
         11   -1    0    0    0    0 -0.00000000000E+00 -0.00000000000E+00 -0.45593999997E+02  0.45594000000E+02  0.51100000000E-03 0. -1.
    9900012    2    1    2    0    0 -0.94295716864E+00 -0.70157427612E+00 -0.10786202596E+00  0.90007742018E+02  0.90000003413E+02 0.  0.
         12    1    1    2    0    0  0.94295716864E+00  0.70157427612E+00  0.10786202596E+00  0.11802579817E+01  0.00000000000E+00 0. -1.
         11    1    3    3    0    0 -0.21860560197E+01  0.21169408267E+02 -0.29939975513E+02  0.36733156974E+02  0.51100000000E-03 0. -1.
        -11    1    3    3    0    0  0.54092812849E+01 -0.15702561975E+01 -0.82085439379E+01  0.99552108158E+01  0.51100000000E-03 0.  1.
        -12    1    3    3    0    0 -0.41661824338E+01 -0.20300726345E+02  0.38040657425E+02  0.43319374229E+02  0.00000000000E+00 0.  1.
</event>
<event>
 7    1  0.3276565E-015  0.9000773E+02  0.7816164E-02  0.1186339E+00
        -11   -1    0    0    0    0  0.00000000000E+00  0.00000000000E+00  0.45593999997E+02  0.45594000000E+02  0.51100000000E-03 0. -1.
         11   -1    0    0    0    0 -0.00000000000E+00 -0.00000000000E+00 -0.45593999997E+02  0.45594000000E+02  0.51100000000E-03 0.  1.
    9900012    2    1    2    0    0  0.94042901677E+00 -0.56900790699E+00 -0.42995030918E+00  0.90007731386E+02  0.89999992640E+02 0.  0.
         12    1    1    2    0    0 -0.94042901677E+00  0.56900790699E+00  0.42995030918E+00  0.11802686144E+01  0.00000000000E+00 0. -1.
         11    1    3    3    0    0 -0.55833489600E+01 -0.36448979633E+02  0.18810412297E+02  0.41394848869E+02  0.51100000000E-03 0. -1.
        -11    1    3    3    0    0  0.83180982383E+01 -0.29707156281E+00 -0.48805252977E+01  0.96487583272E+01  0.51100000000E-03 0.  1.
        -12    1    3    3    0    0 -0.17943202615E+01  0.36177043288E+02 -0.14359837309E+02  0.38964124189E+02  0.00000000000E+00 0.  1.
</event>
<event>
 7    1  0.3276565E-015  0.9000787E+02  0.7816164E-02  0.1186339E+00
        -11   -1    0    0    0    0  0.00000000000E+00  0.00000000000E+00  0.45593999997E+02  0.45594000000E+02  0.51100000000E-03 0.  1.
         11   -1    0    0    0    0 -0.00000000000E+00 -0.00000000000E+00 -0.45593999997E+02  0.45594000000E+02  0.51100000000E-03 0. -1.
    9900012    2    1    2    0    0 -0.84740161462E+00 -0.72197507980E+00  0.39161679476E+00  0.90007872369E+02  0.90000135484E+02 0.  0.
         12    1    1    2    0    0  0.84740161462E+00  0.72197507980E+00 -0.39161679476E+00  0.11801276313E+01  0.00000000000E+00 0. -1.
         11    1    3    3    0    0 -0.65492388610E+01 -0.20146903753E+01  0.62344274837E+01  0.92638865104E+01  0.51100000000E-03 0. -1.
        -11    1    3    3    0    0 -0.15270333275E+02 -0.34017941043E+02 -0.12097174723E+02  0.39201339615E+02  0.51100000000E-03 0.  1.
         12    1    3    3    0    0  0.20972170521E+02  0.35310656338E+02  0.62543640338E+01  0.41542646243E+02  0.00000000000E+00 0. -1.
</event>
<event>
 7    1  0.3276565E-015  0.9000743E+02  0.7816164E-02  0.1186340E+00
        -11   -1    0    0    0    0  0.00000000000E+00  0.00000000000E+00  0.45593999997E+02  0.45594000000E+02  0.51100000000E-03 0.  1.
         11   -1    0    0    0    0 -0.00000000000E+00 -0.00000000000E+00 -0.45593999997E+02  0.45594000000E+02  0.51100000000E-03 0. -1.
    9900012    2    1    2    0    0 -0.74034153434E+00  0.44725844108E+00 -0.80349952059E+00  0.90007425064E+02  0.89999682274E+02 0.  0.
         12    1    1    2    0    0  0.74034153434E+00 -0.44725844108E+00  0.80349952059E+00  0.11805749363E+01  0.00000000000E+00 0. -1.
         11    1    3    3    0    0  0.47895685356E+01  0.71323025438E+01  0.22010674057E+01  0.88687318327E+01  0.51100000000E-03 0. -1.
        -11    1    3    3    0    0 -0.62396491286E+01 -0.26460537817E+02 -0.34511325653E+02  0.43933186561E+02  0.51100000000E-03 0.  1.
         12    1    3    3    0    0  0.70973905863E+00  0.19775493714E+02  0.31506758726E+02  0.37205506670E+02  0.00000000000E+00 0. -1.
</event>
<event>
 7    1  0.3276565E-015  0.9000773E+02  0.7816164E-02  0.1186339E+00
        -11   -1    0    0    0    0  0.00000000000E+00  0.00000000000E+00  0.45593999997E+02  0.45594000000E+02  0.51100000000E-03 0. -1.
         11   -1    0    0    0    0 -0.00000000000E+00 -0.00000000000E+00 -0.45593999997E+02  0.45594000000E+02  0.51100000000E-03 0.  1.
    9900012    2    1    2    0    0 -0.78570019293E+00 -0.42864159626E+00 -0.76939855723E+00  0.90007732000E+02  0.89999993263E+02 0.  0.
         12    1    1    2    0    0  0.78570019293E+00  0.42864159626E+00  0.76939855723E+00  0.11802679997E+01  0.00000000000E+00 0. -1.
         11    1    3    3    0    0 -0.42711948104E+01 -0.94288861835E+01 -0.23914759311E+01  0.10623848510E+02  0.51100000000E-03 0. -1.
        -11    1    3    3    0    0 -0.52542553792E+01  0.26568874435E+02 -0.31093459172E+02  0.41234881980E+02  0.51100000000E-03 0.  1.
         12    1    3    3    0    0  0.87397499967E+01 -0.17568629848E+02  0.32715536546E+02  0.38149001510E+02  0.00000000000E+00 0. -1.
</event>
<event>
 7    1  0.3276565E-015  0.9000775E+02  0.7816164E-02  0.1186339E+00
        -11   -1    0    0    0    0  0.00000000000E+00  0.00000000000E+00  0.45593999997E+02  0.45594000000E+02  0.51100000000E-03 0. -1.
         11   -1    0    0    0    0 -0.00000000000E+00 -0.00000000000E+00 -0.45593999997E+02  0.45594000000E+02  0.51100000000E-03 0.  1.
    9900012    2    1    2    0    0  0.93058927116E+00  0.10911195313E+00 -0.71769289564E+00  0.90007752186E+02  0.90000013715E+02 0.  0.
         12    1    1    2    0    0 -0.93058927116E+00 -0.10911195313E+00  0.71769289564E+00  0.11802478140E+01  0.00000000000E+00 0. -1.
         11    1    3    3    0    0  0.68448607883E+01 -0.34013497464E+02  0.69108556287E+01  0.35376970683E+02  0.51100000000E-03 0. -1.
        -11    1    3    3    0    0 -0.12608223740E+02  0.12926963039E+01  0.10568772969E+02  0.16502646210E+02  0.51100000000E-03 0.  1.
        -12    1    3    3    0    0  0.66939522229E+01  0.32829913113E+02 -0.18197321494E+02  0.38128135293E+02  0.00000000000E+00 0.  1.
</event>
<event>
 7    1  0.3276565E-015  0.9000770E+02  0.7816164E-02  0.1186339E+00
        -11   -1    0    0    0    0  0.00000000000E+00  0.00000000000E+00  0.45593999997E+02  0.45594000000E+02  0.51100000000E-03 0.  1.
         11   -1    0    0    0    0 -0.00000000000E+00 -0.00000000000E+00 -0.45593999997E+02  0.45594000000E+02  0.51100000000E-03 0. -1.
    9900012    2    1    2    0    0  0.95853066008E+00 -0.64265202359E+00  0.24761772402E+00  0.90007704619E+02  0.89999965520E+02 0.  0.
         12    1    1    2    0    0 -0.95853066008E+00  0.64265202359E+00 -0.24761772402E+00  0.11802953812E+01  0.00000000000E+00 0. -1.
         11    1    3    3    0    0 -0.12038980482E+02 -0.34879722058E+02 -0.20940186126E+02  0.42426683315E+02  0.51100000000E-03 0. -1.
        -11    1    3    3    0    0  0.37408141169E+01 -0.94259674149E+00  0.80100212431E+01  0.88905916255E+01  0.51100000000E-03 0.  1.
        -12    1    3    3    0    0  0.92566970247E+01  0.35179666776E+02  0.13177782607E+02  0.38690429678E+02  0.00000000000E+00 0.  1.
</event>
<event>
 7    1  0.3276565E-015  0.9000775E+02  0.7816164E-02  0.1186339E+00
        -11   -1    0    0    0    0  0.00000000000E+00  0.00000000000E+00  0.45593999997E+02  0.45594000000E+02  0.51100000000E-03 0.  1.
         11   -1    0    0    0    0 -0.00000000000E+00 -0.00000000000E+00 -0.45593999997E+02  0.45594000000E+02  0.51100000000E-03 0. -1.
    9900012    2    1    2    0    0 -0.14334046398E+00  0.10716440275E+01 -0.47332129131E+00  0.90007745597E+02  0.90000007039E+02 0.  0.
         12    1    1    2    0    0  0.14334046398E+00 -0.10716440275E+01  0.47332129131E+00  0.11802544027E+01  0.00000000000E+00 0. -1.
         11    1    3    3    0    0  0.46837310986E+01 -0.71086343758E+01  0.48300212525E+01  0.97877027566E+01  0.51100000000E-03 0. -1.
        -11    1    3    3    0    0 -0.22475012354E+02 -0.28180293463E+02 -0.14360605143E+02  0.38800542525E+02  0.51100000000E-03 0.  1.
         12    1    3    3    0    0  0.17647940791E+02  0.36360571866E+02  0.90572625988E+01  0.41419500315E+02  0.00000000000E+00 0. -1.
</event>
<event>
 7    1  0.3276565E-015  0.9000782E+02  0.7816164E-02  0.1186339E+00
        -11   -1    0    0    0    0  0.00000000000E+00  0.00000000000E+00  0.45593999997E+02  0.45594000000E+02  0.51100000000E-03 0. -1.
         11   -1    0    0    0    0 -0.00000000000E+00 -0.00000000000E+00 -0.45593999997E+02  0.45594000000E+02  0.51100000000E-03 0.  1.
    9900012    2    1    2    0    0  0.54873148311E-01  0.89479288777E+00  0.76757223239E+00  0.90007816749E+02  0.90000079130E+02 0.  0.
         12    1    1    2    0    0 -0.54873148311E-01 -0.89479288777E+00 -0.76757223239E+00  0.11801832512E+01  0.00000000000E+00 0. -1.
         11    1    3    3    0    0  0.87682845526E+01 -0.25781978201E+02  0.33742606107E+02  0.43360773530E+02  0.51100000000E-03 0. -1.
        -11    1    3    3    0    0  0.45927658911E+01  0.76599905498E+01 -0.47872789644E+01  0.10133459128E+02  0.51100000000E-03 0.  1.
        -12    1    3    3    0    0 -0.13306177295E+02  0.19016780539E+02 -0.28187754910E+02  0.36513584091E+02  0.00000000000E+00 0.  1.
</event>
<event>
 7    1  0.3276565E-015  0.9000775E+02  0.7816164E-02  0.1186339E+00
        -11   -1    0    0    0    0  0.00000000000E+00  0.00000000000E+00  0.45593999997E+02  0.45594000000E+02  0.51100000000E-03 0.  1.
         11   -1    0    0    0    0 -0.00000000000E+00 -0.00000000000E+00 -0.45593999997E+02  0.45594000000E+02  0.51100000000E-03 0. -1.
    9900012    2    1    2    0    0 -0.11461657658E+01  0.16384925022E+00 -0.22899531688E+00  0.90007753672E+02  0.90000015221E+02 0.  0.
         12    1    1    2    0    0  0.11461657658E+01 -0.16384925022E+00  0.22899531688E+00  0.11802463279E+01  0.00000000000E+00 0. -1.
         11    1    3    3    0    0 -0.87881711760E+01  0.37818575329E+01 -0.33786608302E+01  0.10146415539E+02  0.51100000000E-03 0. -1.
        -11    1    3    3    0    0  0.13891903268E+02  0.29904174179E+02  0.23187349188E+02  0.40310020744E+02  0.51100000000E-03 0.  1.
         12    1    3    3    0    0 -0.62498978573E+01 -0.33522182462E+02 -0.20037683674E+02  0.39551317390E+02  0.00000000000E+00 0. -1.
</event>
<event>
 7    1  0.3276565E-015  0.9000774E+02  0.7816164E-02  0.1186339E+00
        -11   -1    0    0    0    0  0.00000000000E+00  0.00000000000E+00  0.45593999997E+02  0.45594000000E+02  0.51100000000E-03 0.  1.
         11   -1    0    0    0    0 -0.00000000000E+00 -0.00000000000E+00 -0.45593999997E+02  0.45594000000E+02  0.51100000000E-03 0. -1.
    9900012    2    1    2    0    0  0.52206827413E+00  0.73762813089E+00  0.75918183388E+00  0.90007742571E+02  0.90000003973E+02 0.  0.
         12    1    1    2    0    0 -0.52206827413E+00 -0.73762813089E+00 -0.75918183388E+00  0.11802574292E+01  0.00000000000E+00 0. -1.
         11    1    3    3    0    0 -0.20599857408E+00 -0.90249048816E+01 -0.10920954577E+01  0.90930751830E+01  0.51100000000E-03 0. -1.
        -11    1    3    3    0    0 -0.18578964316E+02 -0.32515168811E+00 -0.34125718272E+02  0.38856766290E+02  0.51100000000E-03 0.  1.
         12    1    3    3    0    0  0.19307031164E+02  0.10087684701E+02  0.35976995563E+02  0.42057901098E+02  0.00000000000E+00 0. -1.
</event>
<event>
 7    1  0.3751671E-015  0.9000774E+02  0.7816164E-02  0.1186339E+00
        -11   -1    0    0    0    0  0.00000000000E+00  0.00000000000E+00  0.45593999997E+02  0.45594000000E+02  0.51100000000E-03 0. -1.
         11   -1    0    0    0    0 -0.00000000000E+00 -0.00000000000E+00 -0.45593999997E+02  0.45594000000E+02  0.51100000000E-03 0.  1.
    9900012    2    1    2    0    0 -0.69318954814E+00  0.63735819278E-01 -0.95311771972E+00  0.90007742659E+02  0.90000004062E+02 0.  0.
         12    1    1    2    0    0  0.69318954814E+00 -0.63735819278E-01  0.95311771972E+00  0.11802573414E+01  0.00000000000E+00 0. -1.
         11    1    3    3    0    0 -0.57359176677E+01 -0.83348474223E+01 -0.13431685053E+01  0.10206592719E+02  0.51100000000E-03 0. -1.
        -11    1    3    3    0    0  0.26707092296E+02 -0.62911061668E+01 -0.29353357642E+02  0.40180423104E+02  0.51100000000E-03 0.  1.
         12    1    3    3    0    0 -0.21664364176E+02  0.14689689408E+02  0.29743408428E+02  0.39620726835E+02  0.00000000000E+00 0. -1.
</event>
<event>
 7    1  0.3276565E-015  0.9000782E+02  0.7816164E-02  0.1186339E+00
        -11   -1    0    0    0    0  0.00000000000E+00  0.00000000000E+00  0.45593999997E+02  0.45594000000E+02  0.51100000000E-03 0. -1.
         11   -1    0    0    0    0 -0.00000000000E+00 -0.00000000000E+00 -0.45593999997E+02  0.45594000000E+02  0.51100000000E-03 0.  1.
    9900012    2    1    2    0    0  0.39080975123E+00 -0.23363522600E+00 -0.10888105370E+01  0.90007819477E+02  0.90000081894E+02 0.  0.
         12    1    1    2    0    0 -0.39080975123E+00  0.23363522600E+00  0.10888105370E+01  0.11801805226E+01  0.00000000000E+00 0. -1.
         11    1    3    3    0    0  0.36051088193E+02 -0.32669962438E+00 -0.18671955794E+02  0.40600857453E+02  0.51100000000E-03 0. -1.
        -11    1    3    3    0    0 -0.17050613735E+01 -0.10157707826E+02  0.13084357587E+01  0.10382594424E+02  0.51100000000E-03 0.  1.
        -12    1    3    3    0    0 -0.33955217068E+02  0.10250772225E+02  0.16274709498E+02  0.39024367600E+02  0.00000000000E+00 0.  1.
</event>
<event>
 7    1  0.3276565E-015  0.9000767E+02  0.7816164E-02  0.1186339E+00
        -11   -1    0    0    0    0  0.00000000000E+00  0.00000000000E+00  0.45593999997E+02  0.45594000000E+02  0.51100000000E-03 0. -1.
         11   -1    0    0    0    0 -0.00000000000E+00 -0.00000000000E+00 -0.45593999997E+02  0.45594000000E+02  0.51100000000E-03 0.  1.
    9900012    2    1    2    0    0 -0.52318499298E+00 -0.83541435349E+00 -0.64925653094E+00  0.90007672197E+02  0.89999932670E+02 0.  0.
         12    1    1    2    0    0  0.52318499298E+00  0.83541435349E+00  0.64925653094E+00  0.11803278027E+01  0.00000000000E+00 0. -1.
         11    1    3    3    0    0  0.42715257117E+01  0.51059491424E+01 -0.12707489561E+02  0.14345624411E+02  0.51100000000E-03 0. -1.
        -11    1    3    3    0    0  0.19522395715E+02  0.27029438976E+02  0.16036796978E+01  0.33380927109E+02  0.51100000000E-03 0.  1.
         12    1    3    3    0    0 -0.24317106420E+02 -0.32970802472E+02  0.10454553332E+02  0.42281120677E+02  0.00000000000E+00 0. -1.
</event>
<event>
 7    1  0.3276565E-015  0.9000802E+02  0.7816164E-02  0.1186338E+00
        -11   -1    0    0    0    0  0.00000000000E+00  0.00000000000E+00  0.45593999997E+02  0.45594000000E+02  0.51100000000E-03 0.  1.
         11   -1    0    0    0    0 -0.00000000000E+00 -0.00000000000E+00 -0.45593999997E+02  0.45594000000E+02  0.51100000000E-03 0. -1.
    9900012    2    1    2    0    0  0.50383155769E+00 -0.39642773664E+00  0.99062703725E+00  0.90008024104E+02  0.90000289221E+02 0.  0.
         12    1    1    2    0    0 -0.50383155769E+00  0.39642773664E+00 -0.99062703725E+00  0.11799758963E+01  0.00000000000E+00 0. -1.
         11    1    3    3    0    0  0.27229522169E+01  0.27453660031E+01 -0.86091318457E+01  0.94376191205E+01  0.51100000000E-03 0. -1.
        -11    1    3    3    0    0  0.20185980127E+02  0.29280463178E+02 -0.94484206666E+01  0.36797988680E+02  0.51100000000E-03 0.  1.
         12    1    3    3    0    0 -0.22405100786E+02 -0.32422256917E+02  0.19048179550E+02  0.43772416303E+02  0.00000000000E+00 0. -1.
</event>
<event>
 7    1  0.3276565E-015  0.9000776E+02  0.7816164E-02  0.1186339E+00
        -11   -1    0    0    0    0  0.00000000000E+00  0.00000000000E+00  0.45593999997E+02  0.45594000000E+02  0.51100000000E-03 0.  1.
         11   -1    0    0    0    0 -0.00000000000E+00 -0.00000000000E+00 -0.45593999997E+02  0.45594000000E+02  0.51100000000E-03 0. -1.
    9900012    2    1    2    0    0  0.51042407282E+00 -0.10559428280E+01 -0.13199957660E+00  0.90007757704E+02  0.90000019305E+02 0.  0.
         12    1    1    2    0    0 -0.51042407282E+00  0.10559428280E+01  0.13199957660E+00  0.11802422965E+01  0.00000000000E+00 0. -1.
         11    1    3    3    0    0  0.81666968608E+01  0.17256726811E+02  0.11803402709E+02  0.22445709470E+02  0.51100000000E-03 0. -1.
        -11    1    3    3    0    0 -0.79274394186E+01  0.14814016053E+02  0.16761812466E+02  0.23733051316E+02  0.51100000000E-03 0.  1.
         12    1    3    3    0    0  0.27116663067E+00 -0.33126685692E+02 -0.28697214752E+02  0.43828996917E+02  0.00000000000E+00 0. -1.
</event>
<event>
 7    1  0.3276565E-015  0.9000777E+02  0.7816164E-02  0.1186339E+00
        -11   -1    0    0    0    0  0.00000000000E+00  0.00000000000E+00  0.45593999997E+02  0.45594000000E+02  0.51100000000E-03 0. -1.
         11   -1    0    0    0    0 -0.00000000000E+00 -0.00000000000E+00 -0.45593999997E+02  0.45594000000E+02  0.51100000000E-03 0.  1.
    9900012    2    1    2    0    0 -0.10760655390E+01 -0.48396825332E+00  0.28340226887E-01  0.90007768886E+02  0.90000030635E+02 0.  0.
         12    1    1    2    0    0  0.10760655390E+01  0.48396825332E+00 -0.28340226887E-01  0.11802311142E+01  0.00000000000E+00 0. -1.
         11    1    3    3    0    0  0.36475281608E+01 -0.22344022182E+01 -0.72426320842E+01  0.84114644816E+01  0.51100000000E-03 0. -1.
        -11    1    3    3    0    0 -0.74920359392E+01 -0.13321480685E+02 -0.34159438926E+02  0.37422716606E+02  0.51100000000E-03 0.  1.
         12    1    3    3    0    0  0.27684422394E+01  0.15071914650E+02  0.41430411237E+02  0.44173587798E+02  0.00000000000E+00 0. -1.
</event>
<event>
 7    1  0.3276565E-015  0.9000770E+02  0.7816164E-02  0.1186339E+00
        -11   -1    0    0    0    0  0.00000000000E+00  0.00000000000E+00  0.45593999997E+02  0.45594000000E+02  0.51100000000E-03 0. -1.
         11   -1    0    0    0    0 -0.00000000000E+00 -0.00000000000E+00 -0.45593999997E+02  0.45594000000E+02  0.51100000000E-03 0.  1.
    9900012    2    1    2    0    0  0.86883725931E+00 -0.15234512140E+00  0.78423346029E+00  0.90007699471E+02  0.89999960304E+02 0.  0.
         12    1    1    2    0    0 -0.86883725931E+00  0.15234512140E+00 -0.78423346029E+00  0.11803005293E+01  0.00000000000E+00 0. -1.
         11    1    3    3    0    0 -0.28999885048E+02 -0.12640211352E+02  0.21293651056E+02  0.38133815064E+02  0.51100000000E-03 0. -1.
        -11    1    3    3    0    0 -0.49573603103E+01  0.79352421963E+01  0.27450298344E+01  0.97508296577E+01  0.51100000000E-03 0.  1.
        -12    1    3    3    0    0  0.34826082618E+02  0.45526240341E+01 -0.23254447430E+02  0.42123054749E+02  0.00000000000E+00 0.  1.
</event>
<event>
 7    1  0.3276565E-015  0.9000771E+02  0.7816164E-02  0.1186339E+00
        -11   -1    0    0    0    0  0.00000000000E+00  0.00000000000E+00  0.45593999997E+02  0.45594000000E+02  0.51100000000E-03 0. -1.
         11   -1    0    0    0    0 -0.00000000000E+00 -0.00000000000E+00 -0.45593999997E+02  0.45594000000E+02  0.51100000000E-03 0.  1.
    9900012    2    1    2    0    0 -0.97739119490E+00 -0.18273702054E+00 -0.63592516497E+00  0.90007708857E+02  0.89999969814E+02 0.  0.
         12    1    1    2    0    0  0.97739119490E+00  0.18273702054E+00  0.63592516497E+00  0.11802911429E+01  0.00000000000E+00 0. -1.
         11    1    3    3    0    0  0.22147488275E+02 -0.21757837563E+02  0.15472350531E+02  0.34688735398E+02  0.51100000000E-03 0. -1.
        -11    1    3    3    0    0  0.11298787083E+02 -0.14775182140E+01 -0.48709843067E+01  0.12392422604E+02  0.51100000000E-03 0.  1.
        -12    1    3    3    0    0 -0.34423666553E+02  0.23052618757E+02 -0.11237291389E+02  0.42926550855E+02  0.00000000000E+00 0.  1.
</event>
<event>
 7    1  0.3276565E-015  0.9000774E+02  0.7816164E-02  0.1186339E+00
        -11   -1    0    0    0    0  0.00000000000E+00  0.00000000000E+00  0.45593999997E+02  0.45594000000E+02  0.51100000000E-03 0. -1.
         11   -1    0    0    0    0 -0.00000000000E+00 -0.00000000000E+00 -0.45593999997E+02  0.45594000000E+02  0.51100000000E-03 0.  1.
    9900012    2    1    2    0    0 -0.99929455323E+00 -0.41463953833E+00 -0.47168711964E+00  0.90007743973E+02  0.90000005393E+02 0.  0.
         12    1    1    2    0    0  0.99929455323E+00  0.41463953833E+00  0.47168711964E+00  0.11802560272E+01  0.00000000000E+00 0. -1.
         11    1    3    3    0    0 -0.28008165686E+01 -0.31211837253E+01  0.12263784557E+02  0.12960971153E+02  0.51100000000E-03 0. -1.
        -11    1    3    3    0    0 -0.26121621461E+02  0.28006746338E+02 -0.70098142396E+01  0.38933975447E+02  0.51100000000E-03 0.  1.
         12    1    3    3    0    0  0.27923143476E+02 -0.25300202151E+02 -0.57256574372E+01  0.38112797373E+02  0.00000000000E+00 0. -1.
</event>
<event>
 7    1  0.3276565E-015  0.9000791E+02  0.7816164E-02  0.1186339E+00
        -11   -1    0    0    0    0  0.00000000000E+00  0.00000000000E+00  0.45593999997E+02  0.45594000000E+02  0.51100000000E-03 0. -1.
         11   -1    0    0    0    0 -0.00000000000E+00 -0.00000000000E+00 -0.45593999997E+02  0.45594000000E+02  0.51100000000E-03 0.  1.
    9900012    2    1    2    0    0 -0.48983202316E+00 -0.55710618926E+00  0.91777403374E+00  0.90007910218E+02  0.90000173833E+02 0.  0.
         12    1    1    2    0    0  0.48983202316E+00  0.55710618926E+00 -0.91777403374E+00  0.11800897822E+01  0.00000000000E+00 0. -1.
         11    1    3    3    0    0  0.17750879245E+02 -0.15856454691E+02  0.31867288982E+02  0.39774928996E+02  0.51100000000E-03 0. -1.
        -11    1    3    3    0    0  0.79726367295E+01 -0.18739778289E+01 -0.55334889940E+01  0.98840391557E+01  0.51100000000E-03 0.  1.
        -12    1    3    3    0    0 -0.26213347997E+02  0.17173326331E+02 -0.25416025954E+02  0.40348942066E+02  0.00000000000E+00 0.  1.
</event>
<event>
 7    1  0.3276565E-015  0.9000789E+02  0.7816164E-02  0.1186339E+00
        -11   -1    0    0    0    0  0.00000000000E+00  0.00000000000E+00  0.45593999997E+02  0.45594000000E+02  0.51100000000E-03 0. -1.
         11   -1    0    0    0    0 -0.00000000000E+00 -0.00000000000E+00 -0.45593999997E+02  0.45594000000E+02  0.51100000000E-03 0.  1.
    9900012    2    1    2    0    0  0.76370530055E+00  0.84634228535E+00  0.30516969340E+00  0.90007885772E+02  0.90000149064E+02 0.  0.
         12    1    1    2    0    0 -0.76370530055E+00 -0.84634228535E+00 -0.30516969340E+00  0.11801142283E+01  0.00000000000E+00 0. -1.
         11    1    3    3    0    0  0.24389426231E+01 -0.55693465362E+01  0.15079243438E+01  0.62641757676E+01  0.51100000000E-03 0. -1.
        -11    1    3    3    0    0  0.37337928523E+02  0.40654286828E+01 -0.17453639545E+02  0.41415916631E+02  0.51100000000E-03 0.  1.
         12    1    3    3    0    0 -0.39013165845E+02  0.23502601388E+01  0.16250884895E+02  0.42327793373E+02  0.00000000000E+00 0. -1.
</event>
<event>
 7    1  0.3276565E-015  0.9000773E+02  0.7816164E-02  0.1186339E+00
        -11   -1    0    0    0    0  0.00000000000E+00  0.00000000000E+00  0.45593999997E+02  0.45594000000E+02  0.51100000000E-03 0.  1.
         11   -1    0    0    0    0 -0.00000000000E+00 -0.00000000000E+00 -0.45593999997E+02  0.45594000000E+02  0.51100000000E-03 0. -1.
    9900012    2    1    2    0    0 -0.60787232491E+00  0.64640636878E+00  0.77825901029E+00  0.90007730097E+02  0.89999991334E+02 0.  0.
         12    1    1    2    0    0  0.60787232491E+00 -0.64640636878E+00 -0.77825901029E+00  0.11802699031E+01  0.00000000000E+00 0. -1.
         11    1    3    3    0    0  0.32011111852E+01 -0.75516827274E+01 -0.42651089089E+01  0.92447919988E+01  0.51100000000E-03 0. -1.
        -11    1    3    3    0    0  0.31054721241E+02 -0.16881090381E+02  0.11850072292E+02  0.37279902594E+02  0.51100000000E-03 0.  1.
         12    1    3    3    0    0 -0.34863704751E+02  0.25079179477E+02 -0.68067043726E+01  0.43483035504E+02  0.00000000000E+00 0. -1.
</event>
<event>
 7    1  0.3276565E-015  0.9000798E+02  0.7816164E-02  0.1186339E+00
        -11   -1    0    0    0    0  0.00000000000E+00  0.00000000000E+00  0.45593999997E+02  0.45594000000E+02  0.51100000000E-03 0.  1.
         11   -1    0    0    0    0 -0.00000000000E+00 -0.00000000000E+00 -0.45593999997E+02  0.45594000000E+02  0.51100000000E-03 0. -1.
    9900012    2    1    2    0    0 -0.49345434397E+00  0.76583999077E+00 -0.74996654083E+00  0.90007975469E+02  0.90000239945E+02 0.  0.
         12    1    1    2    0    0  0.49345434397E+00 -0.76583999077E+00  0.74996654083E+00  0.11800245309E+01  0.00000000000E+00 0. -1.
         11    1    3    3    0    0  0.52351591071E+01 -0.23031893777E+01  0.16137046362E+01  0.59426942627E+01  0.51100000000E-03 0. -1.
        -11    1    3    3    0    0  0.31361872565E+02  0.14232712800E+02  0.19509144118E+02  0.39582115519E+02  0.51100000000E-03 0.  1.
         12    1    3    3    0    0 -0.37090486016E+02 -0.11163683431E+02 -0.21872815295E+02  0.44483165688E+02  0.00000000000E+00 0. -1.
</event>
<event>
 7    1  0.3276565E-015  0.9000769E+02  0.7816164E-02  0.1186339E+00
        -11   -1    0    0    0    0  0.00000000000E+00  0.00000000000E+00  0.45593999997E+02  0.45594000000E+02  0.51100000000E-03 0.  1.
         11   -1    0    0    0    0 -0.00000000000E+00 -0.00000000000E+00 -0.45593999997E+02  0.45594000000E+02  0.51100000000E-03 0. -1.
    9900012    2    1    2    0    0  0.80514995356E+00  0.65146971317E+00  0.56609521822E+00  0.90007685198E+02  0.89999945843E+02 0.  0.
         12    1    1    2    0    0 -0.80514995356E+00 -0.65146971317E+00 -0.56609521822E+00  0.11803148016E+01  0.00000000000E+00 0. -1.
         11    1    3    3    0    0  0.72264922826E+01 -0.17490983299E+02  0.27676018439E+02  0.33527879211E+02  0.51100000000E-03 0. -1.
        -11    1    3    3    0    0  0.56066685357E+01 -0.12961868352E+02 -0.10593867871E+01  0.14162170168E+02  0.51100000000E-03 0.  1.
        -12    1    3    3    0    0 -0.12028010865E+02  0.31104321364E+02 -0.26050536434E+02  0.42317635820E+02  0.00000000000E+00 0.  1.
</event>
<event>
 7    1  0.3276565E-015  0.9000775E+02  0.7816164E-02  0.1186339E+00
        -11   -1    0    0    0    0  0.00000000000E+00  0.00000000000E+00  0.45593999997E+02  0.45594000000E+02  0.51100000000E-03 0. -1.
         11   -1    0    0    0    0 -0.00000000000E+00 -0.00000000000E+00 -0.45593999997E+02  0.45594000000E+02  0.51100000000E-03 0.  1.
    9900012    2    1    2    0    0  0.11392526183E+01 -0.25797727137E+00  0.16896914047E+00  0.90007746056E+02  0.90000007504E+02 0.  0.
         12    1    1    2    0    0 -0.11392526183E+01  0.25797727137E+00 -0.16896914047E+00  0.11802539436E+01  0.00000000000E+00 0. -1.
         11    1    3    3    0    0 -0.15021410492E+01  0.78269212197E+01 -0.47945181377E+01  0.93007810395E+01  0.51100000000E-03 0. -1.
        -11    1    3    3    0    0  0.17366016198E+02  0.40596144827E+01 -0.33396918516E+02  0.37860443143E+02  0.51100000000E-03 0.  1.
         12    1    3    3    0    0 -0.14724622531E+02 -0.12144512974E+02  0.38360405794E+02  0.42846521874E+02  0.00000000000E+00 0. -1.
</event>
<event>
 7    1  0.3276565E-015  0.9000772E+02  0.7816164E-02  0.1186339E+00
        -11   -1    0    0    0    0  0.00000000000E+00  0.00000000000E+00  0.45593999997E+02  0.45594000000E+02  0.51100000000E-03 0.  1.
         11   -1    0    0    0    0 -0.00000000000E+00 -0.00000000000E+00 -0.45593999997E+02  0.45594000000E+02  0.51100000000E-03 0. -1.
    9900012    2    1    2    0    0  0.12678942011E-01  0.14999322375E+00  0.11706375264E+01  0.90007724210E+02  0.89999985369E+02 0.  0.
         12    1    1    2    0    0 -0.12678942011E-01 -0.14999322375E+00 -0.11706375264E+01  0.11802757902E+01  0.00000000000E+00 0. -1.
         11    1    3    3    0    0  0.18966611644E+01 -0.10432265068E+02  0.12569359179E+01  0.10677516855E+02  0.51100000000E-03 0. -1.
        -11    1    3    3    0    0  0.85811609699E+01  0.15061054746E+02  0.36826467964E+02  0.40702093762E+02  0.51100000000E-03 0.  1.
         12    1    3    3    0    0 -0.10465143192E+02 -0.44787964542E+01 -0.36912766355E+02  0.38628113593E+02  0.00000000000E+00 0. -1.
</event>
<event>
 7    1  0.3276565E-015  0.9000771E+02  0.7816164E-02  0.1186339E+00
        -11   -1    0    0    0    0  0.00000000000E+00  0.00000000000E+00  0.45593999997E+02  0.45594000000E+02  0.51100000000E-03 0.  1.
         11   -1    0    0    0    0 -0.00000000000E+00 -0.00000000000E+00 -0.45593999997E+02  0.45594000000E+02  0.51100000000E-03 0. -1.
    9900012    2    1    2    0    0  0.30715129926E+00  0.10298004395E+01  0.48810936919E+00  0.90007711212E+02  0.89999972200E+02 0.  0.
         12    1    1    2    0    0 -0.30715129926E+00 -0.10298004395E+01 -0.48810936919E+00  0.11802887876E+01  0.00000000000E+00 0. -1.
         11    1    3    3    0    0 -0.30018109227E+01 -0.17906669687E+02 -0.32704710659E+02  0.37406654323E+02  0.51100000000E-03 0. -1.
        -11    1    3    3    0    0 -0.35915283388E+01 -0.83529984573E+01  0.16466448878E-01  0.90924105957E+01  0.51100000000E-03 0.  1.
        -12    1    3    3    0    0  0.69004905607E+01  0.27289468583E+02  0.33176353579E+02  0.43508646294E+02  0.00000000000E+00 0.  1.
</event>
<event>
 7    1  0.3276565E-015  0.9000773E+02  0.7816164E-02  0.1186339E+00
        -11   -1    0    0    0    0  0.00000000000E+00  0.00000000000E+00  0.45593999997E+02  0.45594000000E+02  0.51100000000E-03 0.  1.
         11   -1    0    0    0    0 -0.00000000000E+00 -0.00000000000E+00 -0.45593999997E+02  0.45594000000E+02  0.51100000000E-03 0. -1.
    9900012    2    1    2    0    0  0.10420809199E+01 -0.47608664033E-01  0.55212777209E+00  0.90007727021E+02  0.89999988218E+02 0.  0.
         12    1    1    2    0    0 -0.10420809199E+01  0.47608664033E-01 -0.55212777209E+00  0.11802729791E+01  0.00000000000E+00 0. -1.
         11    1    3    3    0    0  0.10740984753E+01 -0.26907356338E+02 -0.23315974946E+02  0.35620137571E+02  0.51100000000E-03 0. -1.
        -11    1    3    3    0    0 -0.16240785404E+02  0.25168173853E+01 -0.31644880308E+00  0.16437689022E+02  0.51100000000E-03 0.  1.
        -12    1    3    3    0    0  0.16208767849E+02  0.24342930289E+02  0.24184551521E+02  0.37949900428E+02  0.00000000000E+00 0.  1.
</event>
<event>
 7    1  0.3276565E-015  0.9000776E+02  0.7816164E-02  0.1186339E+00
        -11   -1    0    0    0    0  0.00000000000E+00  0.00000000000E+00  0.45593999997E+02  0.45594000000E+02  0.51100000000E-03 0.  1.
         11   -1    0    0    0    0 -0.00000000000E+00 -0.00000000000E+00 -0.45593999997E+02  0.45594000000E+02  0.51100000000E-03 0. -1.
    9900012    2    1    2    0    0  0.30461572395E+00 -0.89255747947E+00 -0.70959552895E+00  0.90007756208E+02  0.90000017790E+02 0.  0.
         12    1    1    2    0    0 -0.30461572395E+00  0.89255747947E+00  0.70959552895E+00  0.11802437918E+01  0.00000000000E+00 0. -1.
         11    1    3    3    0    0 -0.29923672885E+01 -0.41269138402E+02  0.16162976620E+02  0.44422267614E+02  0.51100000000E-03 0. -1.
        -11    1    3    3    0    0 -0.31230794083E+01  0.73945547150E+01 -0.67638025144E+01  0.10496765651E+02  0.51100000000E-03 0.  1.
        -12    1    3    3    0    0  0.64200624208E+01  0.32982026208E+02 -0.10108769634E+02  0.35088722943E+02  0.00000000000E+00 0.  1.
</event>
<event>
 7    1  0.3276565E-015  0.9000765E+02  0.7816164E-02  0.1186339E+00
        -11   -1    0    0    0    0  0.00000000000E+00  0.00000000000E+00  0.45593999997E+02  0.45594000000E+02  0.51100000000E-03 0. -1.
         11   -1    0    0    0    0 -0.00000000000E+00 -0.00000000000E+00 -0.45593999997E+02  0.45594000000E+02  0.51100000000E-03 0.  1.
    9900012    2    1    2    0    0 -0.80545673148E+00  0.33431062106E+00 -0.79542377721E+00  0.90007651271E+02  0.89999911467E+02 0.  0.
         12    1    1    2    0    0  0.80545673148E+00 -0.33431062106E+00  0.79542377721E+00  0.11803487294E+01  0.00000000000E+00 0. -1.
         11    1    3    3    0    0 -0.27852405346E+02  0.18389416939E+02 -0.25484834095E+02  0.41992903068E+02  0.51100000000E-03 0. -1.
        -11    1    3    3    0    0  0.31872870784E+01  0.61571916619E+01  0.62921158590E+01  0.93627202418E+01  0.51100000000E-03 0.  1.
        -12    1    3    3    0    0  0.23859661536E+02 -0.24212297980E+02  0.18397294459E+02  0.38652027961E+02  0.00000000000E+00 0.  1.
</event>
<event>
 7    1  0.3276565E-015  0.9000777E+02  0.7816164E-02  0.1186339E+00
        -11   -1    0    0    0    0  0.00000000000E+00  0.00000000000E+00  0.45593999997E+02  0.45594000000E+02  0.51100000000E-03 0. -1.
         11   -1    0    0    0    0 -0.00000000000E+00 -0.00000000000E+00 -0.45593999997E+02  0.45594000000E+02  0.51100000000E-03 0.  1.
    9900012    2    1    2    0    0 -0.27322301441E+00 -0.10577664911E+01  0.44657642615E+00  0.90007766434E+02  0.90000028151E+02 0.  0.
         12    1    1    2    0    0  0.27322301441E+00  0.10577664911E+01 -0.44657642615E+00  0.11802335658E+01  0.00000000000E+00 0. -1.
         11    1    3    3    0    0 -0.22158878513E+02 -0.73343945611E+01  0.31048413266E+02  0.38843444841E+02  0.51100000000E-03 0. -1.
        -11    1    3    3    0    0 -0.65460079282E+01 -0.70038612581E+01 -0.80929500230E+01  0.12545920957E+02  0.51100000000E-03 0.  1.
        -12    1    3    3    0    0  0.28431663427E+02  0.13280489328E+02 -0.22508886817E+02  0.38618400636E+02  0.00000000000E+00 0.  1.
</event>
<event>
 7    1  0.3276565E-015  0.9000773E+02  0.7816164E-02  0.1186339E+00
        -11   -1    0    0    0    0  0.00000000000E+00  0.00000000000E+00  0.45593999997E+02  0.45594000000E+02  0.51100000000E-03 0.  1.
         11   -1    0    0    0    0 -0.00000000000E+00 -0.00000000000E+00 -0.45593999997E+02  0.45594000000E+02  0.51100000000E-03 0. -1.
    9900012    2    1    2    0    0 -0.11029193399E+01 -0.39532450361E+00  0.14258233036E+00  0.90007727890E+02  0.89999989098E+02 0.  0.
         12    1    1    2    0    0  0.11029193399E+01  0.39532450361E+00 -0.14258233036E+00  0.11802721103E+01  0.00000000000E+00 0. -1.
         11    1    3    3    0    0  0.46640479791E+01 -0.22432162303E+01  0.44659936947E+01  0.68359682964E+01  0.51100000000E-03 0. -1.
        -11    1    3    3    0    0 -0.12027855218E+02 -0.27600870822E+02  0.26482241391E+02  0.40097212879E+02  0.51100000000E-03 0.  1.
         12    1    3    3    0    0  0.62608878994E+01  0.29448762549E+02 -0.30805652755E+02  0.43074546714E+02  0.00000000000E+00 0. -1.
</event>
<event>
 7    1  0.3276565E-015  0.9000774E+02  0.7816164E-02  0.1186339E+00
        -11   -1    0    0    0    0  0.00000000000E+00  0.00000000000E+00  0.45593999997E+02  0.45594000000E+02  0.51100000000E-03 0.  1.
         11   -1    0    0    0    0 -0.00000000000E+00 -0.00000000000E+00 -0.45593999997E+02  0.45594000000E+02  0.51100000000E-03 0. -1.
    9900012    2    1    2    0    0 -0.89902272513E+00 -0.76465562964E+00  0.80913999406E-02  0.90007743433E+02  0.90000004847E+02 0.  0.
         12    1    1    2    0    0  0.89902272513E+00  0.76465562964E+00 -0.80913999406E-02  0.11802565666E+01  0.00000000000E+00 0. -1.
         11    1    3    3    0    0  0.36907565121E+01  0.90249846953E+01  0.14363729522E+01  0.98557191469E+01  0.51100000000E-03 0. -1.
        -11    1    3    3    0    0 -0.29952478341E+01  0.45883969163E+01  0.37875884507E+02  0.38270191054E+02  0.51100000000E-03 0.  1.
         12    1    3    3    0    0 -0.15945314031E+01 -0.14378037241E+02 -0.39304166059E+02  0.41881833233E+02  0.00000000000E+00 0. -1.
</event>
<event>
 7    1  0.3276565E-015  0.9000773E+02  0.7816164E-02  0.1186339E+00
        -11   -1    0    0    0    0  0.00000000000E+00  0.00000000000E+00  0.45593999997E+02  0.45594000000E+02  0.51100000000E-03 0.  1.
         11   -1    0    0    0    0 -0.00000000000E+00 -0.00000000000E+00 -0.45593999997E+02  0.45594000000E+02  0.51100000000E-03 0. -1.
    9900012    2    1    2    0    0 -0.79605298477E+00 -0.86874243201E+00  0.68036426573E-01  0.90007727691E+02  0.89999988897E+02 0.  0.
         12    1    1    2    0    0  0.79605298477E+00  0.86874243201E+00 -0.68036426573E-01  0.11802723089E+01  0.00000000000E+00 0. -1.
         11    1    3    3    0    0 -0.16725706325E+02 -0.31053697362E+02 -0.13584212637E+02  0.37796986721E+02  0.51100000000E-03 0. -1.
        -11    1    3    3    0    0 -0.61703112103E+01  0.51142532553E+01 -0.88354402816E+01  0.11928676876E+02  0.51100000000E-03 0.  1.
        -12    1    3    3    0    0  0.22099964551E+02  0.25070701675E+02  0.22487689345E+02  0.40282064094E+02  0.00000000000E+00 0.  1.
</event>
<event>
 7    1  0.3276565E-015  0.9000773E+02  0.7816164E-02  0.1186339E+00
        -11   -1    0    0    0    0  0.00000000000E+00  0.00000000000E+00  0.45593999997E+02  0.45594000000E+02  0.51100000000E-03 0. -1.
         11   -1    0    0    0    0 -0.00000000000E+00 -0.00000000000E+00 -0.45593999997E+02  0.45594000000E+02  0.51100000000E-03 0.  1.
    9900012    2    1    2    0    0  0.22508268665E+00 -0.70972349730E+00 -0.91579103027E+00  0.90007727629E+02  0.89999988834E+02 0.  0.
         12    1    1    2    0    0 -0.22508268665E+00  0.70972349730E+00  0.91579103027E+00  0.11802723709E+01  0.00000000000E+00 0. -1.
         11    1    3    3    0    0 -0.81469579769E+01 -0.77021694582E+01  0.27463780125E+01  0.11542916923E+02  0.51100000000E-03 0. -1.
        -11    1    3    3    0    0 -0.32272853132E+02 -0.14821495458E+01  0.11457652073E+02  0.34278442319E+02  0.51100000000E-03 0.  1.
         12    1    3    3    0    0  0.40644893796E+02  0.84745955068E+01 -0.15119821116E+02  0.44186368387E+02  0.00000000000E+00 0. -1.
</event>
<event>
 7    1  0.3276565E-015  0.9000779E+02  0.7816164E-02  0.1186339E+00
        -11   -1    0    0    0    0  0.00000000000E+00  0.00000000000E+00  0.45593999997E+02  0.45594000000E+02  0.51100000000E-03 0. -1.
         11   -1    0    0    0    0 -0.00000000000E+00 -0.00000000000E+00 -0.45593999997E+02  0.45594000000E+02  0.51100000000E-03 0.  1.
    9900012    2    1    2    0    0  0.83802747416E+00  0.55086238806E+00 -0.62221675378E+00  0.90007791075E+02  0.90000053117E+02 0.  0.
         12    1    1    2    0    0 -0.83802747416E+00 -0.55086238806E+00  0.62221675378E+00  0.11802089250E+01  0.00000000000E+00 0. -1.
         11    1    3    3    0    0  0.41345966758E+00 -0.92180808614E+00  0.10115530966E+02  0.10165856876E+02  0.51100000000E-03 0. -1.
        -11    1    3    3    0    0 -0.93143695864E+01 -0.35085373183E+02  0.86695153768E+01  0.37321594142E+02  0.51100000000E-03 0.  1.
         12    1    3    3    0    0  0.97389373930E+01  0.36558043657E+02 -0.19407263097E+02  0.42520340056E+02  0.00000000000E+00 0. -1.
</event>
<event>
 7    1  0.3276565E-015  0.9000776E+02  0.7816164E-02  0.1186339E+00
        -11   -1    0    0    0    0  0.00000000000E+00  0.00000000000E+00  0.45593999997E+02  0.45594000000E+02  0.51100000000E-03 0.  1.
         11   -1    0    0    0    0 -0.00000000000E+00 -0.00000000000E+00 -0.45593999997E+02  0.45594000000E+02  0.51100000000E-03 0. -1.
    9900012    2    1    2    0    0  0.15783343726E+00  0.52493780508E+00  0.10452234858E+01  0.90007761368E+02  0.90000023018E+02 0.  0.
         12    1    1    2    0    0 -0.15783343726E+00 -0.52493780508E+00 -0.10452234858E+01  0.11802386320E+01  0.00000000000E+00 0. -1.
         11    1    3    3    0    0 -0.26095245152E+02 -0.87930717717E+01 -0.31047619069E+02  0.41499814226E+02  0.51100000000E-03 0. -1.
        -11    1    3    3    0    0 -0.12978559154E+01  0.86250787227E+01  0.62809202231E+01  0.10748319499E+02  0.51100000000E-03 0.  1.
        -12    1    3    3    0    0  0.27550934505E+02  0.69293085406E+00  0.25811922331E+02  0.37759627642E+02  0.00000000000E+00 0.  1.
</event>
<event>
 7    1  0.3276565E-015  0.9000792E+02  0.7816164E-02  0.1186339E+00
        -11   -1    0    0    0    0  0.00000000000E+00  0.00000000000E+00  0.45593999997E+02  0.45594000000E+02  0.51100000000E-03 0.  1.
         11   -1    0    0    0    0 -0.00000000000E+00 -0.00000000000E+00 -0.45593999997E+02  0.45594000000E+02  0.51100000000E-03 0. -1.
    9900012    2    1    2    0    0  0.60337156723E+00 -0.50562189816E+00  0.87913143286E+00  0.90007922533E+02  0.90000186310E+02 0.  0.
         12    1    1    2    0    0 -0.60337156723E+00  0.50562189816E+00 -0.87913143286E+00  0.11800774671E+01  0.00000000000E+00 0. -1.
         11    1    3    3    0    0 -0.31963496893E+02 -0.12089028778E+02 -0.24964565351E+02  0.42320671945E+02  0.51100000000E-03 0. -1.
        -11    1    3    3    0    0  0.73760060888E+01 -0.47707908102E+01  0.12587864821E+01  0.88741452797E+01  0.51100000000E-03 0.  1.
        -12    1    3    3    0    0  0.25190862372E+02  0.16354197690E+02  0.24584910302E+02  0.38813105308E+02  0.00000000000E+00 0.  1.
</event>
<event>
 7    1  0.3276565E-015  0.9000761E+02  0.7816164E-02  0.1186339E+00
        -11   -1    0    0    0    0  0.00000000000E+00  0.00000000000E+00  0.45593999997E+02  0.45594000000E+02  0.51100000000E-03 0. -1.
         11   -1    0    0    0    0 -0.00000000000E+00 -0.00000000000E+00 -0.45593999997E+02  0.45594000000E+02  0.51100000000E-03 0.  1.
    9900012    2    1    2    0    0 -0.13848847218E+00 -0.32005639781E+00 -0.11276989575E+01  0.90007610194E+02  0.89999869849E+02 0.  0.
         12    1    1    2    0    0  0.13848847218E+00  0.32005639781E+00  0.11276989575E+01  0.11803898058E+01  0.00000000000E+00 0. -1.
         11    1    3    3    0    0  0.12263672226E+02  0.26503857548E+02  0.30677819454E+02  0.42355409667E+02  0.51100000000E-03 0. -1.
        -11    1    3    3    0    0 -0.68550655083E+01 -0.65229866374E+01  0.61867614341E-01  0.94628275720E+01  0.51100000000E-03 0.  1.
        -12    1    3    3    0    0 -0.55470951896E+01 -0.20300927308E+02 -0.31867386026E+02  0.38189372955E+02  0.00000000000E+00 0.  1.
</event>
<event>
 7    1  0.3276565E-015  0.9000764E+02  0.7816164E-02  0.1186339E+00
        -11   -1    0    0    0    0  0.00000000000E+00  0.00000000000E+00  0.45593999997E+02  0.45594000000E+02  0.51100000000E-03 0. -1.
         11   -1    0    0    0    0 -0.00000000000E+00 -0.00000000000E+00 -0.45593999997E+02  0.45594000000E+02  0.51100000000E-03 0.  1.
    9900012    2    1    2    0    0 -0.10475635658E+01  0.54380302536E+00  0.11268417927E-01  0.90007644913E+02  0.89999905026E+02 0.  0.
         12    1    1    2    0    0  0.10475635658E+01 -0.54380302536E+00 -0.11268417927E-01  0.11803550873E+01  0.00000000000E+00 0. -1.
         11    1    3    3    0    0  0.86637675957E+01  0.14135786928E+01  0.31164188784E+01  0.93151028206E+01  0.51100000000E-03 0. -1.
        -11    1    3    3    0    0 -0.35558155322E+02 -0.23090832865E+02  0.11003466892E+02  0.43802343045E+02  0.51100000000E-03 0.  1.
         12    1    3    3    0    0  0.25846824161E+02  0.22221057197E+02 -0.14108617352E+02  0.36890199047E+02  0.00000000000E+00 0. -1.
</event>
<event>
 7    1  0.3276565E-015  0.9000772E+02  0.7816164E-02  0.1186339E+00
        -11   -1    0    0    0    0  0.00000000000E+00  0.00000000000E+00  0.45593999997E+02  0.45594000000E+02  0.51100000000E-03 0. -1.
         11   -1    0    0    0    0 -0.00000000000E+00 -0.00000000000E+00 -0.45593999997E+02  0.45594000000E+02  0.51100000000E-03 0.  1.
    9900012    2    1    2    0    0 -0.24554062388E+00 -0.90926395787E+00 -0.71134583893E+00  0.90007718658E+02  0.89999979745E+02 0.  0.
         12    1    1    2    0    0  0.24554062388E+00  0.90926395787E+00  0.71134583893E+00  0.11802813417E+01  0.00000000000E+00 0. -1.
         11    1    3    3    0    0 -0.86634495236E+01 -0.97924950021E+00  0.64464544034E+01  0.10843019038E+02  0.51100000000E-03 0. -1.
        -11    1    3    3    0    0 -0.24185482692E+02 -0.21817133311E+02 -0.19548277819E+02  0.37987630157E+02  0.51100000000E-03 0.  1.
         12    1    3    3    0    0  0.32603391592E+02  0.21887118854E+02  0.12390477576E+02  0.41177069463E+02  0.00000000000E+00 0. -1.
</event>
<event>
 7    1  0.3276565E-015  0.9000778E+02  0.7816164E-02  0.1186339E+00
        -11   -1    0    0    0    0  0.00000000000E+00  0.00000000000E+00  0.45593999997E+02  0.45594000000E+02  0.51100000000E-03 0.  1.
         11   -1    0    0    0    0 -0.00000000000E+00 -0.00000000000E+00 -0.45593999997E+02  0.45594000000E+02  0.51100000000E-03 0. -1.
    9900012    2    1    2    0    0  0.11691424642E+01 -0.10801479548E+00  0.11982346262E+00  0.90007780122E+02  0.90000042020E+02 0.  0.
         12    1    1    2    0    0 -0.11691424642E+01  0.10801479548E+00 -0.11982346262E+00  0.11802198778E+01  0.00000000000E+00 0. -1.
         11    1    3    3    0    0 -0.11262445720E+02  0.32575636587E+02 -0.74248546508E+00  0.34475586544E+02  0.51100000000E-03 0. -1.
        -11    1    3    3    0    0  0.11302258612E+02  0.85618325164E+01 -0.11233527010E+01  0.14223499827E+02  0.51100000000E-03 0.  1.
        -12    1    3    3    0    0  0.11293295721E+01 -0.41245483899E+02  0.19856616287E+01  0.41308693751E+02  0.00000000000E+00 0.  1.
</event>
<event>
 7    1  0.3276565E-015  0.9000769E+02  0.7816164E-02  0.1186339E+00
        -11   -1    0    0    0    0  0.00000000000E+00  0.00000000000E+00  0.45593999997E+02  0.45594000000E+02  0.51100000000E-03 0.  1.
         11   -1    0    0    0    0 -0.00000000000E+00 -0.00000000000E+00 -0.45593999997E+02  0.45594000000E+02  0.51100000000E-03 0. -1.
    9900012    2    1    2    0    0  0.10471683158E+01  0.38189707160E+00 -0.38824378698E+00  0.90007686443E+02  0.89999947104E+02 0.  0.
         12    1    1    2    0    0 -0.10471683158E+01 -0.38189707160E+00  0.38824378698E+00  0.11803135571E+01  0.00000000000E+00 0. -1.
         11    1    3    3    0    0 -0.41466697243E+00 -0.35861101749E+02  0.18084845162E+02  0.40165310806E+02  0.51100000000E-03 0. -1.
        -11    1    3    3    0    0  0.37308098397E+01  0.40758296423E+01  0.68786063952E+01  0.88230695076E+01  0.51100000000E-03 0.  1.
        -12    1    3    3    0    0 -0.22689745515E+01  0.32167169178E+02 -0.25351695344E+02  0.41019306129E+02  0.00000000000E+00 0.  1.
</event>
<event>
 7    1  0.3276565E-015  0.9000777E+02  0.7816164E-02  0.1186339E+00
        -11   -1    0    0    0    0  0.00000000000E+00  0.00000000000E+00  0.45593999997E+02  0.45594000000E+02  0.51100000000E-03 0. -1.
         11   -1    0    0    0    0 -0.00000000000E+00 -0.00000000000E+00 -0.45593999997E+02  0.45594000000E+02  0.51100000000E-03 0.  1.
    9900012    2    1    2    0    0  0.74318206894E+00  0.58338647651E+00 -0.70731218505E+00  0.90007767016E+02  0.90000028741E+02 0.  0.
         12    1    1    2    0    0 -0.74318206894E+00 -0.58338647651E+00  0.70731218505E+00  0.11802329836E+01  0.00000000000E+00 0. -1.
         11    1    3    3    0    0  0.42358937395E+01  0.26203392429E+01  0.16188715416E+01  0.52373389092E+01  0.51100000000E-03 0. -1.
        -11    1    3    3    0    0 -0.24379325395E+01 -0.75869408008E+01 -0.42986806665E+02  0.43719226128E+02  0.51100000000E-03 0.  1.
         12    1    3    3    0    0 -0.10547791310E+01  0.55499880344E+01  0.40660622938E+02  0.41051201979E+02  0.00000000000E+00 0. -1.
</event>
<event>
 7    1  0.3276565E-015  0.9000697E+02  0.7816164E-02  0.1186341E+00
        -11   -1    0    0    0    0  0.00000000000E+00  0.00000000000E+00  0.45593999997E+02  0.45594000000E+02  0.51100000000E-03 0.  1.
         11   -1    0    0    0    0 -0.00000000000E+00 -0.00000000000E+00 -0.45593999997E+02  0.45594000000E+02  0.51100000000E-03 0. -1.
    9900012    2    1    2    0    0  0.91925353000E+00  0.72048750060E+00  0.17519738784E+00  0.90006973575E+02  0.89999224823E+02 0.  0.
         12    1    1    2    0    0 -0.91925353000E+00 -0.72048750060E+00 -0.17519738784E+00  0.11810264246E+01  0.00000000000E+00 0. -1.
         11    1    3    3    0    0  0.23150457791E+02  0.16315495085E+02 -0.17948792222E+02  0.33530556487E+02  0.51100000000E-03 0. -1.
        -11    1    3    3    0    0  0.86898850297E+01  0.97632407942E+01  0.14519914349E+01  0.13150789027E+02  0.51100000000E-03 0.  1.
        -12    1    3    3    0    0 -0.30921089291E+02 -0.25358248379E+02  0.16671998175E+02  0.43325628062E+02  0.00000000000E+00 0.  1.
</event>
<event>
 7    1  0.3276565E-015  0.9000773E+02  0.7816164E-02  0.1186339E+00
        -11   -1    0    0    0    0  0.00000000000E+00  0.00000000000E+00  0.45593999997E+02  0.45594000000E+02  0.51100000000E-03 0.  1.
         11   -1    0    0    0    0 -0.00000000000E+00 -0.00000000000E+00 -0.45593999997E+02  0.45594000000E+02  0.51100000000E-03 0. -1.
    9900012    2    1    2    0    0 -0.41382922879E+00 -0.10598779061E+01 -0.31375250882E+00  0.90007730351E+02  0.89999991592E+02 0.  0.
         12    1    1    2    0    0  0.41382922879E+00  0.10598779061E+01  0.31375250882E+00  0.11802696486E+01  0.00000000000E+00 0. -1.
         11    1    3    3    0    0 -0.53265845509E+01  0.12178921254E+02 -0.39333393898E+02  0.41518845139E+02  0.51100000000E-03 0. -1.
        -11    1    3    3    0    0 -0.77726769898E+00 -0.83735139694E+01 -0.34703440189E+00  0.84166688428E+01  0.51100000000E-03 0.  1.
        -12    1    3    3    0    0  0.56900230211E+01 -0.48652851903E+01  0.39366675791E+02  0.40072216370E+02  0.00000000000E+00 0.  1.
</event>
<event>
 7    1  0.3276565E-015  0.9000770E+02  0.7816164E-02  0.1186339E+00
        -11   -1    0    0    0    0  0.00000000000E+00  0.00000000000E+00  0.45593999997E+02  0.45594000000E+02  0.51100000000E-03 0. -1.
         11   -1    0    0    0    0 -0.00000000000E+00 -0.00000000000E+00 -0.45593999997E+02  0.45594000000E+02  0.51100000000E-03 0.  1.
    9900012    2    1    2    0    0 -0.78687484977E+00 -0.43668200912E+00 -0.76369986408E+00  0.90007703135E+02  0.89999964017E+02 0.  0.
         12    1    1    2    0    0  0.78687484977E+00  0.43668200912E+00  0.76369986408E+00  0.11802968646E+01  0.00000000000E+00 0. -1.
         11    1    3    3    0    0  0.54090022698E+01  0.56102532793E+01  0.19837102135E+01  0.80416014503E+01  0.51100000000E-03 0. -1.
        -11    1    3    3    0    0 -0.14171929021E+02  0.34014657675E+02 -0.14283703760E+02  0.39520433984E+02  0.51100000000E-03 0.  1.
         12    1    3    3    0    0  0.79760519011E+01 -0.40061592963E+02  0.11536293682E+02  0.42445667701E+02  0.00000000000E+00 0. -1.
</event>
<event>
 7    1  0.3276565E-015  0.9000778E+02  0.7816164E-02  0.1186339E+00
        -11   -1    0    0    0    0  0.00000000000E+00  0.00000000000E+00  0.45593999997E+02  0.45594000000E+02  0.51100000000E-03 0.  1.
         11   -1    0    0    0    0 -0.00000000000E+00 -0.00000000000E+00 -0.45593999997E+02  0.45594000000E+02  0.51100000000E-03 0. -1.
    9900012    2    1    2    0    0  0.96502501851E+00 -0.55530491556E+00  0.39152331380E+00  0.90007776572E+02  0.90000038422E+02 0.  0.
         12    1    1    2    0    0 -0.96502501851E+00  0.55530491556E+00 -0.39152331380E+00  0.11802234284E+01  0.00000000000E+00 0. -1.
         11    1    3    3    0    0 -0.15610870849E+02  0.21042327437E+02 -0.28620953824E+02  0.38802549280E+02  0.51100000000E-03 0. -1.
        -11    1    3    3    0    0  0.26041883300E+01  0.11952930807E+01 -0.62959923695E+01  0.69173725203E+01  0.51100000000E-03 0.  1.
        -12    1    3    3    0    0  0.13971707537E+02 -0.22792925433E+02  0.35308469507E+02  0.44287854771E+02  0.00000000000E+00 0.  1.
</event>
<event>
 7    1  0.3276565E-015  0.9000777E+02  0.7816164E-02  0.1186339E+00
        -11   -1    0    0    0    0  0.00000000000E+00  0.00000000000E+00  0.45593999997E+02  0.45594000000E+02  0.51100000000E-03 0.  1.
         11   -1    0    0    0    0 -0.00000000000E+00 -0.00000000000E+00 -0.45593999997E+02  0.45594000000E+02  0.51100000000E-03 0. -1.
    9900012    2    1    2    0    0 -0.11405777387E+01  0.74228189809E-01  0.29413878795E+00  0.90007769078E+02  0.90000030830E+02 0.  0.
         12    1    1    2    0    0  0.11405777387E+01 -0.74228189809E-01 -0.29413878795E+00  0.11802309218E+01  0.00000000000E+00 0. -1.
         11    1    3    3    0    0 -0.44512245104E+01 -0.93978697425E+01  0.32780427278E+01  0.10903160997E+02  0.51100000000E-03 0. -1.
        -11    1    3    3    0    0  0.16341647150E+02 -0.31605567530E+02 -0.51708492416E+01  0.35954123722E+02  0.51100000000E-03 0.  1.
         12    1    3    3    0    0 -0.13031000378E+02  0.41077665462E+02  0.21869453017E+01  0.43150484359E+02  0.00000000000E+00 0. -1.
</event>
<event>
 7    1  0.3276565E-015  0.9000775E+02  0.7816164E-02  0.1186339E+00
        -11   -1    0    0    0    0  0.00000000000E+00  0.00000000000E+00  0.45593999997E+02  0.45594000000E+02  0.51100000000E-03 0. -1.
         11   -1    0    0    0    0 -0.00000000000E+00 -0.00000000000E+00 -0.45593999997E+02  0.45594000000E+02  0.51100000000E-03 0.  1.
    9900012    2    1    2    0    0 -0.72224469769E+00 -0.33070989529E+00  0.87291507583E+00  0.90007751226E+02  0.90000012742E+02 0.  0.
         12    1    1    2    0    0  0.72224469769E+00  0.33070989529E+00 -0.87291507583E+00  0.11802487737E+01  0.00000000000E+00 0. -1.
         11    1    3    3    0    0 -0.90903631470E+01 -0.10613095081E+02  0.12332191982E+02  0.18637474311E+02  0.51100000000E-03 0. -1.
        -11    1    3    3    0    0 -0.24527477858E+02 -0.11949414314E+01 -0.24004546821E+02  0.34340112455E+02  0.51100000000E-03 0.  1.
         12    1    3    3    0    0  0.32895596307E+02  0.11477326617E+02  0.12545269915E+02  0.37030164460E+02  0.00000000000E+00 0. -1.
</event>
<event>
 7    1  0.3276565E-015  0.9000785E+02  0.7816164E-02  0.1186339E+00
        -11   -1    0    0    0    0  0.00000000000E+00  0.00000000000E+00  0.45593999997E+02  0.45594000000E+02  0.51100000000E-03 0.  1.
         11   -1    0    0    0    0 -0.00000000000E+00 -0.00000000000E+00 -0.45593999997E+02  0.45594000000E+02  0.51100000000E-03 0. -1.
    9900012    2    1    2    0    0 -0.31642657098E+00 -0.10713052245E-01  0.11368852188E+01  0.90007852321E+02  0.90000115171E+02 0.  0.
         12    1    1    2    0    0  0.31642657098E+00  0.10713052245E-01 -0.11368852188E+01  0.11801476794E+01  0.00000000000E+00 0. -1.
         11    1    3    3    0    0 -0.30354940829E+01 -0.10156028216E+02 -0.27027238901E+02  0.29031547949E+02  0.51100000000E-03 0. -1.
        -11    1    3    3    0    0 -0.10229397562E+02  0.10379584117E+02 -0.11935676944E+02  0.18837110323E+02  0.51100000000E-03 0.  1.
        -12    1    3    3    0    0  0.12948465074E+02 -0.23426895365E+00  0.40099801064E+02  0.42139194049E+02  0.00000000000E+00 0.  1.
</event>
<event>
 7    1  0.3276565E-015  0.9000774E+02  0.7816164E-02  0.1186339E+00
        -11   -1    0    0    0    0  0.00000000000E+00  0.00000000000E+00  0.45593999997E+02  0.45594000000E+02  0.51100000000E-03 0.  1.
         11   -1    0    0    0    0 -0.00000000000E+00 -0.00000000000E+00 -0.45593999997E+02  0.45594000000E+02  0.51100000000E-03 0. -1.
    9900012    2    1    2    0    0 -0.21217627905E+00 -0.32830414202E+00  0.11136477572E+01  0.90007739982E+02  0.90000001350E+02 0.  0.
         12    1    1    2    0    0  0.21217627905E+00  0.32830414202E+00 -0.11136477572E+01  0.11802600181E+01  0.00000000000E+00 0. -1.
         11    1    3    3    0    0  0.22030246533E+02 -0.31620980334E+02  0.60554210678E+01  0.39011360963E+02  0.51100000000E-03 0. -1.
        -11    1    3    3    0    0 -0.65301576946E+01 -0.64235115275E+01 -0.43345518788E+01  0.10133745611E+02  0.51100000000E-03 0.  1.
        -12    1    3    3    0    0 -0.15712265118E+02  0.37716187719E+02 -0.60722143178E+00  0.40862633408E+02  0.00000000000E+00 0.  1.
</event>
<event>
 7    1  0.3276565E-015  0.9000784E+02  0.7816164E-02  0.1186339E+00
        -11   -1    0    0    0    0  0.00000000000E+00  0.00000000000E+00  0.45593999997E+02  0.45594000000E+02  0.51100000000E-03 0. -1.
         11   -1    0    0    0    0 -0.00000000000E+00 -0.00000000000E+00 -0.45593999997E+02  0.45594000000E+02  0.51100000000E-03 0.  1.
    9900012    2    1    2    0    0 -0.13337117749E+00  0.93982469821E+00 -0.70123118886E+00  0.90007837505E+02  0.90000100160E+02 0.  0.
         12    1    1    2    0    0  0.13337117749E+00 -0.93982469821E+00  0.70123118886E+00  0.11801624950E+01  0.00000000000E+00 0. -1.
         11    1    3    3    0    0  0.31911586948E+02 -0.11901030384E+02 -0.53425503566E+01  0.34475016321E+02  0.51100000000E-03 0. -1.
        -11    1    3    3    0    0  0.10104266052E+02 -0.15986769299E+01  0.39714531740E+01  0.10973805217E+02  0.51100000000E-03 0.  1.
        -12    1    3    3    0    0 -0.42149224177E+02  0.14439532012E+02  0.66986599376E+00  0.44559015967E+02  0.00000000000E+00 0.  1.
</event>
<event>
 7    1  0.3276565E-015  0.9000794E+02  0.7816164E-02  0.1186339E+00
        -11   -1    0    0    0    0  0.00000000000E+00  0.00000000000E+00  0.45593999997E+02  0.45594000000E+02  0.51100000000E-03 0.  1.
         11   -1    0    0    0    0 -0.00000000000E+00 -0.00000000000E+00 -0.45593999997E+02  0.45594000000E+02  0.51100000000E-03 0. -1.
    9900012    2    1    2    0    0  0.27803957337E+00 -0.22523531268E+00  0.11245045595E+01  0.90007937521E+02  0.90000201496E+02 0.  0.
         12    1    1    2    0    0 -0.27803957337E+00  0.22523531268E+00 -0.11245045595E+01  0.11800624792E+01  0.00000000000E+00 0. -1.
         11    1    3    3    0    0 -0.64636507285E-01 -0.38629738262E+01  0.10065094029E+02  0.10781134575E+02  0.51100000000E-03 0. -1.
        -11    1    3    3    0    0  0.40373134097E+01  0.32738107465E+02  0.19541716268E+02  0.38340086788E+02  0.51100000000E-03 0.  1.
         12    1    3    3    0    0 -0.36946373290E+01 -0.29100368951E+02 -0.28482305737E+02  0.40886716158E+02  0.00000000000E+00 0. -1.
</event>
<event>
 7    1  0.3674060E-015  0.9000738E+02  0.7816164E-02  0.1186340E+00
        -11   -1    0    0    0    0  0.00000000000E+00  0.00000000000E+00  0.45593999997E+02  0.45594000000E+02  0.51100000000E-03 0. -1.
         11   -1    0    0    0    0 -0.00000000000E+00 -0.00000000000E+00 -0.45593999997E+02  0.45594000000E+02  0.51100000000E-03 0.  1.
    9900012    2    1    2    0    0 -0.40259576675E+00  0.23960654788E+00 -0.10836781236E+01  0.90007384514E+02  0.89999641189E+02 0.  0.
         12    1    1    2    0    0  0.40259576675E+00 -0.23960654788E+00  0.10836781236E+01  0.11806154856E+01  0.00000000000E+00 0. -1.
         11    1    3    3    0    0 -0.77957525977E+01  0.48844387611E+01  0.20244908717E+01  0.94196636950E+01  0.51100000000E-03 0. -1.
        -11    1    3    3    0    0 -0.30356156619E+02  0.88846267541E+01 -0.19620061172E+02  0.37220688305E+02  0.51100000000E-03 0.  1.
         12    1    3    3    0    0  0.37749313450E+02 -0.13529458967E+02  0.16511892176E+02  0.43367032515E+02  0.00000000000E+00 0. -1.
</event>
<event>
 7    1  0.3276565E-015  0.9000772E+02  0.7816164E-02  0.1186339E+00
        -11   -1    0    0    0    0  0.00000000000E+00  0.00000000000E+00  0.45593999997E+02  0.45594000000E+02  0.51100000000E-03 0.  1.
         11   -1    0    0    0    0 -0.00000000000E+00 -0.00000000000E+00 -0.45593999997E+02  0.45594000000E+02  0.51100000000E-03 0. -1.
    9900012    2    1    2    0    0  0.26390063364E+00  0.49662528272E+00  0.10376761635E+01  0.90007723746E+02  0.89999984899E+02 0.  0.
         12    1    1    2    0    0 -0.26390063364E+00 -0.49662528272E+00 -0.10376761635E+01  0.11802762542E+01  0.00000000000E+00 0. -1.
         11    1    3    3    0    0  0.73792213624E+01  0.16369156943E+01 -0.28934873964E+01  0.80934955662E+01  0.51100000000E-03 0. -1.
        -11    1    3    3    0    0  0.28974732322E+02  0.13700800344E+02  0.22037253262E+02  0.38895855496E+02  0.51100000000E-03 0.  1.
         12    1    3    3    0    0 -0.36090053051E+02 -0.14841090755E+02 -0.18106089702E+02  0.43018372683E+02  0.00000000000E+00 0. -1.
</event>
<event>
 7    1  0.3276565E-015  0.9000774E+02  0.7816164E-02  0.1186339E+00
        -11   -1    0    0    0    0  0.00000000000E+00  0.00000000000E+00  0.45593999997E+02  0.45594000000E+02  0.51100000000E-03 0. -1.
         11   -1    0    0    0    0 -0.00000000000E+00 -0.00000000000E+00 -0.45593999997E+02  0.45594000000E+02  0.51100000000E-03 0.  1.
    9900012    2    1    2    0    0 -0.10405537431E+01 -0.41495312291E+00  0.37158985084E+00  0.90007738502E+02  0.89999999850E+02 0.  0.
         12    1    1    2    0    0  0.10405537431E+01  0.41495312291E+00 -0.37158985084E+00  0.11802614980E+01  0.00000000000E+00 0. -1.
         11    1    3    3    0    0  0.30363806564E+02 -0.18348567831E+02  0.73185138431E+01  0.36224181642E+02  0.51100000000E-03 0. -1.
        -11    1    3    3    0    0  0.64804276084E+01 -0.46644426616E+01  0.30587088050E+01  0.85503606442E+01  0.51100000000E-03 0.  1.
        -12    1    3    3    0    0 -0.37884787915E+02  0.22598057370E+02 -0.10005632797E+02  0.45233196216E+02  0.00000000000E+00 0.  1.
</event>
<event>
 7    1  0.3276565E-015  0.9000772E+02  0.7816164E-02  0.1186339E+00
        -11   -1    0    0    0    0  0.00000000000E+00  0.00000000000E+00  0.45593999997E+02  0.45594000000E+02  0.51100000000E-03 0.  1.
         11   -1    0    0    0    0 -0.00000000000E+00 -0.00000000000E+00 -0.45593999997E+02  0.45594000000E+02  0.51100000000E-03 0. -1.
    9900012    2    1    2    0    0  0.10495509691E+01  0.64801751057E-01  0.53601349048E+00  0.90007717421E+02  0.89999978491E+02 0.  0.
         12    1    1    2    0    0 -0.10495509691E+01 -0.64801751057E-01 -0.53601349048E+00  0.11802825787E+01  0.00000000000E+00 0. -1.
         11    1    3    3    0    0 -0.56138626618E+01 -0.19297440995E+00  0.20555366479E+02  0.21309054049E+02  0.51100000000E-03 0. -1.
        -11    1    3    3    0    0 -0.26168167638E+02 -0.10812539280E+02  0.71067905781E+00  0.28322942435E+02  0.51100000000E-03 0.  1.
         12    1    3    3    0    0  0.32831581269E+02  0.11070315441E+02 -0.20730032046E+02  0.40375720937E+02  0.00000000000E+00 0. -1.
</event>
<event>
 7    1  0.3276565E-015  0.9000770E+02  0.7816164E-02  0.1186339E+00
        -11   -1    0    0    0    0  0.00000000000E+00  0.00000000000E+00  0.45593999997E+02  0.45594000000E+02  0.51100000000E-03 0.  1.
         11   -1    0    0    0    0 -0.00000000000E+00 -0.00000000000E+00 -0.45593999997E+02  0.45594000000E+02  0.51100000000E-03 0. -1.
    9900012    2    1    2    0    0 -0.31854259895E+00 -0.10008441930E+01  0.53846092423E+00  0.90007703998E+02  0.89999964891E+02 0.  0.
         12    1    1    2    0    0  0.31854259895E+00  0.10008441930E+01 -0.53846092423E+00  0.11802960022E+01  0.00000000000E+00 0. -1.
         11    1    3    3    0    0 -0.23214224656E+02 -0.27815910839E+02 -0.14024649990E+02  0.38849915441E+02  0.51100000000E-03 0. -1.
        -11    1    3    3    0    0 -0.46963460166E+01 -0.41493813281E+01  0.62653307840E+01  0.88615687893E+01  0.51100000000E-03 0.  1.
        -12    1    3    3    0    0  0.27592028074E+02  0.30964447974E+02  0.82977801300E+01  0.42296219768E+02  0.00000000000E+00 0.  1.
</event>
<event>
 7    1  0.3276565E-015  0.9000776E+02  0.7816164E-02  0.1186339E+00
        -11   -1    0    0    0    0  0.00000000000E+00  0.00000000000E+00  0.45593999997E+02  0.45594000000E+02  0.51100000000E-03 0. -1.
         11   -1    0    0    0    0 -0.00000000000E+00 -0.00000000000E+00 -0.45593999997E+02  0.45594000000E+02  0.51100000000E-03 0.  1.
    9900012    2    1    2    0    0  0.23809360310E+00  0.42371336145E+00 -0.10755173060E+01  0.90007763137E+02  0.90000024811E+02 0.  0.
         12    1    1    2    0    0 -0.23809360310E+00 -0.42371336145E+00  0.10755173060E+01  0.11802368626E+01  0.00000000000E+00 0. -1.
         11    1    3    3    0    0  0.33262660374E+01 -0.87142920430E+01  0.77937636805E+01  0.12155068249E+02  0.51100000000E-03 0. -1.
        -11    1    3    3    0    0  0.50000947892E+01 -0.32775388759E+02  0.36835223255E+01  0.33358587998E+02  0.51100000000E-03 0.  1.
         12    1    3    3    0    0 -0.80882672235E+01  0.41913394164E+02 -0.12552803312E+02  0.44494106891E+02  0.00000000000E+00 0. -1.
</event>
<event>
 7    1  0.3276565E-015  0.9000775E+02  0.7816164E-02  0.1186339E+00
        -11   -1    0    0    0    0  0.00000000000E+00  0.00000000000E+00  0.45593999997E+02  0.45594000000E+02  0.51100000000E-03 0.  1.
         11   -1    0    0    0    0 -0.00000000000E+00 -0.00000000000E+00 -0.45593999997E+02  0.45594000000E+02  0.51100000000E-03 0. -1.
    9900012    2    1    2    0    0  0.88750391296E+00 -0.32340757818E+00  0.70762664571E+00  0.90007749549E+02  0.90000011043E+02 0.  0.
         12    1    1    2    0    0 -0.88750391296E+00  0.32340757818E+00 -0.70762664571E+00  0.11802504509E+01  0.00000000000E+00 0. -1.
         11    1    3    3    0    0 -0.25769141481E+01 -0.26666503048E+02 -0.23271177021E+02  0.35486484068E+02  0.51100000000E-03 0. -1.
        -11    1    3    3    0    0 -0.81679566173E+01  0.63959440005E+01 -0.93560198590E+01  0.13969922076E+02  0.51100000000E-03 0.  1.
        -12    1    3    3    0    0  0.11632374678E+02  0.19947151469E+02  0.33334823526E+02  0.40551343404E+02  0.00000000000E+00 0.  1.
</event>
<event>
 7    1  0.3276565E-015  0.9000785E+02  0.7816164E-02  0.1186339E+00
        -11   -1    0    0    0    0  0.00000000000E+00  0.00000000000E+00  0.45593999997E+02  0.45594000000E+02  0.51100000000E-03 0. -1.
         11   -1    0    0    0    0 -0.00000000000E+00 -0.00000000000E+00 -0.45593999997E+02  0.45594000000E+02  0.51100000000E-03 0.  1.
    9900012    2    1    2    0    0  0.49812746035E+00 -0.55809464372E+00 -0.91277027879E+00  0.90007851628E+02  0.90000114469E+02 0.  0.
         12    1    1    2    0    0 -0.49812746035E+00  0.55809464372E+00  0.91277027879E+00  0.11801483720E+01  0.00000000000E+00 0. -1.
         11    1    3    3    0    0  0.31935694549E+02  0.23129464676E+02  0.89476956734E+01  0.40434168480E+02  0.51100000000E-03 0. -1.
        -11    1    3    3    0    0 -0.61712301403E+00  0.16282670328E+01 -0.95298147118E+01  0.96875932536E+01  0.51100000000E-03 0.  1.
        -12    1    3    3    0    0 -0.30820444074E+02 -0.25315826352E+02 -0.33065124041E+00  0.39886089895E+02  0.00000000000E+00 0.  1.
</event>
<event>
 7    1  0.3276565E-015  0.9000768E+02  0.7816164E-02  0.1186339E+00
        -11   -1    0    0    0    0  0.00000000000E+00  0.00000000000E+00  0.45593999997E+02  0.45594000000E+02  0.51100000000E-03 0. -1.
         11   -1    0    0    0    0 -0.00000000000E+00 -0.00000000000E+00 -0.45593999997E+02  0.45594000000E+02  0.51100000000E-03 0.  1.
    9900012    2    1    2    0    0 -0.44993242361E-01 -0.11496367050E+01 -0.26355498690E+00  0.90007682171E+02  0.89999942776E+02 0.  0.
         12    1    1    2    0    0  0.44993242361E-01  0.11496367050E+01  0.26355498690E+00  0.11803178286E+01  0.00000000000E+00 0. -1.
         11    1    3    3    0    0  0.12893142151E+02  0.22502804285E+02  0.25170917065E+02  0.36141172938E+02  0.51100000000E-03 0. -1.
        -11    1    3    3    0    0 -0.14053017613E+02  0.76793348222E+01 -0.68268716383E+01  0.17408781232E+02  0.51100000000E-03 0.  1.
        -12    1    3    3    0    0  0.11148822193E+01 -0.31331775812E+02 -0.18607600413E+02  0.36457728002E+02  0.00000000000E+00 0.  1.
</event>
<event>
 7    1  0.3276565E-015  0.9000767E+02  0.7816164E-02  0.1186339E+00
        -11   -1    0    0    0    0  0.00000000000E+00  0.00000000000E+00  0.45593999997E+02  0.45594000000E+02  0.51100000000E-03 0. -1.
         11   -1    0    0    0    0 -0.00000000000E+00 -0.00000000000E+00 -0.45593999997E+02  0.45594000000E+02  0.51100000000E-03 0.  1.
    9900012    2    1    2    0    0  0.17915957252E+00  0.74353214376E+00 -0.89901899184E+00  0.90007672355E+02  0.89999932830E+02 0.  0.
         12    1    1    2    0    0 -0.17915957252E+00 -0.74353214376E+00  0.89901899184E+00  0.11803276447E+01  0.00000000000E+00 0. -1.
         11    1    3    3    0    0 -0.14400994274E+01 -0.36171678638E+02  0.10337952663E+02  0.37647542913E+02  0.51100000000E-03 0. -1.
        -11    1    3    3    0    0  0.43056972408E+01 -0.32926907394E+01  0.63871610318E+01  0.83771515053E+01  0.51100000000E-03 0.  1.
        -12    1    3    3    0    0 -0.26864382409E+01  0.40207901522E+02 -0.17624132687E+02  0.43982977937E+02  0.00000000000E+00 0.  1.
</event>
<event>
 7    1  0.3276565E-015  0.9000772E+02  0.7816164E-02  0.1186339E+00
        -11   -1    0    0    0    0  0.00000000000E+00  0.00000000000E+00  0.45593999997E+02  0.45594000000E+02  0.51100000000E-03 0.  1.
         11   -1    0    0    0    0 -0.00000000000E+00 -0.00000000000E+00 -0.45593999997E+02  0.45594000000E+02  0.51100000000E-03 0. -1.
    9900012    2    1    2    0    0 -0.31628712907E+00 -0.43199977167E+00  0.10518595441E+01  0.90007716199E+02  0.89999977253E+02 0.  0.
         12    1    1    2    0    0  0.31628712907E+00  0.43199977167E+00 -0.10518595441E+01  0.11802838012E+01  0.00000000000E+00 0. -1.
         11    1    3    3    0    0  0.23116760431E+02  0.17615713642E+00 -0.24475681761E+02  0.33667115144E+02  0.51100000000E-03 0. -1.
        -11    1    3    3    0    0  0.10612828576E+02 -0.95032204792E+00  0.18837089420E+02  0.21641884864E+02  0.51100000000E-03 0.  1.
        -12    1    3    3    0    0 -0.34045876136E+02  0.34216513983E+00  0.66904518849E+01  0.34698716191E+02  0.00000000000E+00 0.  1.
</event>
<event>
 7    1  0.3276565E-015  0.9000767E+02  0.7816164E-02  0.1186339E+00
        -11   -1    0    0    0    0  0.00000000000E+00  0.00000000000E+00  0.45593999997E+02  0.45594000000E+02  0.51100000000E-03 0. -1.
         11   -1    0    0    0    0 -0.00000000000E+00 -0.00000000000E+00 -0.45593999997E+02  0.45594000000E+02  0.51100000000E-03 0.  1.
    9900012    2    1    2    0    0  0.37440346569E+00  0.55422228080E+00 -0.97254832586E+00  0.90007665074E+02  0.89999925453E+02 0.  0.
         12    1    1    2    0    0 -0.37440346569E+00 -0.55422228080E+00  0.97254832586E+00  0.11803349261E+01  0.00000000000E+00 0. -1.
         11    1    3    3    0    0 -0.67016319749E+01  0.24752590457E+01  0.37566825795E+02  0.38240099098E+02  0.51100000000E-03 0. -1.
        -11    1    3    3    0    0  0.76366425545E+01 -0.61109687393E+01  0.28306843046E+01  0.10182093220E+02  0.51100000000E-03 0.  1.
        -12    1    3    3    0    0 -0.56060711392E+00  0.41899319744E+01 -0.41370058425E+02  0.41585472756E+02  0.00000000000E+00 0.  1.
</event>
<event>
 7    1  0.3276565E-015  0.9000778E+02  0.7816164E-02  0.1186339E+00
        -11   -1    0    0    0    0  0.00000000000E+00  0.00000000000E+00  0.45593999997E+02  0.45594000000E+02  0.51100000000E-03 0.  1.
         11   -1    0    0    0    0 -0.00000000000E+00 -0.00000000000E+00 -0.45593999997E+02  0.45594000000E+02  0.51100000000E-03 0. -1.
    9900012    2    1    2    0    0  0.24752326149E+00 -0.73720883610E+00  0.88778817799E+00  0.90007782867E+02  0.90000044800E+02 0.  0.
         12    1    1    2    0    0 -0.24752326149E+00  0.73720883610E+00 -0.88778817799E+00  0.11802171334E+01  0.00000000000E+00 0. -1.
         11    1    3    3    0    0  0.34886257878E+02 -0.10709665228E+02 -0.13016049921E+02  0.38744876742E+02  0.51100000000E-03 0. -1.
        -11    1    3    3    0    0 -0.26457532570E+01  0.36087460281E+01 -0.99113560771E+01  0.10874651155E+02  0.51100000000E-03 0.  1.
        -12    1    3    3    0    0 -0.31992981359E+02  0.63637103634E+01  0.23815194176E+02  0.40388254969E+02  0.00000000000E+00 0.  1.
</event>
<event>
 7    1  0.3276565E-015  0.9000766E+02  0.7816164E-02  0.1186339E+00
        -11   -1    0    0    0    0  0.00000000000E+00  0.00000000000E+00  0.45593999997E+02  0.45594000000E+02  0.51100000000E-03 0.  1.
         11   -1    0    0    0    0 -0.00000000000E+00 -0.00000000000E+00 -0.45593999997E+02  0.45594000000E+02  0.51100000000E-03 0. -1.
    9900012    2    1    2    0    0 -0.35928023596E+00  0.80507094488E+00  0.78484797099E+00  0.90007657740E+02  0.89999918022E+02 0.  0.
         12    1    1    2    0    0  0.35928023596E+00 -0.80507094488E+00 -0.78484797099E+00  0.11803422605E+01  0.00000000000E+00 0. -1.
         11    1    3    3    0    0 -0.99786130154E+01 -0.20608228556E+00 -0.76172050737E+01  0.12555357463E+02  0.51100000000E-03 0. -1.
        -11    1    3    3    0    0 -0.11215193565E+02  0.29184481908E+02 -0.15638321420E+02  0.34958141370E+02  0.51100000000E-03 0.  1.
         12    1    3    3    0    0  0.20834526345E+02 -0.28173328678E+02  0.24040374465E+02  0.42494158907E+02  0.00000000000E+00 0. -1.
</event>
<event>
 7    1  0.3276565E-015  0.9000773E+02  0.7816164E-02  0.1186339E+00
        -11   -1    0    0    0    0  0.00000000000E+00  0.00000000000E+00  0.45593999997E+02  0.45594000000E+02  0.51100000000E-03 0. -1.
         11   -1    0    0    0    0 -0.00000000000E+00 -0.00000000000E+00 -0.45593999997E+02  0.45594000000E+02  0.51100000000E-03 0.  1.
    9900012    2    1    2    0    0  0.75069001513E+00  0.79788592792E+00  0.43919272362E+00  0.90007725582E+02  0.89999986760E+02 0.  0.
         12    1    1    2    0    0 -0.75069001513E+00 -0.79788592792E+00 -0.43919272362E+00  0.11802744178E+01  0.00000000000E+00 0. -1.
         11    1    3    3    0    0  0.13328699924E+02 -0.82926002158E+01 -0.32330235861E+02  0.35939749736E+02  0.51100000000E-03 0. -1.
        -11    1    3    3    0    0 -0.16678930934E+02  0.14336263343E+02  0.14420026421E+01  0.22040747619E+02  0.51100000000E-03 0.  1.
        -12    1    3    3    0    0  0.41009210256E+01 -0.52457771988E+01  0.31327425943E+02  0.32027228227E+02  0.00000000000E+00 0.  1.
</event>
<event>
 7    1  0.3276565E-015  0.9000769E+02  0.7816164E-02  0.1186339E+00
        -11   -1    0    0    0    0  0.00000000000E+00  0.00000000000E+00  0.45593999997E+02  0.45594000000E+02  0.51100000000E-03 0.  1.
         11   -1    0    0    0    0 -0.00000000000E+00 -0.00000000000E+00 -0.45593999997E+02  0.45594000000E+02  0.51100000000E-03 0. -1.
    9900012    2    1    2    0    0  0.11631322025E+01  0.17562956956E-01  0.19985245336E+00  0.90007692421E+02  0.89999953161E+02 0.  0.
         12    1    1    2    0    0 -0.11631322025E+01 -0.17562956956E-01 -0.19985245336E+00  0.11803075790E+01  0.00000000000E+00 0. -1.
         11    1    3    3    0    0 -0.14031349795E+02 -0.30320669378E+02 -0.23532241293E+02  0.40865488486E+02  0.51100000000E-03 0. -1.
        -11    1    3    3    0    0  0.81499753075E+01 -0.31985821577E+01  0.52143506652E+01  0.10190312971E+02  0.51100000000E-03 0.  1.
        -12    1    3    3    0    0  0.70445066900E+01  0.33536814493E+02  0.18517743081E+02  0.38951890964E+02  0.00000000000E+00 0.  1.
</event>
<event>
 7    1  0.3276565E-015  0.9000778E+02  0.7816164E-02  0.1186339E+00
        -11   -1    0    0    0    0  0.00000000000E+00  0.00000000000E+00  0.45593999997E+02  0.45594000000E+02  0.51100000000E-03 0. -1.
         11   -1    0    0    0    0 -0.00000000000E+00 -0.00000000000E+00 -0.45593999997E+02  0.45594000000E+02  0.51100000000E-03 0.  1.
    9900012    2    1    2    0    0 -0.10942741641E+01 -0.33199345881E+00 -0.29199972927E+00  0.90007779917E+02  0.90000041812E+02 0.  0.
         12    1    1    2    0    0  0.10942741641E+01  0.33199345881E+00  0.29199972927E+00  0.11802200832E+01  0.00000000000E+00 0. -1.
         11    1    3    3    0    0 -0.80657191445E+01 -0.41413067308E+01  0.10964407637E+02  0.14227595786E+02  0.51100000000E-03 0. -1.
        -11    1    3    3    0    0 -0.26449802234E+02  0.23675365737E+02 -0.75083551800E+00  0.35506038011E+02  0.51100000000E-03 0.  1.
         12    1    3    3    0    0  0.33421247214E+02 -0.19866052465E+02 -0.10505571848E+02  0.40274146120E+02  0.00000000000E+00 0. -1.
</event>
<event>
 7    1  0.3276565E-015  0.9000769E+02  0.7816164E-02  0.1186339E+00
        -11   -1    0    0    0    0  0.00000000000E+00  0.00000000000E+00  0.45593999997E+02  0.45594000000E+02  0.51100000000E-03 0. -1.
         11   -1    0    0    0    0 -0.00000000000E+00 -0.00000000000E+00 -0.45593999997E+02  0.45594000000E+02  0.51100000000E-03 0.  1.
    9900012    2    1    2    0    0 -0.75056036229E+00  0.73190704444E+00 -0.54231680729E+00  0.90007688050E+02  0.89999948733E+02 0.  0.
         12    1    1    2    0    0  0.75056036229E+00 -0.73190704444E+00  0.54231680729E+00  0.11803119497E+01  0.00000000000E+00 0. -1.
         11    1    3    3    0    0 -0.72800843979E+01 -0.47414598511E+01  0.12505468670E+01  0.87775245991E+01  0.51100000000E-03 0. -1.
        -11    1    3    3    0    0 -0.21659279710E+02  0.20940732662E+02 -0.26936377240E+02  0.40412957094E+02  0.51100000000E-03 0.  1.
         12    1    3    3    0    0  0.28188803746E+02 -0.15467365766E+02  0.25143513566E+02  0.40817206357E+02  0.00000000000E+00 0. -1.
</event>
<event>
 7    1  0.3276565E-015  0.9000772E+02  0.7816164E-02  0.1186339E+00
        -11   -1    0    0    0    0  0.00000000000E+00  0.00000000000E+00  0.45593999997E+02  0.45594000000E+02  0.51100000000E-03 0. -1.
         11   -1    0    0    0    0 -0.00000000000E+00 -0.00000000000E+00 -0.45593999997E+02  0.45594000000E+02  0.51100000000E-03 0.  1.
    9900012    2    1    2    0    0 -0.70652517163E+00  0.67750317016E+00 -0.65944755698E+00  0.90007720608E+02  0.89999981720E+02 0.  0.
         12    1    1    2    0    0  0.70652517163E+00 -0.67750317016E+00  0.65944755698E+00  0.11802793924E+01  0.00000000000E+00 0. -1.
         11    1    3    3    0    0  0.35477067313E+02  0.17176861429E+02  0.11957057082E+02  0.41190266909E+02  0.51100000000E-03 0. -1.
        -11    1    3    3    0    0  0.13321331258E+01 -0.12209018173E+01 -0.78210121293E+01  0.80270424752E+01  0.51100000000E-03 0.  1.
        -12    1    3    3    0    0 -0.37515725611E+02 -0.15278456442E+02 -0.47954925100E+01  0.40790411223E+02  0.00000000000E+00 0.  1.
</event>
<event>
 7    1  0.3276565E-015  0.9000822E+02  0.7816164E-02  0.1186338E+00
        -11   -1    0    0    0    0  0.00000000000E+00  0.00000000000E+00  0.45593999997E+02  0.45594000000E+02  0.51100000000E-03 0.  1.
         11   -1    0    0    0    0 -0.00000000000E+00 -0.00000000000E+00 -0.45593999997E+02  0.45594000000E+02  0.51100000000E-03 0. -1.
    9900012    2    1    2    0    0 -0.16513495294E+00  0.10679323499E+01  0.47341688020E+00  0.90008223496E+02  0.90000491245E+02 0.  0.
         12    1    1    2    0    0  0.16513495294E+00 -0.10679323499E+01 -0.47341688020E+00  0.11797765039E+01  0.00000000000E+00 0. -1.
         11    1    3    3    0    0 -0.54444511199E+01 -0.63711799961E+00  0.67174296531E+01  0.86701688996E+01  0.51100000000E-03 0. -1.
        -11    1    3    3    0    0 -0.17352369022E+02  0.32152628892E+02  0.13023844670E+02  0.38788101083E+02  0.51100000000E-03 0.  1.
         12    1    3    3    0    0  0.22631685189E+02 -0.30447578542E+02 -0.19267857443E+02  0.42549953514E+02  0.00000000000E+00 0. -1.
</event>
<event>
 7    1  0.3276565E-015  0.9000784E+02  0.7816164E-02  0.1186339E+00
        -11   -1    0    0    0    0  0.00000000000E+00  0.00000000000E+00  0.45593999997E+02  0.45594000000E+02  0.51100000000E-03 0.  1.
         11   -1    0    0    0    0 -0.00000000000E+00 -0.00000000000E+00 -0.45593999997E+02  0.45594000000E+02  0.51100000000E-03 0. -1.
    9900012    2    1    2    0    0  0.10873973975E+01 -0.42467769663E+00  0.17319298302E+00  0.90007838971E+02  0.90000101645E+02 0.  0.
         12    1    1    2    0    0 -0.10873973975E+01  0.42467769663E+00 -0.17319298302E+00  0.11801610295E+01  0.00000000000E+00 0. -1.
         11    1    3    3    0    0 -0.33270880491E+02 -0.97987295589E+01 -0.94876772721E+01  0.35958067382E+02  0.51100000000E-03 0. -1.
        -11    1    3    3    0    0 -0.84561446469E+01 -0.41912495807E+00  0.51229570185E+01  0.98957938991E+01  0.51100000000E-03 0.  1.
        -12    1    3    3    0    0  0.42814422535E+02  0.97931768204E+01  0.45379132366E+01  0.44153977689E+02  0.00000000000E+00 0.  1.
</event>
<event>
 7    1  0.3276565E-015  0.9000785E+02  0.7816164E-02  0.1186339E+00
        -11   -1    0    0    0    0  0.00000000000E+00  0.00000000000E+00  0.45593999997E+02  0.45594000000E+02  0.51100000000E-03 0. -1.
         11   -1    0    0    0    0 -0.00000000000E+00 -0.00000000000E+00 -0.45593999997E+02  0.45594000000E+02  0.51100000000E-03 0.  1.
    9900012    2    1    2    0    0 -0.35017906186E+00  0.69233064416E+00 -0.88927367906E+00  0.90007849682E+02  0.90000112498E+02 0.  0.
         12    1    1    2    0    0  0.35017906186E+00 -0.69233064416E+00  0.88927367906E+00  0.11801503177E+01  0.00000000000E+00 0. -1.
         11    1    3    3    0    0 -0.15363418297E+02 -0.38430937496E+02 -0.39586763496E+01  0.41576949110E+02  0.51100000000E-03 0. -1.
        -11    1    3    3    0    0 -0.64665428622E+01  0.69801685516E+01  0.21770277979E+01  0.97610644856E+01  0.51100000000E-03 0.  1.
        -12    1    3    3    0    0  0.21479782098E+02  0.32143099588E+02  0.89237487261E+00  0.38669836087E+02  0.00000000000E+00 0.  1.
</event>
<event>
 7    1  0.3276565E-015  0.9000774E+02  0.7816164E-02  0.1186339E+00
        -11   -1    0    0    0    0  0.00000000000E+00  0.00000000000E+00  0.45593999997E+02  0.45594000000E+02  0.51100000000E-03 0. -1.
         11   -1    0    0    0    0 -0.00000000000E+00 -0.00000000000E+00 -0.45593999997E+02  0.45594000000E+02  0.51100000000E-03 0.  1.
    9900012    2    1    2    0    0 -0.28643034351E+00  0.36187043370E+00 -0.10862844012E+01  0.90007743099E+02  0.90000004508E+02 0.  0.
         12    1    1    2    0    0  0.28643034351E+00 -0.36187043370E+00  0.10862844012E+01  0.11802569011E+01  0.00000000000E+00 0. -1.
         11    1    3    3    0    0  0.77927094486E+01 -0.45902253553E+01 -0.15490734574E+01  0.91758442772E+01  0.51100000000E-03 0. -1.
        -11    1    3    3    0    0  0.19554839114E+02  0.10824431533E+02  0.31653256358E+02  0.38749047590E+02  0.51100000000E-03 0.  1.
         12    1    3    3    0    0 -0.27633978906E+02 -0.58723357442E+01 -0.31190467302E+02  0.42082851232E+02  0.00000000000E+00 0. -1.
</event>
<event>
 7    1  0.3276565E-015  0.9000774E+02  0.7816164E-02  0.1186339E+00
        -11   -1    0    0    0    0  0.00000000000E+00  0.00000000000E+00  0.45593999997E+02  0.45594000000E+02  0.51100000000E-03 0.  1.
         11   -1    0    0    0    0 -0.00000000000E+00 -0.00000000000E+00 -0.45593999997E+02  0.45594000000E+02  0.51100000000E-03 0. -1.
    9900012    2    1    2    0    0  0.71646475043E+00 -0.37579790577E-01  0.93716792188E+00  0.90007738295E+02  0.89999999640E+02 0.  0.
         12    1    1    2    0    0 -0.71646475043E+00  0.37579790577E-01 -0.93716792188E+00  0.11802617053E+01  0.00000000000E+00 0. -1.
         11    1    3    3    0    0 -0.69372812837E+01 -0.35396707978E+00  0.67988400287E+01  0.97198451788E+01  0.51100000000E-03 0. -1.
        -11    1    3    3    0    0 -0.10643714991E+02  0.10152086059E+02  0.33051641735E+02  0.36176850911E+02  0.51100000000E-03 0.  1.
         12    1    3    3    0    0  0.18297461025E+02 -0.98356987702E+01 -0.38913313842E+02  0.44111042205E+02  0.00000000000E+00 0. -1.
</event>
<event>
 7    1  0.3276565E-015  0.9000777E+02  0.7816164E-02  0.1186339E+00
        -11   -1    0    0    0    0  0.00000000000E+00  0.00000000000E+00  0.45593999997E+02  0.45594000000E+02  0.51100000000E-03 0.  1.
         11   -1    0    0    0    0 -0.00000000000E+00 -0.00000000000E+00 -0.45593999997E+02  0.45594000000E+02  0.51100000000E-03 0. -1.
    9900012    2    1    2    0    0 -0.11062344201E+01 -0.38973269252E+00  0.13152331788E+00  0.90007769282E+02  0.90000031037E+02 0.  0.
         12    1    1    2    0    0  0.11062344201E+01  0.38973269252E+00 -0.13152331788E+00  0.11802307177E+01  0.00000000000E+00 0. -1.
         11    1    3    3    0    0 -0.33168776230E+02 -0.17433795392E+02 -0.20366355969E+01  0.37526694807E+02  0.51100000000E-03 0. -1.
        -11    1    3    3    0    0 -0.44039217385E+01 -0.69787161414E+01  0.30675084587E+01  0.88037840765E+01  0.51100000000E-03 0.  1.
        -12    1    3    3    0    0  0.36466463548E+02  0.24022778841E+02 -0.89934954391E+00  0.43677290398E+02  0.00000000000E+00 0.  1.
</event>
<event>
 7    1  0.3276565E-015  0.9000762E+02  0.7816164E-02  0.1186339E+00
        -11   -1    0    0    0    0  0.00000000000E+00  0.00000000000E+00  0.45593999997E+02  0.45594000000E+02  0.51100000000E-03 0.  1.
         11   -1    0    0    0    0 -0.00000000000E+00 -0.00000000000E+00 -0.45593999997E+02  0.45594000000E+02  0.51100000000E-03 0. -1.
    9900012    2    1    2    0    0 -0.31739433223E+00  0.87910739131E+00  0.72091506720E+00  0.90007624000E+02  0.89999883837E+02 0.  0.
         12    1    1    2    0    0  0.31739433223E+00 -0.87910739131E+00 -0.72091506720E+00  0.11803760001E+01  0.00000000000E+00 0. -1.
         11    1    3    3    0    0 -0.21341149965E+02 -0.20491350694E+01 -0.98298415376E+01  0.23585364557E+02  0.51100000000E-03 0. -1.
        -11    1    3    3    0    0  0.64724251636E+01 -0.28960782298E+02  0.10165308271E+02  0.31368020200E+02  0.51100000000E-03 0.  1.
         12    1    3    3    0    0  0.14551330469E+02  0.31889024758E+02  0.38544833411E+00  0.35054239243E+02  0.00000000000E+00 0. -1.
</event>
<event>
 7    1  0.3276565E-015  0.9000905E+02  0.7816164E-02  0.1186336E+00
        -11   -1    0    0    0    0  0.00000000000E+00  0.00000000000E+00  0.45593999997E+02  0.45594000000E+02  0.51100000000E-03 0.  1.
         11   -1    0    0    0    0 -0.00000000000E+00 -0.00000000000E+00 -0.45593999997E+02  0.45594000000E+02  0.51100000000E-03 0. -1.
    9900012    2    1    2    0    0 -0.58270052038E+00 -0.96208232835E+00  0.35323285015E+00  0.90009053118E+02  0.90001331810E+02 0.  0.
         12    1    1    2    0    0  0.58270052038E+00  0.96208232835E+00 -0.35323285015E+00  0.11789468815E+01  0.00000000000E+00 0. -1.
         11    1    3    3    0    0 -0.22819642808E+00 -0.28705773660E+01 -0.89149865663E+01  0.93685256984E+01  0.51100000000E-03 0. -1.
        -11    1    3    3    0    0  0.26089095374E+02 -0.28586321429E+02  0.11017448763E+02  0.40239319673E+02  0.51100000000E-03 0.  1.
         12    1    3    3    0    0 -0.26443599467E+02  0.30494816467E+02 -0.17492293462E+01  0.40401207747E+02  0.00000000000E+00 0. -1.
</event>
<event>
 7    1  0.3276565E-015  0.9000772E+02  0.7816164E-02  0.1186339E+00
        -11   -1    0    0    0    0  0.00000000000E+00  0.00000000000E+00  0.45593999997E+02  0.45594000000E+02  0.51100000000E-03 0.  1.
         11   -1    0    0    0    0 -0.00000000000E+00 -0.00000000000E+00 -0.45593999997E+02  0.45594000000E+02  0.51100000000E-03 0. -1.
    9900012    2    1    2    0    0  0.51131552805E+00  0.20931746582E+00  0.10429833842E+01  0.90007715411E+02  0.89999976455E+02 0.  0.
         12    1    1    2    0    0 -0.51131552805E+00 -0.20931746582E+00 -0.10429833842E+01  0.11802845888E+01  0.00000000000E+00 0. -1.
         11    1    3    3    0    0 -0.19295535938E+02 -0.25142473405E+02 -0.21108049543E+02  0.38079015637E+02  0.51100000000E-03 0. -1.
        -11    1    3    3    0    0  0.62149523349E+01  0.73709481535E+00 -0.83561397399E+01  0.10440019775E+02  0.51100000000E-03 0.  1.
        -12    1    3    3    0    0  0.13591899131E+02  0.24614696056E+02  0.30507172668E+02  0.41488679999E+02  0.00000000000E+00 0.  1.
</event>
<event>
 7    1  0.3276565E-015  0.9000773E+02  0.7816164E-02  0.1186339E+00
        -11   -1    0    0    0    0  0.00000000000E+00  0.00000000000E+00  0.45593999997E+02  0.45594000000E+02  0.51100000000E-03 0. -1.
         11   -1    0    0    0    0 -0.00000000000E+00 -0.00000000000E+00 -0.45593999997E+02  0.45594000000E+02  0.51100000000E-03 0.  1.
    9900012    2    1    2    0    0 -0.42327934870E+00 -0.72397766436E+00  0.83049434223E+00  0.90007733116E+02  0.89999994393E+02 0.  0.
         12    1    1    2    0    0  0.42327934870E+00  0.72397766436E+00 -0.83049434223E+00  0.11802668842E+01  0.00000000000E+00 0. -1.
         11    1    3    3    0    0  0.44797569320E+01  0.17582324114E+01  0.69683813065E+01  0.84686446186E+01  0.51100000000E-03 0. -1.
        -11    1    3    3    0    0 -0.12614033507E+02  0.35467059394E+02 -0.17023044637E+02  0.41313559425E+02  0.51100000000E-03 0.  1.
         12    1    3    3    0    0  0.77109972267E+01 -0.37949269470E+02  0.10885157673E+02  0.40225529072E+02  0.00000000000E+00 0. -1.
</event>
<event>
 7    1  0.3276565E-015  0.9000774E+02  0.7816164E-02  0.1186339E+00
        -11   -1    0    0    0    0  0.00000000000E+00  0.00000000000E+00  0.45593999997E+02  0.45594000000E+02  0.51100000000E-03 0. -1.
         11   -1    0    0    0    0 -0.00000000000E+00 -0.00000000000E+00 -0.45593999997E+02  0.45594000000E+02  0.51100000000E-03 0.  1.
    9900012    2    1    2    0    0  0.33522288408E+00 -0.27040899319E-01 -0.11313267864E+01  0.90007743295E+02  0.90000004706E+02 0.  0.
         12    1    1    2    0    0 -0.33522288408E+00  0.27040899319E-01  0.11313267864E+01  0.11802567050E+01  0.00000000000E+00 0. -1.
         11    1    3    3    0    0  0.14391179331E+01  0.92955062587E+01  0.36138737947E+01  0.10076585786E+02  0.51100000000E-03 0. -1.
        -11    1    3    3    0    0 -0.34601502517E+02  0.30780754220E+01 -0.21101670765E+02  0.40645037017E+02  0.51100000000E-03 0.  1.
         12    1    3    3    0    0  0.33497607468E+02 -0.12400622580E+02  0.16356470184E+02  0.39286120492E+02  0.00000000000E+00 0. -1.
</event>
<event>
 7    1  0.3276565E-015  0.9000772E+02  0.7816164E-02  0.1186339E+00
        -11   -1    0    0    0    0  0.00000000000E+00  0.00000000000E+00  0.45593999997E+02  0.45594000000E+02  0.51100000000E-03 0.  1.
         11   -1    0    0    0    0 -0.00000000000E+00 -0.00000000000E+00 -0.45593999997E+02  0.45594000000E+02  0.51100000000E-03 0. -1.
    9900012    2    1    2    0    0  0.72141553083E+00 -0.74401605465E+00  0.56485009427E+00  0.90007722115E+02  0.89999983247E+02 0.  0.
         12    1    1    2    0    0 -0.72141553083E+00  0.74401605465E+00 -0.56485009427E+00  0.11802778854E+01  0.00000000000E+00 0. -1.
         11    1    3    3    0    0  0.38307961003E+02  0.13076532013E+02  0.17818606278E+02  0.44226669506E+02  0.51100000000E-03 0. -1.
        -11    1    3    3    0    0 -0.70351472270E+01 -0.71393864000E+01  0.83337847889E-01  0.10023526332E+02  0.51100000000E-03 0.  1.
        -12    1    3    3    0    0 -0.30551398245E+02 -0.66811616674E+01 -0.17337094032E+02  0.35757526276E+02  0.00000000000E+00 0.  1.
</event>
<event>
 7    1  0.3276565E-015  0.9000774E+02  0.7816164E-02  0.1186339E+00
        -11   -1    0    0    0    0  0.00000000000E+00  0.00000000000E+00  0.45593999997E+02  0.45594000000E+02  0.51100000000E-03 0.  1.
         11   -1    0    0    0    0 -0.00000000000E+00 -0.00000000000E+00 -0.45593999997E+02  0.45594000000E+02  0.51100000000E-03 0. -1.
    9900012    2    1    2    0    0  0.21614806620E+00  0.25165852368E+00  0.11326779880E+01  0.90007740951E+02  0.90000002331E+02 0.  0.
         12    1    1    2    0    0 -0.21614806620E+00 -0.25165852368E+00 -0.11326779880E+01  0.11802590494E+01  0.00000000000E+00 0. -1.
         11    1    3    3    0    0 -0.10395511046E+02  0.11165594841E+02 -0.43206381780E+01  0.15855758342E+02  0.51100000000E-03 0. -1.
        -11    1    3    3    0    0  0.11968861149E+02 -0.18921251845E+02  0.36082544630E+02  0.42464307787E+02  0.51100000000E-03 0.  1.
         12    1    3    3    0    0 -0.13572020368E+01  0.80073155274E+01 -0.30629228464E+02  0.31687674822E+02  0.00000000000E+00 0. -1.
</event>
<event>
 7    1  0.3276565E-015  0.9000776E+02  0.7816164E-02  0.1186339E+00
        -11   -1    0    0    0    0  0.00000000000E+00  0.00000000000E+00  0.45593999997E+02  0.45594000000E+02  0.51100000000E-03 0.  1.
         11   -1    0    0    0    0 -0.00000000000E+00 -0.00000000000E+00 -0.45593999997E+02  0.45594000000E+02  0.51100000000E-03 0. -1.
    9900012    2    1    2    0    0  0.57080752754E-01 -0.11024372600E+00  0.11736976647E+01  0.90007755068E+02  0.90000016635E+02 0.  0.
         12    1    1    2    0    0 -0.57080752754E-01  0.11024372600E+00 -0.11736976647E+01  0.11802449320E+01  0.00000000000E+00 0. -1.
         11    1    3    3    0    0  0.20859894745E+02 -0.15086236998E+02 -0.33410079386E-01  0.25743559817E+02  0.51100000000E-03 0. -1.
        -11    1    3    3    0    0 -0.18603405828E+02 -0.16966430235E+02  0.15103104567E+02  0.29360691939E+02  0.51100000000E-03 0.  1.
        -12    1    3    3    0    0 -0.21994081642E+01  0.31942423507E+02 -0.13895996823E+02  0.34903503312E+02  0.00000000000E+00 0.  1.
</event>
<event>
 7    1  0.3276565E-015  0.9000787E+02  0.7816164E-02  0.1186339E+00
        -11   -1    0    0    0    0  0.00000000000E+00  0.00000000000E+00  0.45593999997E+02  0.45594000000E+02  0.51100000000E-03 0.  1.
         11   -1    0    0    0    0 -0.00000000000E+00 -0.00000000000E+00 -0.45593999997E+02  0.45594000000E+02  0.51100000000E-03 0. -1.
    9900012    2    1    2    0    0 -0.66855178639E+00  0.68922474319E+00  0.68609486824E+00  0.90007865090E+02  0.90000128109E+02 0.  0.
         12    1    1    2    0    0  0.66855178639E+00 -0.68922474319E+00 -0.68609486824E+00  0.11801349101E+01  0.00000000000E+00 0. -1.
         11    1    3    3    0    0  0.22508276650E+02 -0.23371424832E+02  0.27035659096E+02  0.42234735461E+02  0.51100000000E-03 0. -1.
        -11    1    3    3    0    0 -0.19256569368E+01 -0.24400919270E+01 -0.92190784848E+01  0.97290087687E+01  0.51100000000E-03 0.  1.
        -12    1    3    3    0    0 -0.21251171500E+02  0.26500741502E+02 -0.17130485743E+02  0.38044120861E+02  0.00000000000E+00 0.  1.
</event>
<event>
 7    1  0.3276565E-015  0.9000772E+02  0.7816164E-02  0.1186339E+00
        -11   -1    0    0    0    0  0.00000000000E+00  0.00000000000E+00  0.45593999997E+02  0.45594000000E+02  0.51100000000E-03 0.  1.
         11   -1    0    0    0    0 -0.00000000000E+00 -0.00000000000E+00 -0.45593999997E+02  0.45594000000E+02  0.51100000000E-03 0. -1.
    9900012    2    1    2    0    0 -0.58159757154E+00  0.80204685523E+00  0.64150823556E+00  0.90007717106E+02  0.89999978172E+02 0.  0.
         12    1    1    2    0    0  0.58159757154E+00 -0.80204685523E+00 -0.64150823556E+00  0.11802828938E+01  0.00000000000E+00 0. -1.
         11    1    3    3    0    0  0.39018792926E+02 -0.11986885091E+02 -0.16186153445E+01  0.40850600136E+02  0.51100000000E-03 0. -1.
        -11    1    3    3    0    0 -0.29911156154E+01 -0.61166268484E+00  0.90806778983E+01  0.95801678074E+01  0.51100000000E-03 0.  1.
        -12    1    3    3    0    0 -0.36609274882E+02  0.13400594631E+02 -0.68205543183E+01  0.39576949163E+02  0.00000000000E+00 0.  1.
</event>
<event>
 7    1  0.3276565E-015  0.9000779E+02  0.7816164E-02  0.1186339E+00
        -11   -1    0    0    0    0  0.00000000000E+00  0.00000000000E+00  0.45593999997E+02  0.45594000000E+02  0.51100000000E-03 0.  1.
         11   -1    0    0    0    0 -0.00000000000E+00 -0.00000000000E+00 -0.45593999997E+02  0.45594000000E+02  0.51100000000E-03 0. -1.
    9900012    2    1    2    0    0 -0.35111744044E+00 -0.11177839146E+01  0.14205945671E+00  0.90007785941E+02  0.90000047915E+02 0.  0.
         12    1    1    2    0    0  0.35111744044E+00  0.11177839146E+01 -0.14205945671E+00  0.11802140594E+01  0.00000000000E+00 0. -1.
         11    1    3    3    0    0 -0.34253508420E+02  0.16334897884E+02  0.30118678436E+01  0.38068399968E+02  0.51100000000E-03 0. -1.
        -11    1    3    3    0    0  0.11435845346E+01  0.45437365439E+01  0.94955726102E+01  0.10588636684E+02  0.51100000000E-03 0.  1.
        -12    1    3    3    0    0  0.32758806445E+02 -0.21996418342E+02 -0.12365380997E+02  0.41350749289E+02  0.00000000000E+00 0.  1.
</event>
<event>
 7    1  0.3276565E-015  0.9000774E+02  0.7816164E-02  0.1186339E+00
        -11   -1    0    0    0    0  0.00000000000E+00  0.00000000000E+00  0.45593999997E+02  0.45594000000E+02  0.51100000000E-03 0.  1.
         11   -1    0    0    0    0 -0.00000000000E+00 -0.00000000000E+00 -0.45593999997E+02  0.45594000000E+02  0.51100000000E-03 0. -1.
    9900012    2    1    2    0    0  0.70818129838E+00 -0.49052977883E+00  0.80676700040E+00  0.90007740195E+02  0.90000001565E+02 0.  0.
         12    1    1    2    0    0 -0.70818129838E+00  0.49052977883E+00 -0.80676700040E+00  0.11802598054E+01  0.00000000000E+00 0. -1.
         11    1    3    3    0    0 -0.22987287675E+01 -0.16515153329E+01  0.59556044104E+01  0.65940034118E+01  0.51100000000E-03 0. -1.
        -11    1    3    3    0    0  0.18944135327E+02  0.27349886480E+02  0.24069041614E+02  0.41063552187E+02  0.51100000000E-03 0.  1.
         12    1    3    3    0    0 -0.15937225261E+02 -0.26188900926E+02 -0.29217879023E+02  0.42350184596E+02  0.00000000000E+00 0. -1.
</event>
<event>
 7    1  0.3276565E-015  0.9000782E+02  0.7816164E-02  0.1186339E+00
        -11   -1    0    0    0    0  0.00000000000E+00  0.00000000000E+00  0.45593999997E+02  0.45594000000E+02  0.51100000000E-03 0. -1.
         11   -1    0    0    0    0 -0.00000000000E+00 -0.00000000000E+00 -0.45593999997E+02  0.45594000000E+02  0.51100000000E-03 0.  1.
    9900012    2    1    2    0    0  0.43130380590E+00  0.15182751244E+00 -0.10880047251E+01  0.90007818299E+02  0.90000080700E+02 0.  0.
         12    1    1    2    0    0 -0.43130380590E+00 -0.15182751244E+00  0.10880047251E+01  0.11801817014E+01  0.00000000000E+00 0. -1.
         11    1    3    3    0    0  0.12921810573E+02  0.20803601807E+02  0.30074413634E+02  0.38784447815E+02  0.51100000000E-03 0. -1.
        -11    1    3    3    0    0 -0.48077368884E+01  0.67717539399E+01  0.88296662844E+00  0.83516834075E+01  0.51100000000E-03 0.  1.
        -12    1    3    3    0    0 -0.76827698787E+01 -0.27423528234E+02 -0.32045384987E+02  0.42871687077E+02  0.00000000000E+00 0.  1.
</event>
<event>
 7    1  0.3276565E-015  0.9000775E+02  0.7816164E-02  0.1186339E+00
        -11   -1    0    0    0    0  0.00000000000E+00  0.00000000000E+00  0.45593999997E+02  0.45594000000E+02  0.51100000000E-03 0. -1.
         11   -1    0    0    0    0 -0.00000000000E+00 -0.00000000000E+00 -0.45593999997E+02  0.45594000000E+02  0.51100000000E-03 0.  1.
    9900012    2    1    2    0    0  0.93326531261E+00 -0.27229403158E+00 -0.66922227544E+00  0.90007751451E+02  0.90000012970E+02 0.  0.
         12    1    1    2    0    0 -0.93326531261E+00  0.27229403158E+00  0.66922227544E+00  0.11802485489E+01  0.00000000000E+00 0. -1.
         11    1    3    3    0    0 -0.27455942773E+02 -0.22851712749E+02  0.41045123915E+01  0.35956593156E+02  0.51100000000E-03 0. -1.
        -11    1    3    3    0    0  0.50738596571E+01 -0.10828948417E+02 -0.58163045920E+01  0.13298104189E+02  0.51100000000E-03 0.  1.
        -12    1    3    3    0    0  0.23315348428E+02  0.33408367135E+02  0.10425699251E+01  0.40753054107E+02  0.00000000000E+00 0.  1.
</event>
<event>
 7    1  0.3276565E-015  0.9000775E+02  0.7816164E-02  0.1186339E+00
        -11   -1    0    0    0    0  0.00000000000E+00  0.00000000000E+00  0.45593999997E+02  0.45594000000E+02  0.51100000000E-03 0.  1.
         11   -1    0    0    0    0 -0.00000000000E+00 -0.00000000000E+00 -0.45593999997E+02  0.45594000000E+02  0.51100000000E-03 0. -1.
    9900012    2    1    2    0    0 -0.29135899981E+00  0.11413756377E+01 -0.73291118224E-01  0.90007745790E+02  0.90000007234E+02 0.  0.
         12    1    1    2    0    0  0.29135899981E+00 -0.11413756377E+01  0.73291118224E-01  0.11802542104E+01  0.00000000000E+00 0. -1.
         11    1    3    3    0    0 -0.63313750411E+01  0.74053036545E+00  0.60388547511E+01  0.87808007664E+01  0.51100000000E-03 0. -1.
        -11    1    3    3    0    0  0.11812663902E+02 -0.23080545683E+02  0.28804462214E+02  0.38754969503E+02  0.51100000000E-03 0.  1.
         12    1    3    3    0    0 -0.57726478606E+01  0.23481390955E+02 -0.34916608084E+02  0.42471975520E+02  0.00000000000E+00 0. -1.
</event>
<event>
 7    1  0.3276565E-015  0.9000771E+02  0.7816164E-02  0.1186339E+00
        -11   -1    0    0    0    0  0.00000000000E+00  0.00000000000E+00  0.45593999997E+02  0.45594000000E+02  0.51100000000E-03 0.  1.
         11   -1    0    0    0    0 -0.00000000000E+00 -0.00000000000E+00 -0.45593999997E+02  0.45594000000E+02  0.51100000000E-03 0. -1.
    9900012    2    1    2    0    0  0.33403393347E+00  0.96376671589E+00  0.59384975244E+00  0.90007710849E+02  0.89999971832E+02 0.  0.
         12    1    1    2    0    0 -0.33403393347E+00 -0.96376671589E+00 -0.59384975244E+00  0.11802891509E+01  0.00000000000E+00 0. -1.
         11    1    3    3    0    0 -0.37433341146E+01 -0.84020680571E+01  0.11827956534E+01  0.92739583646E+01  0.51100000000E-03 0. -1.
        -11    1    3    3    0    0  0.11036191828E+02 -0.34407035634E+02 -0.35788240582E+01  0.36310461482E+02  0.51100000000E-03 0.  1.
         12    1    3    3    0    0 -0.69588237795E+01  0.43772870407E+02  0.29898781573E+01  0.44423291002E+02  0.00000000000E+00 0. -1.
</event>
<event>
 7    1  0.3276565E-015  0.9000769E+02  0.7816164E-02  0.1186339E+00
        -11   -1    0    0    0    0  0.00000000000E+00  0.00000000000E+00  0.45593999997E+02  0.45594000000E+02  0.51100000000E-03 0. -1.
         11   -1    0    0    0    0 -0.00000000000E+00 -0.00000000000E+00 -0.45593999997E+02  0.45594000000E+02  0.51100000000E-03 0.  1.
    9900012    2    1    2    0    0  0.97808124980E+00 -0.29789017363E+00 -0.58969593815E+00  0.90007693774E+02  0.89999954532E+02 0.  0.
         12    1    1    2    0    0 -0.97808124980E+00  0.29789017363E+00  0.58969593815E+00  0.11803062256E+01  0.00000000000E+00 0. -1.
         11    1    3    3    0    0 -0.35135406439E+02 -0.94858262197E+01  0.48519238077E+01  0.36715376201E+02  0.51100000000E-03 0. -1.
        -11    1    3    3    0    0 -0.61780653259E+01  0.78551675941E+01  0.23552856126E+01  0.10267400824E+02  0.51100000000E-03 0.  1.
        -12    1    3    3    0    0  0.42291553014E+02  0.13327684520E+01 -0.77969053585E+01  0.43024916749E+02  0.00000000000E+00 0.  1.
</event>
<event>
 7    1  0.3276565E-015  0.9000790E+02  0.7816164E-02  0.1186339E+00
        -11   -1    0    0    0    0  0.00000000000E+00  0.00000000000E+00  0.45593999997E+02  0.45594000000E+02  0.51100000000E-03 0.  1.
         11   -1    0    0    0    0 -0.00000000000E+00 -0.00000000000E+00 -0.45593999997E+02  0.45594000000E+02  0.51100000000E-03 0. -1.
    9900012    2    1    2    0    0 -0.25140724479E+00  0.11523288666E+01  0.39706918479E-01  0.90007896590E+02  0.90000160025E+02 0.  0.
         12    1    1    2    0    0  0.25140724479E+00 -0.11523288666E+01 -0.39706918479E-01  0.11801034103E+01  0.00000000000E+00 0. -1.
         11    1    3    3    0    0 -0.77695974179E+01 -0.13132096716E+01  0.59377177165E+01  0.98664915558E+01  0.51100000000E-03 0. -1.
        -11    1    3    3    0    0  0.15714264632E+02  0.38160527624E+02 -0.12076419249E+02  0.43000045159E+02  0.51100000000E-03 0.  1.
         12    1    3    3    0    0 -0.81960744587E+01 -0.35694989086E+02  0.61784084513E+01  0.37141359875E+02  0.00000000000E+00 0. -1.
</event>
<event>
 7    1  0.3276565E-015  0.9000776E+02  0.7816164E-02  0.1186339E+00
        -11   -1    0    0    0    0  0.00000000000E+00  0.00000000000E+00  0.45593999997E+02  0.45594000000E+02  0.51100000000E-03 0. -1.
         11   -1    0    0    0    0 -0.00000000000E+00 -0.00000000000E+00 -0.45593999997E+02  0.45594000000E+02  0.51100000000E-03 0.  1.
    9900012    2    1    2    0    0  0.82988259486E+00 -0.37077047487E+00 -0.75285747471E+00  0.90007758396E+02  0.90000020007E+02 0.  0.
         12    1    1    2    0    0 -0.82988259486E+00  0.37077047487E+00  0.75285747471E+00  0.11802416039E+01  0.00000000000E+00 0. -1.
         11    1    3    3    0    0 -0.13971261138E+02 -0.32549486650E+02 -0.13534154160E+02  0.37918841597E+02  0.51100000000E-03 0. -1.
        -11    1    3    3    0    0  0.46961773884E+01 -0.57388567744E+01 -0.50652878547E+01  0.89802951206E+01  0.51100000000E-03 0.  1.
        -12    1    3    3    0    0  0.10104966344E+02  0.37917572950E+02  0.17846584540E+02  0.43108621678E+02  0.00000000000E+00 0.  1.
</event>
<event>
 7    1  0.3276565E-015  0.9000779E+02  0.7816164E-02  0.1186339E+00
        -11   -1    0    0    0    0  0.00000000000E+00  0.00000000000E+00  0.45593999997E+02  0.45594000000E+02  0.51100000000E-03 0. -1.
         11   -1    0    0    0    0 -0.00000000000E+00 -0.00000000000E+00 -0.45593999997E+02  0.45594000000E+02  0.51100000000E-03 0.  1.
    9900012    2    1    2    0    0 -0.11069299239E+01 -0.40932299405E+00 -0.78681392600E-02  0.90007787698E+02  0.90000049696E+02 0.  0.
         12    1    1    2    0    0  0.11069299239E+01  0.40932299405E+00  0.78681392600E-02  0.11802123019E+01  0.00000000000E+00 0. -1.
         11    1    3    3    0    0  0.29805703249E+02  0.11601879327E+02  0.23574749001E+02  0.39733516593E+02  0.51100000000E-03 0. -1.
        -11    1    3    3    0    0 -0.67164665518E+01 -0.10005772029E+02  0.47575993989E+01  0.12956124001E+02  0.51100000000E-03 0.  1.
        -12    1    3    3    0    0 -0.24196166621E+02 -0.20054302927E+01 -0.28340216539E+02  0.37318147104E+02  0.00000000000E+00 0.  1.
</event>
<event>
 7    1  0.3276565E-015  0.9000767E+02  0.7816164E-02  0.1186339E+00
        -11   -1    0    0    0    0  0.00000000000E+00  0.00000000000E+00  0.45593999997E+02  0.45594000000E+02  0.51100000000E-03 0.  1.
         11   -1    0    0    0    0 -0.00000000000E+00 -0.00000000000E+00 -0.45593999997E+02  0.45594000000E+02  0.51100000000E-03 0. -1.
    9900012    2    1    2    0    0 -0.30771874934E+00 -0.94655591422E+00  0.63443977680E+00  0.90007672606E+02  0.89999933084E+02 0.  0.
         12    1    1    2    0    0  0.30771874934E+00  0.94655591422E+00 -0.63443977680E+00  0.11803273943E+01  0.00000000000E+00 0. -1.
         11    1    3    3    0    0  0.18533733363E+02  0.15511569175E+02 -0.27442853574E+02  0.36567995067E+02  0.51100000000E-03 0. -1.
        -11    1    3    3    0    0  0.81498792068E+01  0.59995503663E+01  0.40865643318E+01  0.10913988454E+02  0.51100000000E-03 0.  1.
        -12    1    3    3    0    0 -0.26991331319E+02 -0.22457675455E+02  0.23990729019E+02  0.42525689085E+02  0.00000000000E+00 0.  1.
</event>
<event>
 7    1  0.3276565E-015  0.9000773E+02  0.7816164E-02  0.1186339E+00
        -11   -1    0    0    0    0  0.00000000000E+00  0.00000000000E+00  0.45593999997E+02  0.45594000000E+02  0.51100000000E-03 0. -1.
         11   -1    0    0    0    0 -0.00000000000E+00 -0.00000000000E+00 -0.45593999997E+02  0.45594000000E+02  0.51100000000E-03 0.  1.
    9900012    2    1    2    0    0  0.49397466827E+00  0.10311227767E+01 -0.29295421203E+00  0.90007725742E+02  0.89999986922E+02 0.  0.
         12    1    1    2    0    0 -0.49397466827E+00 -0.10311227767E+01  0.29295421203E+00  0.11802742579E+01  0.00000000000E+00 0. -1.
         11    1    3    3    0    0 -0.80300782971E+01 -0.23146630818E+01  0.51629470694E+01  0.98232298834E+01  0.51100000000E-03 0. -1.
        -11    1    3    3    0    0  0.28552481472E+00 -0.37905587828E+02 -0.15656059942E+01  0.37938980421E+02  0.51100000000E-03 0.  1.
         12    1    3    3    0    0  0.82385281506E+01  0.41251373687E+02 -0.38902952872E+01  0.42245515437E+02  0.00000000000E+00 0. -1.
</event>
<event>
 7    1  0.3276565E-015  0.9000860E+02  0.7816164E-02  0.1186337E+00
        -11   -1    0    0    0    0  0.00000000000E+00  0.00000000000E+00  0.45593999997E+02  0.45594000000E+02  0.51100000000E-03 0. -1.
         11   -1    0    0    0    0 -0.00000000000E+00 -0.00000000000E+00 -0.45593999997E+02  0.45594000000E+02  0.51100000000E-03 0.  1.
    9900012    2    1    2    0    0  0.25223370447E+00 -0.99269687810E+00  0.58472801686E+00  0.90008603634E+02  0.90000876398E+02 0.  0.
         12    1    1    2    0    0 -0.25223370447E+00  0.99269687810E+00 -0.58472801686E+00  0.11793963656E+01  0.00000000000E+00 0. -1.
         11    1    3    3    0    0  0.57766948964E+01  0.68414685453E+00 -0.10945360104E+02  0.12395126821E+02  0.51100000000E-03 0. -1.
        -11    1    3    3    0    0  0.19999671441E+02 -0.28906182382E+02 -0.71616768114E+01  0.35872605880E+02  0.51100000000E-03 0.  1.
         12    1    3    3    0    0 -0.25524132633E+02  0.27229338649E+02  0.18691764932E+02  0.41740870933E+02  0.00000000000E+00 0. -1.
</event>
<event>
 7    1  0.3276565E-015  0.9000773E+02  0.7816164E-02  0.1186339E+00
        -11   -1    0    0    0    0  0.00000000000E+00  0.00000000000E+00  0.45593999997E+02  0.45594000000E+02  0.51100000000E-03 0. -1.
         11   -1    0    0    0    0 -0.00000000000E+00 -0.00000000000E+00 -0.45593999997E+02  0.45594000000E+02  0.51100000000E-03 0.  1.
    9900012    2    1    2    0    0  0.86987357102E+00  0.13864159109E+00 -0.78558233259E+00  0.90007728370E+02  0.89999989584E+02 0.  0.
         12    1    1    2    0    0 -0.86987357102E+00 -0.13864159109E+00  0.78558233259E+00  0.11802716304E+01  0.00000000000E+00 0. -1.
         11    1    3    3    0    0 -0.50246659473E+01  0.12952146888E+02  0.37371192193E+02  0.39869930814E+02  0.51100000000E-03 0. -1.
        -11    1    3    3    0    0  0.83671625420E+01 -0.79389360293E+01  0.57840433949E-01  0.11534273278E+02  0.51100000000E-03 0.  1.
        -12    1    3    3    0    0 -0.24726230237E+01 -0.48745692678E+01 -0.38214614959E+02  0.38603524278E+02  0.00000000000E+00 0.  1.
</event>
<event>
 7    1  0.3276565E-015  0.9000778E+02  0.7816164E-02  0.1186339E+00
        -11   -1    0    0    0    0  0.00000000000E+00  0.00000000000E+00  0.45593999997E+02  0.45594000000E+02  0.51100000000E-03 0.  1.
         11   -1    0    0    0    0 -0.00000000000E+00 -0.00000000000E+00 -0.45593999997E+02  0.45594000000E+02  0.51100000000E-03 0. -1.
    9900012    2    1    2    0    0  0.87187073314E+00 -0.76296393654E+00  0.22502458440E+00  0.90007784508E+02  0.90000046464E+02 0.  0.
         12    1    1    2    0    0 -0.87187073314E+00  0.76296393654E+00 -0.22502458440E+00  0.11802154919E+01  0.00000000000E+00 0. -1.
         11    1    3    3    0    0 -0.11526676761E+02 -0.19764854440E+02 -0.31651018682E+02  0.39055098669E+02  0.51100000000E-03 0. -1.
        -11    1    3    3    0    0  0.64814569525E+01  0.66657425558E+01 -0.57394382435E+01  0.10926232638E+02  0.51100000000E-03 0.  1.
        -12    1    3    3    0    0  0.59170905419E+01  0.12336147947E+02  0.37615481510E+02  0.40026453201E+02  0.00000000000E+00 0.  1.
</event>
<event>
 7    1  0.3276565E-015  0.9000784E+02  0.7816164E-02  0.1186339E+00
        -11   -1    0    0    0    0  0.00000000000E+00  0.00000000000E+00  0.45593999997E+02  0.45594000000E+02  0.51100000000E-03 0.  1.
         11   -1    0    0    0    0 -0.00000000000E+00 -0.00000000000E+00 -0.45593999997E+02  0.45594000000E+02  0.51100000000E-03 0. -1.
    9900012    2    1    2    0    0 -0.11672548815E+01 -0.86734216827E-01  0.15093409422E+00  0.90007835654E+02  0.90000098285E+02 0.  0.
         12    1    1    2    0    0  0.11672548815E+01  0.86734216827E-01 -0.15093409422E+00  0.11801643460E+01  0.00000000000E+00 0. -1.
         11    1    3    3    0    0  0.28006327790E+02  0.94987083867E+01 -0.11090735033E+02  0.31584557320E+02  0.51100000000E-03 0. -1.
        -11    1    3    3    0    0  0.10875319257E+02  0.80841089366E+01  0.22677392428E+01  0.13739287746E+02  0.51100000000E-03 0.  1.
        -12    1    3    3    0    0 -0.40048901928E+02 -0.17669551540E+02  0.89739298842E+01  0.44683990588E+02  0.00000000000E+00 0.  1.
</event>
<event>
 7    1  0.3276565E-015  0.9000773E+02  0.7816164E-02  0.1186339E+00
        -11   -1    0    0    0    0  0.00000000000E+00  0.00000000000E+00  0.45593999997E+02  0.45594000000E+02  0.51100000000E-03 0. -1.
         11   -1    0    0    0    0 -0.00000000000E+00 -0.00000000000E+00 -0.45593999997E+02  0.45594000000E+02  0.51100000000E-03 0.  1.
    9900012    2    1    2    0    0  0.63106229636E+00  0.37335917366E+00 -0.92487402461E+00  0.90007733650E+02  0.89999994935E+02 0.  0.
         12    1    1    2    0    0 -0.63106229636E+00 -0.37335917366E+00  0.92487402461E+00  0.11802663495E+01  0.00000000000E+00 0. -1.
         11    1    3    3    0    0  0.84495345570E+01 -0.13190107339E+02  0.57367189930E+01  0.16681831761E+02  0.51100000000E-03 0. -1.
        -11    1    3    3    0    0 -0.28325367549E+02 -0.17601868382E+02  0.60888025614E+01  0.33900232067E+02  0.51100000000E-03 0.  1.
         12    1    3    3    0    0  0.20506895288E+02  0.31165334895E+02 -0.12750395579E+02  0.39425669822E+02  0.00000000000E+00 0. -1.
</event>
<event>
 7    1  0.3276565E-015  0.9000777E+02  0.7816164E-02  0.1186339E+00
        -11   -1    0    0    0    0  0.00000000000E+00  0.00000000000E+00  0.45593999997E+02  0.45594000000E+02  0.51100000000E-03 0. -1.
         11   -1    0    0    0    0 -0.00000000000E+00 -0.00000000000E+00 -0.45593999997E+02  0.45594000000E+02  0.51100000000E-03 0.  1.
    9900012    2    1    2    0    0  0.16320608506E+00  0.46764495535E+00 -0.10712639545E+01  0.90007773543E+02  0.90000035353E+02 0.  0.
         12    1    1    2    0    0 -0.16320608506E+00 -0.46764495535E+00  0.10712639545E+01  0.11802264574E+01  0.00000000000E+00 0. -1.
         11    1    3    3    0    0  0.29721082850E+02  0.18479167981E+02  0.10947446909E+02  0.36669728784E+02  0.51100000000E-03 0. -1.
        -11    1    3    3    0    0  0.35573832138E+01  0.84817313647E+01  0.21446093574E+00  0.92000400014E+01  0.51100000000E-03 0.  1.
        -12    1    3    3    0    0 -0.33115259979E+02 -0.26493254390E+02 -0.12233171799E+02  0.44138004757E+02  0.00000000000E+00 0.  1.
</event>
<event>
 7    1  0.3276565E-015  0.9000780E+02  0.7816164E-02  0.1186339E+00
        -11   -1    0    0    0    0  0.00000000000E+00  0.00000000000E+00  0.45593999997E+02  0.45594000000E+02  0.51100000000E-03 0.  1.
         11   -1    0    0    0    0 -0.00000000000E+00 -0.00000000000E+00 -0.45593999997E+02  0.45594000000E+02  0.51100000000E-03 0. -1.
    9900012    2    1    2    0    0  0.12415186699E+00  0.15423049595E+00  0.11634717304E+01  0.90007802051E+02  0.90000064238E+02 0.  0.
         12    1    1    2    0    0 -0.12415186699E+00 -0.15423049595E+00 -0.11634717304E+01  0.11801979492E+01  0.00000000000E+00 0. -1.
         11    1    3    3    0    0 -0.18330645743E+02  0.30660350595E+02 -0.65808248449E+01  0.36323228489E+02  0.51100000000E-03 0. -1.
        -11    1    3    3    0    0 -0.86739666335E+01  0.36861593566E+01  0.47989041899E+00  0.94369361043E+01  0.51100000000E-03 0.  1.
        -12    1    3    3    0    0  0.27128764244E+02 -0.34192279456E+02  0.72644061563E+01  0.44247637457E+02  0.00000000000E+00 0.  1.
</event>
<event>
 7    1  0.3276565E-015  0.9000769E+02  0.7816164E-02  0.1186339E+00
        -11   -1    0    0    0    0  0.00000000000E+00  0.00000000000E+00  0.45593999997E+02  0.45594000000E+02  0.51100000000E-03 0.  1.
         11   -1    0    0    0    0 -0.00000000000E+00 -0.00000000000E+00 -0.45593999997E+02  0.45594000000E+02  0.51100000000E-03 0. -1.
    9900012    2    1    2    0    0  0.27495097471E+00  0.10993666104E+01  0.33005066284E+00  0.90007687151E+02  0.89999947821E+02 0.  0.
         12    1    1    2    0    0 -0.27495097471E+00 -0.10993666104E+01 -0.33005066284E+00  0.11803128494E+01  0.00000000000E+00 0. -1.
         11    1    3    3    0    0 -0.25651303641E+02  0.28521088522E+01 -0.22878890465E+02  0.34490107749E+02  0.51100000000E-03 0. -1.
        -11    1    3    3    0    0 -0.57282628921E+01 -0.49598684146E+01 -0.79515582613E+01  0.10983650099E+02  0.51100000000E-03 0.  1.
        -12    1    3    3    0    0  0.31654517508E+02  0.32071261727E+01  0.31160499389E+02  0.44533929302E+02  0.00000000000E+00 0.  1.
</event>
<event>
 7    1  0.3276565E-015  0.9000782E+02  0.7816164E-02  0.1186339E+00
        -11   -1    0    0    0    0  0.00000000000E+00  0.00000000000E+00  0.45593999997E+02  0.45594000000E+02  0.51100000000E-03 0. -1.
         11   -1    0    0    0    0 -0.00000000000E+00 -0.00000000000E+00 -0.45593999997E+02  0.45594000000E+02  0.51100000000E-03 0.  1.
    9900012    2    1    2    0    0 -0.61268610860E+00  0.10081641330E+01  0.32165551542E-01  0.90007824670E+02  0.90000087156E+02 0.  0.
         12    1    1    2    0    0  0.61268610860E+00 -0.10081641330E+01 -0.32165551542E-01  0.11801753299E+01  0.00000000000E+00 0. -1.
         11    1    3    3    0    0  0.30063586847E+02 -0.15903632539E+02  0.14592390281E+02  0.37009223666E+02  0.51100000000E-03 0. -1.
        -11    1    3    3    0    0  0.19340642266E+01 -0.87058953601E+01 -0.57280045217E+01  0.10599210089E+02  0.51100000000E-03 0.  1.
        -12    1    3    3    0    0 -0.32610337182E+02  0.25617692032E+02 -0.88322202073E+01  0.42399390915E+02  0.00000000000E+00 0.  1.
</event>
<event>
 7    1  0.3276565E-015  0.9000770E+02  0.7816164E-02  0.1186339E+00
        -11   -1    0    0    0    0  0.00000000000E+00  0.00000000000E+00  0.45593999997E+02  0.45594000000E+02  0.51100000000E-03 0.  1.
         11   -1    0    0    0    0 -0.00000000000E+00 -0.00000000000E+00 -0.45593999997E+02  0.45594000000E+02  0.51100000000E-03 0. -1.
    9900012    2    1    2    0    0  0.47134930632E+00  0.87361432462E+00  0.63854605131E+00  0.90007697828E+02  0.89999958640E+02 0.  0.
         12    1    1    2    0    0 -0.47134930632E+00 -0.87361432462E+00 -0.63854605131E+00  0.11803021717E+01  0.00000000000E+00 0. -1.
         11    1    3    3    0    0  0.18939899715E+02  0.78493084871E+00 -0.23461799048E+02  0.30162757375E+02  0.51100000000E-03 0. -1.
        -11    1    3    3    0    0  0.81815514365E+01  0.11447837537E+02 -0.83361560480E+01  0.16354885084E+02  0.51100000000E-03 0.  1.
        -12    1    3    3    0    0 -0.26650101845E+02 -0.11359154061E+02  0.32436501147E+02  0.43490055369E+02  0.00000000000E+00 0.  1.
</event>
<event>
 7    1  0.3276565E-015  0.9000784E+02  0.7816164E-02  0.1186339E+00
        -11   -1    0    0    0    0  0.00000000000E+00  0.00000000000E+00  0.45593999997E+02  0.45594000000E+02  0.51100000000E-03 0.  1.
         11   -1    0    0    0    0 -0.00000000000E+00 -0.00000000000E+00 -0.45593999997E+02  0.45594000000E+02  0.51100000000E-03 0. -1.
    9900012    2    1    2    0    0 -0.76984006490E+00  0.78857798500E+00 -0.42222312819E+00  0.90007838429E+02  0.90000101096E+02 0.  0.
         12    1    1    2    0    0  0.76984006490E+00 -0.78857798500E+00  0.42222312819E+00  0.11801615711E+01  0.00000000000E+00 0. -1.
         11    1    3    3    0    0 -0.72566917153E+01  0.36052868689E+02 -0.10488932090E+02  0.38242471311E+02  0.51100000000E-03 0. -1.
        -11    1    3    3    0    0  0.63928628347E+01  0.61777899075E+01 -0.78874376069E+00  0.89250154255E+01  0.51100000000E-03 0.  1.
        -12    1    3    3    0    0  0.93988815740E-01 -0.41442080611E+02  0.10855452723E+02  0.42840351692E+02  0.00000000000E+00 0.  1.
</event>
<event>
 7    1  0.3276565E-015  0.9000765E+02  0.7816164E-02  0.1186339E+00
        -11   -1    0    0    0    0  0.00000000000E+00  0.00000000000E+00  0.45593999997E+02  0.45594000000E+02  0.51100000000E-03 0.  1.
         11   -1    0    0    0    0 -0.00000000000E+00 -0.00000000000E+00 -0.45593999997E+02  0.45594000000E+02  0.51100000000E-03 0. -1.
    9900012    2    1    2    0    0  0.20591158092E+00 -0.26994605955E+00  0.11304676189E+01  0.90007649420E+02  0.89999909592E+02 0.  0.
         12    1    1    2    0    0 -0.20591158092E+00  0.26994605955E+00 -0.11304676189E+01  0.11803505800E+01  0.00000000000E+00 0. -1.
         11    1    3    3    0    0  0.13838908094E+01  0.84988942513E+01 -0.85228174375E-02  0.86108321414E+01  0.51100000000E-03 0. -1.
        -11    1    3    3    0    0  0.33907629008E+02  0.59818468864E+01  0.19031161712E+02  0.39340753850E+02  0.51100000000E-03 0.  1.
         12    1    3    3    0    0 -0.35085608237E+02 -0.14750687197E+02 -0.17892171276E+02  0.42056063428E+02  0.00000000000E+00 0. -1.
</event>
<event>
 7    1  0.3276565E-015  0.9000775E+02  0.7816164E-02  0.1186339E+00
        -11   -1    0    0    0    0  0.00000000000E+00  0.00000000000E+00  0.45593999997E+02  0.45594000000E+02  0.51100000000E-03 0. -1.
         11   -1    0    0    0    0 -0.00000000000E+00 -0.00000000000E+00 -0.45593999997E+02  0.45594000000E+02  0.51100000000E-03 0.  1.
    9900012    2    1    2    0    0 -0.11405746944E+01  0.30340422023E+00 -0.57549760989E-02  0.90007746691E+02  0.90000008147E+02 0.  0.
         12    1    1    2    0    0  0.11405746944E+01 -0.30340422023E+00  0.57549760989E-02  0.11802533093E+01  0.00000000000E+00 0. -1.
         11    1    3    3    0    0  0.84476986525E+01  0.34881364981E+02  0.21032682520E+01  0.35951313927E+02  0.51100000000E-03 0. -1.
        -11    1    3    3    0    0 -0.40106684433E+00 -0.10088776981E+02  0.18286420719E+02  0.20888692122E+02  0.51100000000E-03 0.  1.
         12    1    3    3    0    0 -0.91872065026E+01 -0.24489183780E+02 -0.20395443947E+02  0.33167740642E+02  0.00000000000E+00 0. -1.
</event>
<event>
 7    1  0.3276565E-015  0.9000718E+02  0.7816164E-02  0.1186340E+00
        -11   -1    0    0    0    0  0.00000000000E+00  0.00000000000E+00  0.45593999997E+02  0.45594000000E+02  0.51100000000E-03 0. -1.
         11   -1    0    0    0    0 -0.00000000000E+00 -0.00000000000E+00 -0.45593999997E+02  0.45594000000E+02  0.51100000000E-03 0.  1.
    9900012    2    1    2    0    0  0.91677403055E+00  0.67687104431E+00  0.30935745631E+00  0.90007182034E+02  0.89999436035E+02 0.  0.
         12    1    1    2    0    0 -0.91677403055E+00 -0.67687104431E+00 -0.30935745631E+00  0.11808179663E+01  0.00000000000E+00 0. -1.
         11    1    3    3    0    0 -0.11934451580E+02 -0.22004492100E+01 -0.32894696412E+02  0.35061861952E+02  0.51100000000E-03 0. -1.
        -11    1    3    3    0    0  0.19835801326E+02 -0.15856915857E+01 -0.83009581505E+00  0.19916387508E+02  0.51100000000E-03 0.  1.
         12    1    3    3    0    0 -0.69845757151E+01  0.44630118400E+01  0.34034149683E+02  0.35028932574E+02  0.00000000000E+00 0. -1.
</event>
<event>
 7    1  0.3276565E-015  0.9000770E+02  0.7816164E-02  0.1186339E+00
        -11   -1    0    0    0    0  0.00000000000E+00  0.00000000000E+00  0.45593999997E+02  0.45594000000E+02  0.51100000000E-03 0.  1.
         11   -1    0    0    0    0 -0.00000000000E+00 -0.00000000000E+00 -0.45593999997E+02  0.45594000000E+02  0.51100000000E-03 0. -1.
    9900012    2    1    2    0    0  0.50028827407E+00  0.10420452895E+01  0.23868193028E+00  0.90007696731E+02  0.89999957528E+02 0.  0.
         12    1    1    2    0    0 -0.50028827407E+00 -0.10420452895E+01 -0.23868193028E+00  0.11803032688E+01  0.00000000000E+00 0. -1.
         11    1    3    3    0    0  0.62898602232E+01 -0.12159486874E+02 -0.73572312504E+00  0.13709731998E+02  0.51100000000E-03 0. -1.
        -11    1    3    3    0    0  0.14153873779E+02 -0.17680732238E+02  0.23937214469E+02  0.32953462219E+02  0.51100000000E-03 0.  1.
         12    1    3    3    0    0 -0.19943445728E+02  0.30882264401E+02 -0.22962809414E+02  0.43344502515E+02  0.00000000000E+00 0. -1.
</event>
<event>
 7    1  0.3276565E-015  0.9000780E+02  0.7816164E-02  0.1186339E+00
        -11   -1    0    0    0    0  0.00000000000E+00  0.00000000000E+00  0.45593999997E+02  0.45594000000E+02  0.51100000000E-03 0.  1.
         11   -1    0    0    0    0 -0.00000000000E+00 -0.00000000000E+00 -0.45593999997E+02  0.45594000000E+02  0.51100000000E-03 0. -1.
    9900012    2    1    2    0    0  0.93610140504E+00  0.51324943867E+00 -0.50314061512E+00  0.90007804548E+02  0.90000066768E+02 0.  0.
         12    1    1    2    0    0 -0.93610140504E+00 -0.51324943867E+00  0.50314061512E+00  0.11801954522E+01  0.00000000000E+00 0. -1.
         11    1    3    3    0    0 -0.88006119798E+01 -0.24042701972E+02 -0.28087174272E+02  0.38005152916E+02  0.51100000000E-03 0. -1.
        -11    1    3    3    0    0  0.63487626756E+01 -0.27568953512E+01 -0.55909702880E+01  0.88975394639E+01  0.51100000000E-03 0.  1.
        -12    1    3    3    0    0  0.33879507093E+01  0.27312846762E+02  0.33175003945E+02  0.43105112168E+02  0.00000000000E+00 0.  1.
</event>
<event>
 7    1  0.3276565E-015  0.9000779E+02  0.7816164E-02  0.1186339E+00
        -11   -1    0    0    0    0  0.00000000000E+00  0.00000000000E+00  0.45593999997E+02  0.45594000000E+02  0.51100000000E-03 0.  1.
         11   -1    0    0    0    0 -0.00000000000E+00 -0.00000000000E+00 -0.45593999997E+02  0.45594000000E+02  0.51100000000E-03 0. -1.
    9900012    2    1    2    0    0 -0.68189596345E+00 -0.85257658876E+00 -0.44836497465E+00  0.90007788114E+02  0.90000050117E+02 0.  0.
         12    1    1    2    0    0  0.68189596345E+00  0.85257658876E+00  0.44836497465E+00  0.11802118857E+01  0.00000000000E+00 0. -1.
         11    1    3    3    0    0 -0.67045326053E+01 -0.78765301660E+01  0.47839725484E+01  0.11396353738E+02  0.51100000000E-03 0. -1.
        -11    1    3    3    0    0  0.11806799857E+02  0.41129111142E+02 -0.92748112379E+01  0.43783860382E+02  0.51100000000E-03 0.  1.
         12    1    3    3    0    0 -0.57841632154E+01 -0.34105157565E+02  0.40424737149E+01  0.34827573995E+02  0.00000000000E+00 0. -1.
</event>
<event>
 7    1  0.3276565E-015  0.9000772E+02  0.7816164E-02  0.1186339E+00
        -11   -1    0    0    0    0  0.00000000000E+00  0.00000000000E+00  0.45593999997E+02  0.45594000000E+02  0.51100000000E-03 0.  1.
         11   -1    0    0    0    0 -0.00000000000E+00 -0.00000000000E+00 -0.45593999997E+02  0.45594000000E+02  0.51100000000E-03 0. -1.
    9900012    2    1    2    0    0 -0.77637237342E+00  0.88843343161E+00 -0.31690856225E-01  0.90007715147E+02  0.89999976187E+02 0.  0.
         12    1    1    2    0    0  0.77637237342E+00 -0.88843343161E+00  0.31690856225E-01  0.11802848533E+01  0.00000000000E+00 0. -1.
         11    1    3    3    0    0 -0.35489353859E+02  0.14620502632E+02 -0.14268116652E+02  0.40949145139E+02  0.51100000000E-03 0. -1.
        -11    1    3    3    0    0  0.84625047222E+01  0.62756237053E+01 -0.40952761385E+01  0.11303482913E+02  0.51100000000E-03 0.  1.
        -12    1    3    3    0    0  0.26250476764E+02 -0.20007692905E+02  0.18331701934E+02  0.37755087094E+02  0.00000000000E+00 0.  1.
</event>
<event>
 7    1  0.3276565E-015  0.9000775E+02  0.7816164E-02  0.1186339E+00
        -11   -1    0    0    0    0  0.00000000000E+00  0.00000000000E+00  0.45593999997E+02  0.45594000000E+02  0.51100000000E-03 0.  1.
         11   -1    0    0    0    0 -0.00000000000E+00 -0.00000000000E+00 -0.45593999997E+02  0.45594000000E+02  0.51100000000E-03 0. -1.
    9900012    2    1    2    0    0  0.11530093846E+01  0.18238480933E+00  0.17403266732E+00  0.90007753319E+02  0.90000014862E+02 0.  0.
         12    1    1    2    0    0 -0.11530093846E+01 -0.18238480933E+00 -0.17403266732E+00  0.11802466814E+01  0.00000000000E+00 0. -1.
         11    1    3    3    0    0  0.67485416726E+00 -0.92393271791E+01 -0.26057746688E+01  0.96234430821E+01  0.51100000000E-03 0. -1.
        -11    1    3    3    0    0 -0.38218676709E+01 -0.28335563304E+02  0.23581530598E+02  0.37062102017E+02  0.51100000000E-03 0.  1.
         12    1    3    3    0    0  0.43000228882E+01  0.37757275293E+02 -0.20801723262E+02  0.43322208220E+02  0.00000000000E+00 0. -1.
</event>
<event>
 7    1  0.3276565E-015  0.9000773E+02  0.7816164E-02  0.1186339E+00
        -11   -1    0    0    0    0  0.00000000000E+00  0.00000000000E+00  0.45593999997E+02  0.45594000000E+02  0.51100000000E-03 0.  1.
         11   -1    0    0    0    0 -0.00000000000E+00 -0.00000000000E+00 -0.45593999997E+02  0.45594000000E+02  0.51100000000E-03 0. -1.
    9900012    2    1    2    0    0 -0.43640774337E+00 -0.68857217415E+00  0.85349392485E+00  0.90007730862E+02  0.89999992110E+02 0.  0.
         12    1    1    2    0    0  0.43640774337E+00  0.68857217415E+00 -0.85349392485E+00  0.11802691376E+01  0.00000000000E+00 0. -1.
         11    1    3    3    0    0  0.18464538790E+02 -0.67004248469E+01 -0.30210062541E+02  0.36034466346E+02  0.51100000000E-03 0. -1.
        -11    1    3    3    0    0  0.65073077932E+00 -0.73024923565E+01 -0.63566891425E+01  0.97034706306E+01  0.51100000000E-03 0.  1.
        -12    1    3    3    0    0 -0.19551677313E+02  0.13314345029E+02  0.37420245608E+02  0.44269793886E+02  0.00000000000E+00 0.  1.
</event>
<event>
 7    1  0.3276565E-015  0.9000769E+02  0.7816164E-02  0.1186339E+00
        -11   -1    0    0    0    0  0.00000000000E+00  0.00000000000E+00  0.45593999997E+02  0.45594000000E+02  0.51100000000E-03 0. -1.
         11   -1    0    0    0    0 -0.00000000000E+00 -0.00000000000E+00 -0.45593999997E+02  0.45594000000E+02  0.51100000000E-03 0.  1.
    9900012    2    1    2    0    0  0.96295155093E+00  0.47490244793E+00 -0.49023362805E+00  0.90007687739E+02  0.89999948417E+02 0.  0.
         12    1    1    2    0    0 -0.96295155093E+00 -0.47490244793E+00  0.49023362805E+00  0.11803122615E+01  0.00000000000E+00 0. -1.
         11    1    3    3    0    0 -0.94840010161E+01 -0.23713312492E+01  0.33521437062E+02  0.34917849735E+02  0.51100000000E-03 0. -1.
        -11    1    3    3    0    0  0.32847911598E+01 -0.47049299064E+01  0.90899028239E+01  0.10749537292E+02  0.51100000000E-03 0.  1.
        -12    1    3    3    0    0  0.71621614072E+01  0.75511636036E+01 -0.43101573514E+02  0.44340300711E+02  0.00000000000E+00 0.  1.
</event>
<event>
 7    1  0.3276565E-015  0.9000770E+02  0.7816164E-02  0.1186339E+00
        -11   -1    0    0    0    0  0.00000000000E+00  0.00000000000E+00  0.45593999997E+02  0.45594000000E+02  0.51100000000E-03 0.  1.
         11   -1    0    0    0    0 -0.00000000000E+00 -0.00000000000E+00 -0.45593999997E+02  0.45594000000E+02  0.51100000000E-03 0. -1.
    9900012    2    1    2    0    0 -0.99097704941E+00  0.56160361004E+00 -0.30931055977E+00  0.90007700398E+02  0.89999961244E+02 0.  0.
         12    1    1    2    0    0  0.99097704941E+00 -0.56160361004E+00  0.30931055977E+00  0.11802996016E+01  0.00000000000E+00 0. -1.
         11    1    3    3    0    0 -0.31911139939E+02  0.15985475245E+02 -0.13893301816E+02  0.38299870844E+02  0.51100000000E-03 0. -1.
        -11    1    3    3    0    0 -0.78014244322E+01 -0.63588177149E+00  0.52612621072E+01  0.94311954714E+01  0.51100000000E-03 0.  1.
        -12    1    3    3    0    0  0.38721587322E+02 -0.14787989863E+02  0.83227291490E+01  0.42276634083E+02  0.00000000000E+00 0.  1.
</event>
<event>
 7    1  0.3276565E-015  0.9000775E+02  0.7816164E-02  0.1186339E+00
        -11   -1    0    0    0    0  0.00000000000E+00  0.00000000000E+00  0.45593999997E+02  0.45594000000E+02  0.51100000000E-03 0.  1.
         11   -1    0    0    0    0 -0.00000000000E+00 -0.00000000000E+00 -0.45593999997E+02  0.45594000000E+02  0.51100000000E-03 0. -1.
    9900012    2    1    2    0    0  0.18430365344E+00 -0.10797354717E+01  0.43953861325E+00  0.90007749722E+02  0.90000011219E+02 0.  0.
         12    1    1    2    0    0 -0.18430365344E+00  0.10797354717E+01 -0.43953861325E+00  0.11802502777E+01  0.00000000000E+00 0. -1.
         11    1    3    3    0    0  0.37236991454E+01 -0.77173476967E+01  0.64371672528E+01  0.10717299721E+02  0.51100000000E-03 0. -1.
        -11    1    3    3    0    0 -0.90303850088E+01 -0.24984292197E+02  0.23671893604E+02  0.35582597672E+02  0.51100000000E-03 0.  1.
         12    1    3    3    0    0  0.54909895168E+01  0.31621904422E+02 -0.29669522244E+02  0.43707852330E+02  0.00000000000E+00 0. -1.
</event>
<event>
 7    1  0.3276565E-015  0.9000775E+02  0.7816164E-02  0.1186339E+00
        -11   -1    0    0    0    0  0.00000000000E+00  0.00000000000E+00  0.45593999997E+02  0.45594000000E+02  0.51100000000E-03 0.  1.
         11   -1    0    0    0    0 -0.00000000000E+00 -0.00000000000E+00 -0.45593999997E+02  0.45594000000E+02  0.51100000000E-03 0. -1.
    9900012    2    1    2    0    0 -0.98834246365E-01 -0.11725128987E+01  0.91828026125E-01  0.90007751258E+02  0.90000012775E+02 0.  0.
         12    1    1    2    0    0  0.98834246365E-01  0.11725128987E+01 -0.91828026125E-01  0.11802487416E+01  0.00000000000E+00 0. -1.
         11    1    3    3    0    0 -0.11879121648E+01 -0.65946712900E+01  0.66189571970E+01  0.94186739709E+01  0.51100000000E-03 0. -1.
        -11    1    3    3    0    0  0.25687448762E+02 -0.12292852890E+02  0.24240309626E+02  0.37397217371E+02  0.51100000000E-03 0.  1.
         12    1    3    3    0    0 -0.24598370844E+02  0.17715011282E+02 -0.30767438797E+02  0.43191859916E+02  0.00000000000E+00 0. -1.
</event>
<event>
 7    1  0.3276565E-015  0.9000774E+02  0.7816164E-02  0.1186339E+00
        -11   -1    0    0    0    0  0.00000000000E+00  0.00000000000E+00  0.45593999997E+02  0.45594000000E+02  0.51100000000E-03 0. -1.
         11   -1    0    0    0    0 -0.00000000000E+00 -0.00000000000E+00 -0.45593999997E+02  0.45594000000E+02  0.51100000000E-03 0.  1.
    9900012    2    1    2    0    0  0.62844604259E+00 -0.97929566937E+00 -0.19761228035E+00  0.90007739414E+02  0.90000000775E+02 0.  0.
         12    1    1    2    0    0 -0.62844604259E+00  0.97929566937E+00  0.19761228035E+00  0.11802605856E+01  0.00000000000E+00 0. -1.
         11    1    3    3    0    0 -0.25526083002E+02  0.81314729648E+01  0.23086261712E+02  0.35364915468E+02  0.51100000000E-03 0. -1.
        -11    1    3    3    0    0 -0.86603207605E+01  0.46598134034E+01  0.12017121028E+01  0.99075288982E+01  0.51100000000E-03 0.  1.
        -12    1    3    3    0    0  0.34814849805E+02 -0.13770582038E+02 -0.24485586095E+02  0.44735295048E+02  0.00000000000E+00 0.  1.
</event>
<event>
 7    1  0.3276565E-015  0.9000776E+02  0.7816164E-02  0.1186339E+00
        -11   -1    0    0    0    0  0.00000000000E+00  0.00000000000E+00  0.45593999997E+02  0.45594000000E+02  0.51100000000E-03 0. -1.
         11   -1    0    0    0    0 -0.00000000000E+00 -0.00000000000E+00 -0.45593999997E+02  0.45594000000E+02  0.51100000000E-03 0.  1.
    9900012    2    1    2    0    0 -0.56181134708E+00 -0.55459691705E-01 -0.10364682649E+01  0.90007756707E+02  0.90000018295E+02 0.  0.
         12    1    1    2    0    0  0.56181134708E+00  0.55459691705E-01  0.10364682649E+01  0.11802432933E+01  0.00000000000E+00 0. -1.
         11    1    3    3    0    0 -0.16303259146E+00 -0.74978257268E+01  0.40545785632E+02  0.41233538570E+02  0.51100000000E-03 0. -1.
        -11    1    3    3    0    0 -0.48438644396E+01 -0.65179650712E+01 -0.54376699029E+01  0.97731850291E+01  0.51100000000E-03 0.  1.
        -12    1    3    3    0    0  0.44450856840E+01  0.13960331106E+02 -0.36144583994E+02  0.39001033107E+02  0.00000000000E+00 0.  1.
</event>
<event>
 7    1  0.3276565E-015  0.9000775E+02  0.7816164E-02  0.1186339E+00
        -11   -1    0    0    0    0  0.00000000000E+00  0.00000000000E+00  0.45593999997E+02  0.45594000000E+02  0.51100000000E-03 0.  1.
         11   -1    0    0    0    0 -0.00000000000E+00 -0.00000000000E+00 -0.45593999997E+02  0.45594000000E+02  0.51100000000E-03 0. -1.
    9900012    2    1    2    0    0 -0.83682652395E+00  0.36241227630E+00  0.74925218594E+00  0.90007745736E+02  0.90000007180E+02 0.  0.
         12    1    1    2    0    0  0.83682652395E+00 -0.36241227630E+00 -0.74925218594E+00  0.11802542638E+01  0.00000000000E+00 0. -1.
         11    1    3    3    0    0  0.50013043939E+01  0.25863057925E+01  0.75185231962E+01  0.93930939848E+01  0.51100000000E-03 0. -1.
        -11    1    3    3    0    0  0.18006505388E+02  0.25924177868E+02 -0.24238797647E+02  0.39797192691E+02  0.51100000000E-03 0.  1.
         12    1    3    3    0    0 -0.23844636306E+02 -0.28148071385E+02  0.17469526637E+02  0.40817459060E+02  0.00000000000E+00 0. -1.
</event>
<event>
 7    1  0.3276565E-015  0.9000778E+02  0.7816164E-02  0.1186339E+00
        -11   -1    0    0    0    0  0.00000000000E+00  0.00000000000E+00  0.45593999997E+02  0.45594000000E+02  0.51100000000E-03 0.  1.
         11   -1    0    0    0    0 -0.00000000000E+00 -0.00000000000E+00 -0.45593999997E+02  0.45594000000E+02  0.51100000000E-03 0. -1.
    9900012    2    1    2    0    0 -0.92146664910E+00  0.55369459844E+00  0.48706388021E+00  0.90007784038E+02  0.90000045987E+02 0.  0.
         12    1    1    2    0    0  0.92146664910E+00 -0.55369459844E+00 -0.48706388021E+00  0.11802159621E+01  0.00000000000E+00 0. -1.
         11    1    3    3    0    0  0.61309278173E+01  0.75444131004E+01 -0.56199757386E+01  0.11229005855E+02  0.51100000000E-03 0. -1.
        -11    1    3    3    0    0  0.25947455897E+02  0.13473859918E+01  0.28086928435E+02  0.38261749381E+02  0.51100000000E-03 0.  1.
         12    1    3    3    0    0 -0.32999850363E+02 -0.83381044937E+01 -0.21979888816E+02  0.40517028802E+02  0.00000000000E+00 0. -1.
</event>
<event>
 7    1  0.3276565E-015  0.9000794E+02  0.7816164E-02  0.1186339E+00
        -11   -1    0    0    0    0  0.00000000000E+00  0.00000000000E+00  0.45593999997E+02  0.45594000000E+02  0.51100000000E-03 0. -1.
         11   -1    0    0    0    0 -0.00000000000E+00 -0.00000000000E+00 -0.45593999997E+02  0.45594000000E+02  0.51100000000E-03 0.  1.
    9900012    2    1    2    0    0 -0.10415745171E+01 -0.45513666378E+00 -0.31703379874E+00  0.90007941829E+02  0.90000205861E+02 0.  0.
         12    1    1    2    0    0  0.10415745171E+01  0.45513666378E+00  0.31703379874E+00  0.11800581710E+01  0.00000000000E+00 0. -1.
         11    1    3    3    0    0  0.55017566404E+01 -0.72124430490E+01  0.52818693244E+00  0.90866738998E+01  0.51100000000E-03 0. -1.
        -11    1    3    3    0    0 -0.55572440436E+01  0.27864088938E+02 -0.32306322712E+02  0.43023120542E+02  0.51100000000E-03 0.  1.
         12    1    3    3    0    0 -0.98608711391E+00 -0.21106782553E+02  0.31461101981E+02  0.37898147387E+02  0.00000000000E+00 0. -1.
</event>
<event>
 7    1  0.3276565E-015  0.9000776E+02  0.7816164E-02  0.1186339E+00
        -11   -1    0    0    0    0  0.00000000000E+00  0.00000000000E+00  0.45593999997E+02  0.45594000000E+02  0.51100000000E-03 0.  1.
         11   -1    0    0    0    0 -0.00000000000E+00 -0.00000000000E+00 -0.45593999997E+02  0.45594000000E+02  0.51100000000E-03 0. -1.
    9900012    2    1    2    0    0  0.22966294370E+00  0.32396675035E+00  0.11114241758E+01  0.90007761371E+02  0.90000023021E+02 0.  0.
         12    1    1    2    0    0 -0.22966294370E+00 -0.32396675035E+00 -0.11114241758E+01  0.11802386291E+01  0.00000000000E+00 0. -1.
         11    1    3    3    0    0 -0.46904392717E+00 -0.10030943715E+02 -0.74284496967E+00  0.10069342229E+02  0.51100000000E-03 0. -1.
        -11    1    3    3    0    0 -0.37093328499E+02 -0.51594293084E+01  0.88732410631E+01  0.38487259414E+02  0.51100000000E-03 0.  1.
         12    1    3    3    0    0  0.37792035370E+02  0.15514339774E+02 -0.70189719176E+01  0.41451159728E+02  0.00000000000E+00 0. -1.
</event>
<event>
 7    1  0.3276565E-015  0.9000791E+02  0.7816164E-02  0.1186339E+00
        -11   -1    0    0    0    0  0.00000000000E+00  0.00000000000E+00  0.45593999997E+02  0.45594000000E+02  0.51100000000E-03 0.  1.
         11   -1    0    0    0    0 -0.00000000000E+00 -0.00000000000E+00 -0.45593999997E+02  0.45594000000E+02  0.51100000000E-03 0. -1.
    9900012    2    1    2    0    0 -0.17311311187E+00 -0.88212266653E+00  0.76453051300E+00  0.90007908710E+02  0.90000172304E+02 0.  0.
         12    1    1    2    0    0  0.17311311187E+00  0.88212266653E+00 -0.76453051300E+00  0.11800912904E+01  0.00000000000E+00 0. -1.
         11    1    3    3    0    0 -0.11339754867E+02  0.22223495200E+02 -0.21437217958E+02  0.32894195436E+02  0.51100000000E-03 0. -1.
        -11    1    3    3    0    0  0.11326489070E+02  0.12282355840E+02  0.34346845362E+01  0.17057041882E+02  0.51100000000E-03 0.  1.
        -12    1    3    3    0    0 -0.15984731434E+00 -0.35387973707E+02  0.18767063935E+02  0.40056671392E+02  0.00000000000E+00 0.  1.
</event>
<event>
 7    1  0.3276565E-015  0.9000775E+02  0.7816164E-02  0.1186339E+00
        -11   -1    0    0    0    0  0.00000000000E+00  0.00000000000E+00  0.45593999997E+02  0.45594000000E+02  0.51100000000E-03 0. -1.
         11   -1    0    0    0    0 -0.00000000000E+00 -0.00000000000E+00 -0.45593999997E+02  0.45594000000E+02  0.51100000000E-03 0.  1.
    9900012    2    1    2    0    0 -0.75747187272E+00  0.64584843951E+00 -0.63412644819E+00  0.90007745707E+02  0.90000007150E+02 0.  0.
         12    1    1    2    0    0  0.75747187272E+00 -0.64584843951E+00  0.63412644819E+00  0.11802542934E+01  0.00000000000E+00 0. -1.
         11    1    3    3    0    0 -0.89160390858E+01  0.82249002283E+00 -0.21904363238E+01  0.92179311327E+01  0.51100000000E-03 0. -1.
        -11    1    3    3    0    0 -0.22555335222E+02  0.25204253240E+02  0.17248469520E+02  0.37967186220E+02  0.51100000000E-03 0.  1.
         12    1    3    3    0    0  0.30713902435E+02 -0.25380894823E+02 -0.15692159645E+02  0.42822628354E+02  0.00000000000E+00 0. -1.
</event>
<event>
 7    1  0.3276565E-015  0.9000732E+02  0.7816164E-02  0.1186340E+00
        -11   -1    0    0    0    0  0.00000000000E+00  0.00000000000E+00  0.45593999997E+02  0.45594000000E+02  0.51100000000E-03 0. -1.
         11   -1    0    0    0    0 -0.00000000000E+00 -0.00000000000E+00 -0.45593999997E+02  0.45594000000E+02  0.51100000000E-03 0.  1.
    9900012    2    1    2    0    0  0.11343705304E+01 -0.28717165477E+00 -0.15729711596E+00  0.90007319500E+02  0.89999575317E+02 0.  0.
         12    1    1    2    0    0 -0.11343705304E+01  0.28717165477E+00  0.15729711596E+00  0.11806804996E+01  0.00000000000E+00 0. -1.
         11    1    3    3    0    0 -0.56396158169E+01 -0.45964856180E+01 -0.25238617277E+01  0.77008327394E+01  0.51100000000E-03 0. -1.
        -11    1    3    3    0    0  0.53939342473E+01 -0.16009524292E+02 -0.35497738652E+02  0.39312705890E+02  0.51100000000E-03 0.  1.
         12    1    3    3    0    0  0.13800521000E+01  0.20318838256E+02  0.37864303264E+02  0.42993780870E+02  0.00000000000E+00 0. -1.
</event>
<event>
 7    1  0.3276565E-015  0.9000756E+02  0.7816164E-02  0.1186339E+00
        -11   -1    0    0    0    0  0.00000000000E+00  0.00000000000E+00  0.45593999997E+02  0.45594000000E+02  0.51100000000E-03 0.  1.
         11   -1    0    0    0    0 -0.00000000000E+00 -0.00000000000E+00 -0.45593999997E+02  0.45594000000E+02  0.51100000000E-03 0. -1.
    9900012    2    1    2    0    0 -0.89685886140E+00 -0.43741290896E+00  0.63068158490E+00  0.90007557231E+02  0.89999816186E+02 0.  0.
         12    1    1    2    0    0  0.89685886140E+00  0.43741290896E+00 -0.63068158490E+00  0.11804427694E+01  0.00000000000E+00 0. -1.
         11    1    3    3    0    0 -0.13210416910E+02  0.99923981354E+01 -0.32437050158E+02  0.36421495833E+02  0.51100000000E-03 0. -1.
        -11    1    3    3    0    0  0.77460863224E+01  0.87224293060E+01 -0.33928506214E+01  0.12148829652E+02  0.51100000000E-03 0.  1.
        -12    1    3    3    0    0  0.45674717262E+01 -0.19152240350E+02  0.36460582365E+02  0.41437231746E+02  0.00000000000E+00 0.  1.
</event>
<event>
 7    1  0.3276565E-015  0.9000720E+02  0.7816164E-02  0.1186340E+00
        -11   -1    0    0    0    0  0.00000000000E+00  0.00000000000E+00  0.45593999997E+02  0.45594000000E+02  0.51100000000E-03 0. -1.
         11   -1    0    0    0    0 -0.00000000000E+00 -0.00000000000E+00 -0.45593999997E+02  0.45594000000E+02  0.51100000000E-03 0.  1.
    9900012    2    1    2    0    0 -0.10718028365E+01  0.47630028561E+00  0.13664723293E+00  0.90007196990E+02  0.89999451189E+02 0.  0.
         12    1    1    2    0    0  0.10718028365E+01 -0.47630028561E+00 -0.13664723293E+00  0.11808030101E+01  0.00000000000E+00 0. -1.
         11    1    3    3    0    0 -0.61830407244E+01  0.74492197681E+01 -0.34189691160E+01  0.10266947834E+02  0.51100000000E-03 0. -1.
        -11    1    3    3    0    0 -0.14712663524E+02  0.22417037897E+02 -0.23095374498E+02  0.35389014955E+02  0.51100000000E-03 0.  1.
         12    1    3    3    0    0  0.19823901412E+02 -0.29389957379E+02  0.26650990847E+02  0.44351234200E+02  0.00000000000E+00 0. -1.
</event>
<event>
 7    1  0.3276565E-015  0.9000823E+02  0.7816164E-02  0.1186338E+00
        -11   -1    0    0    0    0  0.00000000000E+00  0.00000000000E+00  0.45593999997E+02  0.45594000000E+02  0.51100000000E-03 0. -1.
         11   -1    0    0    0    0 -0.00000000000E+00 -0.00000000000E+00 -0.45593999997E+02  0.45594000000E+02  0.51100000000E-03 0.  1.
    9900012    2    1    2    0    0 -0.10221290239E+01  0.50442926016E+00 -0.30438792726E+00  0.90008233654E+02  0.90000501537E+02 0.  0.
         12    1    1    2    0    0  0.10221290239E+01 -0.50442926016E+00  0.30438792726E+00  0.11797663456E+01  0.00000000000E+00 0. -1.
         11    1    3    3    0    0  0.17682680615E+02  0.40197785363E+01  0.36512498398E+02  0.40767614018E+02  0.51100000000E-03 0. -1.
        -11    1    3    3    0    0 -0.71186022168E+01 -0.36676004193E+01  0.23903404733E+01  0.83570041400E+01  0.51100000000E-03 0.  1.
        -12    1    3    3    0    0 -0.11586207423E+02  0.15225114325E+00 -0.39207226798E+02  0.40883615496E+02  0.00000000000E+00 0.  1.
</event>
<event>
 7    1  0.3276565E-015  0.9000713E+02  0.7816164E-02  0.1186340E+00
        -11   -1    0    0    0    0  0.00000000000E+00  0.00000000000E+00  0.45593999997E+02  0.45594000000E+02  0.51100000000E-03 0.  1.
         11   -1    0    0    0    0 -0.00000000000E+00 -0.00000000000E+00 -0.45593999997E+02  0.45594000000E+02  0.51100000000E-03 0. -1.
    9900012    2    1    2    0    0  0.48705871910E+00  0.71507126200E+00  0.80367253741E+00  0.90007134786E+02  0.89999388163E+02 0.  0.
         12    1    1    2    0    0 -0.48705871910E+00 -0.71507126200E+00 -0.80367253741E+00  0.11808652137E+01  0.00000000000E+00 0. -1.
         11    1    3    3    0    0 -0.38868066282E+01 -0.34502744122E+01 -0.82425361300E+01  0.97442835242E+01  0.51100000000E-03 0. -1.
        -11    1    3    3    0    0 -0.32574546616E+02  0.21401549830E+02  0.48466281376E+01  0.39276166144E+02  0.51100000000E-03 0.  1.
         12    1    3    3    0    0  0.36948411964E+02 -0.17236204156E+02  0.41995805298E+01  0.40986685118E+02  0.00000000000E+00 0. -1.
</event>
<event>
 7    1  0.3276565E-015  0.9000765E+02  0.7816164E-02  0.1186339E+00
        -11   -1    0    0    0    0  0.00000000000E+00  0.00000000000E+00  0.45593999997E+02  0.45594000000E+02  0.51100000000E-03 0. -1.
         11   -1    0    0    0    0 -0.00000000000E+00 -0.00000000000E+00 -0.45593999997E+02  0.45594000000E+02  0.51100000000E-03 0.  1.
    9900012    2    1    2    0    0 -0.38441572266E+00 -0.11159423328E+01 -0.11604618258E-01  0.90007645221E+02  0.89999905338E+02 0.  0.
         12    1    1    2    0    0  0.38441572266E+00  0.11159423328E+01  0.11604618258E-01  0.11803547793E+01  0.00000000000E+00 0. -1.
         11    1    3    3    0    0 -0.14258213269E+01  0.55998462896E+01  0.19077672612E+01  0.60852954824E+01  0.51100000000E-03 0. -1.
        -11    1    3    3    0    0  0.17519614551E+02  0.33833544613E+02 -0.10050696648E+02  0.39403834058E+02  0.51100000000E-03 0.  1.
         12    1    3    3    0    0 -0.16478208946E+02 -0.40549333235E+02  0.81313247684E+01  0.44518515681E+02  0.00000000000E+00 0. -1.
</event>
<event>
 7    1  0.3276565E-015  0.9000773E+02  0.7816164E-02  0.1186339E+00
        -11   -1    0    0    0    0  0.00000000000E+00  0.00000000000E+00  0.45593999997E+02  0.45594000000E+02  0.51100000000E-03 0. -1.
         11   -1    0    0    0    0 -0.00000000000E+00 -0.00000000000E+00 -0.45593999997E+02  0.45594000000E+02  0.51100000000E-03 0.  1.
    9900012    2    1    2    0    0 -0.10659805257E+01  0.30112370813E+00 -0.40749534295E+00  0.90007727818E+02  0.89999989025E+02 0.  0.
         12    1    1    2    0    0  0.10659805257E+01 -0.30112370813E+00  0.40749534295E+00  0.11802721818E+01  0.00000000000E+00 0. -1.
         11    1    3    3    0    0  0.11045276711E+01  0.10280290885E+02  0.65303690585E+01  0.12229067109E+02  0.51100000000E-03 0. -1.
        -11    1    3    3    0    0  0.36120636095E+01  0.29872830423E+02 -0.19187466948E+02  0.35687419199E+02  0.51100000000E-03 0.  1.
         12    1    3    3    0    0 -0.57825718063E+01 -0.39851997599E+02  0.12249602546E+02  0.42091241510E+02  0.00000000000E+00 0. -1.
</event>
<event>
 7    1  0.3276565E-015  0.9000757E+02  0.7816164E-02  0.1186339E+00
        -11   -1    0    0    0    0  0.00000000000E+00  0.00000000000E+00  0.45593999997E+02  0.45594000000E+02  0.51100000000E-03 0.  1.
         11   -1    0    0    0    0 -0.00000000000E+00 -0.00000000000E+00 -0.45593999997E+02  0.45594000000E+02  0.51100000000E-03 0. -1.
    9900012    2    1    2    0    0  0.11354522830E+01 -0.25192100500E+00  0.20176562831E+00  0.90007565568E+02  0.89999824633E+02 0.  0.
         12    1    1    2    0    0 -0.11354522830E+01  0.25192100500E+00 -0.20176562831E+00  0.11804344321E+01  0.00000000000E+00 0. -1.
         11    1    3    3    0    0  0.88096999063E+00 -0.14631131004E+01 -0.10521966617E+02  0.10659671187E+02  0.51100000000E-03 0. -1.
        -11    1    3    3    0    0  0.29970658933E+02 -0.78360775456E+01  0.29726256109E+02  0.42933609337E+02  0.51100000000E-03 0.  1.
         12    1    3    3    0    0 -0.29716176641E+02  0.90472696410E+01 -0.19002523864E+02  0.36414285044E+02  0.00000000000E+00 0. -1.
</event>
<event>
 7    1  0.3276565E-015  0.9000772E+02  0.7816164E-02  0.1186339E+00
        -11   -1    0    0    0    0  0.00000000000E+00  0.00000000000E+00  0.45593999997E+02  0.45594000000E+02  0.51100000000E-03 0.  1.
         11   -1    0    0    0    0 -0.00000000000E+00 -0.00000000000E+00 -0.45593999997E+02  0.45594000000E+02  0.51100000000E-03 0. -1.
    9900012    2    1    2    0    0  0.11651793896E+01 -0.57965208923E-01  0.17905373850E+00  0.90007719009E+02  0.89999980100E+02 0.  0.
         12    1    1    2    0    0 -0.11651793896E+01  0.57965208923E-01 -0.17905373850E+00  0.11802809906E+01  0.00000000000E+00 0. -1.
         11    1    3    3    0    0  0.22420058114E+02 -0.33284362065E+02 -0.11511983220E+02  0.41749652955E+02  0.51100000000E-03 0. -1.
        -11    1    3    3    0    0  0.52830555026E+01  0.64460874244E+01 -0.11842327246E+01  0.84181426653E+01  0.51100000000E-03 0.  1.
        -12    1    3    3    0    0 -0.26537934227E+02  0.26780309432E+02  0.12875269683E+02  0.39839923390E+02  0.00000000000E+00 0.  1.
</event>
<event>
 7    1  0.3276565E-015  0.9000764E+02  0.7816164E-02  0.1186339E+00
        -11   -1    0    0    0    0  0.00000000000E+00  0.00000000000E+00  0.45593999997E+02  0.45594000000E+02  0.51100000000E-03 0. -1.
         11   -1    0    0    0    0 -0.00000000000E+00 -0.00000000000E+00 -0.45593999997E+02  0.45594000000E+02  0.51100000000E-03 0.  1.
    9900012    2    1    2    0    0  0.83010752194E-01  0.31482635571E+00 -0.11345666084E+01  0.90007640814E+02  0.89999900873E+02 0.  0.
         12    1    1    2    0    0 -0.83010752194E-01 -0.31482635571E+00  0.11345666084E+01  0.11803591860E+01  0.00000000000E+00 0. -1.
         11    1    3    3    0    0 -0.60969184102E+01  0.13072213074E+02  0.36100808747E+02  0.38875745153E+02  0.51100000000E-03 0. -1.
        -11    1    3    3    0    0 -0.74502929826E+01  0.35007800871E+01  0.51279423358E-01  0.82319473143E+01  0.51100000000E-03 0.  1.
        -12    1    3    3    0    0  0.13630222145E+02 -0.16258166806E+02 -0.37286654778E+02  0.42899948347E+02  0.00000000000E+00 0.  1.
</event>
<event>
 7    1  0.3276565E-015  0.9000769E+02  0.7816164E-02  0.1186339E+00
        -11   -1    0    0    0    0  0.00000000000E+00  0.00000000000E+00  0.45593999997E+02  0.45594000000E+02  0.51100000000E-03 0.  1.
         11   -1    0    0    0    0 -0.00000000000E+00 -0.00000000000E+00 -0.45593999997E+02  0.45594000000E+02  0.51100000000E-03 0. -1.
    9900012    2    1    2    0    0 -0.85434962208E+00 -0.17684114388E+00  0.79494953404E+00  0.90007690367E+02  0.89999951080E+02 0.  0.
         12    1    1    2    0    0  0.85434962208E+00  0.17684114388E+00 -0.79494953404E+00  0.11803096325E+01  0.00000000000E+00 0. -1.
         11    1    3    3    0    0  0.96841773041E+01  0.21274040609E+01  0.30541804280E+01  0.10374832839E+02  0.51100000000E-03 0. -1.
        -11    1    3    3    0    0 -0.83550516837E+01  0.36256389752E+02 -0.13219701028E+02  0.39485354019E+02  0.51100000000E-03 0.  1.
         12    1    3    3    0    0 -0.21834752425E+01 -0.38560634957E+02  0.10960470134E+02  0.40147503509E+02  0.00000000000E+00 0. -1.
</event>
<event>
 7    1  0.3276565E-015  0.9000755E+02  0.7816164E-02  0.1186339E+00
        -11   -1    0    0    0    0  0.00000000000E+00  0.00000000000E+00  0.45593999997E+02  0.45594000000E+02  0.51100000000E-03 0. -1.
         11   -1    0    0    0    0 -0.00000000000E+00 -0.00000000000E+00 -0.45593999997E+02  0.45594000000E+02  0.51100000000E-03 0.  1.
    9900012    2    1    2    0    0  0.11195284206E+01  0.13210130424E+00 -0.35023924756E+00  0.90007550014E+02  0.89999808874E+02 0.  0.
         12    1    1    2    0    0 -0.11195284206E+01 -0.13210130424E+00  0.35023924756E+00  0.11804499861E+01  0.00000000000E+00 0. -1.
         11    1    3    3    0    0  0.27086476535E+02 -0.11695264052E+02  0.20777395700E+02  0.36085406810E+02  0.51100000000E-03 0. -1.
        -11    1    3    3    0    0  0.59002348444E+01  0.26083506531E+01  0.76490824482E+01  0.10006234402E+02  0.51100000000E-03 0.  1.
        -12    1    3    3    0    0 -0.31867182959E+02  0.92190147032E+01 -0.28776717395E+02  0.43915908802E+02  0.00000000000E+00 0.  1.
</event>
<event>
 7    1  0.3276565E-015  0.9000774E+02  0.7816164E-02  0.1186339E+00
        -11   -1    0    0    0    0  0.00000000000E+00  0.00000000000E+00  0.45593999997E+02  0.45594000000E+02  0.51100000000E-03 0.  1.
         11   -1    0    0    0    0 -0.00000000000E+00 -0.00000000000E+00 -0.45593999997E+02  0.45594000000E+02  0.51100000000E-03 0. -1.
    9900012    2    1    2    0    0  0.25316906104E+00  0.18769152218E+00  0.11374095679E+01  0.90007735959E+02  0.89999997274E+02 0.  0.
         12    1    1    2    0    0 -0.25316906104E+00 -0.18769152218E+00 -0.11374095679E+01  0.11802640409E+01  0.00000000000E+00 0. -1.
         11    1    3    3    0    0 -0.26614277822E+02  0.86078964359E+01 -0.23979588087E+02  0.36843402532E+02  0.51100000000E-03 0. -1.
        -11    1    3    3    0    0 -0.40714568586E+01  0.35890004969E+01 -0.57030683798E+01  0.78729076410E+01  0.51100000000E-03 0.  1.
        -12    1    3    3    0    0  0.30938903742E+02 -0.12009205411E+02  0.30820066035E+02  0.45291425786E+02  0.00000000000E+00 0.  1.
</event>
<event>
 7    1  0.3276565E-015  0.9000872E+02  0.7816164E-02  0.1186337E+00
        -11   -1    0    0    0    0  0.00000000000E+00  0.00000000000E+00  0.45593999997E+02  0.45594000000E+02  0.51100000000E-03 0. -1.
         11   -1    0    0    0    0 -0.00000000000E+00 -0.00000000000E+00 -0.45593999997E+02  0.45594000000E+02  0.51100000000E-03 0.  1.
    9900012    2    1    2    0    0 -0.27717287376E+00  0.10232928786E+01  0.51648388119E+00  0.90008716863E+02  0.90000991120E+02 0.  0.
         12    1    1    2    0    0  0.27717287376E+00 -0.10232928786E+01 -0.51648388119E+00  0.11792831369E+01  0.00000000000E+00 0. -1.
         11    1    3    3    0    0  0.39591366869E+02 -0.10799427543E+02 -0.21057917985E+01  0.41091827961E+02  0.51100000000E-03 0. -1.
        -11    1    3    3    0    0  0.16229517943E+01  0.67419381320E+01  0.15294542774E+01  0.71011923611E+01  0.51100000000E-03 0.  1.
        -12    1    3    3    0    0 -0.41491491537E+02  0.50807822897E+01  0.10928214024E+01  0.41815696541E+02  0.00000000000E+00 0.  1.
</event>
<event>
 7    1  0.3276565E-015  0.9000775E+02  0.7816164E-02  0.1186339E+00
        -11   -1    0    0    0    0  0.00000000000E+00  0.00000000000E+00  0.45593999997E+02  0.45594000000E+02  0.51100000000E-03 0.  1.
         11   -1    0    0    0    0 -0.00000000000E+00 -0.00000000000E+00 -0.45593999997E+02  0.45594000000E+02  0.51100000000E-03 0. -1.
    9900012    2    1    2    0    0  0.49407751268E+00 -0.10148649855E+01  0.34484715318E+00  0.90007752955E+02  0.90000014494E+02 0.  0.
         12    1    1    2    0    0 -0.49407751268E+00  0.10148649855E+01 -0.34484715318E+00  0.11802470447E+01  0.00000000000E+00 0. -1.
         11    1    3    3    0    0 -0.12364082360E+02 -0.12578976966E+02 -0.35910934310E+02  0.40008704021E+02  0.51100000000E-03 0. -1.
        -11    1    3    3    0    0  0.85270334561E+01  0.29402134523E+01 -0.30534696431E+01  0.95225433487E+01  0.51100000000E-03 0.  1.
        -12    1    3    3    0    0  0.43311264164E+01  0.86238985284E+01  0.39309251107E+02  0.40476505586E+02  0.00000000000E+00 0.  1.
</event>
<event>
 7    1  0.3276565E-015  0.9000772E+02  0.7816164E-02  0.1186339E+00
        -11   -1    0    0    0    0  0.00000000000E+00  0.00000000000E+00  0.45593999997E+02  0.45594000000E+02  0.51100000000E-03 0.  1.
         11   -1    0    0    0    0 -0.00000000000E+00 -0.00000000000E+00 -0.45593999997E+02  0.45594000000E+02  0.51100000000E-03 0. -1.
    9900012    2    1    2    0    0  0.95391532691E-01  0.34022407497E+00  0.11261508235E+01  0.90007717134E+02  0.89999978200E+02 0.  0.
         12    1    1    2    0    0 -0.95391532691E-01 -0.34022407497E+00 -0.11261508235E+01  0.11802828657E+01  0.00000000000E+00 0. -1.
         11    1    3    3    0    0  0.74638605659E+01 -0.27468760959E+01  0.69710115138E+01  0.10575894507E+02  0.51100000000E-03 0. -1.
        -11    1    3    3    0    0 -0.18102871640E+01  0.33016985931E+02  0.20725934933E+02  0.39025156997E+02  0.51100000000E-03 0.  1.
         12    1    3    3    0    0 -0.55581818692E+01 -0.29929885760E+02 -0.26570795623E+02  0.40406665630E+02  0.00000000000E+00 0. -1.
</event>
<event>
 7    1  0.3276565E-015  0.9000775E+02  0.7816164E-02  0.1186339E+00
        -11   -1    0    0    0    0  0.00000000000E+00  0.00000000000E+00  0.45593999997E+02  0.45594000000E+02  0.51100000000E-03 0.  1.
         11   -1    0    0    0    0 -0.00000000000E+00 -0.00000000000E+00 -0.45593999997E+02  0.45594000000E+02  0.51100000000E-03 0. -1.
    9900012    2    1    2    0    0 -0.10625300324E+01  0.15458981217E+00  0.49003164222E+00  0.90007746176E+02  0.90000007625E+02 0.  0.
         12    1    1    2    0    0  0.10625300324E+01 -0.15458981217E+00 -0.49003164222E+00  0.11802538245E+01  0.00000000000E+00 0. -1.
         11    1    3    3    0    0 -0.13633570307E+02 -0.22420344413E+02 -0.23246130460E+02  0.35056078853E+02  0.51100000000E-03 0. -1.
        -11    1    3    3    0    0  0.28290534370E+01 -0.83059720372E+01 -0.62864372483E+01  0.10794072835E+02  0.51100000000E-03 0.  1.
        -12    1    3    3    0    0  0.97419868373E+01  0.30880906263E+02  0.30022599350E+02  0.44157594487E+02  0.00000000000E+00 0.  1.
</event>
<event>
 7    1  0.3276565E-015  0.9000774E+02  0.7816164E-02  0.1186339E+00
        -11   -1    0    0    0    0  0.00000000000E+00  0.00000000000E+00  0.45593999997E+02  0.45594000000E+02  0.51100000000E-03 0. -1.
         11   -1    0    0    0    0 -0.00000000000E+00 -0.00000000000E+00 -0.45593999997E+02  0.45594000000E+02  0.51100000000E-03 0.  1.
    9900012    2    1    2    0    0 -0.10475759602E+01 -0.52128578714E+00 -0.15447979539E+00  0.90007738050E+02  0.89999999392E+02 0.  0.
         12    1    1    2    0    0  0.10475759602E+01  0.52128578714E+00  0.15447979539E+00  0.11802619504E+01  0.00000000000E+00 0. -1.
         11    1    3    3    0    0  0.24543186241E+02  0.19706449572E+01  0.16878927589E+02  0.29852129392E+02  0.51100000000E-03 0. -1.
        -11    1    3    3    0    0  0.12371195607E+02  0.11817804411E+02 -0.44161565115E+01  0.17669448787E+02  0.51100000000E-03 0.  1.
        -12    1    3    3    0    0 -0.37961957809E+02 -0.14309735156E+02 -0.12617250873E+02  0.42486159870E+02  0.00000000000E+00 0.  1.
</event>
<event>
 7    1  0.3276565E-015  0.9000772E+02  0.7816164E-02  0.1186339E+00
        -11   -1    0    0    0    0  0.00000000000E+00  0.00000000000E+00  0.45593999997E+02  0.45594000000E+02  0.51100000000E-03 0.  1.
         11   -1    0    0    0    0 -0.00000000000E+00 -0.00000000000E+00 -0.45593999997E+02  0.45594000000E+02  0.51100000000E-03 0. -1.
    9900012    2    1    2    0    0 -0.71090636193E+00 -0.69322656045E+00  0.63804446773E+00  0.90007723904E+02  0.89999985060E+02 0.  0.
         12    1    1    2    0    0  0.71090636193E+00  0.69322656045E+00 -0.63804446773E+00  0.11802760958E+01  0.00000000000E+00 0. -1.
         11    1    3    3    0    0  0.90676057471E+01  0.18814408242E+02 -0.30954546397E+02  0.37341496681E+02  0.51100000000E-03 0. -1.
        -11    1    3    3    0    0 -0.78931630404E+01  0.36441572756E+01 -0.44658093861E+01  0.97737075241E+01  0.51100000000E-03 0.  1.
        -12    1    3    3    0    0 -0.18853490686E+01 -0.23151792078E+02  0.36058400251E+02  0.42892519699E+02  0.00000000000E+00 0.  1.
</event>
<event>
 7    1  0.3276565E-015  0.9000776E+02  0.7816164E-02  0.1186339E+00
        -11   -1    0    0    0    0  0.00000000000E+00  0.00000000000E+00  0.45593999997E+02  0.45594000000E+02  0.51100000000E-03 0.  1.
         11   -1    0    0    0    0 -0.00000000000E+00 -0.00000000000E+00 -0.45593999997E+02  0.45594000000E+02  0.51100000000E-03 0. -1.
    9900012    2    1    2    0    0 -0.10717412515E+01 -0.48723383527E+00 -0.83370199608E-01  0.90007755656E+02  0.90000017231E+02 0.  0.
         12    1    1    2    0    0  0.10717412515E+01  0.48723383527E+00  0.83370199608E-01  0.11802443436E+01  0.00000000000E+00 0. -1.
         11    1    3    3    0    0 -0.68321456232E+01  0.65875000173E+01  0.50581561692E+01  0.10754455560E+02  0.51100000000E-03 0. -1.
        -11    1    3    3    0    0 -0.10764456143E+02  0.45519517105E+01  0.33591687961E+02  0.35566772144E+02  0.51100000000E-03 0.  1.
         12    1    3    3    0    0  0.16524860514E+02 -0.11626685563E+02 -0.38733214330E+02  0.43686527952E+02  0.00000000000E+00 0. -1.
</event>
<event>
 7    1  0.3276565E-015  0.9000773E+02  0.7816164E-02  0.1186339E+00
        -11   -1    0    0    0    0  0.00000000000E+00  0.00000000000E+00  0.45593999997E+02  0.45594000000E+02  0.51100000000E-03 0. -1.
         11   -1    0    0    0    0 -0.00000000000E+00 -0.00000000000E+00 -0.45593999997E+02  0.45594000000E+02  0.51100000000E-03 0.  1.
    9900012    2    1    2    0    0 -0.72191831969E+00 -0.92001120735E+00 -0.15955114628E+00  0.90007727468E+02  0.89999988670E+02 0.  0.
         12    1    1    2    0    0  0.72191831969E+00  0.92001120735E+00  0.15955114628E+00  0.11802725322E+01  0.00000000000E+00 0. -1.
         11    1    3    3    0    0 -0.19291170745E+01 -0.63977105935E+01 -0.11358036208E+02  0.13177905004E+02  0.51100000000E-03 0. -1.
        -11    1    3    3    0    0 -0.36775636461E+01  0.32226149891E+02 -0.17865141581E+02  0.37029886512E+02  0.51100000000E-03 0.  1.
         12    1    3    3    0    0  0.48847624008E+01 -0.26748450505E+02  0.29063626643E+02  0.39799935951E+02  0.00000000000E+00 0. -1.
</event>
<event>
 7    1  0.3276565E-015  0.9000784E+02  0.7816164E-02  0.1186339E+00
        -11   -1    0    0    0    0  0.00000000000E+00  0.00000000000E+00  0.45593999997E+02  0.45594000000E+02  0.51100000000E-03 0.  1.
         11   -1    0    0    0    0 -0.00000000000E+00 -0.00000000000E+00 -0.45593999997E+02  0.45594000000E+02  0.51100000000E-03 0. -1.
    9900012    2    1    2    0    0  0.11770972946E+01 -0.63077379552E-01  0.56979820773E-01  0.90007837513E+02  0.90000100168E+02 0.  0.
         12    1    1    2    0    0 -0.11770972946E+01  0.63077379552E-01 -0.56979820773E-01  0.11801624874E+01  0.00000000000E+00 0. -1.
         11    1    3    3    0    0  0.96577634319E+01  0.32234278500E+02  0.20062054353E+02  0.39176614581E+02  0.51100000000E-03 0. -1.
        -11    1    3    3    0    0 -0.33783928770E+01  0.65807768367E+01 -0.18752173470E+01  0.76312910156E+01  0.51100000000E-03 0.  1.
        -12    1    3    3    0    0 -0.51022732603E+01 -0.38878132716E+02 -0.18129857186E+02  0.43199931915E+02  0.00000000000E+00 0.  1.
</event>
<event>
 7    1  0.3276565E-015  0.9000767E+02  0.7816164E-02  0.1186339E+00
        -11   -1    0    0    0    0  0.00000000000E+00  0.00000000000E+00  0.45593999997E+02  0.45594000000E+02  0.51100000000E-03 0.  1.
         11   -1    0    0    0    0 -0.00000000000E+00 -0.00000000000E+00 -0.45593999997E+02  0.45594000000E+02  0.51100000000E-03 0. -1.
    9900012    2    1    2    0    0 -0.87053934639E+00 -0.29403999238E+00  0.74085963686E+00  0.90007673235E+02  0.89999933722E+02 0.  0.
         12    1    1    2    0    0  0.87053934639E+00  0.29403999238E+00 -0.74085963686E+00  0.11803267650E+01  0.00000000000E+00 0. -1.
         11    1    3    3    0    0  0.52398925097E+01 -0.24300050278E+02 -0.59983774692E+01  0.25572044297E+02  0.51100000000E-03 0. -1.
        -11    1    3    3    0    0 -0.11768155902E+02 -0.15869224244E+02 -0.83209275539E+01  0.21437341417E+02  0.51100000000E-03 0.  1.
        -12    1    3    3    0    0  0.56577240456E+01  0.39875234529E+02  0.15060164660E+02  0.42998287521E+02  0.00000000000E+00 0.  1.
</event>
<event>
 7    1  0.3276565E-015  0.9000683E+02  0.7816164E-02  0.1186341E+00
        -11   -1    0    0    0    0  0.00000000000E+00  0.00000000000E+00  0.45593999997E+02  0.45594000000E+02  0.51100000000E-03 0.  1.
         11   -1    0    0    0    0 -0.00000000000E+00 -0.00000000000E+00 -0.45593999997E+02  0.45594000000E+02  0.51100000000E-03 0. -1.
    9900012    2    1    2    0    0  0.40501846979E+00  0.29018278664E+00  0.10709391342E+01  0.90006832510E+02  0.89999081894E+02 0.  0.
         12    1    1    2    0    0 -0.40501846979E+00 -0.29018278664E+00 -0.10709391342E+01  0.11811674901E+01  0.00000000000E+00 0. -1.
         11    1    3    3    0    0 -0.16172476082E+00  0.11362315561E+02 -0.20669357370E+01  0.11549917464E+02  0.51100000000E-03 0. -1.
        -11    1    3    3    0    0 -0.34947269847E+02  0.35029353130E+01  0.15124614682E+02  0.38240504640E+02  0.51100000000E-03 0.  1.
         12    1    3    3    0    0  0.35514013078E+02 -0.14575068088E+02 -0.11986739811E+02  0.40216410406E+02  0.00000000000E+00 0. -1.
</event>
<event>
 7    1  0.3276565E-015  0.9000765E+02  0.7816164E-02  0.1186339E+00
        -11   -1    0    0    0    0  0.00000000000E+00  0.00000000000E+00  0.45593999997E+02  0.45594000000E+02  0.51100000000E-03 0. -1.
         11   -1    0    0    0    0 -0.00000000000E+00 -0.00000000000E+00 -0.45593999997E+02  0.45594000000E+02  0.51100000000E-03 0.  1.
    9900012    2    1    2    0    0 -0.43834414751E+00  0.10768405504E+01 -0.20371495374E+00  0.90007647957E+02  0.89999908110E+02 0.  0.
         12    1    1    2    0    0  0.43834414751E+00 -0.10768405504E+01  0.20371495374E+00  0.11803520428E+01  0.00000000000E+00 0. -1.
         11    1    3    3    0    0 -0.32616591993E+02  0.20045596567E+02 -0.89347143585E+01  0.39312811346E+02  0.51100000000E-03 0. -1.
        -11    1    3    3    0    0  0.44807311210E+01  0.12154389017E+01 -0.10439813921E+02  0.11425583489E+02  0.51100000000E-03 0.  1.
        -12    1    3    3    0    0  0.27697516724E+02 -0.20184194919E+02  0.19170813326E+02  0.39269253122E+02  0.00000000000E+00 0.  1.
</event>
<event>
 7    1  0.3276565E-015  0.9000773E+02  0.7816164E-02  0.1186339E+00
        -11   -1    0    0    0    0  0.00000000000E+00  0.00000000000E+00  0.45593999997E+02  0.45594000000E+02  0.51100000000E-03 0.  1.
         11   -1    0    0    0    0 -0.00000000000E+00 -0.00000000000E+00 -0.45593999997E+02  0.45594000000E+02  0.51100000000E-03 0. -1.
    9900012    2    1    2    0    0 -0.47881962079E+00  0.62994472544E+00  0.87574551304E+00  0.90007733594E+02  0.89999994877E+02 0.  0.
         12    1    1    2    0    0  0.47881962079E+00 -0.62994472544E+00 -0.87574551304E+00  0.11802664064E+01  0.00000000000E+00 0. -1.
         11    1    3    3    0    0 -0.18715561685E+02 -0.16844984879E+02 -0.26930069451E+02  0.36868067560E+02  0.51100000000E-03 0. -1.
        -11    1    3    3    0    0 -0.18994919670E+01 -0.95536196064E+01  0.48514996180E+00  0.97526964509E+01  0.51100000000E-03 0.  1.
        -12    1    3    3    0    0  0.20136234031E+02  0.27028549211E+02  0.27320665002E+02  0.43386969582E+02  0.00000000000E+00 0.  1.
</event>
<event>
 7    1  0.3276565E-015  0.9000772E+02  0.7816164E-02  0.1186339E+00
        -11   -1    0    0    0    0  0.00000000000E+00  0.00000000000E+00  0.45593999997E+02  0.45594000000E+02  0.51100000000E-03 0.  1.
         11   -1    0    0    0    0 -0.00000000000E+00 -0.00000000000E+00 -0.45593999997E+02  0.45594000000E+02  0.51100000000E-03 0. -1.
    9900012    2    1    2    0    0 -0.26426467944E+00 -0.18502841617E-01  0.11501654019E+01  0.90007720954E+02  0.89999982070E+02 0.  0.
         12    1    1    2    0    0  0.26426467944E+00  0.18502841617E-01 -0.11501654019E+01  0.11802790465E+01  0.00000000000E+00 0. -1.
         11    1    3    3    0    0 -0.55748379520E+01 -0.69742137785E+00  0.11484443766E+02  0.12785056263E+02  0.51100000000E-03 0. -1.
        -11    1    3    3    0    0  0.21690876497E+02 -0.45210486532E+01 -0.38387910025E+02  0.44323420902E+02  0.51100000000E-03 0.  1.
         12    1    3    3    0    0 -0.16380303224E+02  0.51999671895E+01  0.28053631661E+02  0.32899243788E+02  0.00000000000E+00 0. -1.
</event>
<event>
 7    1  0.3276565E-015  0.9000778E+02  0.7816164E-02  0.1186339E+00
        -11   -1    0    0    0    0  0.00000000000E+00  0.00000000000E+00  0.45593999997E+02  0.45594000000E+02  0.51100000000E-03 0. -1.
         11   -1    0    0    0    0 -0.00000000000E+00 -0.00000000000E+00 -0.45593999997E+02  0.45594000000E+02  0.51100000000E-03 0.  1.
    9900012    2    1    2    0    0  0.50980566662E+00  0.96369317900E+00  0.45202143194E+00  0.90007775557E+02  0.90000037394E+02 0.  0.
         12    1    1    2    0    0 -0.50980566662E+00 -0.96369317900E+00 -0.45202143194E+00  0.11802244430E+01  0.00000000000E+00 0. -1.
         11    1    3    3    0    0 -0.55329777635E+01  0.10618997806E+02  0.40639562653E+02  0.42366862172E+02  0.51100000000E-03 0. -1.
        -11    1    3    3    0    0  0.75608203159E+01  0.51100656731E+01 -0.77650302865E+01  0.11982256492E+02  0.51100000000E-03 0.  1.
        -12    1    3    3    0    0 -0.15180368858E+01 -0.14765370301E+02 -0.32422510935E+02  0.35658656893E+02  0.00000000000E+00 0.  1.
</event>
<event>
 7    1  0.3276565E-015  0.9000765E+02  0.7816164E-02  0.1186339E+00
        -11   -1    0    0    0    0  0.00000000000E+00  0.00000000000E+00  0.45593999997E+02  0.45594000000E+02  0.51100000000E-03 0.  1.
         11   -1    0    0    0    0 -0.00000000000E+00 -0.00000000000E+00 -0.45593999997E+02  0.45594000000E+02  0.51100000000E-03 0. -1.
    9900012    2    1    2    0    0  0.78703152476E+00 -0.86490266219E+00 -0.16049002800E+00  0.90007647390E+02  0.89999907535E+02 0.  0.
         12    1    1    2    0    0 -0.78703152476E+00  0.86490266219E+00  0.16049002800E+00  0.11803526105E+01  0.00000000000E+00 0. -1.
         11    1    3    3    0    0 -0.24660087384E+02 -0.13786193079E+02 -0.20267028063E+02  0.34769691632E+02  0.51100000000E-03 0. -1.
        -11    1    3    3    0    0 -0.83390162281E+01 -0.41809398029E+01 -0.42103985207E+01  0.10234593556E+02  0.51100000000E-03 0.  1.
        -12    1    3    3    0    0  0.33786135137E+02  0.17102230219E+02  0.24316936556E+02  0.45003362202E+02  0.00000000000E+00 0.  1.
</event>
<event>
 7    1  0.3276565E-015  0.9000758E+02  0.7816164E-02  0.1186339E+00
        -11   -1    0    0    0    0  0.00000000000E+00  0.00000000000E+00  0.45593999997E+02  0.45594000000E+02  0.51100000000E-03 0. -1.
         11   -1    0    0    0    0 -0.00000000000E+00 -0.00000000000E+00 -0.45593999997E+02  0.45594000000E+02  0.51100000000E-03 0.  1.
    9900012    2    1    2    0    0  0.86069456807E+00 -0.45110229083E-01  0.80657049855E+00  0.90007582260E+02  0.89999841545E+02 0.  0.
         12    1    1    2    0    0 -0.86069456807E+00  0.45110229083E-01 -0.80657049855E+00  0.11804177402E+01  0.00000000000E+00 0. -1.
         11    1    3    3    0    0  0.13689897204E+02  0.11273113988E+02  0.36678786522E+02  0.40741008400E+02  0.51100000000E-03 0. -1.
        -11    1    3    3    0    0  0.85701672150E+01 -0.32119483082E+01 -0.38988897620E+01  0.99481515702E+01  0.51100000000E-03 0.  1.
        -12    1    3    3    0    0 -0.21399369851E+02 -0.81062759091E+01 -0.31973326262E+02  0.39318422290E+02  0.00000000000E+00 0.  1.
</event>
<event>
 7    1  0.3276565E-015  0.9000765E+02  0.7816164E-02  0.1186339E+00
        -11   -1    0    0    0    0  0.00000000000E+00  0.00000000000E+00  0.45593999997E+02  0.45594000000E+02  0.51100000000E-03 0. -1.
         11   -1    0    0    0    0 -0.00000000000E+00 -0.00000000000E+00 -0.45593999997E+02  0.45594000000E+02  0.51100000000E-03 0.  1.
    9900012    2    1    2    0    0  0.96688463767E+00 -0.19285269626E-01  0.67675656384E+00  0.90007645278E+02  0.89999905395E+02 0.  0.
         12    1    1    2    0    0 -0.96688463767E+00  0.19285269626E-01 -0.67675656384E+00  0.11803547225E+01  0.00000000000E+00 0. -1.
         11    1    3    3    0    0 -0.70812933686E+01  0.28725259675E+01 -0.55353053976E+01  0.94358744858E+01  0.51100000000E-03 0. -1.
        -11    1    3    3    0    0 -0.54564549856E+01  0.97862597162E+01 -0.34268913486E+02  0.36054156654E+02  0.51100000000E-03 0.  1.
         12    1    3    3    0    0  0.13504632992E+02 -0.12678070953E+02  0.40480975448E+02  0.44517614138E+02  0.00000000000E+00 0. -1.
</event>
<event>
 7    1  0.3992414E-015  0.9000772E+02  0.7816164E-02  0.1186339E+00
        -11   -1    0    0    0    0  0.00000000000E+00  0.00000000000E+00  0.45593999997E+02  0.45594000000E+02  0.51100000000E-03 0.  1.
         11   -1    0    0    0    0 -0.00000000000E+00 -0.00000000000E+00 -0.45593999997E+02  0.45594000000E+02  0.51100000000E-03 0. -1.
    9900012    2    1    2    0    0 -0.28129832984E+00 -0.58950168377E+00  0.98306364819E+00  0.90007722439E+02  0.89999983575E+02 0.  0.
         12    1    1    2    0    0  0.28129832984E+00  0.58950168377E+00 -0.98306364819E+00  0.11802775614E+01  0.00000000000E+00 0. -1.
         11    1    3    3    0    0 -0.50392519471E+01 -0.78852840585E+01  0.45334172409E+01  0.10398251632E+02  0.51100000000E-03 0. -1.
        -11    1    3    3    0    0 -0.74618814128E+01  0.98575907008E+01  0.36037580503E+02  0.38099330406E+02  0.51100000000E-03 0.  1.
         12    1    3    3    0    0  0.12219835030E+02 -0.25618083261E+01 -0.39587934096E+02  0.41510140400E+02  0.00000000000E+00 0. -1.
</event>
<event>
 7    1  0.3276565E-015  0.9000769E+02  0.7816164E-02  0.1186339E+00
        -11   -1    0    0    0    0  0.00000000000E+00  0.00000000000E+00  0.45593999997E+02  0.45594000000E+02  0.51100000000E-03 0. -1.
         11   -1    0    0    0    0 -0.00000000000E+00 -0.00000000000E+00 -0.45593999997E+02  0.45594000000E+02  0.51100000000E-03 0.  1.
    9900012    2    1    2    0    0  0.82607550887E+00 -0.67051798367E+00 -0.51101159306E+00  0.90007691582E+02  0.89999952311E+02 0.  0.
         12    1    1    2    0    0 -0.82607550887E+00  0.67051798367E+00  0.51101159306E+00  0.11803084178E+01  0.00000000000E+00 0. -1.
         11    1    3    3    0    0  0.68028429460E+01  0.28342764480E+02  0.13133259575E+01  0.29177316461E+02  0.51100000000E-03 0. -1.
        -11    1    3    3    0    0  0.20401882811E+02 -0.17816457173E+02 -0.13034288266E+02  0.30059202240E+02  0.51100000000E-03 0.  1.
         12    1    3    3    0    0 -0.26378650248E+02 -0.11196825291E+02  0.11209950715E+02  0.30771172882E+02  0.00000000000E+00 0. -1.
</event>
<event>
 7    1  0.3276565E-015  0.9000830E+02  0.7816164E-02  0.1186338E+00
        -11   -1    0    0    0    0  0.00000000000E+00  0.00000000000E+00  0.45593999997E+02  0.45594000000E+02  0.51100000000E-03 0. -1.
         11   -1    0    0    0    0 -0.00000000000E+00 -0.00000000000E+00 -0.45593999997E+02  0.45594000000E+02  0.51100000000E-03 0.  1.
    9900012    2    1    2    0    0  0.23515341905E+00  0.10881647166E+01 -0.39025621889E+00  0.90008296860E+02  0.90000565577E+02 0.  0.
         12    1    1    2    0    0 -0.23515341905E+00 -0.10881647166E+01  0.39025621889E+00  0.11797031395E+01  0.00000000000E+00 0. -1.
         11    1    3    3    0    0 -0.27424515012E+02 -0.15105873339E+02 -0.14231365266E+02  0.34392196653E+02  0.51100000000E-03 0. -1.
        -11    1    3    3    0    0 -0.78559518110E+01  0.13626209714E+02 -0.33402340558E+01  0.16079388478E+02  0.51100000000E-03 0.  1.
        -12    1    3    3    0    0  0.35515620242E+02  0.25678283423E+01  0.17181343103E+02  0.39536711730E+02  0.00000000000E+00 0.  1.
</event>
<event>
 7    1  0.3276565E-015  0.9000738E+02  0.7816164E-02  0.1186340E+00
        -11   -1    0    0    0    0  0.00000000000E+00  0.00000000000E+00  0.45593999997E+02  0.45594000000E+02  0.51100000000E-03 0.  1.
         11   -1    0    0    0    0 -0.00000000000E+00 -0.00000000000E+00 -0.45593999997E+02  0.45594000000E+02  0.51100000000E-03 0. -1.
    9900012    2    1    2    0    0 -0.53512897281E+00 -0.41970427479E+00  0.96506798295E+00  0.90007376899E+02  0.89999633473E+02 0.  0.
         12    1    1    2    0    0  0.53512897281E+00  0.41970427479E+00 -0.96506798295E+00  0.11806231014E+01  0.00000000000E+00 0. -1.
         11    1    3    3    0    0 -0.11523859333E+02  0.98464789998E+01 -0.29637591382E+01  0.15444622077E+02  0.51100000000E-03 0. -1.
        -11    1    3    3    0    0  0.34720773258E+00  0.10330038065E+02  0.34602853158E+02  0.36113538827E+02  0.51100000000E-03 0.  1.
         12    1    3    3    0    0  0.10641522627E+02 -0.20596221340E+02 -0.30674026037E+02  0.38449215995E+02  0.00000000000E+00 0. -1.
</event>
<event>
 7    1  0.3276565E-015  0.9000778E+02  0.7816164E-02  0.1186339E+00
        -11   -1    0    0    0    0  0.00000000000E+00  0.00000000000E+00  0.45593999997E+02  0.45594000000E+02  0.51100000000E-03 0.  1.
         11   -1    0    0    0    0 -0.00000000000E+00 -0.00000000000E+00 -0.45593999997E+02  0.45594000000E+02  0.51100000000E-03 0. -1.
    9900012    2    1    2    0    0 -0.20784842084E+00 -0.10675124302E+01 -0.45840969939E+00  0.90007778323E+02  0.90000040197E+02 0.  0.
         12    1    1    2    0    0  0.20784842084E+00  0.10675124302E+01  0.45840969939E+00  0.11802216772E+01  0.00000000000E+00 0. -1.
         11    1    3    3    0    0 -0.16197647222E+02  0.28786055764E+02  0.16498112076E+02  0.36921382482E+02  0.51100000000E-03 0. -1.
        -11    1    3    3    0    0 -0.32720451303E+01  0.71695825730E+01 -0.60929352860E+01  0.99615789043E+01  0.51100000000E-03 0.  1.
        -12    1    3    3    0    0  0.19261843932E+02 -0.37023150768E+02 -0.10863586490E+02  0.43124816937E+02  0.00000000000E+00 0.  1.
</event>
<event>
 7    1  0.3276565E-015  0.9000765E+02  0.7816164E-02  0.1186339E+00
        -11   -1    0    0    0    0  0.00000000000E+00  0.00000000000E+00  0.45593999997E+02  0.45594000000E+02  0.51100000000E-03 0.  1.
         11   -1    0    0    0    0 -0.00000000000E+00 -0.00000000000E+00 -0.45593999997E+02  0.45594000000E+02  0.51100000000E-03 0. -1.
    9900012    2    1    2    0    0  0.52084219899E+00 -0.90589802728E-01  0.10553423189E+01  0.90007648138E+02  0.89999908293E+02 0.  0.
         12    1    1    2    0    0 -0.52084219899E+00  0.90589802728E-01 -0.10553423189E+01  0.11803518622E+01  0.00000000000E+00 0. -1.
         11    1    3    3    0    0  0.75621862297E+01  0.44570715241E+01  0.76660055466E+01  0.11654174722E+02  0.51100000000E-03 0. -1.
        -11    1    3    3    0    0  0.29346617030E+02  0.17521529905E+02  0.42217109773E+01  0.34439088042E+02  0.51100000000E-03 0.  1.
         12    1    3    3    0    0 -0.36387961061E+02 -0.22069191232E+02 -0.10832374205E+02  0.43914385374E+02  0.00000000000E+00 0. -1.
</event>
<event>
 7    1  0.3276565E-015  0.9000767E+02  0.7816164E-02  0.1186339E+00
        -11   -1    0    0    0    0  0.00000000000E+00  0.00000000000E+00  0.45593999997E+02  0.45594000000E+02  0.51100000000E-03 0. -1.
         11   -1    0    0    0    0 -0.00000000000E+00 -0.00000000000E+00 -0.45593999997E+02  0.45594000000E+02  0.51100000000E-03 0.  1.
    9900012    2    1    2    0    0 -0.81077864913E+00  0.85647497737E+00  0.47555064046E-01  0.90007672550E+02  0.89999933028E+02 0.  0.
         12    1    1    2    0    0  0.81077864913E+00 -0.85647497737E+00 -0.47555064046E-01  0.11803274499E+01  0.00000000000E+00 0. -1.
         11    1    3    3    0    0 -0.28036074627E+01 -0.48801731875E+01 -0.12252881872E+02  0.13483672333E+02  0.51100000000E-03 0. -1.
        -11    1    3    3    0    0  0.26007617168E+02 -0.93741250780E+01 -0.19556680317E+02  0.33863462862E+02  0.51100000000E-03 0.  1.
         12    1    3    3    0    0 -0.24014788355E+02  0.15110773243E+02  0.31857117253E+02  0.42660537355E+02  0.00000000000E+00 0. -1.
</event>
<event>
 7    1  0.3276565E-015  0.9000769E+02  0.7816164E-02  0.1186339E+00
        -11   -1    0    0    0    0  0.00000000000E+00  0.00000000000E+00  0.45593999997E+02  0.45594000000E+02  0.51100000000E-03 0. -1.
         11   -1    0    0    0    0 -0.00000000000E+00 -0.00000000000E+00 -0.45593999997E+02  0.45594000000E+02  0.51100000000E-03 0.  1.
    9900012    2    1    2    0    0 -0.76771218026E+00  0.37509155860E+00 -0.81428417309E+00  0.90007688862E+02  0.89999949554E+02 0.  0.
         12    1    1    2    0    0  0.76771218026E+00 -0.37509155860E+00  0.81428417309E+00  0.11803111385E+01  0.00000000000E+00 0. -1.
         11    1    3    3    0    0  0.29904306244E+01 -0.43707932200E+01  0.41762608293E+00  0.53123366326E+01  0.51100000000E-03 0. -1.
        -11    1    3    3    0    0  0.10770788254E+02  0.37065517293E+02 -0.21183390481E+02  0.44029518330E+02  0.51100000000E-03 0.  1.
         12    1    3    3    0    0 -0.14528931059E+02 -0.32319632514E+02  0.19951480225E+02  0.40665833899E+02  0.00000000000E+00 0. -1.
</event>
<event>
 7    1  0.3276565E-015  0.9000775E+02  0.7816164E-02  0.1186339E+00
        -11   -1    0    0    0    0  0.00000000000E+00  0.00000000000E+00  0.45593999997E+02  0.45594000000E+02  0.51100000000E-03 0. -1.
         11   -1    0    0    0    0 -0.00000000000E+00 -0.00000000000E+00 -0.45593999997E+02  0.45594000000E+02  0.51100000000E-03 0.  1.
    9900012    2    1    2    0    0 -0.10576589524E+01 -0.13538306843E-01 -0.52361148612E+00  0.90007748021E+02  0.90000009495E+02 0.  0.
         12    1    1    2    0    0  0.10576589524E+01  0.13538306843E-01  0.52361148612E+00  0.11802519789E+01  0.00000000000E+00 0. -1.
         11    1    3    3    0    0 -0.24322049783E+01  0.74984692431E+01 -0.31898758502E+01  0.85039973099E+01  0.51100000000E-03 0. -1.
        -11    1    3    3    0    0 -0.20177291163E+02 -0.11317648137E+02 -0.32614410397E+02  0.39986397735E+02  0.51100000000E-03 0.  1.
         12    1    3    3    0    0  0.21551837189E+02  0.38056405873E+01  0.35280674762E+02  0.41517352976E+02  0.00000000000E+00 0. -1.
</event>
<event>
 7    1  0.3794785E-015  0.9000836E+02  0.7816164E-02  0.1186338E+00
        -11   -1    0    0    0    0  0.00000000000E+00  0.00000000000E+00  0.45593999997E+02  0.45594000000E+02  0.51100000000E-03 0.  1.
         11   -1    0    0    0    0 -0.00000000000E+00 -0.00000000000E+00 -0.45593999997E+02  0.45594000000E+02  0.51100000000E-03 0. -1.
    9900012    2    1    2    0    0 -0.51865127034E+00 -0.96955667407E+00  0.42721249964E+00  0.90008360307E+02  0.90000629861E+02 0.  0.
         12    1    1    2    0    0  0.51865127034E+00  0.96955667407E+00 -0.42721249964E+00  0.11796396926E+01  0.00000000000E+00 0. -1.
         11    1    3    3    0    0 -0.28061923539E+01 -0.20716022990E+01  0.87675117226E+01  0.94358631656E+01  0.51100000000E-03 0. -1.
        -11    1    3    3    0    0  0.14391981895E+02  0.26712604764E+02  0.23187437388E+02  0.38188344413E+02  0.51100000000E-03 0.  1.
         12    1    3    3    0    0 -0.12104440812E+02 -0.25610559139E+02 -0.31527736611E+02  0.42384152729E+02  0.00000000000E+00 0. -1.
</event>
<event>
 7    1  0.3276565E-015  0.9000773E+02  0.7816164E-02  0.1186339E+00
        -11   -1    0    0    0    0  0.00000000000E+00  0.00000000000E+00  0.45593999997E+02  0.45594000000E+02  0.51100000000E-03 0.  1.
         11   -1    0    0    0    0 -0.00000000000E+00 -0.00000000000E+00 -0.45593999997E+02  0.45594000000E+02  0.51100000000E-03 0. -1.
    9900012    2    1    2    0    0  0.69609685181E-01  0.11462601995E+01  0.27255970192E+00  0.90007725988E+02  0.89999987171E+02 0.  0.
         12    1    1    2    0    0 -0.69609685181E-01 -0.11462601995E+01 -0.27255970192E+00  0.11802740124E+01  0.00000000000E+00 0. -1.
         11    1    3    3    0    0  0.99192835789E+01 -0.30123008227E+01 -0.10725392397E+01  0.10421923222E+02  0.51100000000E-03 0. -1.
        -11    1    3    3    0    0  0.18541762786E+02 -0.21020876901E+02  0.22675504268E+02  0.36053470388E+02  0.51100000000E-03 0.  1.
         12    1    3    3    0    0 -0.28391436680E+02  0.25179437923E+02 -0.21330405327E+02  0.43532332378E+02  0.00000000000E+00 0. -1.
</event>
<event>
 7    1  0.3276565E-015  0.9000768E+02  0.7816164E-02  0.1186339E+00
        -11   -1    0    0    0    0  0.00000000000E+00  0.00000000000E+00  0.45593999997E+02  0.45594000000E+02  0.51100000000E-03 0.  1.
         11   -1    0    0    0    0 -0.00000000000E+00 -0.00000000000E+00 -0.45593999997E+02  0.45594000000E+02  0.51100000000E-03 0. -1.
    9900012    2    1    2    0    0 -0.67650715770E-01 -0.48164524938E+00  0.10754526692E+01  0.90007679192E+02  0.89999939758E+02 0.  0.
         12    1    1    2    0    0  0.67650715770E-01  0.48164524938E+00 -0.10754526692E+01  0.11803208078E+01  0.00000000000E+00 0. -1.
         11    1    3    3    0    0  0.33894956846E+01  0.11233671010E+02 -0.37742907000E+02  0.39524815931E+02  0.51100000000E-03 0. -1.
        -11    1    3    3    0    0  0.10188086615E+02  0.18792629947E+01  0.48624465848E+01  0.11444305367E+02  0.51100000000E-03 0.  1.
        -12    1    3    3    0    0 -0.13645233015E+02 -0.13594579254E+02  0.33955913084E+02  0.39038557895E+02  0.00000000000E+00 0.  1.
</event>
<event>
 7    1  0.4605571E-015  0.9000779E+02  0.7816164E-02  0.1186339E+00
        -11   -1    0    0    0    0  0.00000000000E+00  0.00000000000E+00  0.45593999997E+02  0.45594000000E+02  0.51100000000E-03 0. -1.
         11   -1    0    0    0    0 -0.00000000000E+00 -0.00000000000E+00 -0.45593999997E+02  0.45594000000E+02  0.51100000000E-03 0.  1.
    9900012    2    1    2    0    0 -0.84582229296E+00 -0.30379233393E+00 -0.76497721675E+00  0.90007790156E+02  0.90000052186E+02 0.  0.
         12    1    1    2    0    0  0.84582229296E+00  0.30379233393E+00  0.76497721675E+00  0.11802098439E+01  0.00000000000E+00 0. -1.
         11    1    3    3    0    0 -0.85716845087E+01  0.24135015818E+01 -0.16117748732E+01  0.90496731270E+01  0.51100000000E-03 0. -1.
        -11    1    3    3    0    0 -0.11010168856E+02 -0.36516864785E+02 -0.12399892844E+02  0.40105642680E+02  0.51100000000E-03 0.  1.
         12    1    3    3    0    0  0.18736031072E+02  0.33799570869E+02  0.13246690501E+02  0.40852474349E+02  0.00000000000E+00 0. -1.
</event>
<event>
 7    1  0.3276565E-015  0.9000774E+02  0.7816164E-02  0.1186339E+00
        -11   -1    0    0    0    0  0.00000000000E+00  0.00000000000E+00  0.45593999997E+02  0.45594000000E+02  0.51100000000E-03 0.  1.
         11   -1    0    0    0    0 -0.00000000000E+00 -0.00000000000E+00 -0.45593999997E+02  0.45594000000E+02  0.51100000000E-03 0. -1.
    9900012    2    1    2    0    0  0.40941092819E+00  0.79240064317E+00  0.77298591868E+00  0.90007735912E+02  0.89999997226E+02 0.  0.
         12    1    1    2    0    0 -0.40941092819E+00 -0.79240064317E+00 -0.77298591868E+00  0.11802640882E+01  0.00000000000E+00 0. -1.
         11    1    3    3    0    0  0.22273353261E+02  0.28787707261E+02 -0.19580017317E+02  0.41330514554E+02  0.51100000000E-03 0. -1.
        -11    1    3    3    0    0  0.76348364956E+00 -0.82435206386E+01 -0.47394636934E+01  0.95394473720E+01  0.51100000000E-03 0.  1.
        -12    1    3    3    0    0 -0.22627425983E+02 -0.19751785980E+02  0.25092466929E+02  0.39137773986E+02  0.00000000000E+00 0.  1.
</event>
<event>
 7    1  0.3276565E-015  0.9000769E+02  0.7816164E-02  0.1186339E+00
        -11   -1    0    0    0    0  0.00000000000E+00  0.00000000000E+00  0.45593999997E+02  0.45594000000E+02  0.51100000000E-03 0.  1.
         11   -1    0    0    0    0 -0.00000000000E+00 -0.00000000000E+00 -0.45593999997E+02  0.45594000000E+02  0.51100000000E-03 0. -1.
    9900012    2    1    2    0    0  0.74952285917E-01 -0.89566097622E-01  0.11745126636E+01  0.90007694985E+02  0.89999955759E+02 0.  0.
         12    1    1    2    0    0 -0.74952285917E-01  0.89566097622E-01 -0.11745126636E+01  0.11803050148E+01  0.00000000000E+00 0. -1.
         11    1    3    3    0    0 -0.31260833169E+02 -0.22404636076E+02  0.51782517030E+01  0.38807495399E+02  0.51100000000E-03 0. -1.
        -11    1    3    3    0    0 -0.53299447325E+01 -0.73665782610E+00  0.45583982359E+01  0.70519479821E+01  0.51100000000E-03 0.  1.
        -12    1    3    3    0    0  0.36665730188E+02  0.23051727805E+02 -0.85621372753E+01  0.44148251604E+02  0.00000000000E+00 0.  1.
</event>
<event>
 7    1  0.3276565E-015  0.9000779E+02  0.7816164E-02  0.1186339E+00
        -11   -1    0    0    0    0  0.00000000000E+00  0.00000000000E+00  0.45593999997E+02  0.45594000000E+02  0.51100000000E-03 0.  1.
         11   -1    0    0    0    0 -0.00000000000E+00 -0.00000000000E+00 -0.45593999997E+02  0.45594000000E+02  0.51100000000E-03 0. -1.
    9900012    2    1    2    0    0 -0.87685205841E+00  0.74444211155E+00  0.26425124017E+00  0.90007791413E+02  0.90000053460E+02 0.  0.
         12    1    1    2    0    0  0.87685205841E+00 -0.74444211155E+00 -0.26425124017E+00  0.11802085865E+01  0.00000000000E+00 0. -1.
         11    1    3    3    0    0  0.69744784181E+01 -0.61407855227E+01  0.10511695666E+02  0.14030265218E+02  0.51100000000E-03 0. -1.
        -11    1    3    3    0    0 -0.26941463874E+02  0.24017801313E+01  0.24229750257E+02  0.36313796569E+02  0.51100000000E-03 0.  1.
         12    1    3    3    0    0  0.19090133398E+02  0.44834475030E+01 -0.34477194683E+02  0.39663729626E+02  0.00000000000E+00 0. -1.
</event>
<event>
 7    1  0.3276565E-015  0.9000782E+02  0.7816164E-02  0.1186339E+00
        -11   -1    0    0    0    0  0.00000000000E+00  0.00000000000E+00  0.45593999997E+02  0.45594000000E+02  0.51100000000E-03 0.  1.
         11   -1    0    0    0    0 -0.00000000000E+00 -0.00000000000E+00 -0.45593999997E+02  0.45594000000E+02  0.51100000000E-03 0. -1.
    9900012    2    1    2    0    0 -0.63962963539E+00  0.99045758067E+00 -0.51990853829E-01  0.90007815549E+02  0.90000077914E+02 0.  0.
         12    1    1    2    0    0  0.63962963539E+00 -0.99045758067E+00  0.51990853829E-01  0.11801844510E+01  0.00000000000E+00 0. -1.
         11    1    3    3    0    0  0.74576303705E+01 -0.42949474084E+01  0.72742947590E+01  0.11268459899E+02  0.51100000000E-03 0. -1.
        -11    1    3    3    0    0 -0.35314492481E+02 -0.15263630618E+02  0.11013581371E+02  0.40017380895E+02  0.51100000000E-03 0.  1.
         12    1    3    3    0    0  0.27217232475E+02  0.20549035607E+02 -0.18339866984E+02  0.38721974755E+02  0.00000000000E+00 0. -1.
</event>
<event>
 7    1  0.3276565E-015  0.9000773E+02  0.7816164E-02  0.1186339E+00
        -11   -1    0    0    0    0  0.00000000000E+00  0.00000000000E+00  0.45593999997E+02  0.45594000000E+02  0.51100000000E-03 0.  1.
         11   -1    0    0    0    0 -0.00000000000E+00 -0.00000000000E+00 -0.45593999997E+02  0.45594000000E+02  0.51100000000E-03 0. -1.
    9900012    2    1    2    0    0 -0.13428951117E+00 -0.90155649792E+00  0.74979657309E+00  0.90007731940E+02  0.89999993202E+02 0.  0.
         12    1    1    2    0    0  0.13428951117E+00  0.90155649792E+00 -0.74979657309E+00  0.11802680597E+01  0.00000000000E+00 0. -1.
         11    1    3    3    0    0 -0.81146688700E+01 -0.40907166843E+01  0.31505978399E+01  0.96181121261E+01  0.51100000000E-03 0. -1.
        -11    1    3    3    0    0 -0.24131152925E+02  0.12869834100E+02  0.25020907673E+02  0.37067384481E+02  0.51100000000E-03 0.  1.
         12    1    3    3    0    0  0.32111532284E+02 -0.96806739133E+01 -0.27421708940E+02  0.43322235333E+02  0.00000000000E+00 0. -1.
</event>
<event>
 7    1  0.3276565E-015  0.9000766E+02  0.7816164E-02  0.1186339E+00
        -11   -1    0    0    0    0  0.00000000000E+00  0.00000000000E+00  0.45593999997E+02  0.45594000000E+02  0.51100000000E-03 0.  1.
         11   -1    0    0    0    0 -0.00000000000E+00 -0.00000000000E+00 -0.45593999997E+02  0.45594000000E+02  0.51100000000E-03 0. -1.
    9900012    2    1    2    0    0  0.31196562662E+00 -0.98185576292E+00 -0.57605990212E+00  0.90007657549E+02  0.89999917828E+02 0.  0.
         12    1    1    2    0    0 -0.31196562662E+00  0.98185576292E+00  0.57605990212E+00  0.11803424512E+01  0.00000000000E+00 0. -1.
         11    1    3    3    0    0 -0.41414907382E+01  0.15125879377E+01  0.10006828501E+02  0.10935103324E+02  0.51100000000E-03 0. -1.
        -11    1    3    3    0    0  0.36448826359E+01 -0.98653703247E+01  0.33117581054E+02  0.34747444168E+02  0.51100000000E-03 0.  1.
         12    1    3    3    0    0  0.80857372898E+00  0.73709266241E+01 -0.43700469457E+02  0.44325110057E+02  0.00000000000E+00 0. -1.
</event>
<event>
 7    1  0.4269210E-015  0.9000785E+02  0.7816164E-02  0.1186339E+00
        -11   -1    0    0    0    0  0.00000000000E+00  0.00000000000E+00  0.45593999997E+02  0.45594000000E+02  0.51100000000E-03 0.  1.
         11   -1    0    0    0    0 -0.00000000000E+00 -0.00000000000E+00 -0.45593999997E+02  0.45594000000E+02  0.51100000000E-03 0. -1.
    9900012    2    1    2    0    0 -0.11335866153E+01 -0.23144930234E+00  0.23273252096E+00  0.90007850933E+02  0.90000113765E+02 0.  0.
         12    1    1    2    0    0  0.11335866153E+01  0.23144930234E+00 -0.23273252096E+00  0.11801490670E+01  0.00000000000E+00 0. -1.
         11    1    3    3    0    0  0.96624398807E+01 -0.49993388074E+00  0.60524464110E+00  0.96942766451E+01  0.51100000000E-03 0. -1.
        -11    1    3    3    0    0  0.14643764140E+02 -0.33455580935E+02  0.76564767125E+01  0.37314037034E+02  0.51100000000E-03 0.  1.
         12    1    3    3    0    0 -0.25439790636E+02  0.33724065513E+02 -0.80289888327E+01  0.42999537254E+02  0.00000000000E+00 0. -1.
</event>
<event>
 7    1  0.3276565E-015  0.9000769E+02  0.7816164E-02  0.1186339E+00
        -11   -1    0    0    0    0  0.00000000000E+00  0.00000000000E+00  0.45593999997E+02  0.45594000000E+02  0.51100000000E-03 0.  1.
         11   -1    0    0    0    0 -0.00000000000E+00 -0.00000000000E+00 -0.45593999997E+02  0.45594000000E+02  0.51100000000E-03 0. -1.
    9900012    2    1    2    0    0  0.94284695492E+00 -0.58261524721E+00  0.40586911374E+00  0.90007690446E+02  0.89999951159E+02 0.  0.
         12    1    1    2    0    0 -0.94284695492E+00  0.58261524721E+00 -0.40586911374E+00  0.11803095544E+01  0.00000000000E+00 0. -1.
         11    1    3    3    0    0 -0.86494581297E+01  0.10888009664E+00  0.66337536588E+01  0.10900993931E+02  0.51100000000E-03 0. -1.
        -11    1    3    3    0    0 -0.64970919184E+01 -0.34518208359E+02 -0.18488374955E+02  0.39693058844E+02  0.51100000000E-03 0.  1.
         12    1    3    3    0    0  0.16089397003E+02  0.33826713015E+02  0.12260490410E+02  0.39413637670E+02  0.00000000000E+00 0. -1.
</event>
<event>
 7    1  0.3276565E-015  0.9000773E+02  0.7816164E-02  0.1186339E+00
        -11   -1    0    0    0    0  0.00000000000E+00  0.00000000000E+00  0.45593999997E+02  0.45594000000E+02  0.51100000000E-03 0. -1.
         11   -1    0    0    0    0 -0.00000000000E+00 -0.00000000000E+00 -0.45593999997E+02  0.45594000000E+02  0.51100000000E-03 0.  1.
    9900012    2    1    2    0    0 -0.95889562096E+00 -0.68502776492E+00  0.65588952157E-01  0.90007726404E+02  0.89999987593E+02 0.  0.
         12    1    1    2    0    0  0.95889562096E+00  0.68502776492E+00 -0.65588952157E-01  0.11802735959E+01  0.00000000000E+00 0. -1.
         11    1    3    3    0    0  0.22265643187E+02 -0.15414469803E+02 -0.29024359634E+02  0.39696072832E+02  0.51100000000E-03 0. -1.
        -11    1    3    3    0    0  0.73582689271E+01  0.66934921203E+00  0.51340347957E+01  0.89972475522E+01  0.51100000000E-03 0.  1.
        -12    1    3    3    0    0 -0.30582807735E+02  0.14060092826E+02  0.23955913790E+02  0.41314406020E+02  0.00000000000E+00 0.  1.
</event>
<event>
 7    1  0.3276565E-015  0.9000832E+02  0.7816164E-02  0.1186338E+00
        -11   -1    0    0    0    0  0.00000000000E+00  0.00000000000E+00  0.45593999997E+02  0.45594000000E+02  0.51100000000E-03 0.  1.
         11   -1    0    0    0    0 -0.00000000000E+00 -0.00000000000E+00 -0.45593999997E+02  0.45594000000E+02  0.51100000000E-03 0. -1.
    9900012    2    1    2    0    0  0.67387634961E+00 -0.95998276911E+00  0.12637139373E+00  0.90008319543E+02  0.90000588559E+02 0.  0.
         12    1    1    2    0    0 -0.67387634961E+00  0.95998276911E+00 -0.12637139373E+00  0.11796804570E+01  0.00000000000E+00 0. -1.
         11    1    3    3    0    0  0.16058389613E+01  0.93878284875E+01 -0.18888409885E+01  0.97096736825E+01  0.51100000000E-03 0. -1.
        -11    1    3    3    0    0 -0.39841391970E+02 -0.90129200911E+01 -0.34096864317E+01  0.40990184246E+02  0.51100000000E-03 0.  1.
         12    1    3    3    0    0  0.38909429358E+02 -0.13348911655E+01  0.54248988139E+01  0.39308461615E+02  0.00000000000E+00 0. -1.
</event>
<event>
 7    1  0.3276565E-015  0.9000773E+02  0.7816164E-02  0.1186339E+00
        -11   -1    0    0    0    0  0.00000000000E+00  0.00000000000E+00  0.45593999997E+02  0.45594000000E+02  0.51100000000E-03 0.  1.
         11   -1    0    0    0    0 -0.00000000000E+00 -0.00000000000E+00 -0.45593999997E+02  0.45594000000E+02  0.51100000000E-03 0. -1.
    9900012    2    1    2    0    0  0.97692773827E-01 -0.10431687093E+01  0.54340310544E+00  0.90007732332E+02  0.89999993598E+02 0.  0.
         12    1    1    2    0    0 -0.97692773827E-01  0.10431687093E+01 -0.54340310544E+00  0.11802676684E+01  0.00000000000E+00 0. -1.
         11    1    3    3    0    0 -0.68338338527E+00 -0.65029724739E+01  0.75550585365E+01  0.99917252564E+01  0.51100000000E-03 0. -1.
        -11    1    3    3    0    0 -0.12761466292E+02 -0.16238950536E+01  0.33944902418E+02  0.36300805191E+02  0.51100000000E-03 0.  1.
         12    1    3    3    0    0  0.13542542451E+02  0.70836988182E+01 -0.40956557849E+02  0.43715201885E+02  0.00000000000E+00 0. -1.
</event>
<event>
 7    1  0.3286794E-015  0.9000765E+02  0.7816164E-02  0.1186339E+00
        -11   -1    0    0    0    0  0.00000000000E+00  0.00000000000E+00  0.45593999997E+02  0.45594000000E+02  0.51100000000E-03 0. -1.
         11   -1    0    0    0    0 -0.00000000000E+00 -0.00000000000E+00 -0.45593999997E+02  0.45594000000E+02  0.51100000000E-03 0.  1.
    9900012    2    1    2    0    0 -0.81137525511E+00  0.74552791749E+00 -0.42319489118E+00  0.90007645987E+02  0.89999906114E+02 0.  0.
         12    1    1    2    0    0  0.81137525511E+00 -0.74552791749E+00  0.42319489118E+00  0.11803540131E+01  0.00000000000E+00 0. -1.
         11    1    3    3    0    0  0.33435689333E+01  0.12203268365E+01  0.93072888880E+01  0.99646513991E+01  0.51100000000E-03 0. -1.
        -11    1    3    3    0    0 -0.38432743091E+02 -0.14562752979E+02 -0.12282434108E+02  0.42895310976E+02  0.51100000000E-03 0.  1.
         12    1    3    3    0    0  0.34277798903E+02  0.14087954060E+02  0.25519503284E+01  0.37147683612E+02  0.00000000000E+00 0. -1.
</event>
<event>
 7    1  0.3276565E-015  0.9000762E+02  0.7816164E-02  0.1186339E+00
        -11   -1    0    0    0    0  0.00000000000E+00  0.00000000000E+00  0.45593999997E+02  0.45594000000E+02  0.51100000000E-03 0. -1.
         11   -1    0    0    0    0 -0.00000000000E+00 -0.00000000000E+00 -0.45593999997E+02  0.45594000000E+02  0.51100000000E-03 0.  1.
    9900012    2    1    2    0    0 -0.65789865647E+00  0.88912143842E-01 -0.97599043625E+00  0.90007621525E+02  0.89999881330E+02 0.  0.
         12    1    1    2    0    0  0.65789865647E+00 -0.88912143842E-01  0.97599043625E+00  0.11803784745E+01  0.00000000000E+00 0. -1.
         11    1    3    3    0    0  0.76362488249E+01 -0.38904269506E+02 -0.60076202055E+01  0.40099201771E+02  0.51100000000E-03 0. -1.
        -11    1    3    3    0    0 -0.71655528634E+01 -0.27371281644E+01 -0.97753526909E+00  0.77325670957E+01  0.51100000000E-03 0.  1.
        -12    1    3    3    0    0 -0.11285946180E+01  0.41730309814E+02  0.60091650383E+01  0.42175852658E+02  0.00000000000E+00 0.  1.
</event>
<event>
 7    1  0.3276565E-015  0.9000777E+02  0.7816164E-02  0.1186339E+00
        -11   -1    0    0    0    0  0.00000000000E+00  0.00000000000E+00  0.45593999997E+02  0.45594000000E+02  0.51100000000E-03 0.  1.
         11   -1    0    0    0    0 -0.00000000000E+00 -0.00000000000E+00 -0.45593999997E+02  0.45594000000E+02  0.51100000000E-03 0. -1.
    9900012    2    1    2    0    0 -0.86432124416E+00 -0.80184104174E+00  0.54351599814E-01  0.90007765123E+02  0.90000026822E+02 0.  0.
         12    1    1    2    0    0  0.86432124416E+00  0.80184104174E+00 -0.54351599814E-01  0.11802348774E+01  0.00000000000E+00 0. -1.
         11    1    3    3    0    0  0.20934186325E+00 -0.37182966334E-01 -0.99392219577E+01  0.99414958620E+01  0.51100000000E-03 0. -1.
        -11    1    3    3    0    0 -0.37221900840E+02 -0.73353697989E+01 -0.85826979689E+01  0.38896532711E+02  0.51100000000E-03 0.  1.
         12    1    3    3    0    0  0.36148237733E+02  0.65707117235E+01  0.18576271526E+02  0.41169736550E+02  0.00000000000E+00 0. -1.
</event>
<event>
 7    1  0.3276565E-015  0.9000727E+02  0.7816164E-02  0.1186340E+00
        -11   -1    0    0    0    0  0.00000000000E+00  0.00000000000E+00  0.45593999997E+02  0.45594000000E+02  0.51100000000E-03 0. -1.
         11   -1    0    0    0    0 -0.00000000000E+00 -0.00000000000E+00 -0.45593999997E+02  0.45594000000E+02  0.51100000000E-03 0.  1.
    9900012    2    1    2    0    0  0.84431275263E-01  0.86574290984E+00 -0.79842549098E+00  0.90007270272E+02  0.89999525438E+02 0.  0.
         12    1    1    2    0    0 -0.84431275263E-01 -0.86574290984E+00  0.79842549098E+00  0.11807297281E+01  0.00000000000E+00 0. -1.
         11    1    3    3    0    0 -0.48025895386E+00 -0.33211630178E+01 -0.69410029414E+01  0.77096235024E+01  0.51100000000E-03 0. -1.
        -11    1    3    3    0    0 -0.22765793505E+01  0.12734098328E+02 -0.36494617412E+02  0.38719467637E+02  0.51100000000E-03 0.  1.
         12    1    3    3    0    0  0.28412695796E+01 -0.85471924003E+01  0.42637194863E+02  0.43578179133E+02  0.00000000000E+00 0. -1.
</event>
<event>
 7    1  0.3276565E-015  0.9000771E+02  0.7816164E-02  0.1186339E+00
        -11   -1    0    0    0    0  0.00000000000E+00  0.00000000000E+00  0.45593999997E+02  0.45594000000E+02  0.51100000000E-03 0.  1.
         11   -1    0    0    0    0 -0.00000000000E+00 -0.00000000000E+00 -0.45593999997E+02  0.45594000000E+02  0.51100000000E-03 0. -1.
    9900012    2    1    2    0    0  0.34618472165E+00 -0.83011876063E+00  0.76428575696E+00  0.90007714553E+02  0.89999975585E+02 0.  0.
         12    1    1    2    0    0 -0.34618472165E+00  0.83011876063E+00 -0.76428575696E+00  0.11802854471E+01  0.00000000000E+00 0. -1.
         11    1    3    3    0    0 -0.19953132800E+02  0.85186458780E+00 -0.11298860866E+02  0.22945967815E+02  0.51100000000E-03 0. -1.
        -11    1    3    3    0    0 -0.21142060047E+02  0.78640178763E+01  0.94443801798E+01  0.24454565983E+02  0.51100000000E-03 0.  1.
         12    1    3    3    0    0  0.41441377569E+02 -0.95460012248E+01  0.26187664435E+01  0.42607180755E+02  0.00000000000E+00 0. -1.
</event>
<event>
 7    1  0.3276565E-015  0.9000791E+02  0.7816164E-02  0.1186339E+00
        -11   -1    0    0    0    0  0.00000000000E+00  0.00000000000E+00  0.45593999997E+02  0.45594000000E+02  0.51100000000E-03 0.  1.
         11   -1    0    0    0    0 -0.00000000000E+00 -0.00000000000E+00 -0.45593999997E+02  0.45594000000E+02  0.51100000000E-03 0. -1.
    9900012    2    1    2    0    0 -0.43782756447E-01 -0.11144090333E+01  0.38572758415E+00  0.90007910939E+02  0.90000174563E+02 0.  0.
         12    1    1    2    0    0  0.43782756447E-01  0.11144090333E+01 -0.38572758415E+00  0.11800890612E+01  0.00000000000E+00 0. -1.
         11    1    3    3    0    0  0.40208708340E+01  0.10734504900E+02 -0.16648958396E+02  0.20213480988E+02  0.51100000000E-03 0. -1.
        -11    1    3    3    0    0  0.26416850282E+02  0.11963712892E+02  0.69352315277E+01  0.29817408365E+02  0.51100000000E-03 0.  1.
         12    1    3    3    0    0 -0.30481503873E+02 -0.23812626825E+02  0.10099454453E+02  0.39977021586E+02  0.00000000000E+00 0. -1.
</event>
<event>
 7    1  0.3276565E-015  0.9000790E+02  0.7816164E-02  0.1186339E+00
        -11   -1    0    0    0    0  0.00000000000E+00  0.00000000000E+00  0.45593999997E+02  0.45594000000E+02  0.51100000000E-03 0. -1.
         11   -1    0    0    0    0 -0.00000000000E+00 -0.00000000000E+00 -0.45593999997E+02  0.45594000000E+02  0.51100000000E-03 0.  1.
    9900012    2    1    2    0    0 -0.69690074963E+00  0.41398814989E+00 -0.85765364301E+00  0.90007903981E+02  0.90000167513E+02 0.  0.
         12    1    1    2    0    0  0.69690074963E+00 -0.41398814989E+00  0.85765364301E+00  0.11800960192E+01  0.00000000000E+00 0. -1.
         11    1    3    3    0    0  0.17899659608E+02 -0.37713779920E+02 -0.38469239084E+01  0.41922855745E+02  0.51100000000E-03 0. -1.
        -11    1    3    3    0    0 -0.27943141517E+01  0.43597785501E+01 -0.77190604614E+01  0.92951468656E+01  0.51100000000E-03 0.  1.
        -12    1    3    3    0    0 -0.15802246206E+02  0.33767989520E+02  0.10708330727E+02  0.38789901371E+02  0.00000000000E+00 0.  1.
</event>
<event>
 7    1  0.3276565E-015  0.9000752E+02  0.7816164E-02  0.1186339E+00
        -11   -1    0    0    0    0  0.00000000000E+00  0.00000000000E+00  0.45593999997E+02  0.45594000000E+02  0.51100000000E-03 0.  1.
         11   -1    0    0    0    0 -0.00000000000E+00 -0.00000000000E+00 -0.45593999997E+02  0.45594000000E+02  0.51100000000E-03 0. -1.
    9900012    2    1    2    0    0  0.36996233042E+00 -0.52370424817E-01  0.11197850234E+01  0.90007519892E+02  0.89999778354E+02 0.  0.
         12    1    1    2    0    0 -0.36996233042E+00  0.52370424817E-01 -0.11197850234E+01  0.11804801082E+01  0.00000000000E+00 0. -1.
         11    1    3    3    0    0 -0.29613212462E+02  0.48668613806E+01 -0.23985968793E+02  0.38418164861E+02  0.51100000000E-03 0. -1.
        -11    1    3    3    0    0  0.18435059310E+01 -0.12625964139E+01 -0.78142504645E+01  0.81274334452E+01  0.51100000000E-03 0.  1.
        -12    1    3    3    0    0  0.28139668862E+02 -0.36566353914E+01  0.32920004281E+02  0.43461921586E+02  0.00000000000E+00 0.  1.
</event>
<event>
 7    1  0.3276565E-015  0.9000772E+02  0.7816164E-02  0.1186339E+00
        -11   -1    0    0    0    0  0.00000000000E+00  0.00000000000E+00  0.45593999997E+02  0.45594000000E+02  0.51100000000E-03 0. -1.
         11   -1    0    0    0    0 -0.00000000000E+00 -0.00000000000E+00 -0.45593999997E+02  0.45594000000E+02  0.51100000000E-03 0.  1.
    9900012    2    1    2    0    0  0.43939118182E+00 -0.71609978645E+00 -0.82897299691E+00  0.90007720480E+02  0.89999981591E+02 0.  0.
         12    1    1    2    0    0 -0.43939118182E+00  0.71609978645E+00  0.82897299691E+00  0.11802795196E+01  0.00000000000E+00 0. -1.
         11    1    3    3    0    0  0.13744248518E+01 -0.45238862120E+01  0.76610667598E+01  0.90025848672E+01  0.51100000000E-03 0. -1.
        -11    1    3    3    0    0  0.84219682232E+01 -0.36795208007E+02  0.27551389665E+01  0.37847162007E+02  0.51100000000E-03 0.  1.
         12    1    3    3    0    0 -0.93570018932E+01  0.40602994432E+02 -0.11245178723E+02  0.43157973606E+02  0.00000000000E+00 0. -1.
</event>
<event>
 7    1  0.3276565E-015  0.9000778E+02  0.7816164E-02  0.1186339E+00
        -11   -1    0    0    0    0  0.00000000000E+00  0.00000000000E+00  0.45593999997E+02  0.45594000000E+02  0.51100000000E-03 0.  1.
         11   -1    0    0    0    0 -0.00000000000E+00 -0.00000000000E+00 -0.45593999997E+02  0.45594000000E+02  0.51100000000E-03 0. -1.
    9900012    2    1    2    0    0  0.91530819228E+00 -0.40226225856E-01  0.74397698825E+00  0.90007784344E+02  0.90000046297E+02 0.  0.
         12    1    1    2    0    0 -0.91530819228E+00  0.40226225856E-01 -0.74397698825E+00  0.11802156562E+01  0.00000000000E+00 0. -1.
         11    1    3    3    0    0 -0.35783212232E+02  0.10142620303E+02 -0.18401060605E+02  0.41495904086E+02  0.51100000000E-03 0. -1.
        -11    1    3    3    0    0  0.44711395951E+01  0.67421823604E+01  0.46461942674E+01  0.93292675860E+01  0.51100000000E-03 0.  1.
        -12    1    3    3    0    0  0.32227380829E+02 -0.16925028890E+02  0.14498843326E+02  0.39182612672E+02  0.00000000000E+00 0.  1.
</event>
<event>
 7    1  0.3276565E-015  0.9000809E+02  0.7816164E-02  0.1186338E+00
        -11   -1    0    0    0    0  0.00000000000E+00  0.00000000000E+00  0.45593999997E+02  0.45594000000E+02  0.51100000000E-03 0.  1.
         11   -1    0    0    0    0 -0.00000000000E+00 -0.00000000000E+00 -0.45593999997E+02  0.45594000000E+02  0.51100000000E-03 0. -1.
    9900012    2    1    2    0    0  0.75700128003E+00  0.17815073954E+00  0.88735223015E+00  0.90008092120E+02  0.90000358136E+02 0.  0.
         12    1    1    2    0    0 -0.75700128003E+00 -0.17815073954E+00 -0.88735223015E+00  0.11799078796E+01  0.00000000000E+00 0. -1.
         11    1    3    3    0    0  0.53014564249E+01  0.77903791743E+01 -0.19070099505E+01  0.96141632562E+01  0.51100000000E-03 0. -1.
        -11    1    3    3    0    0  0.35635022722E+02  0.38435043335E+01 -0.90504294539E+01  0.36966709937E+02  0.51100000000E-03 0.  1.
         12    1    3    3    0    0 -0.40179477867E+02 -0.11455732768E+02  0.11844791635E+02  0.43427218928E+02  0.00000000000E+00 0. -1.
</event>
<event>
 7    1  0.3276565E-015  0.9000809E+02  0.7816164E-02  0.1186338E+00
        -11   -1    0    0    0    0  0.00000000000E+00  0.00000000000E+00  0.45593999997E+02  0.45594000000E+02  0.51100000000E-03 0. -1.
         11   -1    0    0    0    0 -0.00000000000E+00 -0.00000000000E+00 -0.45593999997E+02  0.45594000000E+02  0.51100000000E-03 0.  1.
    9900012    2    1    2    0    0 -0.72774393878E+00 -0.88874179459E+00  0.26965566928E+00  0.90008090089E+02  0.90000356078E+02 0.  0.
         12    1    1    2    0    0  0.72774393878E+00  0.88874179459E+00 -0.26965566928E+00  0.11799099109E+01  0.00000000000E+00 0. -1.
         11    1    3    3    0    0  0.14081012695E+02  0.16394198363E+02 -0.11821523375E+02  0.24633170191E+02  0.51100000000E-03 0. -1.
        -11    1    3    3    0    0  0.15269589668E+02  0.13714029321E+02  0.46130684820E-02  0.20524010095E+02  0.51100000000E-03 0.  1.
         12    1    3    3    0    0 -0.30078346302E+02 -0.30996969478E+02  0.12086565976E+02  0.44850909803E+02  0.00000000000E+00 0. -1.
</event>
<event>
 7    1  0.3276565E-015  0.9000777E+02  0.7816164E-02  0.1186339E+00
        -11   -1    0    0    0    0  0.00000000000E+00  0.00000000000E+00  0.45593999997E+02  0.45594000000E+02  0.51100000000E-03 0.  1.
         11   -1    0    0    0    0 -0.00000000000E+00 -0.00000000000E+00 -0.45593999997E+02  0.45594000000E+02  0.51100000000E-03 0. -1.
    9900012    2    1    2    0    0 -0.49482750710E+00  0.10713979261E+01 -0.13770826823E-01  0.90007772304E+02  0.90000034099E+02 0.  0.
         12    1    1    2    0    0  0.49482750710E+00 -0.10713979261E+01  0.13770826823E-01  0.11802276956E+01  0.00000000000E+00 0. -1.
         11    1    3    3    0    0 -0.76724895310E+01  0.88008561392E+01 -0.63248240258E+01  0.13278763632E+02  0.51100000000E-03 0. -1.
        -11    1    3    3    0    0  0.39475414337E+01  0.32907919925E+02  0.12645478474E+02  0.35474249862E+02  0.51100000000E-03 0.  1.
         12    1    3    3    0    0  0.32301205902E+01 -0.40637378138E+02 -0.63344252749E+01  0.41254758810E+02  0.00000000000E+00 0. -1.
</event>
<event>
 7    1  0.3497482E-015  0.9000772E+02  0.7816164E-02  0.1186339E+00
        -11   -1    0    0    0    0  0.00000000000E+00  0.00000000000E+00  0.45593999997E+02  0.45594000000E+02  0.51100000000E-03 0.  1.
         11   -1    0    0    0    0 -0.00000000000E+00 -0.00000000000E+00 -0.45593999997E+02  0.45594000000E+02  0.51100000000E-03 0. -1.
    9900012    2    1    2    0    0 -0.53919680859E+00  0.71089413977E+00  0.77262571914E+00  0.90007722838E+02  0.89999983980E+02 0.  0.
         12    1    1    2    0    0  0.53919680859E+00 -0.71089413977E+00 -0.77262571914E+00  0.11802771616E+01  0.00000000000E+00 0. -1.
         11    1    3    3    0    0  0.34908594249E+01 -0.50136144401E+01  0.74850102955E+01  0.96616669713E+01  0.51100000000E-03 0. -1.
        -11    1    3    3    0    0  0.11883689618E+02  0.33880196354E+02  0.17503363191E+02  0.39943178482E+02  0.51100000000E-03 0.  1.
         12    1    3    3    0    0 -0.15913745852E+02 -0.28155687774E+02 -0.24215747768E+02  0.40402877386E+02  0.00000000000E+00 0. -1.
</event>
<event>
 7    1  0.3276565E-015  0.9000787E+02  0.7816164E-02  0.1186339E+00
        -11   -1    0    0    0    0  0.00000000000E+00  0.00000000000E+00  0.45593999997E+02  0.45594000000E+02  0.51100000000E-03 0.  1.
         11   -1    0    0    0    0 -0.00000000000E+00 -0.00000000000E+00 -0.45593999997E+02  0.45594000000E+02  0.51100000000E-03 0. -1.
    9900012    2    1    2    0    0 -0.94732608789E+00 -0.79274132043E-01 -0.69928034438E+00  0.90007871149E+02  0.90000134248E+02 0.  0.
         12    1    1    2    0    0  0.94732608789E+00  0.79274132043E-01  0.69928034438E+00  0.11801288509E+01  0.00000000000E+00 0. -1.
         11    1    3    3    0    0 -0.52841477963E+01 -0.51001153751E+01 -0.29418440181E+01  0.79112477689E+01  0.51100000000E-03 0. -1.
        -11    1    3    3    0    0  0.14906071744E+02 -0.19295487466E+02  0.33292764989E+02  0.41266390832E+02  0.51100000000E-03 0.  1.
         12    1    3    3    0    0 -0.10569250036E+02  0.24316328709E+02 -0.31050201316E+02  0.40830232548E+02  0.00000000000E+00 0. -1.
</event>
<event>
 7    1  0.3276565E-015  0.9000665E+02  0.7816164E-02  0.1186341E+00
        -11   -1    0    0    0    0  0.00000000000E+00  0.00000000000E+00  0.45593999997E+02  0.45594000000E+02  0.51100000000E-03 0.  1.
         11   -1    0    0    0    0 -0.00000000000E+00 -0.00000000000E+00 -0.45593999997E+02  0.45594000000E+02  0.51100000000E-03 0. -1.
    9900012    2    1    2    0    0 -0.57114510335E+00  0.30136186880E+00  0.98922512437E+00  0.90006648210E+02  0.89998895160E+02 0.  0.
         12    1    1    2    0    0  0.57114510335E+00 -0.30136186880E+00 -0.98922512437E+00  0.11813517900E+01  0.00000000000E+00 0. -1.
         11    1    3    3    0    0 -0.17120008613E+01 -0.28356314388E+02 -0.91803266819E+01  0.29854478908E+02  0.51100000000E-03 0. -1.
        -11    1    3    3    0    0  0.61700668072E+01 -0.14528435600E+02  0.19540977531E+01  0.15904831457E+02  0.51100000000E-03 0.  1.
        -12    1    3    3    0    0 -0.50292110493E+01  0.43186111857E+02  0.82154540532E+01  0.44247337845E+02  0.00000000000E+00 0.  1.
</event>
<event>
 7    1  0.3276565E-015  0.9000773E+02  0.7816164E-02  0.1186339E+00
        -11   -1    0    0    0    0  0.00000000000E+00  0.00000000000E+00  0.45593999997E+02  0.45594000000E+02  0.51100000000E-03 0.  1.
         11   -1    0    0    0    0 -0.00000000000E+00 -0.00000000000E+00 -0.45593999997E+02  0.45594000000E+02  0.51100000000E-03 0. -1.
    9900012    2    1    2    0    0 -0.19002928604E+00 -0.42680380212E+00  0.10838700594E+01  0.90007725913E+02  0.89999987095E+02 0.  0.
         12    1    1    2    0    0  0.19002928604E+00  0.42680380212E+00 -0.10838700594E+01  0.11802740871E+01  0.00000000000E+00 0. -1.
         11    1    3    3    0    0 -0.16338711010E+02  0.21316549864E+02 -0.34595148555E+02  0.43796952855E+02  0.51100000000E-03 0. -1.
        -11    1    3    3    0    0  0.35426052869E+01 -0.96592155032E+01  0.63904123329E+01  0.12111476640E+02  0.51100000000E-03 0.  1.
        -12    1    3    3    0    0  0.12606076437E+02 -0.12084138163E+02  0.29288606282E+02  0.34099296418E+02  0.00000000000E+00 0.  1.
</event>
<event>
 7    1  0.3276565E-015  0.9000774E+02  0.7816164E-02  0.1186339E+00
        -11   -1    0    0    0    0  0.00000000000E+00  0.00000000000E+00  0.45593999997E+02  0.45594000000E+02  0.51100000000E-03 0.  1.
         11   -1    0    0    0    0 -0.00000000000E+00 -0.00000000000E+00 -0.45593999997E+02  0.45594000000E+02  0.51100000000E-03 0. -1.
    9900012    2    1    2    0    0  0.14293906350E+00 -0.89364565094E+00  0.75761186501E+00  0.90007741612E+02  0.90000003001E+02 0.  0.
         12    1    1    2    0    0 -0.14293906350E+00  0.89364565094E+00 -0.75761186501E+00  0.11802583884E+01  0.00000000000E+00 0. -1.
         11    1    3    3    0    0  0.24545197683E+02 -0.16556020981E+02 -0.45535653152E+01  0.29955024910E+02  0.51100000000E-03 0. -1.
        -11    1    3    3    0    0  0.13851161264E+01 -0.12405195258E+02 -0.12777808730E+02  0.17862805274E+02  0.51100000000E-03 0.  1.
        -12    1    3    3    0    0 -0.25787374746E+02  0.28067570588E+02  0.18088985910E+02  0.42189911427E+02  0.00000000000E+00 0.  1.
</event>
<event>
 7    1  0.3276565E-015  0.9000799E+02  0.7816164E-02  0.1186339E+00
        -11   -1    0    0    0    0  0.00000000000E+00  0.00000000000E+00  0.45593999997E+02  0.45594000000E+02  0.51100000000E-03 0.  1.
         11   -1    0    0    0    0 -0.00000000000E+00 -0.00000000000E+00 -0.45593999997E+02  0.45594000000E+02  0.51100000000E-03 0. -1.
    9900012    2    1    2    0    0  0.13260626097E+00 -0.58284885074E+00 -0.10174095873E+01  0.90007991749E+02  0.90000256440E+02 0.  0.
         12    1    1    2    0    0 -0.13260626097E+00  0.58284885074E+00  0.10174095873E+01  0.11800082506E+01  0.00000000000E+00 0. -1.
         11    1    3    3    0    0  0.36020745628E+02  0.19030766220E+02 -0.13228386298E+01  0.40760447505E+02  0.51100000000E-03 0. -1.
        -11    1    3    3    0    0 -0.62040415093E+01  0.70095240214E+01 -0.36558736917E+00  0.93678819613E+01  0.51100000000E-03 0.  1.
        -12    1    3    3    0    0 -0.29684097858E+02 -0.26623139092E+02  0.67101641174E+00  0.39879662283E+02  0.00000000000E+00 0.  1.
</event>
<event>
 7    1  0.3276565E-015  0.9000782E+02  0.7816164E-02  0.1186339E+00
        -11   -1    0    0    0    0  0.00000000000E+00  0.00000000000E+00  0.45593999997E+02  0.45594000000E+02  0.51100000000E-03 0.  1.
         11   -1    0    0    0    0 -0.00000000000E+00 -0.00000000000E+00 -0.45593999997E+02  0.45594000000E+02  0.51100000000E-03 0. -1.
    9900012    2    1    2    0    0  0.24339730672E+00 -0.24105405150E+00  0.11293703064E+01  0.90007819254E+02  0.90000081668E+02 0.  0.
         12    1    1    2    0    0 -0.24339730672E+00  0.24105405150E+00 -0.11293703064E+01  0.11801807462E+01  0.00000000000E+00 0. -1.
         11    1    3    3    0    0  0.59543223520E+01 -0.15662676847E+02 -0.45047869246E+01  0.17351268143E+02  0.51100000000E-03 0. -1.
        -11    1    3    3    0    0 -0.46527434588E+01 -0.16646432674E+02 -0.23598376217E+02  0.29251241048E+02  0.51100000000E-03 0.  1.
         12    1    3    3    0    0 -0.10581815865E+01  0.32068055470E+02  0.29232533448E+02  0.43405310063E+02  0.00000000000E+00 0. -1.
</event>
<event>
 7    1  0.3276565E-015  0.9000775E+02  0.7816164E-02  0.1186339E+00
        -11   -1    0    0    0    0  0.00000000000E+00  0.00000000000E+00  0.45593999997E+02  0.45594000000E+02  0.51100000000E-03 0.  1.
         11   -1    0    0    0    0 -0.00000000000E+00 -0.00000000000E+00 -0.45593999997E+02  0.45594000000E+02  0.51100000000E-03 0. -1.
    9900012    2    1    2    0    0  0.10960494039E+01  0.94777454130E-03 -0.43780497111E+00  0.90007746474E+02  0.90000007927E+02 0.  0.
         12    1    1    2    0    0 -0.10960494039E+01 -0.94777454130E-03  0.43780497111E+00  0.11802535265E+01  0.00000000000E+00 0. -1.
         11    1    3    3    0    0  0.18144488339E+02  0.35817210830E+02 -0.17266651661E+02  0.43706204463E+02  0.51100000000E-03 0. -1.
        -11    1    3    3    0    0 -0.82139103274E+01 -0.35675583035E+01  0.19888302083E+00  0.89574187036E+01  0.51100000000E-03 0.  1.
        -12    1    3    3    0    0 -0.88345286082E+01 -0.32248704752E+02  0.16629963670E+02  0.37344123307E+02  0.00000000000E+00 0.  1.
</event>
<event>
 7    1  0.3276565E-015  0.9000779E+02  0.7816164E-02  0.1186339E+00
        -11   -1    0    0    0    0  0.00000000000E+00  0.00000000000E+00  0.45593999997E+02  0.45594000000E+02  0.51100000000E-03 0. -1.
         11   -1    0    0    0    0 -0.00000000000E+00 -0.00000000000E+00 -0.45593999997E+02  0.45594000000E+02  0.51100000000E-03 0.  1.
    9900012    2    1    2    0    0  0.10234076290E+01 -0.53621421627E+00 -0.24085622750E+00  0.90007787908E+02  0.90000049908E+02 0.  0.
         12    1    1    2    0    0 -0.10234076290E+01  0.53621421627E+00  0.24085622750E+00  0.11802120925E+01  0.00000000000E+00 0. -1.
         11    1    3    3    0    0 -0.12998168313E+02 -0.16178971195E+02  0.35020492679E+02  0.40708063036E+02  0.51100000000E-03 0. -1.
        -11    1    3    3    0    0 -0.77485607774E+01  0.29379249686E+01 -0.41774685425E+01  0.92802392710E+01  0.51100000000E-03 0.  1.
        -12    1    3    3    0    0  0.21770136720E+02  0.12704832010E+02 -0.31083880364E+02  0.40019485600E+02  0.00000000000E+00 0.  1.
</event>
<event>
 7    1  0.3276565E-015  0.9000770E+02  0.7816164E-02  0.1186339E+00
        -11   -1    0    0    0    0  0.00000000000E+00  0.00000000000E+00  0.45593999997E+02  0.45594000000E+02  0.51100000000E-03 0. -1.
         11   -1    0    0    0    0 -0.00000000000E+00 -0.00000000000E+00 -0.45593999997E+02  0.45594000000E+02  0.51100000000E-03 0.  1.
    9900012    2    1    2    0    0 -0.18341629652E+00  0.94532505436E+00  0.68251313988E+00  0.90007701232E+02  0.89999962088E+02 0.  0.
         12    1    1    2    0    0  0.18341629652E+00 -0.94532505435E+00 -0.68251313988E+00  0.11802987682E+01  0.00000000000E+00 0. -1.
         11    1    3    3    0    0 -0.58408952420E+01  0.61655888909E+01  0.56828940041E+01  0.10218895641E+02  0.51100000000E-03 0. -1.
        -11    1    3    3    0    0 -0.23658798450E+02  0.24343299434E+02 -0.14774997601E+02  0.37022095103E+02  0.51100000000E-03 0.  1.
         12    1    3    3    0    0  0.29316277396E+02 -0.29563563270E+02  0.97746167371E+01  0.42766710488E+02  0.00000000000E+00 0. -1.
</event>
<event>
 7    1  0.3276565E-015  0.9000771E+02  0.7816164E-02  0.1186339E+00
        -11   -1    0    0    0    0  0.00000000000E+00  0.00000000000E+00  0.45593999997E+02  0.45594000000E+02  0.51100000000E-03 0.  1.
         11   -1    0    0    0    0 -0.00000000000E+00 -0.00000000000E+00 -0.45593999997E+02  0.45594000000E+02  0.51100000000E-03 0. -1.
    9900012    2    1    2    0    0 -0.92920547785E+00  0.66141959814E-02  0.72774553953E+00  0.90007711841E+02  0.89999972837E+02 0.  0.
         12    1    1    2    0    0  0.92920547785E+00 -0.66141959814E-02 -0.72774553953E+00  0.11802881589E+01  0.00000000000E+00 0. -1.
         11    1    3    3    0    0  0.22122388956E+02 -0.42668247342E+01 -0.27868162770E+02  0.35836299793E+02  0.51100000000E-03 0. -1.
        -11    1    3    3    0    0  0.10707004735E+02  0.55039744000E+01  0.54075256456E+01  0.13197538349E+02  0.51100000000E-03 0.  1.
        -12    1    3    3    0    0 -0.33758599169E+02 -0.12305354699E+01  0.23188382664E+02  0.40973873700E+02  0.00000000000E+00 0.  1.
</event>
<event>
 7    1  0.3276565E-015  0.9000767E+02  0.7816164E-02  0.1186339E+00
        -11   -1    0    0    0    0  0.00000000000E+00  0.00000000000E+00  0.45593999997E+02  0.45594000000E+02  0.51100000000E-03 0.  1.
         11   -1    0    0    0    0 -0.00000000000E+00 -0.00000000000E+00 -0.45593999997E+02  0.45594000000E+02  0.51100000000E-03 0. -1.
    9900012    2    1    2    0    0  0.70572092342E+00 -0.90762431884E+00  0.26713067322E+00  0.90007668385E+02  0.89999928807E+02 0.  0.
         12    1    1    2    0    0 -0.70572092342E+00  0.90762431884E+00 -0.26713067322E+00  0.11803316155E+01  0.00000000000E+00 0. -1.
         11    1    3    3    0    0  0.26435026045E+02 -0.94145555120E+01 -0.19460364988E+02  0.34148942343E+02  0.51100000000E-03 0. -1.
        -11    1    3    3    0    0  0.35521495478E+01 -0.22395091165E+00 -0.11578321579E+02  0.12113028162E+02  0.51100000000E-03 0.  1.
        -12    1    3    3    0    0 -0.29281454669E+02  0.87308821048E+01  0.31305817240E+02  0.43745697879E+02  0.00000000000E+00 0.  1.
</event>
<event>
 7    1  0.3276565E-015  0.9000777E+02  0.7816164E-02  0.1186339E+00
        -11   -1    0    0    0    0  0.00000000000E+00  0.00000000000E+00  0.45593999997E+02  0.45594000000E+02  0.51100000000E-03 0.  1.
         11   -1    0    0    0    0 -0.00000000000E+00 -0.00000000000E+00 -0.45593999997E+02  0.45594000000E+02  0.51100000000E-03 0. -1.
    9900012    2    1    2    0    0  0.10674731836E+01 -0.48495417285E+00  0.13517411489E+00  0.90007766299E+02  0.90000028014E+02 0.  0.
         12    1    1    2    0    0 -0.10674731836E+01  0.48495417285E+00 -0.13517411489E+00  0.11802337009E+01  0.00000000000E+00 0. -1.
         11    1    3    3    0    0 -0.97389591886E+01 -0.68900393408E+01  0.53401371594E+01  0.13070464159E+02  0.51100000000E-03 0. -1.
        -11    1    3    3    0    0  0.13378976854E+02 -0.86001089538E+01  0.32550293371E+02  0.36228172663E+02  0.51100000000E-03 0.  1.
         12    1    3    3    0    0 -0.25725444821E+01  0.15005194122E+02 -0.37755256416E+02  0.40709129477E+02  0.00000000000E+00 0. -1.
</event>
<event>
 7    1  0.3276565E-015  0.9000721E+02  0.7816164E-02  0.1186340E+00
        -11   -1    0    0    0    0  0.00000000000E+00  0.00000000000E+00  0.45593999997E+02  0.45594000000E+02  0.51100000000E-03 0. -1.
         11   -1    0    0    0    0 -0.00000000000E+00 -0.00000000000E+00 -0.45593999997E+02  0.45594000000E+02  0.51100000000E-03 0.  1.
    9900012    2    1    2    0    0  0.24759369439E+00 -0.40590796531E+00 -0.10808334078E+01  0.90007210108E+02  0.89999464480E+02 0.  0.
         12    1    1    2    0    0 -0.24759369439E+00  0.40590796531E+00  0.10808334078E+01  0.11807898921E+01  0.00000000000E+00 0. -1.
         11    1    3    3    0    0 -0.37515770301E+02 -0.86285934369E+01  0.98046410275E+01  0.39724257475E+02  0.51100000000E-03 0. -1.
        -11    1    3    3    0    0 -0.26891545826E+01 -0.25955393639E+01  0.43393386939E+01  0.57269745521E+01  0.51100000000E-03 0.  1.
        -12    1    3    3    0    0  0.40452518578E+02  0.10818224835E+02 -0.15224813129E+02  0.44555978081E+02  0.00000000000E+00 0.  1.
</event>
<event>
 7    1  0.3276565E-015  0.9000781E+02  0.7816164E-02  0.1186339E+00
        -11   -1    0    0    0    0  0.00000000000E+00  0.00000000000E+00  0.45593999997E+02  0.45594000000E+02  0.51100000000E-03 0. -1.
         11   -1    0    0    0    0 -0.00000000000E+00 -0.00000000000E+00 -0.45593999997E+02  0.45594000000E+02  0.51100000000E-03 0.  1.
    9900012    2    1    2    0    0  0.44312595582E+00  0.57589071206E-01 -0.10923199891E+01  0.90007813543E+02  0.90000075882E+02 0.  0.
         12    1    1    2    0    0 -0.44312595582E+00 -0.57589071206E-01  0.10923199891E+01  0.11801864567E+01  0.00000000000E+00 0. -1.
         11    1    3    3    0    0  0.61976727354E+01 -0.35195942536E+00 -0.72259528658E+01  0.95262488867E+01  0.51100000000E-03 0. -1.
        -11    1    3    3    0    0 -0.22510720314E+02 -0.33023863585E+02  0.13846810861E+02  0.42297071606E+02  0.51100000000E-03 0.  1.
         12    1    3    3    0    0  0.16756173535E+02  0.33433412082E+02 -0.77131779838E+01  0.38184493051E+02  0.00000000000E+00 0. -1.
</event>
<event>
 7    1  0.3276565E-015  0.9000779E+02  0.7816164E-02  0.1186339E+00
        -11   -1    0    0    0    0  0.00000000000E+00  0.00000000000E+00  0.45593999997E+02  0.45594000000E+02  0.51100000000E-03 0. -1.
         11   -1    0    0    0    0 -0.00000000000E+00 -0.00000000000E+00 -0.45593999997E+02  0.45594000000E+02  0.51100000000E-03 0.  1.
    9900012    2    1    2    0    0 -0.53471045992E+00 -0.80600753414E+00 -0.67625702837E+00  0.90007793667E+02  0.90000055743E+02 0.  0.
         12    1    1    2    0    0  0.53471045992E+00  0.80600753414E+00  0.67625702837E+00  0.11802063334E+01  0.00000000000E+00 0. -1.
         11    1    3    3    0    0  0.21355435068E+02  0.84353576477E+01 -0.25804937385E+02  0.34541347097E+02  0.51100000000E-03 0. -1.
        -11    1    3    3    0    0  0.20347204840E+01 -0.79456646000E+01 -0.10007020327E+02  0.12938861213E+02  0.51100000000E-03 0.  1.
        -12    1    3    3    0    0 -0.23924866012E+02 -0.12957005818E+01  0.35135700684E+02  0.42527585357E+02  0.00000000000E+00 0.  1.
</event>
<event>
 7    1  0.3276565E-015  0.9000778E+02  0.7816164E-02  0.1186339E+00
        -11   -1    0    0    0    0  0.00000000000E+00  0.00000000000E+00  0.45593999997E+02  0.45594000000E+02  0.51100000000E-03 0.  1.
         11   -1    0    0    0    0 -0.00000000000E+00 -0.00000000000E+00 -0.45593999997E+02  0.45594000000E+02  0.51100000000E-03 0. -1.
    9900012    2    1    2    0    0  0.64445103066E-01  0.67653227633E+00  0.96492094919E+00  0.90007779033E+02  0.90000040916E+02 0.  0.
         12    1    1    2    0    0 -0.64445103066E-01 -0.67653227633E+00 -0.96492094919E+00  0.11802209668E+01  0.00000000000E+00 0. -1.
         11    1    3    3    0    0  0.19188597040E+02 -0.16406428815E+02 -0.26511491147E+02  0.36609183628E+02  0.51100000000E-03 0. -1.
        -11    1    3    3    0    0  0.47688535195E+01 -0.86405776615E+01  0.21281987301E+01  0.10096077273E+02  0.51100000000E-03 0.  1.
        -12    1    3    3    0    0 -0.23893005457E+02  0.25723538753E+02  0.25348213366E+02  0.43302518132E+02  0.00000000000E+00 0.  1.
</event>
<event>
 7    1  0.3276565E-015  0.9000771E+02  0.7816164E-02  0.1186339E+00
        -11   -1    0    0    0    0  0.00000000000E+00  0.00000000000E+00  0.45593999997E+02  0.45594000000E+02  0.51100000000E-03 0. -1.
         11   -1    0    0    0    0 -0.00000000000E+00 -0.00000000000E+00 -0.45593999997E+02  0.45594000000E+02  0.51100000000E-03 0.  1.
    9900012    2    1    2    0    0 -0.78561814152E+00 -0.51139909858E+00 -0.71719244162E+00  0.90007707705E+02  0.89999968647E+02 0.  0.
         12    1    1    2    0    0  0.78561814152E+00  0.51139909858E+00  0.71719244162E+00  0.11802922946E+01  0.00000000000E+00 0. -1.
         11    1    3    3    0    0  0.40506474891E+01  0.56969014015E+00 -0.89535626147E+01  0.98437074161E+01  0.51100000000E-03 0. -1.
        -11    1    3    3    0    0  0.33674093948E+02  0.16135545186E+02  0.92747145042E+00  0.37351849020E+02  0.51100000000E-03 0.  1.
         12    1    3    3    0    0 -0.38510359578E+02 -0.17216634425E+02  0.73088987227E+01  0.42812151269E+02  0.00000000000E+00 0. -1.
</event>
<event>
 7    1  0.3276565E-015  0.9000761E+02  0.7816164E-02  0.1186339E+00
        -11   -1    0    0    0    0  0.00000000000E+00  0.00000000000E+00  0.45593999997E+02  0.45594000000E+02  0.51100000000E-03 0. -1.
         11   -1    0    0    0    0 -0.00000000000E+00 -0.00000000000E+00 -0.45593999997E+02  0.45594000000E+02  0.51100000000E-03 0.  1.
    9900012    2    1    2    0    0 -0.80751047493E+00  0.20673246219E+00 -0.83577200345E+00  0.90007607557E+02  0.89999867177E+02 0.  0.
         12    1    1    2    0    0  0.80751047493E+00 -0.20673246219E+00  0.83577200345E+00  0.11803924431E+01  0.00000000000E+00 0. -1.
         11    1    3    3    0    0 -0.87228861759E+01 -0.31799432492E+02  0.25207374839E+02  0.41505474296E+02  0.51100000000E-03 0. -1.
        -11    1    3    3    0    0 -0.67635793660E+01  0.20816416119E+01 -0.76967993658E+01  0.10455618508E+02  0.51100000000E-03 0.  1.
        -12    1    3    3    0    0  0.14678955067E+02  0.29924523342E+02 -0.18346347477E+02  0.38046514753E+02  0.00000000000E+00 0.  1.
</event>
<event>
 7    1  0.3276565E-015  0.9000776E+02  0.7816164E-02  0.1186339E+00
        -11   -1    0    0    0    0  0.00000000000E+00  0.00000000000E+00  0.45593999997E+02  0.45594000000E+02  0.51100000000E-03 0.  1.
         11   -1    0    0    0    0 -0.00000000000E+00 -0.00000000000E+00 -0.45593999997E+02  0.45594000000E+02  0.51100000000E-03 0. -1.
    9900012    2    1    2    0    0 -0.54107377533E+00  0.96334090136E+00  0.41494425477E+00  0.90007760509E+02  0.90000022147E+02 0.  0.
         12    1    1    2    0    0  0.54107377533E+00 -0.96334090136E+00 -0.41494425477E+00  0.11802394914E+01  0.00000000000E+00 0. -1.
         11    1    3    3    0    0  0.33784879590E+02  0.94428956214E+01  0.19995700627E+02  0.40378390390E+02  0.51100000000E-03 0. -1.
        -11    1    3    3    0    0 -0.38178177251E+01 -0.65235050489E+01  0.60925599382E+01  0.97083024864E+01  0.51100000000E-03 0.  1.
        -12    1    3    3    0    0 -0.30508135640E+02 -0.19560496711E+01 -0.25673316310E+02  0.39921067633E+02  0.00000000000E+00 0.  1.
</event>
<event>
 7    1  0.3276565E-015  0.9000817E+02  0.7816164E-02  0.1186338E+00
        -11   -1    0    0    0    0  0.00000000000E+00  0.00000000000E+00  0.45593999997E+02  0.45594000000E+02  0.51100000000E-03 0. -1.
         11   -1    0    0    0    0 -0.00000000000E+00 -0.00000000000E+00 -0.45593999997E+02  0.45594000000E+02  0.51100000000E-03 0.  1.
    9900012    2    1    2    0    0 -0.60007157529E+00  0.29825691084E+00 -0.97105344531E+00  0.90008174643E+02  0.90000441747E+02 0.  0.
         12    1    1    2    0    0  0.60007157529E+00 -0.29825691084E+00  0.97105344531E+00  0.11798253574E+01  0.00000000000E+00 0. -1.
         11    1    3    3    0    0  0.85953046699E+01 -0.38135491460E+02  0.85984410431E+00  0.39101589526E+02  0.51100000000E-03 0. -1.
        -11    1    3    3    0    0 -0.42752561592E+01  0.52180196085E+01  0.12652148086E+02  0.14338144765E+02  0.51100000000E-03 0.  1.
        -12    1    3    3    0    0 -0.49201200860E+01  0.33215728763E+02 -0.14483045635E+02  0.36568440352E+02  0.00000000000E+00 0.  1.
</event>
<event>
 7    1  0.3276565E-015  0.9000771E+02  0.7816164E-02  0.1186339E+00
        -11   -1    0    0    0    0  0.00000000000E+00  0.00000000000E+00  0.45593999997E+02  0.45594000000E+02  0.51100000000E-03 0. -1.
         11   -1    0    0    0    0 -0.00000000000E+00 -0.00000000000E+00 -0.45593999997E+02  0.45594000000E+02  0.51100000000E-03 0.  1.
    9900012    2    1    2    0    0  0.10289281555E+01 -0.53597931234E+00 -0.21707309252E+00  0.90007708638E+02  0.89999969592E+02 0.  0.
         12    1    1    2    0    0 -0.10289281555E+01  0.53597931234E+00  0.21707309252E+00  0.11802913623E+01  0.00000000000E+00 0. -1.
         11    1    3    3    0    0  0.23929890277E+01  0.56026551299E+01 -0.37361462642E+01  0.71466726635E+01  0.51100000000E-03 0. -1.
        -11    1    3    3    0    0  0.31556531961E+02  0.22816798058E+02  0.19652041189E+01  0.38990806743E+02  0.51100000000E-03 0.  1.
         12    1    3    3    0    0 -0.32920592833E+02 -0.28955432500E+02  0.15538690527E+01  0.43870229231E+02  0.00000000000E+00 0. -1.
</event>
<event>
 7    1  0.3276565E-015  0.9000770E+02  0.7816164E-02  0.1186339E+00
        -11   -1    0    0    0    0  0.00000000000E+00  0.00000000000E+00  0.45593999997E+02  0.45594000000E+02  0.51100000000E-03 0.  1.
         11   -1    0    0    0    0 -0.00000000000E+00 -0.00000000000E+00 -0.45593999997E+02  0.45594000000E+02  0.51100000000E-03 0. -1.
    9900012    2    1    2    0    0 -0.91887685613E+00  0.73547972577E+00 -0.88530342999E-01  0.90007702273E+02  0.89999963143E+02 0.  0.
         12    1    1    2    0    0  0.91887685613E+00 -0.73547972577E+00  0.88530342999E-01  0.11802977274E+01  0.00000000000E+00 0. -1.
         11    1    3    3    0    0 -0.36616933162E+02  0.17820946267E+02 -0.19114536979E+00  0.40723733337E+02  0.51100000000E-03 0. -1.
        -11    1    3    3    0    0 -0.37007239370E+00  0.10457654813E+01  0.80619035980E+01  0.81378663606E+01  0.51100000000E-03 0.  1.
        -12    1    3    3    0    0  0.36068128700E+02 -0.18131232023E+02 -0.79592885712E+01  0.41146102575E+02  0.00000000000E+00 0.  1.
</event>
<event>
 7    1  0.3276565E-015  0.9000784E+02  0.7816164E-02  0.1186339E+00
        -11   -1    0    0    0    0  0.00000000000E+00  0.00000000000E+00  0.45593999997E+02  0.45594000000E+02  0.51100000000E-03 0.  1.
         11   -1    0    0    0    0 -0.00000000000E+00 -0.00000000000E+00 -0.45593999997E+02  0.45594000000E+02  0.51100000000E-03 0. -1.
    9900012    2    1    2    0    0 -0.46176317715E+00 -0.32758605280E+00  0.10354886235E+01  0.90007841306E+02  0.90000104011E+02 0.  0.
         12    1    1    2    0    0  0.46176317715E+00  0.32758605280E+00 -0.10354886235E+01  0.11801586940E+01  0.00000000000E+00 0. -1.
         11    1    3    3    0    0  0.93801943194E-01  0.22582673440E+01 -0.88346655742E+01  0.91192042564E+01  0.51100000000E-03 0. -1.
        -11    1    3    3    0    0  0.32741890785E+01 -0.38264778613E+02 -0.10250057857E+02  0.39748928070E+02  0.51100000000E-03 0.  1.
         12    1    3    3    0    0 -0.38297541988E+01  0.35678925216E+02  0.20120212055E+02  0.41139708979E+02  0.00000000000E+00 0. -1.
</event>
<event>
 7    1  0.3276565E-015  0.9000781E+02  0.7816164E-02  0.1186339E+00
        -11   -1    0    0    0    0  0.00000000000E+00  0.00000000000E+00  0.45593999997E+02  0.45594000000E+02  0.51100000000E-03 0. -1.
         11   -1    0    0    0    0 -0.00000000000E+00 -0.00000000000E+00 -0.45593999997E+02  0.45594000000E+02  0.51100000000E-03 0.  1.
    9900012    2    1    2    0    0  0.23354425055E+00 -0.10675264187E+01  0.44575241575E+00  0.90007809004E+02  0.90000071283E+02 0.  0.
         12    1    1    2    0    0 -0.23354425055E+00  0.10675264187E+01 -0.44575241575E+00  0.11801909963E+01  0.00000000000E+00 0. -1.
         11    1    3    3    0    0 -0.21181322568E+01 -0.97735624029E+01  0.27952377455E+00  0.10004356056E+02  0.51100000000E-03 0. -1.
        -11    1    3    3    0    0  0.13101341938E+02 -0.16574017513E+01 -0.37354867157E+02  0.39620427077E+02  0.51100000000E-03 0.  1.
         12    1    3    3    0    0 -0.10749665431E+02  0.10363437735E+02  0.37521095798E+02  0.40383025871E+02  0.00000000000E+00 0. -1.
</event>
<event>
 7    1  0.3276565E-015  0.9000793E+02  0.7816164E-02  0.1186339E+00
        -11   -1    0    0    0    0  0.00000000000E+00  0.00000000000E+00  0.45593999997E+02  0.45594000000E+02  0.51100000000E-03 0. -1.
         11   -1    0    0    0    0 -0.00000000000E+00 -0.00000000000E+00 -0.45593999997E+02  0.45594000000E+02  0.51100000000E-03 0.  1.
    9900012    2    1    2    0    0  0.13842388649E+00 -0.11700991120E+01 -0.65422050018E-01  0.90007926634E+02  0.90000190465E+02 0.  0.
         12    1    1    2    0    0 -0.13842388649E+00  0.11700991120E+01  0.65422050018E-01  0.11800733659E+01  0.00000000000E+00 0. -1.
         11    1    3    3    0    0  0.53501065987E+01  0.68281174606E+01  0.14495518733E+01  0.87947728549E+01  0.51100000000E-03 0. -1.
        -11    1    3    3    0    0 -0.42761116560E+01 -0.13282261268E+02 -0.39995793240E+02  0.42359970166E+02  0.51100000000E-03 0.  1.
         12    1    3    3    0    0 -0.93557105618E+00  0.52840446956E+01  0.38480819317E+02  0.38853183613E+02  0.00000000000E+00 0. -1.
</event>
<event>
 7    1  0.3276565E-015  0.9000757E+02  0.7816164E-02  0.1186339E+00
        -11   -1    0    0    0    0  0.00000000000E+00  0.00000000000E+00  0.45593999997E+02  0.45594000000E+02  0.51100000000E-03 0. -1.
         11   -1    0    0    0    0 -0.00000000000E+00 -0.00000000000E+00 -0.45593999997E+02  0.45594000000E+02  0.51100000000E-03 0.  1.
    9900012    2    1    2    0    0 -0.18582176555E+00 -0.74844843813E+00 -0.89370663268E+00  0.90007569427E+02  0.89999828543E+02 0.  0.
         12    1    1    2    0    0  0.18582176555E+00  0.74844843813E+00  0.89370663268E+00  0.11804305733E+01  0.00000000000E+00 0. -1.
         11    1    3    3    0    0 -0.90062149195E+01 -0.31063012947E+01 -0.34446177037E+01  0.10130469204E+02  0.51100000000E-03 0. -1.
        -11    1    3    3    0    0 -0.20802383004E+02  0.11904725203E+02  0.29986232038E+02  0.38387963386E+02  0.51100000000E-03 0.  1.
         12    1    3    3    0    0  0.29622776158E+02 -0.95468723466E+01 -0.27435320967E+02  0.41489136837E+02  0.00000000000E+00 0. -1.
</event>
<event>
 7    1  0.3276565E-015  0.9000775E+02  0.7816164E-02  0.1186339E+00
        -11   -1    0    0    0    0  0.00000000000E+00  0.00000000000E+00  0.45593999997E+02  0.45594000000E+02  0.51100000000E-03 0. -1.
         11   -1    0    0    0    0 -0.00000000000E+00 -0.00000000000E+00 -0.45593999997E+02  0.45594000000E+02  0.51100000000E-03 0.  1.
    9900012    2    1    2    0    0 -0.49215214898E+00 -0.34125942461E+00 -0.10170088351E+01  0.90007754812E+02  0.90000016376E+02 0.  0.
         12    1    1    2    0    0  0.49215214898E+00  0.34125942461E+00  0.10170088351E+01  0.11802451878E+01  0.00000000000E+00 0. -1.
         11    1    3    3    0    0 -0.32189811577E+02  0.17335244198E+02  0.17652960199E+02  0.40599527889E+02  0.51100000000E-03 0. -1.
        -11    1    3    3    0    0  0.12340789618E+02  0.70885774222E+01 -0.44710726629E+01  0.14917557081E+02  0.51100000000E-03 0.  1.
        -12    1    3    3    0    0  0.19356869810E+02 -0.24765081045E+02 -0.14198896371E+02  0.34490669842E+02  0.00000000000E+00 0.  1.
</event>
<event>
 7    1  0.4032400E-015  0.9000771E+02  0.7816164E-02  0.1186339E+00
        -11   -1    0    0    0    0  0.00000000000E+00  0.00000000000E+00  0.45593999997E+02  0.45594000000E+02  0.51100000000E-03 0. -1.
         11   -1    0    0    0    0 -0.00000000000E+00 -0.00000000000E+00 -0.45593999997E+02  0.45594000000E+02  0.51100000000E-03 0.  1.
    9900012    2    1    2    0    0  0.86522210266E+00 -0.65282125867E-01 -0.80014045726E+00  0.90007705209E+02  0.89999966118E+02 0.  0.
         12    1    1    2    0    0 -0.86522210266E+00  0.65282125867E-01  0.80014045726E+00  0.11802947912E+01  0.00000000000E+00 0. -1.
         11    1    3    3    0    0 -0.15222142593E+00  0.58828299808E+01  0.83471916943E+01  0.10213053872E+02  0.51100000000E-03 0. -1.
        -11    1    3    3    0    0  0.14695332013E+02  0.33558399883E+02 -0.10012076226E+02  0.37978423562E+02  0.51100000000E-03 0.  1.
         12    1    3    3    0    0 -0.13677888485E+02 -0.39506511989E+02  0.86474407420E+00  0.41816227775E+02  0.00000000000E+00 0. -1.
</event>
<event>
 7    1  0.3276565E-015  0.9000776E+02  0.7816164E-02  0.1186339E+00
        -11   -1    0    0    0    0  0.00000000000E+00  0.00000000000E+00  0.45593999997E+02  0.45594000000E+02  0.51100000000E-03 0. -1.
         11   -1    0    0    0    0 -0.00000000000E+00 -0.00000000000E+00 -0.45593999997E+02  0.45594000000E+02  0.51100000000E-03 0.  1.
    9900012    2    1    2    0    0 -0.69884686912E+00  0.16853465508E+00  0.93604183778E+00  0.90007760533E+02  0.90000022172E+02 0.  0.
         12    1    1    2    0    0  0.69884686912E+00 -0.16853465508E+00 -0.93604183778E+00  0.11802394666E+01  0.00000000000E+00 0. -1.
         11    1    3    3    0    0 -0.23078492427E+02  0.12387044806E+02  0.28111336036E+02  0.38422687383E+02  0.51100000000E-03 0. -1.
        -11    1    3    3    0    0 -0.72781114356E+01  0.54163815198E+01 -0.34287782439E+01  0.96986914243E+01  0.51100000000E-03 0.  1.
        -12    1    3    3    0    0  0.29657756994E+02 -0.17634891671E+02 -0.23746515954E+02  0.41886381726E+02  0.00000000000E+00 0.  1.
</event>
<event>
 7    1  0.5078397E-015  0.9000776E+02  0.7816164E-02  0.1186339E+00
        -11   -1    0    0    0    0  0.00000000000E+00  0.00000000000E+00  0.45593999997E+02  0.45594000000E+02  0.51100000000E-03 0. -1.
         11   -1    0    0    0    0 -0.00000000000E+00 -0.00000000000E+00 -0.45593999997E+02  0.45594000000E+02  0.51100000000E-03 0.  1.
    9900012    2    1    2    0    0 -0.30012747893E+00  0.27493102671E+00 -0.11078341803E+01  0.90007762675E+02  0.90000024342E+02 0.  0.
         12    1    1    2    0    0  0.30012747893E+00 -0.27493102671E+00  0.11078341803E+01  0.11802373253E+01  0.00000000000E+00 0. -1.
         11    1    3    3    0    0  0.56806936372E+01  0.34814388440E+01  0.68851572850E+01  0.95810274879E+01  0.51100000000E-03 0. -1.
        -11    1    3    3    0    0  0.31434747366E+02  0.36601076114E+01 -0.23426860353E+02  0.39374579566E+02  0.51100000000E-03 0.  1.
         12    1    3    3    0    0 -0.37415568482E+02 -0.68666154287E+01  0.15433868887E+02  0.41052155621E+02  0.00000000000E+00 0. -1.
</event>
<event>
 7    1  0.3276565E-015  0.9000775E+02  0.7816164E-02  0.1186339E+00
        -11   -1    0    0    0    0  0.00000000000E+00  0.00000000000E+00  0.45593999997E+02  0.45594000000E+02  0.51100000000E-03 0. -1.
         11   -1    0    0    0    0 -0.00000000000E+00 -0.00000000000E+00 -0.45593999997E+02  0.45594000000E+02  0.51100000000E-03 0.  1.
    9900012    2    1    2    0    0  0.10286183229E+01  0.57614369300E+00 -0.54635582860E-01  0.90007753307E+02  0.90000014851E+02 0.  0.
         12    1    1    2    0    0 -0.10286183229E+01 -0.57614369300E+00  0.54635582860E-01  0.11802466929E+01  0.00000000000E+00 0. -1.
         11    1    3    3    0    0  0.27550950546E+02 -0.22650767609E+02  0.83245525889E+01  0.36625268945E+02  0.51100000000E-03 0. -1.
        -11    1    3    3    0    0 -0.23101531028E+00 -0.93478887756E+01  0.33111531750E+01  0.99196838782E+01  0.51100000000E-03 0.  1.
        -12    1    3    3    0    0 -0.26291316913E+02  0.32574800077E+02 -0.11690341347E+02  0.43462800484E+02  0.00000000000E+00 0.  1.
</event>
<event>
 7    1  0.3276565E-015  0.9000777E+02  0.7816164E-02  0.1186339E+00
        -11   -1    0    0    0    0  0.00000000000E+00  0.00000000000E+00  0.45593999997E+02  0.45594000000E+02  0.51100000000E-03 0.  1.
         11   -1    0    0    0    0 -0.00000000000E+00 -0.00000000000E+00 -0.45593999997E+02  0.45594000000E+02  0.51100000000E-03 0. -1.
    9900012    2    1    2    0    0  0.10747245704E+01  0.35074278708E+00 -0.33895439726E+00  0.90007769731E+02  0.90000031491E+02 0.  0.
         12    1    1    2    0    0 -0.10747245704E+01 -0.35074278708E+00  0.33895439726E+00  0.11802302692E+01  0.00000000000E+00 0. -1.
         11    1    3    3    0    0  0.28286312930E+02  0.10013035482E+02 -0.17693710480E+02  0.34834519798E+02  0.51100000000E-03 0. -1.
        -11    1    3    3    0    0 -0.10548499115E+02 -0.50367497515E+01 -0.14682050401E+02  0.18767053202E+02  0.51100000000E-03 0.  1.
        -12    1    3    3    0    0 -0.16663089245E+02 -0.46255429436E+01  0.32036806484E+02  0.36406196731E+02  0.00000000000E+00 0.  1.
</event>
<event>
 7    1  0.3276565E-015  0.9000829E+02  0.7816164E-02  0.1186338E+00
        -11   -1    0    0    0    0  0.00000000000E+00  0.00000000000E+00  0.45593999997E+02  0.45594000000E+02  0.51100000000E-03 0. -1.
         11   -1    0    0    0    0 -0.00000000000E+00 -0.00000000000E+00 -0.45593999997E+02  0.45594000000E+02  0.51100000000E-03 0.  1.
    9900012    2    1    2    0    0  0.78637901754E+00 -0.68917289303E-01  0.87668988323E+00  0.90008285330E+02  0.90000553894E+02 0.  0.
         12    1    1    2    0    0 -0.78637901754E+00  0.68917289303E-01 -0.87668988323E+00  0.11797146703E+01  0.00000000000E+00 0. -1.
         11    1    3    3    0    0  0.14381755174E+02 -0.26209487984E+02 -0.18298163155E+02  0.35051318340E+02  0.51100000000E-03 0. -1.
        -11    1    3    3    0    0  0.11732648144E+02 -0.22977801340E+01 -0.74677306694E+00  0.11978835348E+02  0.51100000000E-03 0.  1.
        -12    1    3    3    0    0 -0.25328024300E+02  0.28438350828E+02  0.19921626105E+02  0.42978131642E+02  0.00000000000E+00 0.  1.
</event>
<event>
 7    1  0.3276565E-015  0.9000778E+02  0.7816164E-02  0.1186339E+00
        -11   -1    0    0    0    0  0.00000000000E+00  0.00000000000E+00  0.45593999997E+02  0.45594000000E+02  0.51100000000E-03 0. -1.
         11   -1    0    0    0    0 -0.00000000000E+00 -0.00000000000E+00 -0.45593999997E+02  0.45594000000E+02  0.51100000000E-03 0.  1.
    9900012    2    1    2    0    0  0.89710117289E+00 -0.72843371898E+00  0.23983027298E+00  0.90007777666E+02  0.90000039531E+02 0.  0.
         12    1    1    2    0    0 -0.89710117289E+00  0.72843371898E+00 -0.23983027298E+00  0.11802223338E+01  0.00000000000E+00 0. -1.
         11    1    3    3    0    0  0.25696683925E+01  0.36002096822E+02  0.40976108767E+01  0.36325536285E+02  0.51100000000E-03 0. -1.
        -11    1    3    3    0    0 -0.13289559844E+02 -0.31928065240E+00  0.54148865195E+01  0.14353931074E+02  0.51100000000E-03 0.  1.
         12    1    3    3    0    0  0.11616992625E+02 -0.36411249888E+02 -0.92726671232E+01  0.39328310308E+02  0.00000000000E+00 0. -1.
</event>
<event>
 7    1  0.3276565E-015  0.9000774E+02  0.7816164E-02  0.1186339E+00
        -11   -1    0    0    0    0  0.00000000000E+00  0.00000000000E+00  0.45593999997E+02  0.45594000000E+02  0.51100000000E-03 0.  1.
         11   -1    0    0    0    0 -0.00000000000E+00 -0.00000000000E+00 -0.45593999997E+02  0.45594000000E+02  0.51100000000E-03 0. -1.
    9900012    2    1    2    0    0  0.46815080479E+00 -0.36630632239E+00  0.10196396847E+01  0.90007741306E+02  0.90000002691E+02 0.  0.
         12    1    1    2    0    0 -0.46815080479E+00  0.36630632239E+00 -0.10196396847E+01  0.11802586939E+01  0.00000000000E+00 0. -1.
         11    1    3    3    0    0  0.24950890606E+02  0.32073120613E+02  0.13802751289E+02  0.42915591005E+02  0.51100000000E-03 0. -1.
        -11    1    3    3    0    0  0.59194998692E+00 -0.13546882601E+02 -0.11410370953E+01  0.13607733056E+02  0.51100000000E-03 0.  1.
        -12    1    3    3    0    0 -0.25074689788E+02 -0.18892544334E+02 -0.11642074509E+02  0.33484417245E+02  0.00000000000E+00 0.  1.
</event>
<event>
 7    1  0.3276565E-015  0.9000777E+02  0.7816164E-02  0.1186339E+00
        -11   -1    0    0    0    0  0.00000000000E+00  0.00000000000E+00  0.45593999997E+02  0.45594000000E+02  0.51100000000E-03 0.  1.
         11   -1    0    0    0    0 -0.00000000000E+00 -0.00000000000E+00 -0.45593999997E+02  0.45594000000E+02  0.51100000000E-03 0. -1.
    9900012    2    1    2    0    0  0.62650467584E+00 -0.55740532419E+00  0.83050091572E+00  0.90007770965E+02  0.90000032742E+02 0.  0.
         12    1    1    2    0    0 -0.62650467584E+00  0.55740532419E+00 -0.83050091572E+00  0.11802290351E+01  0.00000000000E+00 0. -1.
         11    1    3    3    0    0 -0.31053838585E+02 -0.16654284443E+02 -0.40591167496E+00  0.35240187936E+02  0.51100000000E-03 0. -1.
        -11    1    3    3    0    0 -0.31308368286E+01 -0.10238147251E+02 -0.23806245489E+01  0.10967642038E+02  0.51100000000E-03 0.  1.
        -12    1    3    3    0    0  0.34811180090E+02  0.26335026370E+02  0.36170371396E+01  0.43799940991E+02  0.00000000000E+00 0.  1.
</event>
<event>
 7    1  0.3276565E-015  0.9000776E+02  0.7816164E-02  0.1186339E+00
        -11   -1    0    0    0    0  0.00000000000E+00  0.00000000000E+00  0.45593999997E+02  0.45594000000E+02  0.51100000000E-03 0.  1.
         11   -1    0    0    0    0 -0.00000000000E+00 -0.00000000000E+00 -0.45593999997E+02  0.45594000000E+02  0.51100000000E-03 0. -1.
    9900012    2    1    2    0    0 -0.47846849472E+00 -0.69535508498E+00  0.82493637363E+00  0.90007758154E+02  0.90000019762E+02 0.  0.
         12    1    1    2    0    0  0.47846849472E+00  0.69535508498E+00 -0.82493637363E+00  0.11802418461E+01  0.00000000000E+00 0. -1.
         11    1    3    3    0    0 -0.99386212975E+01  0.16402788973E+02 -0.35280779689E+02  0.40156706727E+02  0.51100000000E-03 0. -1.
        -11    1    3    3    0    0 -0.25934871687E+01 -0.88813637314E+01 -0.16291145667E+01  0.93946161155E+01  0.51100000000E-03 0.  1.
        -12    1    3    3    0    0  0.12053639972E+02 -0.82167803266E+01  0.37734830630E+02  0.40456435312E+02  0.00000000000E+00 0.  1.
</event>
<event>
 7    1  0.4142924E-015  0.9000773E+02  0.7816164E-02  0.1186339E+00
        -11   -1    0    0    0    0  0.00000000000E+00  0.00000000000E+00  0.45593999997E+02  0.45594000000E+02  0.51100000000E-03 0. -1.
         11   -1    0    0    0    0 -0.00000000000E+00 -0.00000000000E+00 -0.45593999997E+02  0.45594000000E+02  0.51100000000E-03 0.  1.
    9900012    2    1    2    0    0  0.68528915372E+00 -0.67880187153E+00 -0.68018783869E+00  0.90007725159E+02  0.89999986331E+02 0.  0.
         12    1    1    2    0    0 -0.68528915372E+00  0.67880187153E+00  0.68018783869E+00  0.11802748413E+01  0.00000000000E+00 0. -1.
         11    1    3    3    0    0 -0.48863121829E+01 -0.77020555396E+01  0.40821484154E+00  0.91304077621E+01  0.51100000000E-03 0. -1.
        -11    1    3    3    0    0 -0.58969302789E+01 -0.31638662066E+02 -0.18309398910E+02  0.37027190182E+02  0.51100000000E-03 0.  1.
         12    1    3    3    0    0  0.11468531615E+02  0.38661915734E+02  0.17220996229E+02  0.43850127215E+02  0.00000000000E+00 0. -1.
</event>
<event>
 7    1  0.3276565E-015  0.9000775E+02  0.7816164E-02  0.1186339E+00
        -11   -1    0    0    0    0  0.00000000000E+00  0.00000000000E+00  0.45593999997E+02  0.45594000000E+02  0.51100000000E-03 0.  1.
         11   -1    0    0    0    0 -0.00000000000E+00 -0.00000000000E+00 -0.45593999997E+02  0.45594000000E+02  0.51100000000E-03 0. -1.
    9900012    2    1    2    0    0 -0.32829294553E+00  0.50820628447E+00  0.10133767240E+01  0.90007753301E+02  0.90000014845E+02 0.  0.
         12    1    1    2    0    0  0.32829294553E+00 -0.50820628447E+00 -0.10133767240E+01  0.11802466990E+01  0.00000000000E+00 0. -1.
         11    1    3    3    0    0 -0.41368906276E+02 -0.87242106309E+01  0.55970054605E+01  0.42647681390E+02  0.51100000000E-03 0. -1.
        -11    1    3    3    0    0  0.28935114055E+01  0.84936826643E+01 -0.48140883929E+00  0.89859227788E+01  0.51100000000E-03 0.  1.
        -12    1    3    3    0    0  0.38147101924E+02  0.73873425108E+00 -0.41022198972E+01  0.38374149132E+02  0.00000000000E+00 0.  1.
</event>
<event>
 7    1  0.3276565E-015  0.9000773E+02  0.7816164E-02  0.1186339E+00
        -11   -1    0    0    0    0  0.00000000000E+00  0.00000000000E+00  0.45593999997E+02  0.45594000000E+02  0.51100000000E-03 0.  1.
         11   -1    0    0    0    0 -0.00000000000E+00 -0.00000000000E+00 -0.45593999997E+02  0.45594000000E+02  0.51100000000E-03 0. -1.
    9900012    2    1    2    0    0  0.10850180100E+01 -0.46144008669E+00 -0.53291144151E-01  0.90007732665E+02  0.89999993936E+02 0.  0.
         12    1    1    2    0    0 -0.10850180100E+01  0.46144008669E+00  0.53291144151E-01  0.11802673349E+01  0.00000000000E+00 0. -1.
         11    1    3    3    0    0  0.12157862315E+01 -0.88759360144E+01 -0.16666668070E+01  0.91125273552E+01  0.51100000000E-03 0. -1.
        -11    1    3    3    0    0  0.33107334553E+02  0.26944343615E+02  0.32181515541E+01  0.42807122699E+02  0.51100000000E-03 0.  1.
         12    1    3    3    0    0 -0.33238102774E+02 -0.18529847688E+02 -0.16047758913E+01  0.38088082611E+02  0.00000000000E+00 0. -1.
</event>
<event>
 7    1  0.3276565E-015  0.9000770E+02  0.7816164E-02  0.1186339E+00
        -11   -1    0    0    0    0  0.00000000000E+00  0.00000000000E+00  0.45593999997E+02  0.45594000000E+02  0.51100000000E-03 0. -1.
         11   -1    0    0    0    0 -0.00000000000E+00 -0.00000000000E+00 -0.45593999997E+02  0.45594000000E+02  0.51100000000E-03 0.  1.
    9900012    2    1    2    0    0 -0.49029653068E-01 -0.11791619917E+01 -0.16843757280E-01  0.90007698928E+02  0.89999959753E+02 0.  0.
         12    1    1    2    0    0  0.49029653068E-01  0.11791619917E+01  0.16843757280E-01  0.11803010724E+01  0.00000000000E+00 0. -1.
         11    1    3    3    0    0  0.15319683738E+01 -0.80960436870E+01 -0.13508992111E+02  0.15823581092E+02  0.51100000000E-03 0. -1.
        -11    1    3    3    0    0  0.14119335246E+02  0.34311603234E+02 -0.52392746445E+01  0.37471212194E+02  0.51100000000E-03 0.  1.
         12    1    3    3    0    0 -0.15700333273E+02 -0.27394721538E+02  0.18731422998E+02  0.36712905641E+02  0.00000000000E+00 0. -1.
</event>
<event>
 7    1  0.3276565E-015  0.9000773E+02  0.7816164E-02  0.1186339E+00
        -11   -1    0    0    0    0  0.00000000000E+00  0.00000000000E+00  0.45593999997E+02  0.45594000000E+02  0.51100000000E-03 0.  1.
         11   -1    0    0    0    0 -0.00000000000E+00 -0.00000000000E+00 -0.45593999997E+02  0.45594000000E+02  0.51100000000E-03 0. -1.
    9900012    2    1    2    0    0  0.56432544575E+00 -0.32722472724E+00  0.98361176127E+00  0.90007732519E+02  0.89999993788E+02 0.  0.
         12    1    1    2    0    0 -0.56432544575E+00  0.32722472724E+00 -0.98361176127E+00  0.11802674814E+01  0.00000000000E+00 0. -1.
         11    1    3    3    0    0  0.26050492101E+02  0.20379328717E+02 -0.13091900216E+02  0.35571660478E+02  0.51100000000E-03 0. -1.
        -11    1    3    3    0    0  0.15933247969E+01  0.32841204858E+01 -0.10223225575E+02  0.10855343048E+02  0.51100000000E-03 0.  1.
        -12    1    3    3    0    0 -0.27079491452E+02 -0.23990673930E+02  0.24298737552E+02  0.43580728993E+02  0.00000000000E+00 0.  1.
</event>
<event>
 7    1  0.3276565E-015  0.9000772E+02  0.7816164E-02  0.1186339E+00
        -11   -1    0    0    0    0  0.00000000000E+00  0.00000000000E+00  0.45593999997E+02  0.45594000000E+02  0.51100000000E-03 0. -1.
         11   -1    0    0    0    0 -0.00000000000E+00 -0.00000000000E+00 -0.45593999997E+02  0.45594000000E+02  0.51100000000E-03 0.  1.
    9900012    2    1    2    0    0  0.59911155301E+00  0.11669788168E-01 -0.10168515911E+01  0.90007721221E+02  0.89999982341E+02 0.  0.
         12    1    1    2    0    0 -0.59911155301E+00 -0.11669788168E-01  0.10168515911E+01  0.11802787786E+01  0.00000000000E+00 0. -1.
         11    1    3    3    0    0  0.15809071732E+02 -0.25134321416E+02  0.21161674079E+02  0.36461998192E+02  0.51100000000E-03 0. -1.
        -11    1    3    3    0    0  0.82916909734E+01 -0.42386211219E+01  0.97915091610E+00  0.93635882540E+01  0.51100000000E-03 0.  1.
        -12    1    3    3    0    0 -0.23501651153E+02  0.29384612326E+02 -0.23157676586E+02  0.44182134775E+02  0.00000000000E+00 0.  1.
</event>
<event>
 7    1  0.3276565E-015  0.9000758E+02  0.7816164E-02  0.1186339E+00
        -11   -1    0    0    0    0  0.00000000000E+00  0.00000000000E+00  0.45593999997E+02  0.45594000000E+02  0.51100000000E-03 0.  1.
         11   -1    0    0    0    0 -0.00000000000E+00 -0.00000000000E+00 -0.45593999997E+02  0.45594000000E+02  0.51100000000E-03 0. -1.
    9900012    2    1    2    0    0 -0.49280947583E+00 -0.44456958841E+00  0.97616564776E+00  0.90007575216E+02  0.89999834409E+02 0.  0.
         12    1    1    2    0    0  0.49280947583E+00  0.44456958841E+00 -0.97616564776E+00  0.11804247838E+01  0.00000000000E+00 0. -1.
         11    1    3    3    0    0  0.25691056134E+02 -0.21434098195E+02  0.16256583289E+02  0.37198486948E+02  0.51100000000E-03 0. -1.
        -11    1    3    3    0    0  0.85971114176E+01 -0.19978283512E+01 -0.34001990910E+01  0.94584880909E+01  0.51100000000E-03 0.  1.
        -12    1    3    3    0    0 -0.34780977028E+02  0.22987356958E+02 -0.11880218551E+02  0.43350600177E+02  0.00000000000E+00 0.  1.
</event>
<event>
 7    1  0.3276565E-015  0.9000761E+02  0.7816164E-02  0.1186339E+00
        -11   -1    0    0    0    0  0.00000000000E+00  0.00000000000E+00  0.45593999997E+02  0.45594000000E+02  0.51100000000E-03 0.  1.
         11   -1    0    0    0    0 -0.00000000000E+00 -0.00000000000E+00 -0.45593999997E+02  0.45594000000E+02  0.51100000000E-03 0. -1.
    9900012    2    1    2    0    0  0.16199907377E+00  0.10300270101E+01  0.55327787452E+00  0.90007612035E+02  0.89999871714E+02 0.  0.
         12    1    1    2    0    0 -0.16199907377E+00 -0.10300270101E+01 -0.55327787452E+00  0.11803879650E+01  0.00000000000E+00 0. -1.
         11    1    3    3    0    0 -0.69369032539E+01  0.54452155467E+01  0.56156510359E+01  0.10454976610E+02  0.51100000000E-03 0. -1.
        -11    1    3    3    0    0  0.33024836773E+01  0.67212159777E+01  0.36034641499E+02  0.36804572146E+02  0.51100000000E-03 0.  1.
         12    1    3    3    0    0  0.37964186503E+01 -0.11136404514E+02 -0.41097014660E+02  0.42748063278E+02  0.00000000000E+00 0. -1.
</event>
<event>
 7    1  0.3276565E-015  0.9000757E+02  0.7816164E-02  0.1186339E+00
        -11   -1    0    0    0    0  0.00000000000E+00  0.00000000000E+00  0.45593999997E+02  0.45594000000E+02  0.51100000000E-03 0.  1.
         11   -1    0    0    0    0 -0.00000000000E+00 -0.00000000000E+00 -0.45593999997E+02  0.45594000000E+02  0.51100000000E-03 0. -1.
    9900012    2    1    2    0    0 -0.62410715485E+00  0.88746502348E+00 -0.46510056984E+00  0.90007566839E+02  0.89999825921E+02 0.  0.
         12    1    1    2    0    0  0.62410715485E+00 -0.88746502348E+00  0.46510056984E+00  0.11804331615E+01  0.00000000000E+00 0. -1.
         11    1    3    3    0    0 -0.20892945032E+02  0.34561525746E+02 -0.23335148359E+01  0.40453176708E+02  0.51100000000E-03 0. -1.
        -11    1    3    3    0    0  0.26787193895E+01  0.11476082515E+01 -0.86675976994E+01  0.91443858408E+01  0.51100000000E-03 0.  1.
        -12    1    3    3    0    0  0.17590118487E+02 -0.34821668974E+02  0.10536011965E+02  0.40410004290E+02  0.00000000000E+00 0.  1.
</event>
<event>
 7    1  0.3276565E-015  0.9000780E+02  0.7816164E-02  0.1186339E+00
        -11   -1    0    0    0    0  0.00000000000E+00  0.00000000000E+00  0.45593999997E+02  0.45594000000E+02  0.51100000000E-03 0.  1.
         11   -1    0    0    0    0 -0.00000000000E+00 -0.00000000000E+00 -0.45593999997E+02  0.45594000000E+02  0.51100000000E-03 0. -1.
    9900012    2    1    2    0    0 -0.38106464740E+00  0.98297484339E+00 -0.53048360134E+00  0.90007803974E+02  0.90000066187E+02 0.  0.
         12    1    1    2    0    0  0.38106464740E+00 -0.98297484339E+00  0.53048360134E+00  0.11801960259E+01  0.00000000000E+00 0. -1.
         11    1    3    3    0    0  0.15009610876E+01 -0.33106698562E+02  0.22982203082E+02  0.40329741291E+02  0.51100000000E-03 0. -1.
        -11    1    3    3    0    0  0.76122004902E+01 -0.65249032595E+00 -0.54622060034E+01  0.93918600188E+01  0.51100000000E-03 0.  1.
        -12    1    3    3    0    0 -0.94942262252E+01  0.34742163731E+02 -0.18050480680E+02  0.40286202664E+02  0.00000000000E+00 0.  1.
</event>
<event>
 7    1  0.5904599E-015  0.9000773E+02  0.7816164E-02  0.1186339E+00
        -11   -1    0    0    0    0  0.00000000000E+00  0.00000000000E+00  0.45593999997E+02  0.45594000000E+02  0.51100000000E-03 0. -1.
         11   -1    0    0    0    0 -0.00000000000E+00 -0.00000000000E+00 -0.45593999997E+02  0.45594000000E+02  0.51100000000E-03 0.  1.
    9900012    2    1    2    0    0 -0.84799538581E-01 -0.29191350939E+00 -0.11404550580E+01  0.90007727914E+02  0.89999989122E+02 0.  0.
         12    1    1    2    0    0  0.84799538581E-01  0.29191350939E+00  0.11404550580E+01  0.11802720865E+01  0.00000000000E+00 0. -1.
         11    1    3    3    0    0  0.77917485311E+01 -0.68324870230E+00 -0.51827415634E+01  0.93829091617E+01  0.51100000000E-03 0. -1.
        -11    1    3    3    0    0  0.40781070531E+01  0.30545680314E+02 -0.22951552845E+02  0.38424514587E+02  0.51100000000E-03 0.  1.
         12    1    3    3    0    0 -0.11954655123E+02 -0.30154345121E+02  0.26993839350E+02  0.42200304165E+02  0.00000000000E+00 0. -1.
</event>
<event>
 7    1  0.3276565E-015  0.9000769E+02  0.7816164E-02  0.1186339E+00
        -11   -1    0    0    0    0  0.00000000000E+00  0.00000000000E+00  0.45593999997E+02  0.45594000000E+02  0.51100000000E-03 0. -1.
         11   -1    0    0    0    0 -0.00000000000E+00 -0.00000000000E+00 -0.45593999997E+02  0.45594000000E+02  0.51100000000E-03 0.  1.
    9900012    2    1    2    0    0 -0.13485359738E+00 -0.11468778856E+01  0.24418597034E+00  0.90007685989E+02  0.89999946644E+02 0.  0.
         12    1    1    2    0    0  0.13485359738E+00  0.11468778856E+01 -0.24418597034E+00  0.11803140114E+01  0.00000000000E+00 0. -1.
         11    1    3    3    0    0  0.20887227271E+02  0.31666298295E+02 -0.26239289650E+01  0.38025198412E+02  0.51100000000E-03 0. -1.
        -11    1    3    3    0    0  0.76514296553E+00  0.36558456456E+01  0.83514500915E+01  0.91486266747E+01  0.51100000000E-03 0.  1.
        -12    1    3    3    0    0 -0.21787223834E+02 -0.36469021826E+02 -0.54833351561E+01  0.42833860902E+02  0.00000000000E+00 0.  1.
</event>
<event>
 7    1  0.3276565E-015  0.9000765E+02  0.7816164E-02  0.1186339E+00
        -11   -1    0    0    0    0  0.00000000000E+00  0.00000000000E+00  0.45593999997E+02  0.45594000000E+02  0.51100000000E-03 0.  1.
         11   -1    0    0    0    0 -0.00000000000E+00 -0.00000000000E+00 -0.45593999997E+02  0.45594000000E+02  0.51100000000E-03 0. -1.
    9900012    2    1    2    0    0 -0.52292464005E+00  0.54315173229E+00  0.90816104431E+00  0.90007652396E+02  0.89999912608E+02 0.  0.
         12    1    1    2    0    0  0.52292464005E+00 -0.54315173229E+00 -0.90816104431E+00  0.11803476038E+01  0.00000000000E+00 0. -1.
         11    1    3    3    0    0  0.35698262369E+01 -0.17583688362E+02 -0.70055332748E+01  0.19261548549E+02  0.51100000000E-03 0. -1.
        -11    1    3    3    0    0  0.24687333011E+02  0.18769679523E+02  0.22653155540E+02  0.38404826999E+02  0.51100000000E-03 0.  1.
         12    1    3    3    0    0 -0.28780083888E+02 -0.64283942929E+00 -0.14739461221E+02  0.32341276849E+02  0.00000000000E+00 0. -1.
</event>
<event>
 7    1  0.3276565E-015  0.9000779E+02  0.7816164E-02  0.1186339E+00
        -11   -1    0    0    0    0  0.00000000000E+00  0.00000000000E+00  0.45593999997E+02  0.45594000000E+02  0.51100000000E-03 0.  1.
         11   -1    0    0    0    0 -0.00000000000E+00 -0.00000000000E+00 -0.45593999997E+02  0.45594000000E+02  0.51100000000E-03 0. -1.
    9900012    2    1    2    0    0  0.11551121883E+01  0.24137141804E+00 -0.18466753340E-01  0.90007794361E+02  0.90000056447E+02 0.  0.
         12    1    1    2    0    0 -0.11551121883E+01 -0.24137141804E+00  0.18466753340E-01  0.11802056389E+01  0.00000000000E+00 0. -1.
         11    1    3    3    0    0  0.41707523069E+01  0.11344942357E+02 -0.23934164208E+01  0.12321985811E+02  0.51100000000E-03 0. -1.
        -11    1    3    3    0    0 -0.33899577438E+01  0.32987829885E+02  0.48948908069E+01  0.33520869474E+02  0.51100000000E-03 0.  1.
         12    1    3    3    0    0  0.37431762521E+00 -0.44091400824E+02 -0.25199411394E+01  0.44164939077E+02  0.00000000000E+00 0. -1.
</event>
<event>
 7    1  0.3276565E-015  0.9000775E+02  0.7816164E-02  0.1186339E+00
        -11   -1    0    0    0    0  0.00000000000E+00  0.00000000000E+00  0.45593999997E+02  0.45594000000E+02  0.51100000000E-03 0. -1.
         11   -1    0    0    0    0 -0.00000000000E+00 -0.00000000000E+00 -0.45593999997E+02  0.45594000000E+02  0.51100000000E-03 0.  1.
    9900012    2    1    2    0    0 -0.54153868841E+00 -0.91115667095E+00 -0.51915276923E+00  0.90007749930E+02  0.90000011429E+02 0.  0.
         12    1    1    2    0    0  0.54153868841E+00  0.91115667095E+00  0.51915276923E+00  0.11802500701E+01  0.00000000000E+00 0. -1.
         11    1    3    3    0    0  0.17822297210E+02  0.34380462276E+02  0.87437898088E+00  0.38735190757E+02  0.51100000000E-03 0. -1.
        -11    1    3    3    0    0  0.19050272383E+01 -0.18875023122E+01  0.10175753818E+02  0.10523201024E+02  0.51100000000E-03 0.  1.
        -12    1    3    3    0    0 -0.20268863137E+02 -0.33404116634E+02 -0.11569285568E+02  0.40749358149E+02  0.00000000000E+00 0.  1.
</event>
<event>
 7    1  0.3276565E-015  0.9000769E+02  0.7816164E-02  0.1186339E+00
        -11   -1    0    0    0    0  0.00000000000E+00  0.00000000000E+00  0.45593999997E+02  0.45594000000E+02  0.51100000000E-03 0. -1.
         11   -1    0    0    0    0 -0.00000000000E+00 -0.00000000000E+00 -0.45593999997E+02  0.45594000000E+02  0.51100000000E-03 0.  1.
    9900012    2    1    2    0    0  0.39376917165E-01 -0.94097281131E-01 -0.11758891195E+01  0.90007694929E+02  0.89999955702E+02 0.  0.
         12    1    1    2    0    0 -0.39376917165E-01  0.94097281131E-01  0.11758891195E+01  0.11803050713E+01  0.00000000000E+00 0. -1.
         11    1    3    3    0    0  0.89692926476E+01 -0.38188600382E+02  0.11967812875E+02  0.41012753565E+02  0.51100000000E-03 0. -1.
        -11    1    3    3    0    0  0.75150289391E+01  0.59619491516E+01  0.20867726947E+01  0.98170829772E+01  0.51100000000E-03 0.  1.
        -12    1    3    3    0    0 -0.16444944669E+02  0.32132553949E+02 -0.15230474689E+02  0.39177858386E+02  0.00000000000E+00 0.  1.
</event>
<event>
 7    1  0.3276565E-015  0.9000768E+02  0.7816164E-02  0.1186339E+00
        -11   -1    0    0    0    0  0.00000000000E+00  0.00000000000E+00  0.45593999997E+02  0.45594000000E+02  0.51100000000E-03 0.  1.
         11   -1    0    0    0    0 -0.00000000000E+00 -0.00000000000E+00 -0.45593999997E+02  0.45594000000E+02  0.51100000000E-03 0. -1.
    9900012    2    1    2    0    0  0.92318551169E+00  0.71170591096E+00 -0.18538261083E+00  0.90007676525E+02  0.89999937055E+02 0.  0.
         12    1    1    2    0    0 -0.92318551169E+00 -0.71170591096E+00  0.18538261083E+00  0.11803234748E+01  0.00000000000E+00 0. -1.
         11    1    3    3    0    0 -0.25474399487E+02 -0.28689488978E+02  0.12886276420E+01  0.38388701052E+02  0.51100000000E-03 0. -1.
        -11    1    3    3    0    0  0.36033666014E+01 -0.59049072649E+01  0.57281846152E+01  0.89813295184E+01  0.51100000000E-03 0.  1.
        -12    1    3    3    0    0  0.22794218397E+02  0.35306102154E+02 -0.72021948680E+01  0.42637645955E+02  0.00000000000E+00 0.  1.
</event>
<event>
 7    1  0.3276565E-015  0.9000751E+02  0.7816164E-02  0.1186339E+00
        -11   -1    0    0    0    0  0.00000000000E+00  0.00000000000E+00  0.45593999997E+02  0.45594000000E+02  0.51100000000E-03 0.  1.
         11   -1    0    0    0    0 -0.00000000000E+00 -0.00000000000E+00 -0.45593999997E+02  0.45594000000E+02  0.51100000000E-03 0. -1.
    9900012    2    1    2    0    0 -0.25653612484E+00  0.95538490901E+00  0.64418949092E+00  0.90007512301E+02  0.89999770663E+02 0.  0.
         12    1    1    2    0    0  0.25653612484E+00 -0.95538490901E+00 -0.64418949092E+00  0.11804876992E+01  0.00000000000E+00 0. -1.
         11    1    3    3    0    0  0.85427336009E+01  0.42532025700E+01  0.72992990275E+01  0.12014482762E+02  0.51100000000E-03 0. -1.
        -11    1    3    3    0    0 -0.10193005133E+02  0.36034196274E+02  0.26816144359E+01  0.37543997003E+02  0.51100000000E-03 0.  1.
         12    1    3    3    0    0  0.13937354076E+01 -0.39332013935E+02 -0.93367239725E+01  0.40449032536E+02  0.00000000000E+00 0. -1.
</event>
<event>
 7    1  0.3276565E-015  0.9000761E+02  0.7816164E-02  0.1186339E+00
        -11   -1    0    0    0    0  0.00000000000E+00  0.00000000000E+00  0.45593999997E+02  0.45594000000E+02  0.51100000000E-03 0. -1.
         11   -1    0    0    0    0 -0.00000000000E+00 -0.00000000000E+00 -0.45593999997E+02  0.45594000000E+02  0.51100000000E-03 0.  1.
    9900012    2    1    2    0    0 -0.11094932304E+01 -0.35525663605E+00 -0.19009902544E+00  0.90007610172E+02  0.89999869826E+02 0.  0.
         12    1    1    2    0    0  0.11094932304E+01  0.35525663605E+00  0.19009902544E+00  0.11803898277E+01  0.00000000000E+00 0. -1.
         11    1    3    3    0    0  0.17980356177E+01 -0.38305138549E+01 -0.60779864329E+01  0.74059224824E+01  0.51100000000E-03 0. -1.
        -11    1    3    3    0    0  0.39248345861E+02 -0.29227199403E+01 -0.12136466729E+01  0.39375727081E+02  0.51100000000E-03 0.  1.
         12    1    3    3    0    0 -0.42155874709E+02  0.63979771592E+01  0.71015340804E+01  0.43225960608E+02  0.00000000000E+00 0. -1.
</event>
<event>
 7    1  0.3276565E-015  0.9000776E+02  0.7816164E-02  0.1186339E+00
        -11   -1    0    0    0    0  0.00000000000E+00  0.00000000000E+00  0.45593999997E+02  0.45594000000E+02  0.51100000000E-03 0.  1.
         11   -1    0    0    0    0 -0.00000000000E+00 -0.00000000000E+00 -0.45593999997E+02  0.45594000000E+02  0.51100000000E-03 0. -1.
    9900012    2    1    2    0    0 -0.25853877302E+00 -0.11474343240E+01 -0.97601044099E-01  0.90007756894E+02  0.90000018485E+02 0.  0.
         12    1    1    2    0    0  0.25853877302E+00  0.11474343240E+01  0.97601044099E-01  0.11802431058E+01  0.00000000000E+00 0. -1.
         11    1    3    3    0    0  0.12825028376E+02  0.16710345449E+02 -0.12114669620E+02  0.24299839879E+02  0.51100000000E-03 0. -1.
        -11    1    3    3    0    0  0.44368977644E+01 -0.35188088835E+02 -0.49184235992E+01  0.35806124457E+02  0.51100000000E-03 0.  1.
         12    1    3    3    0    0 -0.17520464913E+02  0.17330309062E+02  0.16935492176E+02  0.29901792558E+02  0.00000000000E+00 0. -1.
</event>
<event>
 7    1  0.3276565E-015  0.9000774E+02  0.7816164E-02  0.1186339E+00
        -11   -1    0    0    0    0  0.00000000000E+00  0.00000000000E+00  0.45593999997E+02  0.45594000000E+02  0.51100000000E-03 0. -1.
         11   -1    0    0    0    0 -0.00000000000E+00 -0.00000000000E+00 -0.45593999997E+02  0.45594000000E+02  0.51100000000E-03 0.  1.
    9900012    2    1    2    0    0  0.30087662588E+00 -0.97312914410E+00 -0.59624903334E+00  0.90007737324E+02  0.89999998656E+02 0.  0.
         12    1    1    2    0    0 -0.30087662588E+00  0.97312914410E+00  0.59624903334E+00  0.11802626762E+01  0.00000000000E+00 0. -1.
         11    1    3    3    0    0 -0.33352259865E+01 -0.72871618017E+01 -0.77694498068E+01  0.11162025357E+02  0.51100000000E-03 0. -1.
        -11    1    3    3    0    0  0.16035311234E+02  0.10759710476E+02 -0.32078730470E+02  0.37442589717E+02  0.51100000000E-03 0.  1.
         12    1    3    3    0    0 -0.12399208622E+02 -0.44456778185E+01  0.39251931243E+02  0.41403122250E+02  0.00000000000E+00 0. -1.
</event>
<event>
 7    1  0.3276565E-015  0.9000803E+02  0.7816164E-02  0.1186338E+00
        -11   -1    0    0    0    0  0.00000000000E+00  0.00000000000E+00  0.45593999997E+02  0.45594000000E+02  0.51100000000E-03 0. -1.
         11   -1    0    0    0    0 -0.00000000000E+00 -0.00000000000E+00 -0.45593999997E+02  0.45594000000E+02  0.51100000000E-03 0.  1.
    9900012    2    1    2    0    0 -0.10173803664E+01 -0.15432156112E+00  0.57744821612E+00  0.90008032036E+02  0.90000297258E+02 0.  0.
         12    1    1    2    0    0  0.10173803664E+01  0.15432156112E+00 -0.57744821612E+00  0.11799679642E+01  0.00000000000E+00 0. -1.
         11    1    3    3    0    0 -0.36149668121E+01  0.65022212386E+01  0.59841939966E+01  0.95476407629E+01  0.51100000000E-03 0. -1.
        -11    1    3    3    0    0  0.26437672560E+02 -0.24625601203E+02  0.19967299486E+02  0.41280307824E+02  0.51100000000E-03 0.  1.
         12    1    3    3    0    0 -0.23840086114E+02  0.17969058403E+02 -0.25374045267E+02  0.39180083449E+02  0.00000000000E+00 0. -1.
</event>
<event>
 7    1  0.3276565E-015  0.9000772E+02  0.7816164E-02  0.1186339E+00
        -11   -1    0    0    0    0  0.00000000000E+00  0.00000000000E+00  0.45593999997E+02  0.45594000000E+02  0.51100000000E-03 0.  1.
         11   -1    0    0    0    0 -0.00000000000E+00 -0.00000000000E+00 -0.45593999997E+02  0.45594000000E+02  0.51100000000E-03 0. -1.
    9900012    2    1    2    0    0 -0.22568847314E+00 -0.10245799654E+01 -0.54070524083E+00  0.90007719716E+02  0.89999980816E+02 0.  0.
         12    1    1    2    0    0  0.22568847314E+00  0.10245799654E+01  0.54070524083E+00  0.11802802845E+01  0.00000000000E+00 0. -1.
         11    1    3    3    0    0 -0.10477989864E+02  0.67938586070E+01  0.28658539113E+01  0.12812412157E+02  0.51100000000E-03 0. -1.
        -11    1    3    3    0    0 -0.27092142536E+02 -0.47625035898E+01  0.19097879296E+02  0.33487230723E+02  0.51100000000E-03 0.  1.
         12    1    3    3    0    0  0.37344443927E+02 -0.30559349826E+01 -0.22504438448E+02  0.43708076836E+02  0.00000000000E+00 0. -1.
</event>
<event>
 7    1  0.4690661E-015  0.9000773E+02  0.7816164E-02  0.1186339E+00
        -11   -1    0    0    0    0  0.00000000000E+00  0.00000000000E+00  0.45593999997E+02  0.45594000000E+02  0.51100000000E-03 0.  1.
         11   -1    0    0    0    0 -0.00000000000E+00 -0.00000000000E+00 -0.45593999997E+02  0.45594000000E+02  0.51100000000E-03 0. -1.
    9900012    2    1    2    0    0  0.73485000032E+00  0.26483626855E+00  0.88481691746E+00  0.90007727256E+02  0.89999988456E+02 0.  0.
         12    1    1    2    0    0 -0.73485000032E+00 -0.26483626855E+00 -0.88481691746E+00  0.11802727437E+01  0.00000000000E+00 0. -1.
         11    1    3    3    0    0 -0.47641679315E+01 -0.80246365324E+01 -0.31083427310E+01  0.98363551355E+01  0.51100000000E-03 0. -1.
        -11    1    3    3    0    0 -0.29406278447E+02 -0.31471776614E+01  0.24231703931E+02  0.38233616295E+02  0.51100000000E-03 0.  1.
         12    1    3    3    0    0  0.34905296378E+02  0.11436650462E+02 -0.20238544282E+02  0.41937755826E+02  0.00000000000E+00 0. -1.
</event>
<event>
 7    1  0.3276565E-015  0.9000784E+02  0.7816164E-02  0.1186339E+00
        -11   -1    0    0    0    0  0.00000000000E+00  0.00000000000E+00  0.45593999997E+02  0.45594000000E+02  0.51100000000E-03 0. -1.
         11   -1    0    0    0    0 -0.00000000000E+00 -0.00000000000E+00 -0.45593999997E+02  0.45594000000E+02  0.51100000000E-03 0.  1.
    9900012    2    1    2    0    0  0.13342082968E+00  0.18907603886E+00 -0.11572509543E+01  0.90007838724E+02  0.90000101395E+02 0.  0.
         12    1    1    2    0    0 -0.13342082968E+00 -0.18907603886E+00  0.11572509543E+01  0.11801612760E+01  0.00000000000E+00 0. -1.
         11    1    3    3    0    0 -0.37698138773E+01 -0.70398718134E+01 -0.37415544500E+01  0.88187596510E+01  0.51100000000E-03 0. -1.
        -11    1    3    3    0    0 -0.35124694679E+02  0.36186509634E+01 -0.14832036309E+02  0.38299192060E+02  0.51100000000E-03 0.  1.
         12    1    3    3    0    0  0.39027929386E+02  0.36102968889E+01  0.17416339805E+02  0.42889887013E+02  0.00000000000E+00 0. -1.
</event>
<event>
 7    1  0.3276565E-015  0.9000776E+02  0.7816164E-02  0.1186339E+00
        -11   -1    0    0    0    0  0.00000000000E+00  0.00000000000E+00  0.45593999997E+02  0.45594000000E+02  0.51100000000E-03 0. -1.
         11   -1    0    0    0    0 -0.00000000000E+00 -0.00000000000E+00 -0.45593999997E+02  0.45594000000E+02  0.51100000000E-03 0.  1.
    9900012    2    1    2    0    0 -0.35703400109E+00 -0.62832840060E+00 -0.93311361476E+00  0.90007758129E+02  0.90000019736E+02 0.  0.
         12    1    1    2    0    0  0.35703400109E+00  0.62832840060E+00  0.93311361476E+00  0.11802418714E+01  0.00000000000E+00 0. -1.
         11    1    3    3    0    0  0.49855426494E+01  0.59047292643E+01 -0.14713539089E+02  0.16619557635E+02  0.51100000000E-03 0. -1.
        -11    1    3    3    0    0 -0.14520046337E+02  0.24596147078E+02 -0.12933285372E+02  0.31353980090E+02  0.51100000000E-03 0.  1.
         12    1    3    3    0    0  0.91774696865E+01 -0.31129204743E+02  0.26713710846E+02  0.42034220404E+02  0.00000000000E+00 0. -1.
</event>
<event>
 7    1  0.3276565E-015  0.9000778E+02  0.7816164E-02  0.1186339E+00
        -11   -1    0    0    0    0  0.00000000000E+00  0.00000000000E+00  0.45593999997E+02  0.45594000000E+02  0.51100000000E-03 0.  1.
         11   -1    0    0    0    0 -0.00000000000E+00 -0.00000000000E+00 -0.45593999997E+02  0.45594000000E+02  0.51100000000E-03 0. -1.
    9900012    2    1    2    0    0  0.73486969040E+00  0.60999527658E+00  0.69339738565E+00  0.90007776448E+02  0.90000038297E+02 0.  0.
         12    1    1    2    0    0 -0.73486969040E+00 -0.60999527658E+00 -0.69339738565E+00  0.11802235524E+01  0.00000000000E+00 0. -1.
         11    1    3    3    0    0  0.26077636764E+02  0.13497516974E+02 -0.24982493366E+02  0.38553223973E+02  0.51100000000E-03 0. -1.
        -11    1    3    3    0    0 -0.73999451241E+01  0.73960275949E+00 -0.80088288993E+01  0.10929205858E+02  0.51100000000E-03 0.  1.
        -12    1    3    3    0    0 -0.17942821950E+02 -0.13627124457E+02  0.33684719651E+02  0.40525346617E+02  0.00000000000E+00 0.  1.
</event>
<event>
 7    1  0.3276565E-015  0.9000775E+02  0.7816164E-02  0.1186339E+00
        -11   -1    0    0    0    0  0.00000000000E+00  0.00000000000E+00  0.45593999997E+02  0.45594000000E+02  0.51100000000E-03 0.  1.
         11   -1    0    0    0    0 -0.00000000000E+00 -0.00000000000E+00 -0.45593999997E+02  0.45594000000E+02  0.51100000000E-03 0. -1.
    9900012    2    1    2    0    0  0.45200277307E+00 -0.99076553214E+00 -0.45505359257E+00  0.90007747223E+02  0.90000008686E+02 0.  0.
         12    1    1    2    0    0 -0.45200277307E+00  0.99076553214E+00  0.45505359257E+00  0.11802527774E+01  0.00000000000E+00 0. -1.
         11    1    3    3    0    0 -0.20427704673E+02 -0.24313074057E+02 -0.26665114990E+02  0.41466191602E+02  0.51100000000E-03 0. -1.
        -11    1    3    3    0    0  0.21444831953E+01 -0.57783471561E+01  0.51142669026E+01  0.80089843453E+01  0.51100000000E-03 0.  1.
        -12    1    3    3    0    0  0.18735224250E+02  0.29100655681E+02  0.21095794495E+02  0.40532571275E+02  0.00000000000E+00 0.  1.
</event>
<event>
 7    1  0.3276565E-015  0.9000803E+02  0.7816164E-02  0.1186338E+00
        -11   -1    0    0    0    0  0.00000000000E+00  0.00000000000E+00  0.45593999997E+02  0.45594000000E+02  0.51100000000E-03 0. -1.
         11   -1    0    0    0    0 -0.00000000000E+00 -0.00000000000E+00 -0.45593999997E+02  0.45594000000E+02  0.51100000000E-03 0.  1.
    9900012    2    1    2    0    0 -0.85162186916E+00 -0.49949543852E+00 -0.64619353432E+00  0.90008033227E+02  0.90000298465E+02 0.  0.
         12    1    1    2    0    0  0.85162186916E+00  0.49949543852E+00  0.64619353432E+00  0.11799667728E+01  0.00000000000E+00 0. -1.
         11    1    3    3    0    0 -0.15339513314E+02 -0.33372263749E+02 -0.91370434015E+01  0.37848305363E+02  0.51100000000E-03 0. -1.
        -11    1    3    3    0    0  0.98039084114E+01 -0.21882912365E+01 -0.82753188011E+01  0.13014843072E+02  0.51100000000E-03 0.  1.
        -12    1    3    3    0    0  0.46839830339E+01  0.35061059547E+02  0.16766168668E+02  0.39144884792E+02  0.00000000000E+00 0.  1.
</event>
<event>
 7    1  0.3276565E-015  0.9000788E+02  0.7816164E-02  0.1186339E+00
        -11   -1    0    0    0    0  0.00000000000E+00  0.00000000000E+00  0.45593999997E+02  0.45594000000E+02  0.51100000000E-03 0. -1.
         11   -1    0    0    0    0 -0.00000000000E+00 -0.00000000000E+00 -0.45593999997E+02  0.45594000000E+02  0.51100000000E-03 0.  1.
    9900012    2    1    2    0    0  0.10204679623E+01  0.39479645404E+00 -0.44210203552E+00  0.90007884196E+02  0.90000147467E+02 0.  0.
         12    1    1    2    0    0 -0.10204679623E+01 -0.39479645404E+00  0.44210203552E+00  0.11801158045E+01  0.00000000000E+00 0. -1.
         11    1    3    3    0    0  0.44612415054E+01 -0.33982186119E+00  0.11747889781E+02  0.12571040897E+02  0.51100000000E-03 0. -1.
        -11    1    3    3    0    0  0.35861415512E+02  0.67796837188E+01 -0.29680907951E+01  0.36617138024E+02  0.51100000000E-03 0.  1.
         12    1    3    3    0    0 -0.39302189055E+02 -0.60450654035E+01 -0.92219010216E+01  0.40819705274E+02  0.00000000000E+00 0. -1.
</event>
<event>
 7    1  0.3276565E-015  0.9000775E+02  0.7816164E-02  0.1186339E+00
        -11   -1    0    0    0    0  0.00000000000E+00  0.00000000000E+00  0.45593999997E+02  0.45594000000E+02  0.51100000000E-03 0.  1.
         11   -1    0    0    0    0 -0.00000000000E+00 -0.00000000000E+00 -0.45593999997E+02  0.45594000000E+02  0.51100000000E-03 0. -1.
    9900012    2    1    2    0    0 -0.26089166473E+00  0.84255631907E+00 -0.78423750709E+00  0.90007748298E+02  0.90000009776E+02 0.  0.
         12    1    1    2    0    0  0.26089166473E+00 -0.84255631907E+00  0.78423750709E+00  0.11802517016E+01  0.00000000000E+00 0. -1.
         11    1    3    3    0    0  0.21707098676E+01 -0.73113847276E+01 -0.56535050234E+01  0.94937056661E+01  0.51100000000E-03 0. -1.
        -11    1    3    3    0    0  0.41896548134E+01 -0.34532585102E+02  0.11866208277E+02  0.36754041144E+02  0.51100000000E-03 0.  1.
         12    1    3    3    0    0 -0.66212563456E+01  0.42686526149E+02 -0.69969407608E+01  0.43760001488E+02  0.00000000000E+00 0. -1.
</event>
<event>
 7    1  0.3276565E-015  0.9000775E+02  0.7816164E-02  0.1186339E+00
        -11   -1    0    0    0    0  0.00000000000E+00  0.00000000000E+00  0.45593999997E+02  0.45594000000E+02  0.51100000000E-03 0. -1.
         11   -1    0    0    0    0 -0.00000000000E+00 -0.00000000000E+00 -0.45593999997E+02  0.45594000000E+02  0.51100000000E-03 0.  1.
    9900012    2    1    2    0    0 -0.11768648434E-01  0.11651702340E+01  0.18767396888E+00  0.90007753545E+02  0.90000015092E+02 0.  0.
         12    1    1    2    0    0  0.11768648434E-01 -0.11651702340E+01 -0.18767396888E+00  0.11802464547E+01  0.00000000000E+00 0. -1.
         11    1    3    3    0    0  0.28810917431E+01  0.35235957686E+01  0.10994722015E+02  0.11899593658E+02  0.51100000000E-03 0. -1.
        -11    1    3    3    0    0  0.20384342422E+02 -0.21507267098E+02  0.19413680504E+02  0.35425625541E+02  0.51100000000E-03 0.  1.
         12    1    3    3    0    0 -0.23277202814E+02  0.19148841563E+02 -0.30220728551E+02  0.42682534346E+02  0.00000000000E+00 0. -1.
</event>
<event>
 7    1  0.3276565E-015  0.9000781E+02  0.7816164E-02  0.1186339E+00
        -11   -1    0    0    0    0  0.00000000000E+00  0.00000000000E+00  0.45593999997E+02  0.45594000000E+02  0.51100000000E-03 0.  1.
         11   -1    0    0    0    0 -0.00000000000E+00 -0.00000000000E+00 -0.45593999997E+02  0.45594000000E+02  0.51100000000E-03 0. -1.
    9900012    2    1    2    0    0  0.21403937727E-01  0.11617423045E+01  0.20676925914E+00  0.90007806441E+02  0.90000068686E+02 0.  0.
         12    1    1    2    0    0 -0.21403937727E-01 -0.11617423045E+01 -0.20676925914E+00  0.11801935592E+01  0.00000000000E+00 0. -1.
         11    1    3    3    0    0  0.15975451628E+02  0.21145757317E+02 -0.26744245472E+02  0.37651198830E+02  0.51100000000E-03 0. -1.
        -11    1    3    3    0    0  0.93344650208E+01  0.48530545929E-01 -0.13614270497E+01  0.94333491566E+01  0.51100000000E-03 0.  1.
        -12    1    3    3    0    0 -0.25288512711E+02 -0.20032545558E+02  0.28312441781E+02  0.42923258454E+02  0.00000000000E+00 0.  1.
</event>
<event>
 7    1  0.3276565E-015  0.9000776E+02  0.7816164E-02  0.1186339E+00
        -11   -1    0    0    0    0  0.00000000000E+00  0.00000000000E+00  0.45593999997E+02  0.45594000000E+02  0.51100000000E-03 0. -1.
         11   -1    0    0    0    0 -0.00000000000E+00 -0.00000000000E+00 -0.45593999997E+02  0.45594000000E+02  0.51100000000E-03 0.  1.
    9900012    2    1    2    0    0 -0.59673872061E+00 -0.10146934994E+01 -0.85193022921E-01  0.90007763647E+02  0.90000025327E+02 0.  0.
         12    1    1    2    0    0  0.59673872061E+00  0.10146934994E+01  0.85193022921E-01  0.11802363532E+01  0.00000000000E+00 0. -1.
         11    1    3    3    0    0 -0.26759128340E+02  0.11597968729E+02  0.29322642920E+02  0.41356755388E+02  0.51100000000E-03 0. -1.
        -11    1    3    3    0    0 -0.52325871715E+01 -0.22331008942E+01 -0.41681735751E+01  0.70526859652E+01  0.51100000000E-03 0.  1.
        -12    1    3    3    0    0  0.31394976791E+02 -0.10379561334E+02 -0.25239662368E+02  0.41598322293E+02  0.00000000000E+00 0.  1.
</event>
<event>
 7    1  0.3276565E-015  0.9000776E+02  0.7816164E-02  0.1186339E+00
        -11   -1    0    0    0    0  0.00000000000E+00  0.00000000000E+00  0.45593999997E+02  0.45594000000E+02  0.51100000000E-03 0.  1.
         11   -1    0    0    0    0 -0.00000000000E+00 -0.00000000000E+00 -0.45593999997E+02  0.45594000000E+02  0.51100000000E-03 0. -1.
    9900012    2    1    2    0    0 -0.53316783852E+00  0.93287311201E+00  0.48831915605E+00  0.90007756048E+02  0.90000017628E+02 0.  0.
         12    1    1    2    0    0  0.53316783852E+00 -0.93287311201E+00 -0.48831915605E+00  0.11802439516E+01  0.00000000000E+00 0. -1.
         11    1    3    3    0    0  0.24056699664E+02  0.80763659726E+01 -0.25886596543E+02  0.36250080922E+02  0.51100000000E-03 0. -1.
        -11    1    3    3    0    0  0.98562047103E+01  0.29888770504E+00  0.20561687933E+00  0.98628790783E+01  0.51100000000E-03 0.  1.
        -12    1    3    3    0    0 -0.34446072213E+02 -0.74423805656E+01  0.26169298819E+02  0.43894796048E+02  0.00000000000E+00 0.  1.
</event>
<event>
 7    1  0.3276565E-015  0.9000771E+02  0.7816164E-02  0.1186339E+00
        -11   -1    0    0    0    0  0.00000000000E+00  0.00000000000E+00  0.45593999997E+02  0.45594000000E+02  0.51100000000E-03 0. -1.
         11   -1    0    0    0    0 -0.00000000000E+00 -0.00000000000E+00 -0.45593999997E+02  0.45594000000E+02  0.51100000000E-03 0.  1.
    9900012    2    1    2    0    0  0.85842449647E-01 -0.25483135658E+00 -0.11492456368E+01  0.90007714662E+02  0.89999975695E+02 0.  0.
         12    1    1    2    0    0 -0.85842449647E-01  0.25483135658E+00  0.11492456368E+01  0.11802853384E+01  0.00000000000E+00 0. -1.
         11    1    3    3    0    0 -0.25664565631E+02  0.34524690657E+02 -0.64811449483E+01  0.43504361093E+02  0.51100000000E-03 0. -1.
        -11    1    3    3    0    0  0.16793449212E+01 -0.59836959525E+01  0.64476035541E+01  0.89552447464E+01  0.51100000000E-03 0.  1.
        -12    1    3    3    0    0  0.24071063160E+02 -0.28795826061E+02 -0.11157042425E+01  0.37548108822E+02  0.00000000000E+00 0.  1.
</event>
<event>
 7    1  0.3494637E-015  0.9000774E+02  0.7816164E-02  0.1186339E+00
        -11   -1    0    0    0    0  0.00000000000E+00  0.00000000000E+00  0.45593999997E+02  0.45594000000E+02  0.51100000000E-03 0.  1.
         11   -1    0    0    0    0 -0.00000000000E+00 -0.00000000000E+00 -0.45593999997E+02  0.45594000000E+02  0.51100000000E-03 0. -1.
    9900012    2    1    2    0    0  0.73880803160E+00 -0.74743689990E+00  0.53714583887E+00  0.90007735250E+02  0.89999996556E+02 0.  0.
         12    1    1    2    0    0 -0.73880803160E+00  0.74743689990E+00 -0.53714583887E+00  0.11802647496E+01  0.00000000000E+00 0. -1.
         11    1    3    3    0    0 -0.10170424008E+01  0.57340764656E+01  0.71353115405E+01  0.92101400206E+01  0.51100000000E-03 0. -1.
        -11    1    3    3    0    0 -0.13225734348E+01  0.34602068121E+02  0.10511029932E+02  0.36187484980E+02  0.51100000000E-03 0.  1.
         12    1    3    3    0    0  0.30784238672E+01 -0.41083581486E+02 -0.17109195634E+02  0.44610110249E+02  0.00000000000E+00 0. -1.
</event>
<event>
 7    1  0.3716891E-015  0.9000779E+02  0.7816164E-02  0.1186339E+00
        -11   -1    0    0    0    0  0.00000000000E+00  0.00000000000E+00  0.45593999997E+02  0.45594000000E+02  0.51100000000E-03 0. -1.
         11   -1    0    0    0    0 -0.00000000000E+00 -0.00000000000E+00 -0.45593999997E+02  0.45594000000E+02  0.51100000000E-03 0.  1.
    9900012    2    1    2    0    0  0.22019393850E-01  0.11659804423E+01 -0.18136485857E+00  0.90007793045E+02  0.90000055113E+02 0.  0.
         12    1    1    2    0    0 -0.22019393850E-01 -0.11659804423E+01  0.18136485857E+00  0.11802069554E+01  0.00000000000E+00 0. -1.
         11    1    3    3    0    0  0.19110969659E+01 -0.74329290814E+01  0.59525930232E+01  0.97125738248E+01  0.51100000000E-03 0. -1.
        -11    1    3    3    0    0 -0.22045834583E+02 -0.29483430520E+02 -0.53442793301E+01  0.37200172305E+02  0.51100000000E-03 0.  1.
         12    1    3    3    0    0  0.20156757011E+02  0.38082340043E+02 -0.78967855170E+00  0.43095046915E+02  0.00000000000E+00 0. -1.
</event>
<event>
 7    1  0.3276565E-015  0.9000775E+02  0.7816164E-02  0.1186339E+00
        -11   -1    0    0    0    0  0.00000000000E+00  0.00000000000E+00  0.45593999997E+02  0.45594000000E+02  0.51100000000E-03 0. -1.
         11   -1    0    0    0    0 -0.00000000000E+00 -0.00000000000E+00 -0.45593999997E+02  0.45594000000E+02  0.51100000000E-03 0.  1.
    9900012    2    1    2    0    0 -0.50186823174E+00 -0.37883802870E+00  0.99879556122E+00  0.90007753184E+02  0.90000014726E+02 0.  0.
         12    1    1    2    0    0  0.50186823174E+00  0.37883802870E+00 -0.99879556122E+00  0.11802468162E+01  0.00000000000E+00 0. -1.
         11    1    3    3    0    0  0.30782076471E+02 -0.40525040344E+01  0.31212413867E+02  0.44024695348E+02  0.51100000000E-03 0. -1.
        -11    1    3    3    0    0 -0.90181025618E+01 -0.19819805944E+01 -0.17371738983E+01  0.93953283235E+01  0.51100000000E-03 0.  1.
        -12    1    3    3    0    0 -0.22265842141E+02  0.56556466002E+01 -0.28476444408E+02  0.36587729512E+02  0.00000000000E+00 0.  1.
</event>
<event>
 7    1  0.3276565E-015  0.9000782E+02  0.7816164E-02  0.1186339E+00
        -11   -1    0    0    0    0  0.00000000000E+00  0.00000000000E+00  0.45593999997E+02  0.45594000000E+02  0.51100000000E-03 0. -1.
         11   -1    0    0    0    0 -0.00000000000E+00 -0.00000000000E+00 -0.45593999997E+02  0.45594000000E+02  0.51100000000E-03 0.  1.
    9900012    2    1    2    0    0 -0.36458819079E+00 -0.11081991790E+01  0.17830063720E+00  0.90007821587E+02  0.90000084032E+02 0.  0.
         12    1    1    2    0    0  0.36458819079E+00  0.11081991790E+01 -0.17830063720E+00  0.11801784129E+01  0.00000000000E+00 0. -1.
         11    1    3    3    0    0 -0.67666663924E+01 -0.15426886948E+01  0.13310769631E+01  0.70667834704E+01  0.51100000000E-03 0. -1.
        -11    1    3    3    0    0 -0.97167405194E+01 -0.37330406753E+02 -0.12132779081E+02  0.40437342187E+02  0.51100000000E-03 0.  1.
         12    1    3    3    0    0  0.16118818721E+02  0.37764896269E+02  0.10980002755E+02  0.42503695929E+02  0.00000000000E+00 0. -1.
</event>
<event>
 7    1  0.3276565E-015  0.9000776E+02  0.7816164E-02  0.1186339E+00
        -11   -1    0    0    0    0  0.00000000000E+00  0.00000000000E+00  0.45593999997E+02  0.45594000000E+02  0.51100000000E-03 0. -1.
         11   -1    0    0    0    0 -0.00000000000E+00 -0.00000000000E+00 -0.45593999997E+02  0.45594000000E+02  0.51100000000E-03 0.  1.
    9900012    2    1    2    0    0 -0.10614434733E+01 -0.21680526619E+00 -0.46829378188E+00  0.90007760263E+02  0.90000021899E+02 0.  0.
         12    1    1    2    0    0  0.10614434733E+01  0.21680526619E+00  0.46829378188E+00  0.11802397370E+01  0.00000000000E+00 0. -1.
         11    1    3    3    0    0 -0.56465278153E+01 -0.44090070681E+01 -0.75712986063E+01  0.10423395922E+02  0.51100000000E-03 0. -1.
        -11    1    3    3    0    0 -0.15767809437E+02  0.28517261631E+02 -0.19683561173E+02  0.38069680930E+02  0.51100000000E-03 0.  1.
         12    1    3    3    0    0  0.20352893778E+02 -0.24325059829E+02  0.26786565997E+02  0.41514683412E+02  0.00000000000E+00 0. -1.
</event>
<event>
 7    1  0.3276565E-015  0.9000779E+02  0.7816164E-02  0.1186339E+00
        -11   -1    0    0    0    0  0.00000000000E+00  0.00000000000E+00  0.45593999997E+02  0.45594000000E+02  0.51100000000E-03 0.  1.
         11   -1    0    0    0    0 -0.00000000000E+00 -0.00000000000E+00 -0.45593999997E+02  0.45594000000E+02  0.51100000000E-03 0. -1.
    9900012    2    1    2    0    0  0.94330555195E+00  0.49419344480E+00  0.50875909425E+00  0.90007793094E+02  0.90000055163E+02 0.  0.
         12    1    1    2    0    0 -0.94330555195E+00 -0.49419344480E+00 -0.50875909425E+00  0.11802069061E+01  0.00000000000E+00 0. -1.
         11    1    3    3    0    0 -0.82576870481E+01  0.18052500921E+02 -0.33664147807E+02  0.39081415439E+02  0.51100000000E-03 0. -1.
        -11    1    3    3    0    0 -0.48291599021E+01  0.65865771261E+01  0.21656228282E+01  0.84494796345E+01  0.51100000000E-03 0.  1.
        -12    1    3    3    0    0  0.14030152502E+02 -0.24144884602E+02  0.32007284073E+02  0.42476898020E+02  0.00000000000E+00 0.  1.
</event>
<event>
 7    1  0.3276565E-015  0.9000767E+02  0.7816164E-02  0.1186339E+00
        -11   -1    0    0    0    0  0.00000000000E+00  0.00000000000E+00  0.45593999997E+02  0.45594000000E+02  0.51100000000E-03 0. -1.
         11   -1    0    0    0    0 -0.00000000000E+00 -0.00000000000E+00 -0.45593999997E+02  0.45594000000E+02  0.51100000000E-03 0.  1.
    9900012    2    1    2    0    0 -0.80110276912E+00 -0.53678035094E+00 -0.68064140039E+00  0.90007673135E+02  0.89999933621E+02 0.  0.
         12    1    1    2    0    0  0.80110276912E+00  0.53678035094E+00  0.68064140039E+00  0.11803268648E+01  0.00000000000E+00 0. -1.
         11    1    3    3    0    0  0.16635471777E+01 -0.33528159252E+02  0.23618788896E+02  0.41045731096E+02  0.51100000000E-03 0. -1.
        -11    1    3    3    0    0 -0.95604182311E+01  0.93907799987E+01  0.12557359823E+01  0.13459762957E+02  0.51100000000E-03 0.  1.
        -12    1    3    3    0    0  0.70957682842E+01  0.23600598902E+02 -0.25555166278E+02  0.35502179082E+02  0.00000000000E+00 0.  1.
</event>
<event>
 7    1  0.3276565E-015  0.9000772E+02  0.7816164E-02  0.1186339E+00
        -11   -1    0    0    0    0  0.00000000000E+00  0.00000000000E+00  0.45593999997E+02  0.45594000000E+02  0.51100000000E-03 0.  1.
         11   -1    0    0    0    0 -0.00000000000E+00 -0.00000000000E+00 -0.45593999997E+02  0.45594000000E+02  0.51100000000E-03 0. -1.
    9900012    2    1    2    0    0  0.54603358595E+00 -0.28291712211E+00  0.10074102298E+01  0.90007716074E+02  0.89999977126E+02 0.  0.
         12    1    1    2    0    0 -0.54603358595E+00  0.28291712211E+00 -0.10074102298E+01  0.11802839260E+01  0.00000000000E+00 0. -1.
         11    1    3    3    0    0 -0.32203004057E+02  0.16312192431E+02  0.19716846134E+02  0.41132409532E+02  0.51100000000E-03 0. -1.
        -11    1    3    3    0    0  0.83724762156E+01  0.52937706250E+01  0.20153529464E+01  0.10108610843E+02  0.51100000000E-03 0.  1.
        -12    1    3    3    0    0  0.24376561427E+02 -0.21888880178E+02 -0.20724788851E+02  0.38766695699E+02  0.00000000000E+00 0.  1.
</event>
<event>
 7    1  0.3276565E-015  0.9000751E+02  0.7816164E-02  0.1186340E+00
        -11   -1    0    0    0    0  0.00000000000E+00  0.00000000000E+00  0.45593999997E+02  0.45594000000E+02  0.51100000000E-03 0.  1.
         11   -1    0    0    0    0 -0.00000000000E+00 -0.00000000000E+00 -0.45593999997E+02  0.45594000000E+02  0.51100000000E-03 0. -1.
    9900012    2    1    2    0    0 -0.45529003045E+00 -0.28797173308E+00  0.10504013520E+01  0.90007508691E+02  0.89999767005E+02 0.  0.
         12    1    1    2    0    0  0.45529003045E+00  0.28797173308E+00 -0.10504013520E+01  0.11804913092E+01  0.00000000000E+00 0. -1.
         11    1    3    3    0    0  0.19800616523E+02  0.30605844423E+02  0.69047725860E+01  0.37100647060E+02  0.51100000000E-03 0. -1.
        -11    1    3    3    0    0  0.84173430462E+01  0.16777676008E+01 -0.40098287190E+01  0.94733993211E+01  0.51100000000E-03 0.  1.
        -12    1    3    3    0    0 -0.28673249600E+02 -0.32571583757E+02 -0.18445425150E+01  0.43433462309E+02  0.00000000000E+00 0.  1.
</event>
<event>
 7    1  0.3276565E-015  0.9000780E+02  0.7816164E-02  0.1186339E+00
        -11   -1    0    0    0    0  0.00000000000E+00  0.00000000000E+00  0.45593999997E+02  0.45594000000E+02  0.51100000000E-03 0.  1.
         11   -1    0    0    0    0 -0.00000000000E+00 -0.00000000000E+00 -0.45593999997E+02  0.45594000000E+02  0.51100000000E-03 0. -1.
    9900012    2    1    2    0    0  0.28702516036E+00  0.92272153166E+00 -0.67754997665E+00  0.90007799831E+02  0.90000061989E+02 0.  0.
         12    1    1    2    0    0 -0.28702516036E+00 -0.92272153166E+00  0.67754997665E+00  0.11802001688E+01  0.00000000000E+00 0. -1.
         11    1    3    3    0    0 -0.14229214787E+01 -0.18627439218E+02  0.67789503169E+01  0.19873609763E+02  0.51100000000E-03 0. -1.
        -11    1    3    3    0    0  0.16515542289E+02 -0.13095945870E+01  0.24266520816E+02  0.29382685512E+02  0.51100000000E-03 0.  1.
         12    1    3    3    0    0 -0.14805595650E+02  0.20859755337E+02 -0.31723021110E+02  0.40751504556E+02  0.00000000000E+00 0. -1.
</event>
<event>
 7    1  0.3276565E-015  0.9000777E+02  0.7816164E-02  0.1186339E+00
        -11   -1    0    0    0    0  0.00000000000E+00  0.00000000000E+00  0.45593999997E+02  0.45594000000E+02  0.51100000000E-03 0.  1.
         11   -1    0    0    0    0 -0.00000000000E+00 -0.00000000000E+00 -0.45593999997E+02  0.45594000000E+02  0.51100000000E-03 0. -1.
    9900012    2    1    2    0    0  0.81468530039E+00 -0.47422190605E+00  0.71017283899E+00  0.90007769507E+02  0.90000031265E+02 0.  0.
         12    1    1    2    0    0 -0.81468530039E+00  0.47422190605E+00 -0.71017283899E+00  0.11802304928E+01  0.00000000000E+00 0. -1.
         11    1    3    3    0    0  0.32342054272E+02  0.22985835890E+02  0.37062069605E+01  0.39850885766E+02  0.51100000000E-03 0. -1.
        -11    1    3    3    0    0 -0.18525402612E+01  0.57458154125E+01  0.49038612059E+01  0.77777988635E+01  0.51100000000E-03 0.  1.
        -12    1    3    3    0    0 -0.29674828710E+02 -0.29205873208E+02 -0.78998953273E+01  0.42379084877E+02  0.00000000000E+00 0.  1.
</event>
<event>
 7    1  0.4164727E-015  0.9000791E+02  0.7816164E-02  0.1186339E+00
        -11   -1    0    0    0    0  0.00000000000E+00  0.00000000000E+00  0.45593999997E+02  0.45594000000E+02  0.51100000000E-03 0.  1.
         11   -1    0    0    0    0 -0.00000000000E+00 -0.00000000000E+00 -0.45593999997E+02  0.45594000000E+02  0.51100000000E-03 0. -1.
    9900012    2    1    2    0    0  0.47340124358E+00 -0.10562148597E+01  0.23000561542E+00  0.90007914770E+02  0.90000178445E+02 0.  0.
         12    1    1    2    0    0 -0.47340124358E+00  0.10562148597E+01 -0.23000561542E+00  0.11800852301E+01  0.00000000000E+00 0. -1.
         11    1    3    3    0    0 -0.46300484632E+01 -0.31232104069E+01  0.81328329172E+01  0.98658382076E+01  0.51100000000E-03 0. -1.
        -11    1    3    3    0    0  0.19898972681E+02 -0.15863508501E+02  0.27704152742E+02  0.37618347853E+02  0.51100000000E-03 0.  1.
         12    1    3    3    0    0 -0.14795522974E+02  0.17930504049E+02 -0.35606980044E+02  0.42523728710E+02  0.00000000000E+00 0. -1.
</event>
<event>
 7    1  0.3276565E-015  0.9000761E+02  0.7816164E-02  0.1186339E+00
        -11   -1    0    0    0    0  0.00000000000E+00  0.00000000000E+00  0.45593999997E+02  0.45594000000E+02  0.51100000000E-03 0. -1.
         11   -1    0    0    0    0 -0.00000000000E+00 -0.00000000000E+00 -0.45593999997E+02  0.45594000000E+02  0.51100000000E-03 0.  1.
    9900012    2    1    2    0    0  0.47589959818E+00  0.48689133207E-01 -0.10791062505E+01  0.90007609658E+02  0.89999869306E+02 0.  0.
         12    1    1    2    0    0 -0.47589959818E+00 -0.48689133207E-01  0.10791062505E+01  0.11803903418E+01  0.00000000000E+00 0. -1.
         11    1    3    3    0    0  0.23577589316E+02  0.25862029057E+02 -0.10522554740E+02  0.36544102443E+02  0.51100000000E-03 0. -1.
        -11    1    3    3    0    0  0.10816762116E+01  0.67398271169E+01 -0.69323446409E+01  0.97289616853E+01  0.51100000000E-03 0.  1.
        -12    1    3    3    0    0 -0.24183365929E+02 -0.32553167040E+02  0.16375793130E+02  0.43734545530E+02  0.00000000000E+00 0.  1.
</event>
<event>
 7    1  0.3276565E-015  0.9000761E+02  0.7816164E-02  0.1186339E+00
        -11   -1    0    0    0    0  0.00000000000E+00  0.00000000000E+00  0.45593999997E+02  0.45594000000E+02  0.51100000000E-03 0.  1.
         11   -1    0    0    0    0 -0.00000000000E+00 -0.00000000000E+00 -0.45593999997E+02  0.45594000000E+02  0.51100000000E-03 0. -1.
    9900012    2    1    2    0    0 -0.67148657656E+00 -0.80663983713E+00  0.54015072654E+00  0.90007608177E+02  0.89999867804E+02 0.  0.
         12    1    1    2    0    0  0.67148657656E+00  0.80663983713E+00 -0.54015072654E+00  0.11803918234E+01  0.00000000000E+00 0. -1.
         11    1    3    3    0    0 -0.13914832288E+02 -0.27453991398E+02 -0.22539963951E+02  0.38149628785E+02  0.51100000000E-03 0. -1.
        -11    1    3    3    0    0 -0.99234213589E+01  0.82154244228E+00 -0.40001585839E+00  0.99654019688E+01  0.51100000000E-03 0.  1.
        -12    1    3    3    0    0  0.23166767070E+02  0.25825809119E+02  0.23480130536E+02  0.41892577423E+02  0.00000000000E+00 0.  1.
</event>
<event>
 7    1  0.3276565E-015  0.9000769E+02  0.7816164E-02  0.1186339E+00
        -11   -1    0    0    0    0  0.00000000000E+00  0.00000000000E+00  0.45593999997E+02  0.45594000000E+02  0.51100000000E-03 0.  1.
         11   -1    0    0    0    0 -0.00000000000E+00 -0.00000000000E+00 -0.45593999997E+02  0.45594000000E+02  0.51100000000E-03 0. -1.
    9900012    2    1    2    0    0 -0.86910412404E+00  0.60993149273E+00  0.51553530437E+00  0.90007688577E+02  0.89999949267E+02 0.  0.
         12    1    1    2    0    0  0.86910412404E+00 -0.60993149273E+00 -0.51553530437E+00  0.11803114226E+01  0.00000000000E+00 0. -1.
         11    1    3    3    0    0  0.16538527412E+01 -0.22223376708E+01  0.79072522882E+01  0.83784636195E+01  0.51100000000E-03 0. -1.
        -11    1    3    3    0    0  0.32323707671E+02  0.21393169570E+02  0.74106244651E+01  0.39463997986E+02  0.51100000000E-03 0.  1.
         12    1    3    3    0    0 -0.34846664536E+02 -0.18560900406E+02 -0.14802341449E+02  0.42165226972E+02  0.00000000000E+00 0. -1.
</event>
<event>
 7    1  0.3276565E-015  0.9000782E+02  0.7816164E-02  0.1186339E+00
        -11   -1    0    0    0    0  0.00000000000E+00  0.00000000000E+00  0.45593999997E+02  0.45594000000E+02  0.51100000000E-03 0. -1.
         11   -1    0    0    0    0 -0.00000000000E+00 -0.00000000000E+00 -0.45593999997E+02  0.45594000000E+02  0.51100000000E-03 0.  1.
    9900012    2    1    2    0    0 -0.19082162725E+00 -0.10822337649E+01 -0.43034121497E+00  0.90007815109E+02  0.90000077469E+02 0.  0.
         12    1    1    2    0    0  0.19082162725E+00  0.10822337649E+01  0.43034121497E+00  0.11801848908E+01  0.00000000000E+00 0. -1.
         11    1    3    3    0    0  0.14944639055E+01  0.86090296476E+01  0.19423110856E+01  0.89510550469E+01  0.51100000000E-03 0. -1.
        -11    1    3    3    0    0  0.27001503449E+02 -0.31850857944E+02  0.96678073977E+01  0.42860527766E+02  0.51100000000E-03 0.  1.
         12    1    3    3    0    0 -0.28686788982E+02  0.22159594531E+02 -0.12040459698E+02  0.38196232296E+02  0.00000000000E+00 0. -1.
</event>
<event>
 7    1  0.3276565E-015  0.9000771E+02  0.7816164E-02  0.1186339E+00
        -11   -1    0    0    0    0  0.00000000000E+00  0.00000000000E+00  0.45593999997E+02  0.45594000000E+02  0.51100000000E-03 0. -1.
         11   -1    0    0    0    0 -0.00000000000E+00 -0.00000000000E+00 -0.45593999997E+02  0.45594000000E+02  0.51100000000E-03 0.  1.
    9900012    2    1    2    0    0 -0.48178108880E+00  0.37218400573E+00 -0.10111686982E+01  0.90007705084E+02  0.89999965991E+02 0.  0.
         12    1    1    2    0    0  0.48178108880E+00 -0.37218400573E+00  0.10111686982E+01  0.11802949156E+01  0.00000000000E+00 0. -1.
         11    1    3    3    0    0  0.31654209408E+02 -0.14765872857E+02  0.78939557806E+01  0.35809698583E+02  0.51100000000E-03 0. -1.
        -11    1    3    3    0    0  0.54963716893E+00 -0.10932254984E+02  0.16684006755E+01  0.11072482158E+02  0.51100000000E-03 0.  1.
        -12    1    3    3    0    0 -0.32685627666E+02  0.26070311847E+02 -0.10573525154E+02  0.43125524343E+02  0.00000000000E+00 0.  1.
</event>
<event>
 7    1  0.3276565E-015  0.9000774E+02  0.7816164E-02  0.1186339E+00
        -11   -1    0    0    0    0  0.00000000000E+00  0.00000000000E+00  0.45593999997E+02  0.45594000000E+02  0.51100000000E-03 0. -1.
         11   -1    0    0    0    0 -0.00000000000E+00 -0.00000000000E+00 -0.45593999997E+02  0.45594000000E+02  0.51100000000E-03 0.  1.
    9900012    2    1    2    0    0 -0.65970626278E+00  0.85620421293E+00 -0.47404703472E+00  0.90007737911E+02  0.89999999252E+02 0.  0.
         12    1    1    2    0    0  0.65970626278E+00 -0.85620421293E+00  0.47404703472E+00  0.11802620889E+01  0.00000000000E+00 0. -1.
         11    1    3    3    0    0  0.14197259734E+02  0.20166308277E+02  0.21252282982E+02  0.32556131614E+02  0.51100000000E-03 0. -1.
        -11    1    3    3    0    0  0.87393778079E+01  0.97744924108E+01  0.17821186538E+01  0.13232285272E+02  0.51100000000E-03 0.  1.
        -12    1    3    3    0    0 -0.23596343805E+02 -0.29084596475E+02 -0.23508448670E+02  0.44219321025E+02  0.00000000000E+00 0.  1.
</event>
<event>
 7    1  0.3276565E-015  0.9000766E+02  0.7816164E-02  0.1186339E+00
        -11   -1    0    0    0    0  0.00000000000E+00  0.00000000000E+00  0.45593999997E+02  0.45594000000E+02  0.51100000000E-03 0.  1.
         11   -1    0    0    0    0 -0.00000000000E+00 -0.00000000000E+00 -0.45593999997E+02  0.45594000000E+02  0.51100000000E-03 0. -1.
    9900012    2    1    2    0    0 -0.91957280477E+00 -0.67820510002E+00  0.29601621622E+00  0.90007660260E+02  0.89999920576E+02 0.  0.
         12    1    1    2    0    0  0.91957280477E+00  0.67820510002E+00 -0.29601621622E+00  0.11803397397E+01  0.00000000000E+00 0. -1.
         11    1    3    3    0    0  0.25492464079E+02  0.24945834089E+02  0.16203431607E+02  0.39175394820E+02  0.51100000000E-03 0. -1.
        -11    1    3    3    0    0 -0.41173950839E+01  0.68852009307E+01 -0.64508218828E+01  0.10294272066E+02  0.51100000000E-03 0.  1.
        -12    1    3    3    0    0 -0.22294641800E+02 -0.32509240119E+02 -0.94565935077E+01  0.40537993375E+02  0.00000000000E+00 0.  1.
</event>
<event>
 7    1  0.3276565E-015  0.9000778E+02  0.7816164E-02  0.1186339E+00
        -11   -1    0    0    0    0  0.00000000000E+00  0.00000000000E+00  0.45593999997E+02  0.45594000000E+02  0.51100000000E-03 0.  1.
         11   -1    0    0    0    0 -0.00000000000E+00 -0.00000000000E+00 -0.45593999997E+02  0.45594000000E+02  0.51100000000E-03 0. -1.
    9900012    2    1    2    0    0  0.47322259604E+00 -0.10787561513E+01  0.72620053968E-01  0.90007776237E+02  0.90000038083E+02 0.  0.
         12    1    1    2    0    0 -0.47322259604E+00  0.10787561513E+01 -0.72620053968E-01  0.11802237634E+01  0.00000000000E+00 0. -1.
         11    1    3    3    0    0 -0.16249149310E+01 -0.77208904379E+01 -0.10383345032E+02  0.13040949045E+02  0.51100000000E-03 0. -1.
        -11    1    3    3    0    0 -0.26587497693E+02  0.29020983980E+02  0.98138774031E+00  0.39371000329E+02  0.51100000000E-03 0.  1.
         12    1    3    3    0    0  0.28685635220E+02 -0.22378849693E+02  0.94745773457E+01  0.37595826862E+02  0.00000000000E+00 0. -1.
</event>
<event>
 7    1  0.3276565E-015  0.9000770E+02  0.7816164E-02  0.1186339E+00
        -11   -1    0    0    0    0  0.00000000000E+00  0.00000000000E+00  0.45593999997E+02  0.45594000000E+02  0.51100000000E-03 0.  1.
         11   -1    0    0    0    0 -0.00000000000E+00 -0.00000000000E+00 -0.45593999997E+02  0.45594000000E+02  0.51100000000E-03 0. -1.
    9900012    2    1    2    0    0  0.13678987558E+00  0.94932717748E+00  0.68787361361E+00  0.90007701873E+02  0.89999962738E+02 0.  0.
         12    1    1    2    0    0 -0.13678987558E+00 -0.94932717748E+00 -0.68787361361E+00  0.11802981269E+01  0.00000000000E+00 0. -1.
         11    1    3    3    0    0  0.18578445643E+01 -0.34765899713E+02 -0.15909975036E+02  0.38278540662E+02  0.51100000000E-03 0. -1.
        -11    1    3    3    0    0 -0.81511475306E+01 -0.37042196461E+01  0.43419502639E+01  0.99506271967E+01  0.51100000000E-03 0.  1.
        -12    1    3    3    0    0  0.64300928419E+01  0.39419446536E+02  0.12255898386E+02  0.41778534015E+02  0.00000000000E+00 0.  1.
</event>
<event>
 7    1  0.3276565E-015  0.9000768E+02  0.7816164E-02  0.1186339E+00
        -11   -1    0    0    0    0  0.00000000000E+00  0.00000000000E+00  0.45593999997E+02  0.45594000000E+02  0.51100000000E-03 0.  1.
         11   -1    0    0    0    0 -0.00000000000E+00 -0.00000000000E+00 -0.45593999997E+02  0.45594000000E+02  0.51100000000E-03 0. -1.
    9900012    2    1    2    0    0  0.63642526565E+00  0.99383080740E+00  0.20491087273E-01  0.90007679418E+02  0.89999939986E+02 0.  0.
         12    1    1    2    0    0 -0.63642526565E+00 -0.99383080740E+00 -0.20491087273E-01  0.11803205824E+01  0.00000000000E+00 0. -1.
         11    1    3    3    0    0  0.54693725628E+01  0.30320974686E+01  0.23532962246E+01  0.66817403924E+01  0.51100000000E-03 0. -1.
        -11    1    3    3    0    0 -0.17793105006E+02  0.36581808275E+02  0.76295125881E+01  0.41388799753E+02  0.51100000000E-03 0.  1.
         12    1    3    3    0    0  0.12960157708E+02 -0.38620074936E+02 -0.99623177254E+01  0.41937139272E+02  0.00000000000E+00 0. -1.
</event>
<event>
 7    1  0.3276565E-015  0.9000757E+02  0.7816164E-02  0.1186339E+00
        -11   -1    0    0    0    0  0.00000000000E+00  0.00000000000E+00  0.45593999997E+02  0.45594000000E+02  0.51100000000E-03 0. -1.
         11   -1    0    0    0    0 -0.00000000000E+00 -0.00000000000E+00 -0.45593999997E+02  0.45594000000E+02  0.51100000000E-03 0.  1.
    9900012    2    1    2    0    0 -0.45320759478E+00  0.97760916401E+00 -0.48197392135E+00  0.90007569713E+02  0.89999828833E+02 0.  0.
         12    1    1    2    0    0  0.45320759478E+00 -0.97760916401E+00  0.48197392135E+00  0.11804302870E+01  0.00000000000E+00 0. -1.
         11    1    3    3    0    0 -0.15387160751E+02  0.35114886120E+02  0.51550055463E+01  0.38683252522E+02  0.51100000000E-03 0. -1.
        -11    1    3    3    0    0 -0.45996675880E+01  0.25080506314E+01 -0.81868947094E+01  0.97196967614E+01  0.51100000000E-03 0.  1.
        -12    1    3    3    0    0  0.19533620744E+02 -0.36645327588E+02  0.25499152418E+01  0.41604620430E+02  0.00000000000E+00 0.  1.
</event>
<event>
 7    1  0.3276565E-015  0.9000775E+02  0.7816164E-02  0.1186339E+00
        -11   -1    0    0    0    0  0.00000000000E+00  0.00000000000E+00  0.45593999997E+02  0.45594000000E+02  0.51100000000E-03 0.  1.
         11   -1    0    0    0    0 -0.00000000000E+00 -0.00000000000E+00 -0.45593999997E+02  0.45594000000E+02  0.51100000000E-03 0. -1.
    9900012    2    1    2    0    0  0.64002948622E-01 -0.53028599087E+00  0.10524633865E+01  0.90007754776E+02  0.90000016339E+02 0.  0.
         12    1    1    2    0    0 -0.64002948622E-01  0.53028599087E+00 -0.10524633865E+01  0.11802452243E+01  0.00000000000E+00 0. -1.
         11    1    3    3    0    0  0.11253054098E+01  0.64181294422E+01  0.55974239421E+01  0.85901020280E+01  0.51100000000E-03 0. -1.
        -11    1    3    3    0    0 -0.49385862140E+01  0.16170423580E+02  0.33043849064E+02  0.37118299985E+02  0.51100000000E-03 0.  1.
         12    1    3    3    0    0  0.38772837528E+01 -0.23118839013E+02 -0.37588809620E+02  0.44299352763E+02  0.00000000000E+00 0. -1.
</event>
<event>
 7    1  0.3276565E-015  0.9000772E+02  0.7816164E-02  0.1186339E+00
        -11   -1    0    0    0    0  0.00000000000E+00  0.00000000000E+00  0.45593999997E+02  0.45594000000E+02  0.51100000000E-03 0. -1.
         11   -1    0    0    0    0 -0.00000000000E+00 -0.00000000000E+00 -0.45593999997E+02  0.45594000000E+02  0.51100000000E-03 0.  1.
    9900012    2    1    2    0    0  0.73392284999E+00  0.80513574557E+00 -0.45406449653E+00  0.90007719997E+02  0.89999981101E+02 0.  0.
         12    1    1    2    0    0 -0.73392284999E+00 -0.80513574557E+00  0.45406449653E+00  0.11802800030E+01  0.00000000000E+00 0. -1.
         11    1    3    3    0    0 -0.75256677641E+01 -0.27411175668E+01 -0.63697954340E+01  0.10233459578E+02  0.51100000000E-03 0. -1.
        -11    1    3    3    0    0  0.78391017037E+01 -0.35021342624E+01 -0.36131847923E+02  0.37137944134E+02  0.51100000000E-03 0.  1.
         12    1    3    3    0    0  0.42048891031E+00  0.70483875747E+01  0.42047578860E+02  0.42636316285E+02  0.00000000000E+00 0. -1.
</event>
<event>
 7    1  0.3276565E-015  0.9000782E+02  0.7816164E-02  0.1186339E+00
        -11   -1    0    0    0    0  0.00000000000E+00  0.00000000000E+00  0.45593999997E+02  0.45594000000E+02  0.51100000000E-03 0.  1.
         11   -1    0    0    0    0 -0.00000000000E+00 -0.00000000000E+00 -0.45593999997E+02  0.45594000000E+02  0.51100000000E-03 0. -1.
    9900012    2    1    2    0    0 -0.36676395698E+00 -0.37086327715E+00  0.10586688006E+01  0.90007815692E+02  0.90000078060E+02 0.  0.
         12    1    1    2    0    0  0.36676395698E+00  0.37086327715E+00 -0.10586688006E+01  0.11801843075E+01  0.00000000000E+00 0. -1.
         11    1    3    3    0    0  0.39966807924E+01 -0.40698111558E+01 -0.74255986844E+01  0.93635642938E+01  0.51100000000E-03 0. -1.
        -11    1    3    3    0    0  0.37299604075E+02  0.71864676001E+01  0.11488167137E-01  0.37985601390E+02  0.51100000000E-03 0.  1.
         12    1    3    3    0    0 -0.41663048825E+02 -0.34875197214E+01  0.84727793179E+01  0.42658650008E+02  0.00000000000E+00 0. -1.
</event>
<event>
 7    1  0.3276565E-015  0.9000763E+02  0.7816164E-02  0.1186339E+00
        -11   -1    0    0    0    0  0.00000000000E+00  0.00000000000E+00  0.45593999997E+02  0.45594000000E+02  0.51100000000E-03 0.  1.
         11   -1    0    0    0    0 -0.00000000000E+00 -0.00000000000E+00 -0.45593999997E+02  0.45594000000E+02  0.51100000000E-03 0. -1.
    9900012    2    1    2    0    0 -0.84043109145E-01 -0.20484690837E+00  0.11594208429E+01  0.90007626249E+02  0.89999886116E+02 0.  0.
         12    1    1    2    0    0  0.84043109145E-01  0.20484690837E+00 -0.11594208429E+01  0.11803737506E+01  0.00000000000E+00 0. -1.
         11    1    3    3    0    0 -0.20816019210E+01  0.37209108957E+01 -0.38761290800E+02  0.38995075448E+02  0.51100000000E-03 0. -1.
        -11    1    3    3    0    0  0.47617106736E+01 -0.95055044647E+01  0.22662819729E-01  0.10631510595E+02  0.51100000000E-03 0.  1.
        -12    1    3    3    0    0 -0.27641518617E+01  0.55797466606E+01  0.39898048823E+02  0.40381040207E+02  0.00000000000E+00 0.  1.
</event>
<event>
 7    1  0.3276565E-015  0.9000767E+02  0.7816164E-02  0.1186339E+00
        -11   -1    0    0    0    0  0.00000000000E+00  0.00000000000E+00  0.45593999997E+02  0.45594000000E+02  0.51100000000E-03 0. -1.
         11   -1    0    0    0    0 -0.00000000000E+00 -0.00000000000E+00 -0.45593999997E+02  0.45594000000E+02  0.51100000000E-03 0.  1.
    9900012    2    1    2    0    0 -0.97140307000E+00 -0.14976635890E+00 -0.65354394451E+00  0.90007672260E+02  0.89999932734E+02 0.  0.
         12    1    1    2    0    0  0.97140307000E+00  0.14976635890E+00  0.65354394451E+00  0.11803277401E+01  0.00000000000E+00 0. -1.
         11    1    3    3    0    0  0.10678505268E+00  0.24262967737E+02  0.24051634344E+02  0.34164076474E+02  0.51100000000E-03 0. -1.
        -11    1    3    3    0    0  0.20237370510E+01  0.84077846363E+01  0.62118352461E+01  0.10647687614E+02  0.51100000000E-03 0.  1.
        -12    1    3    3    0    0 -0.31019251737E+01 -0.32820518732E+02 -0.30917013534E+02  0.45195908172E+02  0.00000000000E+00 0.  1.
</event>
<event>
 7    1  0.3276565E-015  0.9000789E+02  0.7816164E-02  0.1186339E+00
        -11   -1    0    0    0    0  0.00000000000E+00  0.00000000000E+00  0.45593999997E+02  0.45594000000E+02  0.51100000000E-03 0. -1.
         11   -1    0    0    0    0 -0.00000000000E+00 -0.00000000000E+00 -0.45593999997E+02  0.45594000000E+02  0.51100000000E-03 0.  1.
    9900012    2    1    2    0    0 -0.11304234640E+01  0.32251355931E+00  0.10388798607E+00  0.90007887752E+02  0.90000151070E+02 0.  0.
         12    1    1    2    0    0  0.11304234640E+01 -0.32251355931E+00 -0.10388798607E+00  0.11801122479E+01  0.00000000000E+00 0. -1.
         11    1    3    3    0    0  0.46936347657E+01  0.39837030109E+02 -0.29429211116E+01  0.40220392342E+02  0.51100000000E-03 0. -1.
        -11    1    3    3    0    0 -0.40055959666E+01 -0.16861169504E+00  0.90935971410E+01  0.99381456105E+01  0.51100000000E-03 0.  1.
        -12    1    3    3    0    0 -0.18184622631E+01 -0.39345904855E+02 -0.60467880433E+01  0.39849349800E+02  0.00000000000E+00 0.  1.
</event>
<event>
 7    1  0.3276565E-015  0.9000771E+02  0.7816164E-02  0.1186339E+00
        -11   -1    0    0    0    0  0.00000000000E+00  0.00000000000E+00  0.45593999997E+02  0.45594000000E+02  0.51100000000E-03 0.  1.
         11   -1    0    0    0    0 -0.00000000000E+00 -0.00000000000E+00 -0.45593999997E+02  0.45594000000E+02  0.51100000000E-03 0. -1.
    9900012    2    1    2    0    0  0.54230814218E+00  0.98257733867E+00  0.36540744572E+00  0.90007712345E+02  0.89999973348E+02 0.  0.
         12    1    1    2    0    0 -0.54230814218E+00 -0.98257733867E+00 -0.36540744572E+00  0.11802876552E+01  0.00000000000E+00 0. -1.
         11    1    3    3    0    0 -0.80191240620E+01 -0.22881387673E+02 -0.30471863520E+02  0.38940964539E+02  0.51100000000E-03 0. -1.
        -11    1    3    3    0    0 -0.84931379634E+01  0.14771044908E+01 -0.87801228371E+00  0.86652256735E+01  0.51100000000E-03 0.  1.
        -12    1    3    3    0    0  0.17054570168E+02  0.22386860521E+02  0.31715283249E+02  0.42401522133E+02  0.00000000000E+00 0.  1.
</event>
<event>
 7    1  0.3276565E-015  0.9000810E+02  0.7816164E-02  0.1186338E+00
        -11   -1    0    0    0    0  0.00000000000E+00  0.00000000000E+00  0.45593999997E+02  0.45594000000E+02  0.51100000000E-03 0. -1.
         11   -1    0    0    0    0 -0.00000000000E+00 -0.00000000000E+00 -0.45593999997E+02  0.45594000000E+02  0.51100000000E-03 0.  1.
    9900012    2    1    2    0    0 -0.47633764146E+00 -0.19571305066E+00 -0.10615823334E+01  0.90008102463E+02  0.90000368615E+02 0.  0.
         12    1    1    2    0    0  0.47633764146E+00  0.19571305066E+00  0.10615823334E+01  0.11798975368E+01  0.00000000000E+00 0. -1.
         11    1    3    3    0    0  0.33988992896E+02  0.24718387018E+02 -0.11145197653E+02  0.43479486265E+02  0.51100000000E-03 0. -1.
        -11    1    3    3    0    0 -0.77066387293E+01 -0.10180989930E+01  0.71022508433E+01  0.10529519142E+02  0.51100000000E-03 0.  1.
        -12    1    3    3    0    0 -0.26758691808E+02 -0.23896001076E+02  0.29813644763E+01  0.35999097056E+02  0.00000000000E+00 0.  1.
</event>
<event>
 7    1  0.3276565E-015  0.9000768E+02  0.7816164E-02  0.1186339E+00
        -11   -1    0    0    0    0  0.00000000000E+00  0.00000000000E+00  0.45593999997E+02  0.45594000000E+02  0.51100000000E-03 0. -1.
         11   -1    0    0    0    0 -0.00000000000E+00 -0.00000000000E+00 -0.45593999997E+02  0.45594000000E+02  0.51100000000E-03 0.  1.
    9900012    2    1    2    0    0 -0.94596750337E+00 -0.70229001547E+00  0.71303755706E-01  0.90007682242E+02  0.89999942848E+02 0.  0.
         12    1    1    2    0    0  0.94596750337E+00  0.70229001547E+00 -0.71303755706E-01  0.11803177576E+01  0.00000000000E+00 0. -1.
         11    1    3    3    0    0 -0.34127567148E+02 -0.24787060564E+01  0.39510317059E+01  0.34444817824E+02  0.51100000000E-03 0. -1.
        -11    1    3    3    0    0  0.28370595009E+01 -0.16792970832E+02 -0.95694646658E+01  0.19535286797E+02  0.51100000000E-03 0.  1.
        -12    1    3    3    0    0  0.30344540144E+02  0.18569386873E+02  0.56897367156E+01  0.36027577621E+02  0.00000000000E+00 0.  1.
</event>
<event>
 7    1  0.3276565E-015  0.9000777E+02  0.7816164E-02  0.1186339E+00
        -11   -1    0    0    0    0  0.00000000000E+00  0.00000000000E+00  0.45593999997E+02  0.45594000000E+02  0.51100000000E-03 0.  1.
         11   -1    0    0    0    0 -0.00000000000E+00 -0.00000000000E+00 -0.45593999997E+02  0.45594000000E+02  0.51100000000E-03 0. -1.
    9900012    2    1    2    0    0  0.81648877976E+00 -0.28450429290E-01  0.85175024388E+00  0.90007770432E+02  0.90000032202E+02 0.  0.
         12    1    1    2    0    0 -0.81648877976E+00  0.28450429290E-01 -0.85175024388E+00  0.11802295677E+01  0.00000000000E+00 0. -1.
         11    1    3    3    0    0  0.23047314398E+01  0.83509240249E+01 -0.23830440875E+01  0.89849105985E+01  0.51100000000E-03 0. -1.
        -11    1    3    3    0    0 -0.18040712352E+02  0.31907561777E+02 -0.39965156057E+01  0.36871831226E+02  0.51100000000E-03 0.  1.
         12    1    3    3    0    0  0.16552469692E+02 -0.40286936231E+02  0.72313099371E+01  0.44151028608E+02  0.00000000000E+00 0. -1.
</event>
<event>
 7    1  0.3276565E-015  0.9000797E+02  0.7816164E-02  0.1186339E+00
        -11   -1    0    0    0    0  0.00000000000E+00  0.00000000000E+00  0.45593999997E+02  0.45594000000E+02  0.51100000000E-03 0.  1.
         11   -1    0    0    0    0 -0.00000000000E+00 -0.00000000000E+00 -0.45593999997E+02  0.45594000000E+02  0.51100000000E-03 0. -1.
    9900012    2    1    2    0    0 -0.74902796095E+00 -0.48640952552E-01  0.91053099353E+00  0.90007968001E+02  0.90000232378E+02 0.  0.
         12    1    1    2    0    0  0.74902796095E+00  0.48640952552E-01 -0.91053099353E+00  0.11800319990E+01  0.00000000000E+00 0. -1.
         11    1    3    3    0    0  0.32174002423E+02  0.15958630855E+02 -0.89010136346E+01  0.37000978023E+02  0.51100000000E-03 0. -1.
        -11    1    3    3    0    0  0.79641812872E+01 -0.60436154470E+01  0.14829037997E+01  0.10107050766E+02  0.51100000000E-03 0.  1.
        -12    1    3    3    0    0 -0.40887211671E+02 -0.99636563610E+01  0.83286408284E+01  0.42899939212E+02  0.00000000000E+00 0.  1.
</event>
<event>
 7    1  0.3276565E-015  0.9000775E+02  0.7816164E-02  0.1186339E+00
        -11   -1    0    0    0    0  0.00000000000E+00  0.00000000000E+00  0.45593999997E+02  0.45594000000E+02  0.51100000000E-03 0. -1.
         11   -1    0    0    0    0 -0.00000000000E+00 -0.00000000000E+00 -0.45593999997E+02  0.45594000000E+02  0.51100000000E-03 0.  1.
    9900012    2    1    2    0    0  0.23604249290E+00  0.48301714240E-02 -0.11563975213E+01  0.90007748071E+02  0.90000009545E+02 0.  0.
         12    1    1    2    0    0 -0.23604249290E+00 -0.48301714240E-02  0.11563975213E+01  0.11802519292E+01  0.00000000000E+00 0. -1.
         11    1    3    3    0    0  0.73605820035E+01 -0.43605011805E+01  0.49067942309E+01  0.98624929840E+01  0.51100000000E-03 0. -1.
        -11    1    3    3    0    0  0.22396523639E+02  0.18339210132E+02 -0.28419019783E+02  0.40565645380E+02  0.51100000000E-03 0.  1.
         12    1    3    3    0    0 -0.29521063149E+02 -0.13973878780E+02  0.22355828031E+02  0.39579609707E+02  0.00000000000E+00 0. -1.
</event>
<event>
 7    1  0.3276565E-015  0.9000781E+02  0.7816164E-02  0.1186339E+00
        -11   -1    0    0    0    0  0.00000000000E+00  0.00000000000E+00  0.45593999997E+02  0.45594000000E+02  0.51100000000E-03 0.  1.
         11   -1    0    0    0    0 -0.00000000000E+00 -0.00000000000E+00 -0.45593999997E+02  0.45594000000E+02  0.51100000000E-03 0. -1.
    9900012    2    1    2    0    0 -0.99382487208E+00 -0.60630926254E+00 -0.19375164224E+00  0.90007814211E+02  0.90000076558E+02 0.  0.
         12    1    1    2    0    0  0.99382487208E+00  0.60630926254E+00  0.19375164224E+00  0.11801857892E+01  0.00000000000E+00 0. -1.
         11    1    3    3    0    0  0.21322834507E+02  0.28372408727E+02 -0.68365815638E+01  0.36144096283E+02  0.51100000000E-03 0. -1.
        -11    1    3    3    0    0  0.52552848176E+01  0.61669243539E+01  0.42011766799E+01  0.91268209283E+01  0.51100000000E-03 0.  1.
        -12    1    3    3    0    0 -0.27571944197E+02 -0.35145642344E+02  0.24416532416E+01  0.44736896999E+02  0.00000000000E+00 0.  1.
</event>
<event>
 7    1  0.3276565E-015  0.9000774E+02  0.7816164E-02  0.1186339E+00
        -11   -1    0    0    0    0  0.00000000000E+00  0.00000000000E+00  0.45593999997E+02  0.45594000000E+02  0.51100000000E-03 0. -1.
         11   -1    0    0    0    0 -0.00000000000E+00 -0.00000000000E+00 -0.45593999997E+02  0.45594000000E+02  0.51100000000E-03 0.  1.
    9900012    2    1    2    0    0 -0.67491742245E+00 -0.64991278841E+00 -0.71771426144E+00  0.90007739893E+02  0.90000001259E+02 0.  0.
         12    1    1    2    0    0  0.67491742245E+00  0.64991278841E+00  0.71771426144E+00  0.11802601072E+01  0.00000000000E+00 0. -1.
         11    1    3    3    0    0  0.14876069894E+02  0.14271534593E+01  0.21284250320E+01  0.15095178564E+02  0.51100000000E-03 0. -1.
        -11    1    3    3    0    0 -0.71534362451E+01  0.35571237261E+02 -0.11347956256E+01  0.36301134028E+02  0.51100000000E-03 0.  1.
         12    1    3    3    0    0 -0.83975510716E+01 -0.37648303508E+02 -0.17113436678E+01  0.38611427301E+02  0.00000000000E+00 0. -1.
</event>
<event>
 7    1  0.3276565E-015  0.9000740E+02  0.7816164E-02  0.1186340E+00
        -11   -1    0    0    0    0  0.00000000000E+00  0.00000000000E+00  0.45593999997E+02  0.45594000000E+02  0.51100000000E-03 0. -1.
         11   -1    0    0    0    0 -0.00000000000E+00 -0.00000000000E+00 -0.45593999997E+02  0.45594000000E+02  0.51100000000E-03 0.  1.
    9900012    2    1    2    0    0 -0.10154278417E+01  0.12302882892E+00 -0.58955669901E+00  0.90007404008E+02  0.89999660941E+02 0.  0.
         12    1    1    2    0    0  0.10154278417E+01 -0.12302882892E+00  0.58955669901E+00  0.11805959917E+01  0.00000000000E+00 0. -1.
         11    1    3    3    0    0 -0.39284968476E+00  0.36085696186E+01  0.73553240108E+01  0.82022495166E+01  0.51100000000E-03 0. -1.
        -11    1    3    3    0    0  0.20520757023E+02 -0.28980287028E+02 -0.26066748406E+02  0.44050356159E+02  0.51100000000E-03 0.  1.
         12    1    3    3    0    0 -0.21143335180E+02  0.25494746239E+02  0.18121867696E+02  0.37754798332E+02  0.00000000000E+00 0. -1.
</event>
<event>
 7    1  0.3276565E-015  0.9000774E+02  0.7816164E-02  0.1186339E+00
        -11   -1    0    0    0    0  0.00000000000E+00  0.00000000000E+00  0.45593999997E+02  0.45594000000E+02  0.51100000000E-03 0.  1.
         11   -1    0    0    0    0 -0.00000000000E+00 -0.00000000000E+00 -0.45593999997E+02  0.45594000000E+02  0.51100000000E-03 0. -1.
    9900012    2    1    2    0    0 -0.11110378590E+01  0.14531476902E+00  0.37081270137E+00  0.90007735807E+02  0.89999997119E+02 0.  0.
         12    1    1    2    0    0  0.11110378590E+01 -0.14531476902E+00 -0.37081270137E+00  0.11802641932E+01  0.00000000000E+00 0. -1.
         11    1    3    3    0    0  0.27978016419E+01  0.30869269772E+02 -0.28237471828E+02  0.41929635412E+02  0.51100000000E-03 0. -1.
        -11    1    3    3    0    0  0.57687748847E+01 -0.53454255315E+01 -0.96613335664E+00  0.79237460653E+01  0.51100000000E-03 0.  1.
        -12    1    3    3    0    0 -0.96776143855E+01 -0.25378529471E+02  0.29574417886E+02  0.40154354330E+02  0.00000000000E+00 0.  1.
</event>
<event>
 7    1  0.3276565E-015  0.9000776E+02  0.7816164E-02  0.1186339E+00
        -11   -1    0    0    0    0  0.00000000000E+00  0.00000000000E+00  0.45593999997E+02  0.45594000000E+02  0.51100000000E-03 0.  1.
         11   -1    0    0    0    0 -0.00000000000E+00 -0.00000000000E+00 -0.45593999997E+02  0.45594000000E+02  0.51100000000E-03 0. -1.
    9900012    2    1    2    0    0 -0.41224726301E-01  0.65536463318E-01  0.11777020927E+01  0.90007755650E+02  0.90000017225E+02 0.  0.
         12    1    1    2    0    0  0.41224726301E-01 -0.65536463318E-01 -0.11777020927E+01  0.11802443498E+01  0.00000000000E+00 0. -1.
         11    1    3    3    0    0  0.76977280829E+01  0.40823938312E+01 -0.44467317253E+01  0.97823504501E+01  0.51100000000E-03 0. -1.
        -11    1    3    3    0    0 -0.17738035992E+02  0.16633988336E+02 -0.29525171363E+02  0.38250009583E+02  0.51100000000E-03 0.  1.
         12    1    3    3    0    0  0.99990831829E+01 -0.20650845704E+02  0.35149605181E+02  0.41975395617E+02  0.00000000000E+00 0. -1.
</event>
<event>
 7    1  0.3276565E-015  0.9000817E+02  0.7816164E-02  0.1186338E+00
        -11   -1    0    0    0    0  0.00000000000E+00  0.00000000000E+00  0.45593999997E+02  0.45594000000E+02  0.51100000000E-03 0.  1.
         11   -1    0    0    0    0 -0.00000000000E+00 -0.00000000000E+00 -0.45593999997E+02  0.45594000000E+02  0.51100000000E-03 0. -1.
    9900012    2    1    2    0    0 -0.77567691459E+00 -0.77287620674E+00  0.43930044124E+00  0.90008170697E+02  0.90000437749E+02 0.  0.
         12    1    1    2    0    0  0.77567691459E+00  0.77287620674E+00 -0.43930044124E+00  0.11798293031E+01  0.00000000000E+00 0. -1.
         11    1    3    3    0    0 -0.17667561382E+02  0.62103094430E+01  0.87966570596E+01  0.20690380476E+02  0.51100000000E-03 0. -1.
        -11    1    3    3    0    0 -0.16270135106E+02  0.28504455271E+00  0.19503134033E+02  0.25400212285E+02  0.51100000000E-03 0.  1.
        -12    1    3    3    0    0  0.33162019573E+02 -0.72682302025E+01 -0.27860490651E+02  0.43917577936E+02  0.00000000000E+00 0.  1.
</event>
<event>
 7    1  0.3276565E-015  0.9000772E+02  0.7816164E-02  0.1186339E+00
        -11   -1    0    0    0    0  0.00000000000E+00  0.00000000000E+00  0.45593999997E+02  0.45594000000E+02  0.51100000000E-03 0.  1.
         11   -1    0    0    0    0 -0.00000000000E+00 -0.00000000000E+00 -0.45593999997E+02  0.45594000000E+02  0.51100000000E-03 0. -1.
    9900012    2    1    2    0    0 -0.10658861862E+01  0.47063663142E+00 -0.18828230639E+00  0.90007719344E+02  0.89999980439E+02 0.  0.
         12    1    1    2    0    0  0.10658861862E+01 -0.47063663142E+00  0.18828230639E+00  0.11802806563E+01  0.00000000000E+00 0. -1.
         11    1    3    3    0    0 -0.13644638054E+01 -0.60665917508E+01  0.11843997042E+02  0.13377053605E+02  0.51100000000E-03 0. -1.
        -11    1    3    3    0    0  0.17454277019E+02 -0.21165641754E+02  0.17593932968E+02  0.32591143808E+02  0.51100000000E-03 0.  1.
         12    1    3    3    0    0 -0.17155699400E+02  0.27702870137E+02 -0.29626212317E+02  0.44039521931E+02  0.00000000000E+00 0. -1.
</event>
<event>
 7    1  0.3276565E-015  0.9000773E+02  0.7816164E-02  0.1186339E+00
        -11   -1    0    0    0    0  0.00000000000E+00  0.00000000000E+00  0.45593999997E+02  0.45594000000E+02  0.51100000000E-03 0.  1.
         11   -1    0    0    0    0 -0.00000000000E+00 -0.00000000000E+00 -0.45593999997E+02  0.45594000000E+02  0.51100000000E-03 0. -1.
    9900012    2    1    2    0    0 -0.66517498233E+00  0.96124290405E-01  0.97022225088E+00  0.90007733567E+02  0.89999994850E+02 0.  0.
         12    1    1    2    0    0  0.66517498233E+00 -0.96124290405E-01 -0.97022225088E+00  0.11802664328E+01  0.00000000000E+00 0. -1.
         11    1    3    3    0    0  0.30348642793E+01 -0.18015458122E+01 -0.94587504706E+01  0.10095738172E+02  0.51100000000E-03 0. -1.
        -11    1    3    3    0    0  0.19246589261E+02 -0.32103645308E+02 -0.59812643486E+00  0.37435718181E+02  0.51100000000E-03 0.  1.
         12    1    3    3    0    0 -0.22946628522E+02  0.34001315411E+02  0.11027099156E+02  0.42476277214E+02  0.00000000000E+00 0. -1.
</event>
<event>
 7    1  0.3276565E-015  0.9000773E+02  0.7816164E-02  0.1186339E+00
        -11   -1    0    0    0    0  0.00000000000E+00  0.00000000000E+00  0.45593999997E+02  0.45594000000E+02  0.51100000000E-03 0. -1.
         11   -1    0    0    0    0 -0.00000000000E+00 -0.00000000000E+00 -0.45593999997E+02  0.45594000000E+02  0.51100000000E-03 0.  1.
    9900012    2    1    2    0    0  0.75013516815E-01 -0.10528657511E+01 -0.52809763325E+00  0.90007728663E+02  0.89999989882E+02 0.  0.
         12    1    1    2    0    0 -0.75013516815E-01  0.10528657511E+01  0.52809763325E+00  0.11802713366E+01  0.00000000000E+00 0. -1.
         11    1    3    3    0    0 -0.13365512736E+02  0.47881490094E+01  0.39877207618E+02  0.42329126961E+02  0.51100000000E-03 0. -1.
        -11    1    3    3    0    0  0.47531718081E+01 -0.81344225713E+01 -0.40944018376E+01  0.10272565379E+02  0.51100000000E-03 0.  1.
        -12    1    3    3    0    0  0.86873544451E+01  0.22934078108E+01 -0.36310903414E+02  0.37406036323E+02  0.00000000000E+00 0.  1.
</event>
<event>
 7    1  0.3276565E-015  0.9000762E+02  0.7816164E-02  0.1186339E+00
        -11   -1    0    0    0    0  0.00000000000E+00  0.00000000000E+00  0.45593999997E+02  0.45594000000E+02  0.51100000000E-03 0.  1.
         11   -1    0    0    0    0 -0.00000000000E+00 -0.00000000000E+00 -0.45593999997E+02  0.45594000000E+02  0.51100000000E-03 0. -1.
    9900012    2    1    2    0    0  0.11386945845E+01 -0.16746171878E+00  0.26195722579E+00  0.90007622784E+02  0.89999882605E+02 0.  0.
         12    1    1    2    0    0 -0.11386945845E+01  0.16746171878E+00 -0.26195722579E+00  0.11803772160E+01  0.00000000000E+00 0. -1.
         11    1    3    3    0    0  0.23552024982E+02 -0.13455864918E+02  0.27453608505E+02  0.38593507247E+02  0.51100000000E-03 0. -1.
        -11    1    3    3    0    0 -0.57325752682E+00  0.91482332057E+00  0.80636463487E+01  0.81355957740E+01  0.51100000000E-03 0.  1.
        -12    1    3    3    0    0 -0.21840072870E+02  0.12373579878E+02 -0.35255297628E+02  0.43278519763E+02  0.00000000000E+00 0.  1.
</event>
<event>
 7    1  0.3276565E-015  0.9000772E+02  0.7816164E-02  0.1186339E+00
        -11   -1    0    0    0    0  0.00000000000E+00  0.00000000000E+00  0.45593999997E+02  0.45594000000E+02  0.51100000000E-03 0.  1.
         11   -1    0    0    0    0 -0.00000000000E+00 -0.00000000000E+00 -0.45593999997E+02  0.45594000000E+02  0.51100000000E-03 0. -1.
    9900012    2    1    2    0    0 -0.22705324227E+00 -0.11581208277E+01 -0.16315490293E-01  0.90007719007E+02  0.89999980098E+02 0.  0.
         12    1    1    2    0    0  0.22705324227E+00  0.11581208277E+01  0.16315490293E-01  0.11802809926E+01  0.00000000000E+00 0. -1.
         11    1    3    3    0    0  0.39031502452E+02  0.33948062536E+01 -0.16106906464E+01  0.39211952486E+02  0.51100000000E-03 0. -1.
        -11    1    3    3    0    0  0.19254603912E+01 -0.55890077309E+01 -0.65268055438E+01  0.88058841693E+01  0.51100000000E-03 0.  1.
        -12    1    3    3    0    0 -0.41184016085E+02  0.10360806496E+01  0.81211807000E+01  0.41989882352E+02  0.00000000000E+00 0.  1.
</event>
<event>
 7    1  0.3276565E-015  0.9000772E+02  0.7816164E-02  0.1186339E+00
        -11   -1    0    0    0    0  0.00000000000E+00  0.00000000000E+00  0.45593999997E+02  0.45594000000E+02  0.51100000000E-03 0. -1.
         11   -1    0    0    0    0 -0.00000000000E+00 -0.00000000000E+00 -0.45593999997E+02  0.45594000000E+02  0.51100000000E-03 0.  1.
    9900012    2    1    2    0    0 -0.77406650296E+00 -0.77367350068E-01 -0.88764025504E+00  0.90007716187E+02  0.89999977240E+02 0.  0.
         12    1    1    2    0    0  0.77406650296E+00  0.77367350068E-01  0.88764025504E+00  0.11802838134E+01  0.00000000000E+00 0. -1.
         11    1    3    3    0    0  0.19545660551E+02  0.30078122729E+02  0.11919969365E+02  0.37799629405E+02  0.51100000000E-03 0. -1.
        -11    1    3    3    0    0 -0.48489152014E+01  0.77688642316E+01  0.41727119789E+00  0.91674066994E+01  0.51100000000E-03 0.  1.
        -12    1    3    3    0    0 -0.15470811852E+02 -0.37924354311E+02 -0.13224880818E+02  0.43040680082E+02  0.00000000000E+00 0.  1.
</event>
<event>
 7    1  0.3276565E-015  0.9000777E+02  0.7816164E-02  0.1186339E+00
        -11   -1    0    0    0    0  0.00000000000E+00  0.00000000000E+00  0.45593999997E+02  0.45594000000E+02  0.51100000000E-03 0.  1.
         11   -1    0    0    0    0 -0.00000000000E+00 -0.00000000000E+00 -0.45593999997E+02  0.45594000000E+02  0.51100000000E-03 0. -1.
    9900012    2    1    2    0    0 -0.11521898019E+01 -0.22699999836E+00  0.11781214392E+00  0.90007766955E+02  0.90000028679E+02 0.  0.
         12    1    1    2    0    0  0.11521898019E+01  0.22699999836E+00 -0.11781214392E+00  0.11802330449E+01  0.00000000000E+00 0. -1.
         11    1    3    3    0    0 -0.15246484871E+02  0.37963469701E+01  0.25239498060E+02  0.29730452634E+02  0.51100000000E-03 0. -1.
        -11    1    3    3    0    0 -0.24816816921E+01 -0.26592894785E+02 -0.13910050339E+02  0.30113623126E+02  0.51100000000E-03 0.  1.
         12    1    3    3    0    0  0.16575976761E+02  0.22569547817E+02 -0.11211635578E+02  0.30163691196E+02  0.00000000000E+00 0. -1.
</event>
<event>
 7    1  0.3276565E-015  0.9000780E+02  0.7816164E-02  0.1186339E+00
        -11   -1    0    0    0    0  0.00000000000E+00  0.00000000000E+00  0.45593999997E+02  0.45594000000E+02  0.51100000000E-03 0.  1.
         11   -1    0    0    0    0 -0.00000000000E+00 -0.00000000000E+00 -0.45593999997E+02  0.45594000000E+02  0.51100000000E-03 0. -1.
    9900012    2    1    2    0    0 -0.62331172671E+00  0.61825147282E+00  0.78875124358E+00  0.90007796239E+02  0.90000058350E+02 0.  0.
         12    1    1    2    0    0  0.62331172671E+00 -0.61825147282E+00 -0.78875124358E+00  0.11802037606E+01  0.00000000000E+00 0. -1.
         11    1    3    3    0    0 -0.49780980429E+01 -0.74630827603E+01 -0.28783084846E+01  0.94214502283E+01  0.51100000000E-03 0. -1.
        -11    1    3    3    0    0 -0.31778406727E+02 -0.16944770199E+02  0.62712665461E+01  0.36555726714E+02  0.51100000000E-03 0.  1.
         12    1    3    3    0    0  0.36133193043E+02  0.25026104433E+02 -0.26042068179E+01  0.44030619297E+02  0.00000000000E+00 0. -1.
</event>
<event>
 7    1  0.3276565E-015  0.9000763E+02  0.7816164E-02  0.1186339E+00
        -11   -1    0    0    0    0  0.00000000000E+00  0.00000000000E+00  0.45593999997E+02  0.45594000000E+02  0.51100000000E-03 0.  1.
         11   -1    0    0    0    0 -0.00000000000E+00 -0.00000000000E+00 -0.45593999997E+02  0.45594000000E+02  0.51100000000E-03 0. -1.
    9900012    2    1    2    0    0  0.36580135569E+00 -0.76051326399E+00  0.82527392708E+00  0.90007632214E+02  0.89999892159E+02 0.  0.
         12    1    1    2    0    0 -0.36580135569E+00  0.76051326399E+00 -0.82527392708E+00  0.11803677864E+01  0.00000000000E+00 0. -1.
         11    1    3    3    0    0 -0.34165361167E+00 -0.90356858145E+01  0.25753309769E+01  0.94017378835E+01  0.51100000000E-03 0. -1.
        -11    1    3    3    0    0 -0.99826109300E+00 -0.79009307117E+01  0.37385699946E+02  0.38224492044E+02  0.51100000000E-03 0.  1.
         12    1    3    3    0    0  0.17057160604E+01  0.16176103262E+02 -0.39135756996E+02  0.42381402286E+02  0.00000000000E+00 0. -1.
</event>
<event>
 7    1  0.3276565E-015  0.9000773E+02  0.7816164E-02  0.1186339E+00
        -11   -1    0    0    0    0  0.00000000000E+00  0.00000000000E+00  0.45593999997E+02  0.45594000000E+02  0.51100000000E-03 0.  1.
         11   -1    0    0    0    0 -0.00000000000E+00 -0.00000000000E+00 -0.45593999997E+02  0.45594000000E+02  0.51100000000E-03 0. -1.
    9900012    2    1    2    0    0  0.12324594462E+00  0.21722047527E-01  0.11736207346E+01  0.90007725863E+02  0.89999987044E+02 0.  0.
         12    1    1    2    0    0 -0.12324594462E+00 -0.21722047527E-01 -0.11736207346E+01  0.11802741372E+01  0.00000000000E+00 0. -1.
         11    1    3    3    0    0 -0.25229510534E+01 -0.43803973435E+01  0.83659149191E+01  0.97745432425E+01  0.51100000000E-03 0. -1.
        -11    1    3    3    0    0 -0.31457252670E+01 -0.37488169455E+02 -0.31453054776E+01  0.37751177245E+02  0.51100000000E-03 0.  1.
         12    1    3    3    0    0  0.57919222650E+01  0.41890288846E+02 -0.40469887069E+01  0.42482005376E+02  0.00000000000E+00 0. -1.
</event>
<event>
 7    1  0.3276565E-015  0.9000783E+02  0.7816164E-02  0.1186339E+00
        -11   -1    0    0    0    0  0.00000000000E+00  0.00000000000E+00  0.45593999997E+02  0.45594000000E+02  0.51100000000E-03 0. -1.
         11   -1    0    0    0    0 -0.00000000000E+00 -0.00000000000E+00 -0.45593999997E+02  0.45594000000E+02  0.51100000000E-03 0.  1.
    9900012    2    1    2    0    0 -0.10527995070E+00 -0.52210770008E+00 -0.10531526960E+01  0.90007825894E+02  0.90000088396E+02 0.  0.
         12    1    1    2    0    0  0.10527995070E+00  0.52210770008E+00  0.10531526960E+01  0.11801741056E+01  0.00000000000E+00 0. -1.
         11    1    3    3    0    0  0.18404821501E+02 -0.35838522096E+02  0.82466510100E+01  0.41123525793E+02  0.51100000000E-03 0. -1.
        -11    1    3    3    0    0  0.69307323162E+01  0.59668060393E+01 -0.20505829229E+01  0.93724444695E+01  0.51100000000E-03 0.  1.
        -12    1    3    3    0    0 -0.25440833768E+02  0.29349608357E+02 -0.72492207831E+01  0.39511855632E+02  0.00000000000E+00 0.  1.
</event>
<event>
 7    1  0.6310823E-015  0.9000797E+02  0.7816164E-02  0.1186339E+00
        -11   -1    0    0    0    0  0.00000000000E+00  0.00000000000E+00  0.45593999997E+02  0.45594000000E+02  0.51100000000E-03 0. -1.
         11   -1    0    0    0    0 -0.00000000000E+00 -0.00000000000E+00 -0.45593999997E+02  0.45594000000E+02  0.51100000000E-03 0.  1.
    9900012    2    1    2    0    0  0.71050140277E+00  0.16076253044E+00 -0.92833706456E+00  0.90007971805E+02  0.90000236233E+02 0.  0.
         12    1    1    2    0    0 -0.71050140277E+00 -0.16076253044E+00  0.92833706456E+00  0.11800281946E+01  0.00000000000E+00 0. -1.
         11    1    3    3    0    0 -0.90848602029E+01  0.86215481633E+00 -0.35741799362E+01  0.98006509127E+01  0.51100000000E-03 0. -1.
        -11    1    3    3    0    0 -0.19610065977E+02  0.65415327421E-02 -0.30268112700E+02  0.36065404158E+02  0.51100000000E-03 0.  1.
         12    1    3    3    0    0  0.29405427583E+02 -0.70793381863E+00  0.32913955572E+02  0.44141916734E+02  0.00000000000E+00 0. -1.
</event>
<event>
 7    1  0.3276565E-015  0.9000772E+02  0.7816164E-02  0.1186339E+00
        -11   -1    0    0    0    0  0.00000000000E+00  0.00000000000E+00  0.45593999997E+02  0.45594000000E+02  0.51100000000E-03 0. -1.
         11   -1    0    0    0    0 -0.00000000000E+00 -0.00000000000E+00 -0.45593999997E+02  0.45594000000E+02  0.51100000000E-03 0.  1.
    9900012    2    1    2    0    0  0.10171540027E-01 -0.41999264850E+00 -0.11029760309E+01  0.90007723164E+02  0.89999984310E+02 0.  0.
         12    1    1    2    0    0 -0.10171540027E-01  0.41999264850E+00  0.11029760309E+01  0.11802768361E+01  0.00000000000E+00 0. -1.
         11    1    3    3    0    0 -0.28977208922E+02  0.31796573444E+02 -0.51964684406E+01  0.43332482092E+02  0.51100000000E-03 0. -1.
        -11    1    3    3    0    0  0.49431289680E+00 -0.10612223586E+02  0.23177786067E+01  0.10873625551E+02  0.51100000000E-03 0.  1.
        -12    1    3    3    0    0  0.28493067566E+02 -0.21604342506E+02  0.17757138030E+01  0.35801615521E+02  0.00000000000E+00 0.  1.
</event>
<event>
 7    1  0.3276565E-015  0.9000773E+02  0.7816164E-02  0.1186339E+00
        -11   -1    0    0    0    0  0.00000000000E+00  0.00000000000E+00  0.45593999997E+02  0.45594000000E+02  0.51100000000E-03 0.  1.
         11   -1    0    0    0    0 -0.00000000000E+00 -0.00000000000E+00 -0.45593999997E+02  0.45594000000E+02  0.51100000000E-03 0. -1.
    9900012    2    1    2    0    0  0.36960065271E+00 -0.64649745002E+00  0.91568165861E+00  0.90007730329E+02  0.89999991570E+02 0.  0.
         12    1    1    2    0    0 -0.36960065271E+00  0.64649745002E+00 -0.91568165861E+00  0.11802696706E+01  0.00000000000E+00 0. -1.
         11    1    3    3    0    0 -0.34336536340E+00 -0.49799712346E+01 -0.75626404714E+01  0.90615420559E+01  0.51100000000E-03 0. -1.
        -11    1    3    3    0    0 -0.21474062475E+02 -0.31278495321E+02 -0.90691913541E+00  0.37951312643E+02  0.51100000000E-03 0.  1.
         12    1    3    3    0    0  0.22187028492E+02  0.35611969106E+02  0.93852412654E+01  0.42994875630E+02  0.00000000000E+00 0. -1.
</event>
<event>
 7    1  0.3276565E-015  0.9000772E+02  0.7816164E-02  0.1186339E+00
        -11   -1    0    0    0    0  0.00000000000E+00  0.00000000000E+00  0.45593999997E+02  0.45594000000E+02  0.51100000000E-03 0.  1.
         11   -1    0    0    0    0 -0.00000000000E+00 -0.00000000000E+00 -0.45593999997E+02  0.45594000000E+02  0.51100000000E-03 0. -1.
    9900012    2    1    2    0    0  0.10847044861E+01 -0.43110786753E+00  0.17499340171E+00  0.90007720158E+02  0.89999981264E+02 0.  0.
         12    1    1    2    0    0 -0.10847044861E+01  0.43110786753E+00 -0.17499340171E+00  0.11802798423E+01  0.00000000000E+00 0. -1.
         11    1    3    3    0    0  0.10169052243E+02 -0.25179306961E+02 -0.25812147630E+02  0.37465638766E+02  0.51100000000E-03 0. -1.
        -11    1    3    3    0    0  0.21602151104E+01 -0.44781922568E+01 -0.59905091064E+01  0.77850455893E+01  0.51100000000E-03 0.  1.
        -12    1    3    3    0    0 -0.11244562868E+02  0.29226391350E+02  0.31977650139E+02  0.44757035803E+02  0.00000000000E+00 0.  1.
</event>
<event>
 7    1  0.3276565E-015  0.9000772E+02  0.7816164E-02  0.1186339E+00
        -11   -1    0    0    0    0  0.00000000000E+00  0.00000000000E+00  0.45593999997E+02  0.45594000000E+02  0.51100000000E-03 0.  1.
         11   -1    0    0    0    0 -0.00000000000E+00 -0.00000000000E+00 -0.45593999997E+02  0.45594000000E+02  0.51100000000E-03 0. -1.
    9900012    2    1    2    0    0 -0.37611168384E+00  0.11116478262E+01  0.12586085805E+00  0.90007719591E+02  0.89999980690E+02 0.  0.
         12    1    1    2    0    0  0.37611168384E+00 -0.11116478262E+01 -0.12586085805E+00  0.11802804090E+01  0.00000000000E+00 0. -1.
         11    1    3    3    0    0  0.33458284515E+02 -0.26764642408E+02 -0.74149980122E+01  0.43483158599E+02  0.51100000000E-03 0. -1.
        -11    1    3    3    0    0 -0.49835239543E+01  0.36514675869E+01  0.63115963492E+01  0.88320425315E+01  0.51100000000E-03 0.  1.
        -12    1    3    3    0    0 -0.28850872244E+02  0.24224822648E+02  0.12292625211E+01  0.37692518461E+02  0.00000000000E+00 0.  1.
</event>
<event>
 7    1  0.3276565E-015  0.9000781E+02  0.7816164E-02  0.1186339E+00
        -11   -1    0    0    0    0  0.00000000000E+00  0.00000000000E+00  0.45593999997E+02  0.45594000000E+02  0.51100000000E-03 0. -1.
         11   -1    0    0    0    0 -0.00000000000E+00 -0.00000000000E+00 -0.45593999997E+02  0.45594000000E+02  0.51100000000E-03 0.  1.
    9900012    2    1    2    0    0 -0.68346079703E-01  0.76920405447E+00 -0.89247574704E+00  0.90007805515E+02  0.90000067747E+02 0.  0.
         12    1    1    2    0    0  0.68346079703E-01 -0.76920405447E+00  0.89247574704E+00  0.11801944853E+01  0.00000000000E+00 0. -1.
         11    1    3    3    0    0 -0.87258296986E+01  0.37481793788E+02  0.18263084214E+01  0.38527397683E+02  0.51100000000E-03 0. -1.
        -11    1    3    3    0    0 -0.37565318461E+01  0.38928280771E+01 -0.69524414808E+01  0.88092045472E+01  0.51100000000E-03 0.  1.
        -12    1    3    3    0    0  0.12414015465E+02 -0.40605417811E+02  0.42336573123E+01  0.42671203285E+02  0.00000000000E+00 0.  1.
</event>
<event>
 7    1  0.3276565E-015  0.9000763E+02  0.7816164E-02  0.1186339E+00
        -11   -1    0    0    0    0  0.00000000000E+00  0.00000000000E+00  0.45593999997E+02  0.45594000000E+02  0.51100000000E-03 0. -1.
         11   -1    0    0    0    0 -0.00000000000E+00 -0.00000000000E+00 -0.45593999997E+02  0.45594000000E+02  0.51100000000E-03 0.  1.
    9900012    2    1    2    0    0 -0.83768422829E-01  0.58562108510E+00 -0.10214174523E+01  0.90007634457E+02  0.89999894431E+02 0.  0.
         12    1    1    2    0    0  0.83768422829E-01 -0.58562108510E+00  0.10214174523E+01  0.11803655433E+01  0.00000000000E+00 0. -1.
         11    1    3    3    0    0 -0.23736293446E+01  0.22064492463E+01  0.10367530115E+02  0.10862238051E+02  0.51100000000E-03 0. -1.
        -11    1    3    3    0    0 -0.29574332636E+02 -0.16326837895E+02 -0.24448085829E+02  0.41700308002E+02  0.51100000000E-03 0.  1.
         12    1    3    3    0    0  0.31864193558E+02  0.14706009734E+02  0.13059138262E+02  0.37445088403E+02  0.00000000000E+00 0. -1.
</event>
<event>
 7    1  0.3276565E-015  0.9000776E+02  0.7816164E-02  0.1186339E+00
        -11   -1    0    0    0    0  0.00000000000E+00  0.00000000000E+00  0.45593999997E+02  0.45594000000E+02  0.51100000000E-03 0.  1.
         11   -1    0    0    0    0 -0.00000000000E+00 -0.00000000000E+00 -0.45593999997E+02  0.45594000000E+02  0.51100000000E-03 0. -1.
    9900012    2    1    2    0    0  0.73408567036E+00  0.75965369624E+00  0.52631626548E+00  0.90007760905E+02  0.90000022549E+02 0.  0.
         12    1    1    2    0    0 -0.73408567036E+00 -0.75965369624E+00 -0.52631626548E+00  0.11802390948E+01  0.00000000000E+00 0. -1.
         11    1    3    3    0    0  0.21073654620E+01 -0.40615571464E+02 -0.14293361077E+01  0.40695314675E+02  0.51100000000E-03 0. -1.
        -11    1    3    3    0    0  0.87951654240E+01  0.26413306011E+01  0.11785197453E+01  0.92585350477E+01  0.51100000000E-03 0.  1.
        -12    1    3    3    0    0 -0.10168445216E+02  0.38733894560E+02  0.77713262793E+00  0.40053911182E+02  0.00000000000E+00 0.  1.
</event>
<event>
 7    1  0.3276565E-015  0.9000799E+02  0.7816164E-02  0.1186339E+00
        -11   -1    0    0    0    0  0.00000000000E+00  0.00000000000E+00  0.45593999997E+02  0.45594000000E+02  0.51100000000E-03 0. -1.
         11   -1    0    0    0    0 -0.00000000000E+00 -0.00000000000E+00 -0.45593999997E+02  0.45594000000E+02  0.51100000000E-03 0.  1.
    9900012    2    1    2    0    0  0.10299976213E+01 -0.54875409352E+00 -0.17436341680E+00  0.90007987815E+02  0.90000252454E+02 0.  0.
         12    1    1    2    0    0 -0.10299976213E+01  0.54875409352E+00  0.17436341680E+00  0.11800121847E+01  0.00000000000E+00 0. -1.
         11    1    3    3    0    0 -0.22764969282E+02 -0.18396903600E+02  0.21723909246E+02  0.36450214288E+02  0.51100000000E-03 0. -1.
        -11    1    3    3    0    0  0.36010601122E+01 -0.50266914691E+01  0.84838985056E+01  0.10498180565E+02  0.51100000000E-03 0.  1.
        -12    1    3    3    0    0  0.20193906791E+02  0.22874840975E+02 -0.30382171169E+02  0.43059592962E+02  0.00000000000E+00 0.  1.
</event>
<event>
 7    1  0.3276565E-015  0.9000772E+02  0.7816164E-02  0.1186339E+00
        -11   -1    0    0    0    0  0.00000000000E+00  0.00000000000E+00  0.45593999997E+02  0.45594000000E+02  0.51100000000E-03 0. -1.
         11   -1    0    0    0    0 -0.00000000000E+00 -0.00000000000E+00 -0.45593999997E+02  0.45594000000E+02  0.51100000000E-03 0.  1.
    9900012    2    1    2    0    0  0.10853370101E+00 -0.11407492306E+01  0.28279392355E+00  0.90007720044E+02  0.89999981149E+02 0.  0.
         12    1    1    2    0    0 -0.10853370101E+00  0.11407492306E+01 -0.28279392355E+00  0.11802799560E+01  0.00000000000E+00 0. -1.
         11    1    3    3    0    0  0.70697377984E+01 -0.35052768477E+01  0.12774760435E+01  0.79937540380E+01  0.51100000000E-03 0. -1.
        -11    1    3    3    0    0  0.32561626465E+02  0.33274479235E+01 -0.19779608180E+02  0.38243487390E+02  0.51100000000E-03 0.  1.
         12    1    3    3    0    0 -0.39522830563E+02 -0.96292030640E+00  0.18784926060E+02  0.43770478616E+02  0.00000000000E+00 0. -1.
</event>
<event>
 7    1  0.3276565E-015  0.9000779E+02  0.7816164E-02  0.1186339E+00
        -11   -1    0    0    0    0  0.00000000000E+00  0.00000000000E+00  0.45593999997E+02  0.45594000000E+02  0.51100000000E-03 0. -1.
         11   -1    0    0    0    0 -0.00000000000E+00 -0.00000000000E+00 -0.45593999997E+02  0.45594000000E+02  0.51100000000E-03 0.  1.
    9900012    2    1    2    0    0 -0.12865245714E+00 -0.11495618602E+01 -0.23422842639E+00  0.90007785240E+02  0.90000047205E+02 0.  0.
         12    1    1    2    0    0  0.12865245714E+00  0.11495618602E+01  0.23422842639E+00  0.11802147605E+01  0.00000000000E+00 0. -1.
         11    1    3    3    0    0 -0.95816608905E+00 -0.87758944426E+01 -0.96792406511E+00  0.88809505560E+01  0.51100000000E-03 0. -1.
        -11    1    3    3    0    0 -0.13072918624E+02 -0.13840844323E+02 -0.33417544808E+02  0.38460401378E+02  0.51100000000E-03 0.  1.
         12    1    3    3    0    0  0.13902432256E+02  0.21467176906E+02  0.34151240447E+02  0.42666433305E+02  0.00000000000E+00 0. -1.
</event>
<event>
 7    1  0.3276565E-015  0.9000774E+02  0.7816164E-02  0.1186339E+00
        -11   -1    0    0    0    0  0.00000000000E+00  0.00000000000E+00  0.45593999997E+02  0.45594000000E+02  0.51100000000E-03 0.  1.
         11   -1    0    0    0    0 -0.00000000000E+00 -0.00000000000E+00 -0.45593999997E+02  0.45594000000E+02  0.51100000000E-03 0. -1.
    9900012    2    1    2    0    0  0.40592376690E+00  0.11059395645E+01 -0.71669127698E-01  0.90007740330E+02  0.90000001702E+02 0.  0.
         12    1    1    2    0    0 -0.40592376690E+00 -0.11059395645E+01  0.71669127698E-01  0.11802596700E+01  0.00000000000E+00 0. -1.
         11    1    3    3    0    0 -0.11563838073E+02 -0.30609317256E+02 -0.21275597146E+02  0.39029523287E+02  0.51100000000E-03 0. -1.
        -11    1    3    3    0    0  0.27245260635E+01 -0.68676335580E-02 -0.70154525772E+01  0.75259328032E+01  0.51100000000E-03 0.  1.
        -12    1    3    3    0    0  0.92452357762E+01  0.31722124454E+02  0.28219380595E+02  0.43452284239E+02  0.00000000000E+00 0.  1.
</event>
<event>
 7    1  0.3276565E-015  0.9000780E+02  0.7816164E-02  0.1186339E+00
        -11   -1    0    0    0    0  0.00000000000E+00  0.00000000000E+00  0.45593999997E+02  0.45594000000E+02  0.51100000000E-03 0. -1.
         11   -1    0    0    0    0 -0.00000000000E+00 -0.00000000000E+00 -0.45593999997E+02  0.45594000000E+02  0.51100000000E-03 0.  1.
    9900012    2    1    2    0    0  0.99988899095E+00  0.29717590792E+00 -0.55206949564E+00  0.90007799914E+02  0.90000062073E+02 0.  0.
         12    1    1    2    0    0 -0.99988899095E+00 -0.29717590792E+00  0.55206949564E+00  0.11802000858E+01  0.00000000000E+00 0. -1.
         11    1    3    3    0    0  0.28826225620E+02 -0.82236708250E+01  0.27464594370E+02  0.40655675982E+02  0.51100000000E-03 0. -1.
        -11    1    3    3    0    0 -0.52310704511E+01 -0.73643577490E+01  0.12393870840E+01  0.91177817326E+01  0.51100000000E-03 0.  1.
        -12    1    3    3    0    0 -0.22595266178E+02  0.15885204482E+02 -0.29256050950E+02  0.40234342200E+02  0.00000000000E+00 0.  1.
</event>
<event>
 7    1  0.3276565E-015  0.9000795E+02  0.7816164E-02  0.1186339E+00
        -11   -1    0    0    0    0  0.00000000000E+00  0.00000000000E+00  0.45593999997E+02  0.45594000000E+02  0.51100000000E-03 0. -1.
         11   -1    0    0    0    0 -0.00000000000E+00 -0.00000000000E+00 -0.45593999997E+02  0.45594000000E+02  0.51100000000E-03 0.  1.
    9900012    2    1    2    0    0 -0.77014208376E+00  0.44422508399E-01 -0.89298886501E+00  0.90007948602E+02  0.90000212723E+02 0.  0.
         12    1    1    2    0    0  0.77014208376E+00 -0.44422508399E-01  0.89298886501E+00  0.11800513978E+01  0.00000000000E+00 0. -1.
         11    1    3    3    0    0 -0.24479874479E+01  0.43063607192E+01  0.45527721989E+01  0.67279358012E+01  0.51100000000E-03 0. -1.
        -11    1    3    3    0    0  0.39354389724E+02  0.96578239420E+01  0.72291531475E+01  0.41161902402E+02  0.51100000000E-03 0.  1.
         12    1    3    3    0    0 -0.37676544360E+02 -0.13919762153E+02 -0.12674914211E+02  0.42118110399E+02  0.00000000000E+00 0. -1.
</event>
<event>
 7    1  0.3276565E-015  0.9000777E+02  0.7816164E-02  0.1186339E+00
        -11   -1    0    0    0    0  0.00000000000E+00  0.00000000000E+00  0.45593999997E+02  0.45594000000E+02  0.51100000000E-03 0.  1.
         11   -1    0    0    0    0 -0.00000000000E+00 -0.00000000000E+00 -0.45593999997E+02  0.45594000000E+02  0.51100000000E-03 0. -1.
    9900012    2    1    2    0    0  0.10274218249E+01 -0.52171625040E+00 -0.25525139729E+00  0.90007772595E+02  0.90000034393E+02 0.  0.
         12    1    1    2    0    0 -0.10274218249E+01  0.52171625040E+00  0.25525139729E+00  0.11802274052E+01  0.00000000000E+00 0. -1.
         11    1    3    3    0    0 -0.25049786948E+02  0.29964151446E+01 -0.20230953615E+02  0.32338240743E+02  0.51100000000E-03 0. -1.
        -11    1    3    3    0    0  0.81153008401E+01  0.90411216835E+01 -0.13179577178E+02  0.17924877792E+02  0.51100000000E-03 0.  1.
        -12    1    3    3    0    0  0.17961907933E+02 -0.12559253079E+02  0.33155279396E+02  0.39744654060E+02  0.00000000000E+00 0.  1.
</event>
<event>
 7    1  0.3276565E-015  0.9000778E+02  0.7816164E-02  0.1186339E+00
        -11   -1    0    0    0    0  0.00000000000E+00  0.00000000000E+00  0.45593999997E+02  0.45594000000E+02  0.51100000000E-03 0.  1.
         11   -1    0    0    0    0 -0.00000000000E+00 -0.00000000000E+00 -0.45593999997E+02  0.45594000000E+02  0.51100000000E-03 0. -1.
    9900012    2    1    2    0    0 -0.61502553753E-01 -0.56417754785E+00  0.10348168362E+01  0.90007777667E+02  0.90000039533E+02 0.  0.
         12    1    1    2    0    0  0.61502553753E-01  0.56417754785E+00 -0.10348168362E+01  0.11802223325E+01  0.00000000000E+00 0. -1.
         11    1    3    3    0    0 -0.25344906270E+01  0.84948568613E+01 -0.27608309406E+01  0.92848491413E+01  0.51100000000E-03 0. -1.
        -11    1    3    3    0    0  0.32674843085E+02 -0.17455013073E+02 -0.19314629043E+02  0.41777718312E+02  0.51100000000E-03 0.  1.
         12    1    3    3    0    0 -0.30201855012E+02  0.83959786641E+01  0.23110276820E+02  0.38945210214E+02  0.00000000000E+00 0. -1.
</event>
<event>
 7    1  0.3276565E-015  0.9000781E+02  0.7816164E-02  0.1186339E+00
        -11   -1    0    0    0    0  0.00000000000E+00  0.00000000000E+00  0.45593999997E+02  0.45594000000E+02  0.51100000000E-03 0.  1.
         11   -1    0    0    0    0 -0.00000000000E+00 -0.00000000000E+00 -0.45593999997E+02  0.45594000000E+02  0.51100000000E-03 0. -1.
    9900012    2    1    2    0    0 -0.63514405836E+00 -0.84308255152E+00  0.52786596577E+00  0.90007814150E+02  0.90000076496E+02 0.  0.
         12    1    1    2    0    0  0.63514405836E+00  0.84308255152E+00 -0.52786596577E+00  0.11801858503E+01  0.00000000000E+00 0. -1.
         11    1    3    3    0    0 -0.14269833094E+02  0.54075112180E+01 -0.32064083412E+02  0.35510206412E+02  0.51100000000E-03 0. -1.
        -11    1    3    3    0    0  0.19949627122E+01  0.71583558421E+01 -0.75563152986E+01  0.10598105290E+02  0.51100000000E-03 0.  1.
        -12    1    3    3    0    0  0.11639726324E+02 -0.13408949612E+02  0.40148264677E+02  0.43899502447E+02  0.00000000000E+00 0.  1.
</event>
<event>
 7    1  0.3276565E-015  0.9000772E+02  0.7816164E-02  0.1186339E+00
        -11   -1    0    0    0    0  0.00000000000E+00  0.00000000000E+00  0.45593999997E+02  0.45594000000E+02  0.51100000000E-03 0. -1.
         11   -1    0    0    0    0 -0.00000000000E+00 -0.00000000000E+00 -0.45593999997E+02  0.45594000000E+02  0.51100000000E-03 0.  1.
    9900012    2    1    2    0    0 -0.10301254538E+01  0.53006624032E+00 -0.22566773113E+00  0.90007722662E+02  0.89999983801E+02 0.  0.
         12    1    1    2    0    0  0.10301254538E+01 -0.53006624032E+00  0.22566773113E+00  0.11802773380E+01  0.00000000000E+00 0. -1.
         11    1    3    3    0    0  0.84065729456E+01  0.68001231559E+01  0.10711417397E+01  0.10865518327E+02  0.51100000000E-03 0. -1.
        -11    1    3    3    0    0 -0.30954442130E+02  0.21622098124E+02  0.14614398998E+02  0.40487939849E+02  0.51100000000E-03 0.  1.
         12    1    3    3    0    0  0.21517743731E+02 -0.27892155039E+02 -0.15911208469E+02  0.38654264486E+02  0.00000000000E+00 0. -1.
</event>
<event>
 7    1  0.3276565E-015  0.9000781E+02  0.7816164E-02  0.1186339E+00
        -11   -1    0    0    0    0  0.00000000000E+00  0.00000000000E+00  0.45593999997E+02  0.45594000000E+02  0.51100000000E-03 0.  1.
         11   -1    0    0    0    0 -0.00000000000E+00 -0.00000000000E+00 -0.45593999997E+02  0.45594000000E+02  0.51100000000E-03 0. -1.
    9900012    2    1    2    0    0  0.22441112549E+00  0.11061389397E+01  0.34488521296E+00  0.90007809542E+02  0.90000071828E+02 0.  0.
         12    1    1    2    0    0 -0.22441112549E+00 -0.11061389397E+01 -0.34488521296E+00  0.11801904580E+01  0.00000000000E+00 0. -1.
         11    1    3    3    0    0 -0.43962801684E+01  0.26908599040E+01 -0.78783125889E+01  0.94146596249E+01  0.51100000000E-03 0. -1.
        -11    1    3    3    0    0  0.33504352180E+02 -0.21621128508E+02 -0.98397250067E+01  0.41071096911E+02  0.51100000000E-03 0.  1.
         12    1    3    3    0    0 -0.28883660886E+02  0.20036407543E+02  0.18062922809E+02  0.39522053006E+02  0.00000000000E+00 0. -1.
</event>
<event>
 7    1  0.3276565E-015  0.9000779E+02  0.7816164E-02  0.1186339E+00
        -11   -1    0    0    0    0  0.00000000000E+00  0.00000000000E+00  0.45593999997E+02  0.45594000000E+02  0.51100000000E-03 0. -1.
         11   -1    0    0    0    0 -0.00000000000E+00 -0.00000000000E+00 -0.45593999997E+02  0.45594000000E+02  0.51100000000E-03 0.  1.
    9900012    2    1    2    0    0 -0.19415772323E-01  0.77885089755E+00 -0.88651259910E+00  0.90007792272E+02  0.90000054330E+02 0.  0.
         12    1    1    2    0    0  0.19415772323E-01 -0.77885089755E+00  0.88651259910E+00  0.11802077280E+01  0.00000000000E+00 0. -1.
         11    1    3    3    0    0  0.26484749370E+02  0.60439324114E+01  0.24440922079E+02  0.36542163872E+02  0.51100000000E-03 0. -1.
        -11    1    3    3    0    0  0.86485742322E+01  0.47852893833E+01 -0.19652527809E+01  0.10077650990E+02  0.51100000000E-03 0.  1.
        -12    1    3    3    0    0 -0.35152739374E+02 -0.10050370897E+02 -0.23362181897E+02  0.43387977409E+02  0.00000000000E+00 0.  1.
</event>
<event>
 7    1  0.3276565E-015  0.9000779E+02  0.7816164E-02  0.1186339E+00
        -11   -1    0    0    0    0  0.00000000000E+00  0.00000000000E+00  0.45593999997E+02  0.45594000000E+02  0.51100000000E-03 0. -1.
         11   -1    0    0    0    0 -0.00000000000E+00 -0.00000000000E+00 -0.45593999997E+02  0.45594000000E+02  0.51100000000E-03 0.  1.
    9900012    2    1    2    0    0  0.90323857011E+00  0.75564078079E+00  0.77914763531E-01  0.90007786623E+02  0.90000048607E+02 0.  0.
         12    1    1    2    0    0 -0.90323857011E+00 -0.75564078079E+00 -0.77914763531E-01  0.11802133767E+01  0.00000000000E+00 0. -1.
         11    1    3    3    0    0  0.42246559198E+02 -0.65236639368E+01 -0.17362449246E+01  0.42782525661E+02  0.51100000000E-03 0. -1.
        -11    1    3    3    0    0 -0.48106759427E+01  0.22738005307E+01  0.82270441735E+01  0.97978073043E+01  0.51100000000E-03 0.  1.
        -12    1    3    3    0    0 -0.36532644685E+02  0.50055041869E+01 -0.64128844854E+01  0.37427453658E+02  0.00000000000E+00 0.  1.
</event>
<event>
 7    1  0.3276565E-015  0.9000778E+02  0.7816164E-02  0.1186339E+00
        -11   -1    0    0    0    0  0.00000000000E+00  0.00000000000E+00  0.45593999997E+02  0.45594000000E+02  0.51100000000E-03 0.  1.
         11   -1    0    0    0    0 -0.00000000000E+00 -0.00000000000E+00 -0.45593999997E+02  0.45594000000E+02  0.51100000000E-03 0. -1.
    9900012    2    1    2    0    0  0.55996495796E+00  0.72380801855E+00  0.74528968811E+00  0.90007781579E+02  0.90000043496E+02 0.  0.
         12    1    1    2    0    0 -0.55996495796E+00 -0.72380801855E+00 -0.74528968811E+00  0.11802184209E+01  0.00000000000E+00 0. -1.
         11    1    3    3    0    0  0.15137371959E+01 -0.82851920925E+01 -0.76110564482E+01  0.11351827554E+02  0.51100000000E-03 0. -1.
        -11    1    3    3    0    0  0.26706674207E+02 -0.10612036149E+02  0.27446778922E+02  0.39738991330E+02  0.51100000000E-03 0.  1.
         12    1    3    3    0    0 -0.27660446445E+02  0.19621036260E+02 -0.19090432786E+02  0.38916962695E+02  0.00000000000E+00 0. -1.
</event>
<event>
 7    1  0.3276565E-015  0.9000780E+02  0.7816164E-02  0.1186339E+00
        -11   -1    0    0    0    0  0.00000000000E+00  0.00000000000E+00  0.45593999997E+02  0.45594000000E+02  0.51100000000E-03 0.  1.
         11   -1    0    0    0    0 -0.00000000000E+00 -0.00000000000E+00 -0.45593999997E+02  0.45594000000E+02  0.51100000000E-03 0. -1.
    9900012    2    1    2    0    0  0.67854247213E+00 -0.68465336088E+00  0.68095646952E+00  0.90007800091E+02  0.90000062253E+02 0.  0.
         12    1    1    2    0    0 -0.67854247213E+00  0.68465336088E+00 -0.68095646952E+00  0.11801999087E+01  0.00000000000E+00 0. -1.
         11    1    3    3    0    0  0.31282868090E+02  0.42116313732E+01  0.82055135305E+01  0.32614201313E+02  0.51100000000E-03 0. -1.
        -11    1    3    3    0    0  0.55803569567E+01  0.11559065441E+01  0.13820033623E+02  0.14948907429E+02  0.51100000000E-03 0.  1.
        -12    1    3    3    0    0 -0.36184682574E+02 -0.60521912783E+01 -0.21344590684E+02  0.42444691349E+02  0.00000000000E+00 0.  1.
</event>
<event>
 7    1  0.3276565E-015  0.9000766E+02  0.7816164E-02  0.1186339E+00
        -11   -1    0    0    0    0  0.00000000000E+00  0.00000000000E+00  0.45593999997E+02  0.45594000000E+02  0.51100000000E-03 0. -1.
         11   -1    0    0    0    0 -0.00000000000E+00 -0.00000000000E+00 -0.45593999997E+02  0.45594000000E+02  0.51100000000E-03 0.  1.
    9900012    2    1    2    0    0  0.13996709659E+00 -0.11612117925E+01 -0.15872665651E+00  0.90007662012E+02  0.89999922350E+02 0.  0.
         12    1    1    2    0    0 -0.13996709659E+00  0.11612117925E+01  0.15872665651E+00  0.11803379883E+01  0.00000000000E+00 0. -1.
         11    1    3    3    0    0  0.15083735097E+02  0.48427336104E+01 -0.23265171788E+01  0.16011989750E+02  0.51100000000E-03 0. -1.
        -11    1    3    3    0    0  0.34265210061E+01 -0.36748022359E+02 -0.56517215173E+01  0.37337650567E+02  0.51100000000E-03 0.  1.
        -12    1    3    3    0    0 -0.18370289007E+02  0.30744076956E+02  0.78195120396E+01  0.36658021695E+02  0.00000000000E+00 0.  1.
</event>
<event>
 7    1  0.3276565E-015  0.9000781E+02  0.7816164E-02  0.1186339E+00
        -11   -1    0    0    0    0  0.00000000000E+00  0.00000000000E+00  0.45593999997E+02  0.45594000000E+02  0.51100000000E-03 0.  1.
         11   -1    0    0    0    0 -0.00000000000E+00 -0.00000000000E+00 -0.45593999997E+02  0.45594000000E+02  0.51100000000E-03 0. -1.
    9900012    2    1    2    0    0  0.65088911170E+00  0.97977496650E+00 -0.96096194189E-01  0.90007809295E+02  0.90000071578E+02 0.  0.
         12    1    1    2    0    0 -0.65088911170E+00 -0.97977496650E+00  0.96096194189E-01  0.11801907046E+01  0.00000000000E+00 0. -1.
         11    1    3    3    0    0 -0.11878508221E+02  0.27092939833E+02  0.12147582012E+02  0.31979526190E+02  0.51100000000E-03 0. -1.
        -11    1    3    3    0    0  0.21840874367E+02  0.59037632911E+01 -0.35117549296E+00  0.22627450996E+02  0.51100000000E-03 0.  1.
        -12    1    3    3    0    0 -0.93114770343E+01 -0.32016928158E+02 -0.11892502713E+02  0.35400832109E+02  0.00000000000E+00 0.  1.
</event>
<event>
 7    1  0.3276565E-015  0.9000736E+02  0.7816164E-02  0.1186340E+00
        -11   -1    0    0    0    0  0.00000000000E+00  0.00000000000E+00  0.45593999997E+02  0.45594000000E+02  0.51100000000E-03 0. -1.
         11   -1    0    0    0    0 -0.00000000000E+00 -0.00000000000E+00 -0.45593999997E+02  0.45594000000E+02  0.51100000000E-03 0.  1.
    9900012    2    1    2    0    0  0.56210686785E+00 -0.10321595693E+01  0.11222018616E+00  0.90007359971E+02  0.89999616322E+02 0.  0.
         12    1    1    2    0    0 -0.56210686785E+00  0.10321595693E+01 -0.11222018616E+00  0.11806400288E+01  0.00000000000E+00 0. -1.
         11    1    3    3    0    0 -0.79897980341E+01  0.52700005016E+00  0.62417003641E+01  0.10152508329E+02  0.51100000000E-03 0. -1.
        -11    1    3    3    0    0 -0.20125261180E+02 -0.12487525385E+02 -0.31934246702E+02  0.39758779414E+02  0.51100000000E-03 0.  1.
         12    1    3    3    0    0  0.28677166082E+02  0.10928365765E+02  0.25804766524E+02  0.40096072228E+02  0.00000000000E+00 0. -1.
</event>
<event>
 7    1  0.3276565E-015  0.9000773E+02  0.7816164E-02  0.1186339E+00
        -11   -1    0    0    0    0  0.00000000000E+00  0.00000000000E+00  0.45593999997E+02  0.45594000000E+02  0.51100000000E-03 0.  1.
         11   -1    0    0    0    0 -0.00000000000E+00 -0.00000000000E+00 -0.45593999997E+02  0.45594000000E+02  0.51100000000E-03 0. -1.
    9900012    2    1    2    0    0  0.11701147677E+01  0.65295779648E-01 -0.14004142578E+00  0.90007727273E+02  0.89999988473E+02 0.  0.
         12    1    1    2    0    0 -0.11701147677E+01 -0.65295779648E-01  0.14004142578E+00  0.11802727267E+01  0.00000000000E+00 0. -1.
         11    1    3    3    0    0 -0.30554025625E+02  0.89228187574E+01  0.25973014035E+01  0.31936047835E+02  0.51100000000E-03 0. -1.
        -11    1    3    3    0    0 -0.95106974621E+01 -0.13287892626E+02 -0.29171324306E+01  0.16599130053E+02  0.51100000000E-03 0.  1.
        -12    1    3    3    0    0  0.41234837855E+02  0.44303696480E+01  0.17978960126E+00  0.41472549385E+02  0.00000000000E+00 0.  1.
</event>
<event>
 7    1  0.3276565E-015  0.9000774E+02  0.7816164E-02  0.1186339E+00
        -11   -1    0    0    0    0  0.00000000000E+00  0.00000000000E+00  0.45593999997E+02  0.45594000000E+02  0.51100000000E-03 0. -1.
         11   -1    0    0    0    0 -0.00000000000E+00 -0.00000000000E+00 -0.45593999997E+02  0.45594000000E+02  0.51100000000E-03 0.  1.
    9900012    2    1    2    0    0  0.67977360435E+00 -0.94100064072E+00  0.21318118003E+00  0.90007737074E+02  0.89999998403E+02 0.  0.
         12    1    1    2    0    0 -0.67977360435E+00  0.94100064072E+00 -0.21318118003E+00  0.11802629260E+01  0.00000000000E+00 0. -1.
         11    1    3    3    0    0 -0.25125203818E+02 -0.15642870934E+01 -0.25494273873E+02  0.35828492315E+02  0.51100000000E-03 0. -1.
        -11    1    3    3    0    0 -0.12913852047E+01  0.58345591850E+00 -0.95824371194E+01  0.96866505028E+01  0.51100000000E-03 0.  1.
        -12    1    3    3    0    0  0.27096362627E+02  0.39830534216E-01  0.35289892173E+02  0.44492594256E+02  0.00000000000E+00 0.  1.
</event>
<event>
 7    1  0.3276565E-015  0.9000771E+02  0.7816164E-02  0.1186339E+00
        -11   -1    0    0    0    0  0.00000000000E+00  0.00000000000E+00  0.45593999997E+02  0.45594000000E+02  0.51100000000E-03 0. -1.
         11   -1    0    0    0    0 -0.00000000000E+00 -0.00000000000E+00 -0.45593999997E+02  0.45594000000E+02  0.51100000000E-03 0.  1.
    9900012    2    1    2    0    0  0.34118751666E+00 -0.39987987290E+00 -0.10567711548E+01  0.90007712701E+02  0.89999973709E+02 0.  0.
         12    1    1    2    0    0 -0.34118751666E+00  0.39987987290E+00  0.10567711548E+01  0.11802872989E+01  0.00000000000E+00 0. -1.
         11    1    3    3    0    0 -0.20113299884E+02  0.50491916887E+01 -0.30008549710E+02  0.36476735393E+02  0.51100000000E-03 0. -1.
        -11    1    3    3    0    0 -0.72421762920E+01  0.49077819508E+01 -0.36832463405E+01  0.94921938975E+01  0.51100000000E-03 0.  1.
        -12    1    3    3    0    0  0.27696663693E+02 -0.10356853512E+02  0.32635024895E+02  0.44038783411E+02  0.00000000000E+00 0.  1.
</event>
<event>
 7    1  0.3276565E-015  0.9000776E+02  0.7816164E-02  0.1186339E+00
        -11   -1    0    0    0    0  0.00000000000E+00  0.00000000000E+00  0.45593999997E+02  0.45594000000E+02  0.51100000000E-03 0.  1.
         11   -1    0    0    0    0 -0.00000000000E+00 -0.00000000000E+00 -0.45593999997E+02  0.45594000000E+02  0.51100000000E-03 0. -1.
    9900012    2    1    2    0    0  0.55673233104E+00  0.70448015557E+00  0.76598188894E+00  0.90007757893E+02  0.90000019497E+02 0.  0.
         12    1    1    2    0    0 -0.55673233104E+00 -0.70448015557E+00 -0.76598188894E+00  0.11802421074E+01  0.00000000000E+00 0. -1.
         11    1    3    3    0    0 -0.27749045265E+01 -0.54304260514E+01 -0.73110773550E+01  0.95205816305E+01  0.51100000000E-03 0. -1.
        -11    1    3    3    0    0  0.72021202879E+01 -0.28256651429E+02 -0.20467074648E+02  0.35625974113E+02  0.51100000000E-03 0.  1.
         12    1    3    3    0    0 -0.38704834303E+01  0.34391557636E+02  0.28544133892E+02  0.44861202149E+02  0.00000000000E+00 0. -1.
</event>
<event>
 7    1  0.3276565E-015  0.9000758E+02  0.7816164E-02  0.1186339E+00
        -11   -1    0    0    0    0  0.00000000000E+00  0.00000000000E+00  0.45593999997E+02  0.45594000000E+02  0.51100000000E-03 0. -1.
         11   -1    0    0    0    0 -0.00000000000E+00 -0.00000000000E+00 -0.45593999997E+02  0.45594000000E+02  0.51100000000E-03 0.  1.
    9900012    2    1    2    0    0  0.92155431689E+00  0.72608433694E+00  0.13015309981E+00  0.90007576071E+02  0.89999835275E+02 0.  0.
         12    1    1    2    0    0 -0.92155431689E+00 -0.72608433694E+00 -0.13015309981E+00  0.11804239292E+01  0.00000000000E+00 0. -1.
         11    1    3    3    0    0 -0.41736049774E+01 -0.63470193837E+01 -0.60710841357E+01  0.97242838507E+01  0.51100000000E-03 0. -1.
        -11    1    3    3    0    0  0.10962455457E+02  0.17282818746E+02 -0.33287649144E+02  0.39076064787E+02  0.51100000000E-03 0.  1.
         12    1    3    3    0    0 -0.58672961629E+01 -0.10209715025E+02  0.39488886380E+02  0.41207227433E+02  0.00000000000E+00 0. -1.
</event>
<event>
 7    1  0.3276565E-015  0.9000768E+02  0.7816164E-02  0.1186339E+00
        -11   -1    0    0    0    0  0.00000000000E+00  0.00000000000E+00  0.45593999997E+02  0.45594000000E+02  0.51100000000E-03 0. -1.
         11   -1    0    0    0    0 -0.00000000000E+00 -0.00000000000E+00 -0.45593999997E+02  0.45594000000E+02  0.51100000000E-03 0.  1.
    9900012    2    1    2    0    0  0.92790054556E+00 -0.24667362597E+00 -0.68651198808E+00  0.90007683936E+02  0.89999944564E+02 0.  0.
         12    1    1    2    0    0 -0.92790054556E+00  0.24667362597E+00  0.68651198808E+00  0.11803160636E+01  0.00000000000E+00 0. -1.
         11    1    3    3    0    0 -0.83395566177E+01 -0.18655209888E+02  0.29519671151E+02  0.35902312539E+02  0.51100000000E-03 0. -1.
        -11    1    3    3    0    0 -0.13583482330E+01  0.41284705514E+01  0.95795933362E+01  0.10519410048E+02  0.51100000000E-03 0.  1.
        -12    1    3    3    0    0  0.10625805396E+02  0.14280065710E+02 -0.39785776475E+02  0.43585961349E+02  0.00000000000E+00 0.  1.
</event>
<event>
 7    1  0.3276565E-015  0.9000718E+02  0.7816164E-02  0.1186340E+00
        -11   -1    0    0    0    0  0.00000000000E+00  0.00000000000E+00  0.45593999997E+02  0.45594000000E+02  0.51100000000E-03 0. -1.
         11   -1    0    0    0    0 -0.00000000000E+00 -0.00000000000E+00 -0.45593999997E+02  0.45594000000E+02  0.51100000000E-03 0.  1.
    9900012    2    1    2    0    0  0.22156599842E+00  0.55222652211E+00 -0.10199437837E+01  0.90007182086E+02  0.89999436088E+02 0.  0.
         12    1    1    2    0    0 -0.22156599842E+00 -0.55222652211E+00  0.10199437837E+01  0.11808179137E+01  0.00000000000E+00 0. -1.
         11    1    3    3    0    0 -0.39584231723E+02 -0.30091861995E-01  0.44968092641E+01  0.39838845371E+02  0.51100000000E-03 0. -1.
        -11    1    3    3    0    0 -0.32365529235E+01 -0.26986164541E+00  0.48968375981E+01  0.58759781192E+01  0.51100000000E-03 0.  1.
        -12    1    3    3    0    0  0.43042350645E+02  0.85218002951E+00 -0.10413590646E+02  0.44292358596E+02  0.00000000000E+00 0.  1.
</event>
<event>
 7    1  0.3276565E-015  0.9000825E+02  0.7816164E-02  0.1186338E+00
        -11   -1    0    0    0    0  0.00000000000E+00  0.00000000000E+00  0.45593999997E+02  0.45594000000E+02  0.51100000000E-03 0.  1.
         11   -1    0    0    0    0 -0.00000000000E+00 -0.00000000000E+00 -0.45593999997E+02  0.45594000000E+02  0.51100000000E-03 0. -1.
    9900012    2    1    2    0    0 -0.96621974386E+00 -0.61381417447E+00 -0.28539969891E+00  0.90008253662E+02  0.90000521809E+02 0.  0.
         12    1    1    2    0    0  0.96621974386E+00  0.61381417447E+00  0.28539969891E+00  0.11797463381E+01  0.00000000000E+00 0. -1.
         11    1    3    3    0    0 -0.10040433221E+02 -0.10869648258E+01 -0.59951849366E+01  0.11744532110E+02  0.51100000000E-03 0. -1.
        -11    1    3    3    0    0 -0.48172982153E+00 -0.31154643621E+02  0.25050204622E+02  0.39979452656E+02  0.51100000000E-03 0.  1.
         12    1    3    3    0    0  0.95559432989E+01  0.31627794273E+02 -0.19340419385E+02  0.38284268896E+02  0.00000000000E+00 0. -1.
</event>
<event>
 7    1  0.3276565E-015  0.9000763E+02  0.7816164E-02  0.1186339E+00
        -11   -1    0    0    0    0  0.00000000000E+00  0.00000000000E+00  0.45593999997E+02  0.45594000000E+02  0.51100000000E-03 0. -1.
         11   -1    0    0    0    0 -0.00000000000E+00 -0.00000000000E+00 -0.45593999997E+02  0.45594000000E+02  0.51100000000E-03 0.  1.
    9900012    2    1    2    0    0  0.29923354706E+00 -0.95211746103E+00  0.63023630876E+00  0.90007633032E+02  0.89999892988E+02 0.  0.
         12    1    1    2    0    0 -0.29923354706E+00  0.95211746103E+00 -0.63023630876E+00  0.11803669684E+01  0.00000000000E+00 0. -1.
         11    1    3    3    0    0  0.24220993167E+02 -0.78871259355E+01  0.15554626637E+01  0.25520241572E+02  0.51100000000E-03 0. -1.
        -11    1    3    3    0    0  0.64119754507E+01  0.19452384533E+02  0.17424050247E+02  0.26890634438E+02  0.51100000000E-03 0.  1.
        -12    1    3    3    0    0 -0.30333735071E+02 -0.12517376058E+02 -0.18349276602E+02  0.37596757022E+02  0.00000000000E+00 0.  1.
</event>
<event>
 7    1  0.3276565E-015  0.9000783E+02  0.7816164E-02  0.1186339E+00
        -11   -1    0    0    0    0  0.00000000000E+00  0.00000000000E+00  0.45593999997E+02  0.45594000000E+02  0.51100000000E-03 0. -1.
         11   -1    0    0    0    0 -0.00000000000E+00 -0.00000000000E+00 -0.45593999997E+02  0.45594000000E+02  0.51100000000E-03 0.  1.
    9900012    2    1    2    0    0 -0.76241761631E-01 -0.97458384708E+00  0.66118883989E+00  0.90007831723E+02  0.90000094301E+02 0.  0.
         12    1    1    2    0    0  0.76241761631E-01  0.97458384708E+00 -0.66118883989E+00  0.11801682775E+01  0.00000000000E+00 0. -1.
         11    1    3    3    0    0  0.10214318404E+02  0.13683105976E+02  0.33801657151E+02  0.37869667493E+02  0.51100000000E-03 0. -1.
        -11    1    3    3    0    0 -0.51201955534E+01  0.84538525363E+01  0.16818284777E+01  0.10025595868E+02  0.51100000000E-03 0.  1.
        -12    1    3    3    0    0 -0.51703646124E+01 -0.23111542359E+02 -0.34822296788E+02  0.42112568362E+02  0.00000000000E+00 0.  1.
</event>
<event>
 7    1  0.3276565E-015  0.9000772E+02  0.7816164E-02  0.1186339E+00
        -11   -1    0    0    0    0  0.00000000000E+00  0.00000000000E+00  0.45593999997E+02  0.45594000000E+02  0.51100000000E-03 0.  1.
         11   -1    0    0    0    0 -0.00000000000E+00 -0.00000000000E+00 -0.45593999997E+02  0.45594000000E+02  0.51100000000E-03 0. -1.
    9900012    2    1    2    0    0 -0.69258843090E+00 -0.60241365531E+00  0.74193968721E+00  0.90007722301E+02  0.89999983436E+02 0.  0.
         12    1    1    2    0    0  0.69258843090E+00  0.60241365531E+00 -0.74193968721E+00  0.11802776987E+01  0.00000000000E+00 0. -1.
         11    1    3    3    0    0  0.14760932710E+01  0.83532069941E+01 -0.30357355475E+01  0.90094732924E+01  0.51100000000E-03 0. -1.
        -11    1    3    3    0    0 -0.11905155008E+02  0.34429145713E+02  0.87871947586E+00  0.36439963480E+02  0.51100000000E-03 0.  1.
         12    1    3    3    0    0  0.97364733061E+01 -0.43384766362E+02  0.28989557589E+01  0.44558285528E+02  0.00000000000E+00 0. -1.
</event>
<event>
 7    1  0.3276565E-015  0.9000771E+02  0.7816164E-02  0.1186339E+00
        -11   -1    0    0    0    0  0.00000000000E+00  0.00000000000E+00  0.45593999997E+02  0.45594000000E+02  0.51100000000E-03 0.  1.
         11   -1    0    0    0    0 -0.00000000000E+00 -0.00000000000E+00 -0.45593999997E+02  0.45594000000E+02  0.51100000000E-03 0. -1.
    9900012    2    1    2    0    0 -0.57713070233E+00 -0.76121466048E+00  0.69321424925E+00  0.90007714610E+02  0.89999975643E+02 0.  0.
         12    1    1    2    0    0  0.57713070233E+00  0.76121466048E+00 -0.69321424925E+00  0.11802853902E+01  0.00000000000E+00 0. -1.
         11    1    3    3    0    0 -0.79465577609E+00  0.75610913191E+01 -0.66967194016E+01  0.10131516705E+02  0.51100000000E-03 0. -1.
        -11    1    3    3    0    0  0.50626717581E+01  0.29298569629E+02  0.24248461028E+02  0.38366973951E+02  0.51100000000E-03 0.  1.
         12    1    3    3    0    0 -0.48451466843E+01 -0.37620875609E+02 -0.16858527377E+02  0.41509223954E+02  0.00000000000E+00 0. -1.
</event>
<event>
 7    1  0.3276565E-015  0.9000776E+02  0.7816164E-02  0.1186339E+00
        -11   -1    0    0    0    0  0.00000000000E+00  0.00000000000E+00  0.45593999997E+02  0.45594000000E+02  0.51100000000E-03 0. -1.
         11   -1    0    0    0    0 -0.00000000000E+00 -0.00000000000E+00 -0.45593999997E+02  0.45594000000E+02  0.51100000000E-03 0.  1.
    9900012    2    1    2    0    0  0.34275198921E+00 -0.61350456381E+00 -0.94821067346E+00  0.90007758390E+02  0.90000020001E+02 0.  0.
         12    1    1    2    0    0 -0.34275198921E+00  0.61350456381E+00  0.94821067346E+00  0.11802416097E+01  0.00000000000E+00 0. -1.
         11    1    3    3    0    0  0.16876794330E+02  0.13911650821E+02  0.30689215523E+02  0.37685383972E+02  0.51100000000E-03 0. -1.
        -11    1    3    3    0    0 -0.61315381058E+01  0.60044824624E+01  0.43373067845E+01  0.96157058809E+01  0.51100000000E-03 0.  1.
        -12    1    3    3    0    0 -0.10402504235E+02 -0.20529637847E+02 -0.35974732981E+02  0.42706668537E+02  0.00000000000E+00 0.  1.
</event>
<event>
 7    1  0.3276565E-015  0.9000776E+02  0.7816164E-02  0.1186339E+00
        -11   -1    0    0    0    0  0.00000000000E+00  0.00000000000E+00  0.45593999997E+02  0.45594000000E+02  0.51100000000E-03 0.  1.
         11   -1    0    0    0    0 -0.00000000000E+00 -0.00000000000E+00 -0.45593999997E+02  0.45594000000E+02  0.51100000000E-03 0. -1.
    9900012    2    1    2    0    0 -0.11685356415E+01 -0.11070493222E+00  0.12344690598E+00  0.90007758387E+02  0.90000019997E+02 0.  0.
         12    1    1    2    0    0  0.11685356415E+01  0.11070493222E+00 -0.12344690598E+00  0.11802416134E+01  0.00000000000E+00 0. -1.
         11    1    3    3    0    0 -0.97444846220E+01  0.36601617790E+02 -0.11336478359E+02  0.39536681035E+02  0.51100000000E-03 0. -1.
        -11    1    3    3    0    0 -0.79370620190E+01 -0.30277815069E+01 -0.46036302493E+01  0.96621853677E+01  0.51100000000E-03 0.  1.
        -12    1    3    3    0    0  0.16513011000E+02 -0.33684541216E+02  0.16063555514E+02  0.40808891984E+02  0.00000000000E+00 0.  1.
</event>
<event>
 7    1  0.3276565E-015  0.9000774E+02  0.7816164E-02  0.1186339E+00
        -11   -1    0    0    0    0  0.00000000000E+00  0.00000000000E+00  0.45593999997E+02  0.45594000000E+02  0.51100000000E-03 0.  1.
         11   -1    0    0    0    0 -0.00000000000E+00 -0.00000000000E+00 -0.45593999997E+02  0.45594000000E+02  0.51100000000E-03 0. -1.
    9900012    2    1    2    0    0 -0.82711408420E+00  0.76209333930E-01  0.83850700299E+00  0.90007737502E+02  0.89999998837E+02 0.  0.
         12    1    1    2    0    0  0.82711408420E+00 -0.76209333930E-01 -0.83850700299E+00  0.11802624983E+01  0.00000000000E+00 0. -1.
         11    1    3    3    0    0  0.86207545373E+01  0.15981298347E+01  0.42597652085E+01  0.97476678059E+01  0.51100000000E-03 0. -1.
        -11    1    3    3    0    0 -0.39008630382E+02  0.17846491801E+02 -0.10622890597E+02  0.44192944220E+02  0.51100000000E-03 0.  1.
         12    1    3    3    0    0  0.29560761761E+02 -0.19368412302E+02  0.72016323916E+01  0.36067125476E+02  0.00000000000E+00 0. -1.
</event>
<event>
 7    1  0.3276565E-015  0.9000760E+02  0.7816164E-02  0.1186339E+00
        -11   -1    0    0    0    0  0.00000000000E+00  0.00000000000E+00  0.45593999997E+02  0.45594000000E+02  0.51100000000E-03 0.  1.
         11   -1    0    0    0    0 -0.00000000000E+00 -0.00000000000E+00 -0.45593999997E+02  0.45594000000E+02  0.51100000000E-03 0. -1.
    9900012    2    1    2    0    0 -0.22566667906E+00  0.11095687972E+01  0.33357333806E+00  0.90007601958E+02  0.89999861504E+02 0.  0.
         12    1    1    2    0    0  0.22566667906E+00 -0.11095687972E+01 -0.33357333806E+00  0.11803980420E+01  0.00000000000E+00 0. -1.
         11    1    3    3    0    0 -0.10701675750E+02  0.36505207220E+02 -0.39139246497E+01  0.38242317195E+02  0.51100000000E-03 0. -1.
        -11    1    3    3    0    0 -0.10200301484E+02  0.44646143246E+00  0.10370280223E+01  0.10262597408E+02  0.51100000000E-03 0.  1.
        -12    1    3    3    0    0  0.20676310556E+02 -0.35842099855E+02  0.32104699654E+01  0.41502687354E+02  0.00000000000E+00 0.  1.
</event>
<event>
 7    1  0.3276565E-015  0.9000771E+02  0.7816164E-02  0.1186339E+00
        -11   -1    0    0    0    0  0.00000000000E+00  0.00000000000E+00  0.45593999997E+02  0.45594000000E+02  0.51100000000E-03 0.  1.
         11   -1    0    0    0    0 -0.00000000000E+00 -0.00000000000E+00 -0.45593999997E+02  0.45594000000E+02  0.51100000000E-03 0. -1.
    9900012    2    1    2    0    0 -0.44449328175E+00 -0.51747539564E+00  0.96318769269E+00  0.90007709530E+02  0.89999970496E+02 0.  0.
         12    1    1    2    0    0  0.44449328175E+00  0.51747539564E+00 -0.96318769269E+00  0.11802904702E+01  0.00000000000E+00 0. -1.
         11    1    3    3    0    0  0.34616259198E+01 -0.88641298516E+01 -0.69809438242E+00  0.95416449348E+01  0.51100000000E-03 0. -1.
        -11    1    3    3    0    0  0.28782169660E+02  0.12943202135E+02  0.24814352027E+02  0.40145881963E+02  0.51100000000E-03 0.  1.
         12    1    3    3    0    0 -0.32688288861E+02 -0.45965476788E+01 -0.23153069952E+02  0.40320182632E+02  0.00000000000E+00 0. -1.
</event>
<event>
 7    1  0.3276565E-015  0.9000771E+02  0.7816164E-02  0.1186339E+00
        -11   -1    0    0    0    0  0.00000000000E+00  0.00000000000E+00  0.45593999997E+02  0.45594000000E+02  0.51100000000E-03 0. -1.
         11   -1    0    0    0    0 -0.00000000000E+00 -0.00000000000E+00 -0.45593999997E+02  0.45594000000E+02  0.51100000000E-03 0.  1.
    9900012    2    1    2    0    0 -0.77301121789E+00 -0.88551773928E+00  0.10680882177E+00  0.90007705065E+02  0.89999965972E+02 0.  0.
         12    1    1    2    0    0  0.77301121789E+00  0.88551773928E+00 -0.10680882177E+00  0.11802949352E+01  0.00000000000E+00 0. -1.
         11    1    3    3    0    0  0.67578146891E+01 -0.65758235202E+01  0.20801839024E+00  0.94314784766E+01  0.51100000000E-03 0. -1.
        -11    1    3    3    0    0  0.35882319265E+02 -0.38283227289E+01  0.13053403338E+01  0.36109566661E+02  0.51100000000E-03 0.  1.
         12    1    3    3    0    0 -0.43413145172E+02  0.95186285099E+01 -0.14065499022E+01  0.44466659927E+02  0.00000000000E+00 0. -1.
</event>
<event>
 7    1  0.3276565E-015  0.9000786E+02  0.7816164E-02  0.1186339E+00
        -11   -1    0    0    0    0  0.00000000000E+00  0.00000000000E+00  0.45593999997E+02  0.45594000000E+02  0.51100000000E-03 0. -1.
         11   -1    0    0    0    0 -0.00000000000E+00 -0.00000000000E+00 -0.45593999997E+02  0.45594000000E+02  0.51100000000E-03 0.  1.
    9900012    2    1    2    0    0  0.13352198367E+00 -0.74858287406E+00 -0.90251737616E+00  0.90007855071E+02  0.90000117958E+02 0.  0.
         12    1    1    2    0    0 -0.13352198367E+00  0.74858287406E+00  0.90251737616E+00  0.11801449291E+01  0.00000000000E+00 0. -1.
         11    1    3    3    0    0  0.43102241820E+01  0.30593199572E+02  0.24154093144E+02  0.39216605009E+02  0.51100000000E-03 0. -1.
        -11    1    3    3    0    0  0.22688053993E+01 -0.66101191668E+01  0.69340571907E+01  0.98449125300E+01  0.51100000000E-03 0.  1.
        -12    1    3    3    0    0 -0.64455075976E+01 -0.24731663279E+02 -0.31990667710E+02  0.40946337532E+02  0.00000000000E+00 0.  1.
</event>
<event>
 7    1  0.3276565E-015  0.9000764E+02  0.7816164E-02  0.1186339E+00
        -11   -1    0    0    0    0  0.00000000000E+00  0.00000000000E+00  0.45593999997E+02  0.45594000000E+02  0.51100000000E-03 0.  1.
         11   -1    0    0    0    0 -0.00000000000E+00 -0.00000000000E+00 -0.45593999997E+02  0.45594000000E+02  0.51100000000E-03 0. -1.
    9900012    2    1    2    0    0 -0.95961680652E+00  0.17001612183E+00 -0.66593412742E+00  0.90007644901E+02  0.89999905014E+02 0.  0.
         12    1    1    2    0    0  0.95961680652E+00 -0.17001612183E+00  0.66593412742E+00  0.11803550987E+01  0.00000000000E+00 0. -1.
         11    1    3    3    0    0  0.61261263573E+01  0.38162079392E+02 -0.18480810910E+02  0.42841733156E+02  0.51100000000E-03 0. -1.
        -11    1    3    3    0    0 -0.87243334411E+01 -0.47188763772E+01  0.13647058726E+01  0.10012203086E+02  0.51100000000E-03 0.  1.
        -12    1    3    3    0    0  0.16385902773E+01 -0.33273186893E+02  0.16450170910E+02  0.37153708659E+02  0.00000000000E+00 0.  1.
</event>
<event>
 7    1  0.3276565E-015  0.9000780E+02  0.7816164E-02  0.1186339E+00
        -11   -1    0    0    0    0  0.00000000000E+00  0.00000000000E+00  0.45593999997E+02  0.45594000000E+02  0.51100000000E-03 0.  1.
         11   -1    0    0    0    0 -0.00000000000E+00 -0.00000000000E+00 -0.45593999997E+02  0.45594000000E+02  0.51100000000E-03 0. -1.
    9900012    2    1    2    0    0 -0.46422394769E-01  0.97637446109E+00  0.66136800733E+00  0.90007800962E+02  0.90000063135E+02 0.  0.
         12    1    1    2    0    0  0.46422394769E-01 -0.97637446109E+00 -0.66136800733E+00  0.11801990375E+01  0.00000000000E+00 0. -1.
         11    1    3    3    0    0 -0.28885138240E+01 -0.43011848337E+01 -0.76250629513E+01  0.92187465719E+01  0.51100000000E-03 0. -1.
        -11    1    3    3    0    0 -0.60454318614E+01 -0.36827891559E+02  0.32465866444E+01  0.37461729380E+02  0.51100000000E-03 0.  1.
         12    1    3    3    0    0  0.88875232907E+01  0.42105450854E+02  0.50398443142E+01  0.43327325010E+02  0.00000000000E+00 0. -1.
</event>
<event>
 7    1  0.3276565E-015  0.9000771E+02  0.7816164E-02  0.1186339E+00
        -11   -1    0    0    0    0  0.00000000000E+00  0.00000000000E+00  0.45593999997E+02  0.45594000000E+02  0.51100000000E-03 0.  1.
         11   -1    0    0    0    0 -0.00000000000E+00 -0.00000000000E+00 -0.45593999997E+02  0.45594000000E+02  0.51100000000E-03 0. -1.
    9900012    2    1    2    0    0  0.11647448717E+01  0.18568756663E+00 -0.44478776889E-01  0.90007708150E+02  0.89999969098E+02 0.  0.
         12    1    1    2    0    0 -0.11647448717E+01 -0.18568756663E+00  0.44478776889E-01  0.11802918495E+01  0.00000000000E+00 0. -1.
         11    1    3    3    0    0 -0.39977870510E+02  0.10949905649E+02  0.74861479595E+01  0.42120932751E+02  0.51100000000E-03 0. -1.
        -11    1    3    3    0    0  0.57330337026E+01 -0.10050501131E+02  0.45990605105E+00  0.11579799750E+02  0.51100000000E-03 0.  1.
        -12    1    3    3    0    0  0.35409581679E+02 -0.71371695116E+00 -0.79905327874E+01  0.36306975650E+02  0.00000000000E+00 0.  1.
</event>
<event>
 7    1  0.3276565E-015  0.9000761E+02  0.7816164E-02  0.1186339E+00
        -11   -1    0    0    0    0  0.00000000000E+00  0.00000000000E+00  0.45593999997E+02  0.45594000000E+02  0.51100000000E-03 0. -1.
         11   -1    0    0    0    0 -0.00000000000E+00 -0.00000000000E+00 -0.45593999997E+02  0.45594000000E+02  0.51100000000E-03 0.  1.
    9900012    2    1    2    0    0 -0.59819074715E+00 -0.93494868740E-01 -0.10132843847E+01  0.90007610783E+02  0.89999870445E+02 0.  0.
         12    1    1    2    0    0  0.59819074715E+00  0.93494868740E-01  0.10132843847E+01  0.11803892174E+01  0.00000000000E+00 0. -1.
         11    1    3    3    0    0  0.71566464336E+01 -0.26021507430E+01 -0.49569246406E+01  0.90862466849E+01  0.51100000000E-03 0. -1.
        -11    1    3    3    0    0 -0.18478784517E+01 -0.34016299076E+02  0.21169710043E+02  0.40108351763E+02  0.51100000000E-03 0.  1.
         12    1    3    3    0    0 -0.59069587290E+01  0.36524954950E+02 -0.17226069787E+02  0.40813012335E+02  0.00000000000E+00 0. -1.
</event>
<event>
 7    1  0.3276565E-015  0.9000777E+02  0.7816164E-02  0.1186339E+00
        -11   -1    0    0    0    0  0.00000000000E+00  0.00000000000E+00  0.45593999997E+02  0.45594000000E+02  0.51100000000E-03 0. -1.
         11   -1    0    0    0    0 -0.00000000000E+00 -0.00000000000E+00 -0.45593999997E+02  0.45594000000E+02  0.51100000000E-03 0.  1.
    9900012    2    1    2    0    0  0.61890643313E+00 -0.99512098565E+00 -0.14014622048E+00  0.90007766162E+02  0.90000027875E+02 0.  0.
         12    1    1    2    0    0 -0.61890643313E+00  0.99512098565E+00  0.14014622048E+00  0.11802338379E+01  0.00000000000E+00 0. -1.
         11    1    3    3    0    0 -0.11764069364E+02 -0.32811019825E+01  0.55688546902E+00  0.12225754779E+02  0.51100000000E-03 0. -1.
        -11    1    3    3    0    0 -0.12135525246E+02 -0.13641001182E+02 -0.30808057229E+02  0.35811789633E+02  0.51100000000E-03 0.  1.
         12    1    3    3    0    0  0.24518501043E+02  0.15926982179E+02  0.30111025539E+02  0.41970221750E+02  0.00000000000E+00 0. -1.
</event>
<event>
 7    1  0.3276565E-015  0.9000781E+02  0.7816164E-02  0.1186339E+00
        -11   -1    0    0    0    0  0.00000000000E+00  0.00000000000E+00  0.45593999997E+02  0.45594000000E+02  0.51100000000E-03 0. -1.
         11   -1    0    0    0    0 -0.00000000000E+00 -0.00000000000E+00 -0.45593999997E+02  0.45594000000E+02  0.51100000000E-03 0.  1.
    9900012    2    1    2    0    0 -0.70060867719E-01 -0.11720412964E+01  0.11936297058E+00  0.90007814911E+02  0.90000077268E+02 0.  0.
         12    1    1    2    0    0  0.70060867719E-01  0.11720412964E+01 -0.11936297058E+00  0.11801850891E+01  0.00000000000E+00 0. -1.
         11    1    3    3    0    0 -0.25393661242E+02  0.28297815168E+00  0.25726096385E+02  0.36148999203E+02  0.51100000000E-03 0. -1.
        -11    1    3    3    0    0 -0.92044130238E+01 -0.34041765513E+01  0.14878856181E+01  0.99258974898E+01  0.51100000000E-03 0.  1.
        -12    1    3    3    0    0  0.34528013398E+02  0.19491571032E+01 -0.27094619032E+02  0.43932918218E+02  0.00000000000E+00 0.  1.
</event>
<event>
 7    1  0.3276565E-015  0.9000720E+02  0.7816164E-02  0.1186340E+00
        -11   -1    0    0    0    0  0.00000000000E+00  0.00000000000E+00  0.45593999997E+02  0.45594000000E+02  0.51100000000E-03 0.  1.
         11   -1    0    0    0    0 -0.00000000000E+00 -0.00000000000E+00 -0.45593999997E+02  0.45594000000E+02  0.51100000000E-03 0. -1.
    9900012    2    1    2    0    0 -0.90474288375E+00  0.63696836330E+00 -0.41230175145E+00  0.90007203186E+02  0.89999457466E+02 0.  0.
         12    1    1    2    0    0  0.90474288375E+00 -0.63696836330E+00  0.41230175145E+00  0.11807968139E+01  0.00000000000E+00 0. -1.
         11    1    3    3    0    0  0.14512638355E+02 -0.19814960269E+02 -0.30625792570E+02  0.39257973627E+02  0.51100000000E-03 0. -1.
        -11    1    3    3    0    0 -0.78618741510E+01 -0.75447063253E+01  0.38449622119E+01  0.11554886125E+02  0.51100000000E-03 0.  1.
        -12    1    3    3    0    0 -0.75555070881E+01  0.27996634957E+02  0.26368528607E+02  0.39194343434E+02  0.00000000000E+00 0.  1.
</event>
<event>
 7    1  0.3276565E-015  0.9000777E+02  0.7816164E-02  0.1186339E+00
        -11   -1    0    0    0    0  0.00000000000E+00  0.00000000000E+00  0.45593999997E+02  0.45594000000E+02  0.51100000000E-03 0. -1.
         11   -1    0    0    0    0 -0.00000000000E+00 -0.00000000000E+00 -0.45593999997E+02  0.45594000000E+02  0.51100000000E-03 0.  1.
    9900012    2    1    2    0    0 -0.90725894106E-01  0.14475169488E+00 -0.11677976056E+01  0.90007773120E+02  0.90000034925E+02 0.  0.
         12    1    1    2    0    0  0.90725894106E-01 -0.14475169488E+00  0.11677976056E+01  0.11802268802E+01  0.00000000000E+00 0. -1.
         11    1    3    3    0    0 -0.11330908066E+02  0.12019389046E+02  0.32563066272E+02  0.36513127446E+02  0.51100000000E-03 0. -1.
        -11    1    3    3    0    0  0.15160716653E+01  0.13347328228E+02 -0.58207482863E+01  0.14640039446E+02  0.51100000000E-03 0.  1.
        -12    1    3    3    0    0  0.97241105071E+01 -0.25221965578E+02 -0.27910115591E+02  0.38854606227E+02  0.00000000000E+00 0.  1.
</event>
<event>
 7    1  0.3276565E-015  0.9000779E+02  0.7816164E-02  0.1186339E+00
        -11   -1    0    0    0    0  0.00000000000E+00  0.00000000000E+00  0.45593999997E+02  0.45594000000E+02  0.51100000000E-03 0.  1.
         11   -1    0    0    0    0 -0.00000000000E+00 -0.00000000000E+00 -0.45593999997E+02  0.45594000000E+02  0.51100000000E-03 0. -1.
    9900012    2    1    2    0    0  0.22233764278E+00 -0.10767243557E+01  0.42908856395E+00  0.90007793933E+02  0.90000056013E+02 0.  0.
         12    1    1    2    0    0 -0.22233764278E+00  0.10767243557E+01 -0.42908856395E+00  0.11802060673E+01  0.00000000000E+00 0. -1.
         11    1    3    3    0    0 -0.30100095458E+01  0.13447748935E+02 -0.35417765499E+02  0.38004213215E+02  0.51100000000E-03 0. -1.
        -11    1    3    3    0    0  0.50849812461E+01 -0.46410608531E+01 -0.58975247032E+01  0.90651683935E+01  0.51100000000E-03 0.  1.
        -12    1    3    3    0    0 -0.18526340575E+01 -0.98834124371E+01  0.41744378766E+02  0.42938412324E+02  0.00000000000E+00 0.  1.
</event>
<event>
 7    1  0.3276565E-015  0.9000771E+02  0.7816164E-02  0.1186339E+00
        -11   -1    0    0    0    0  0.00000000000E+00  0.00000000000E+00  0.45593999997E+02  0.45594000000E+02  0.51100000000E-03 0.  1.
         11   -1    0    0    0    0 -0.00000000000E+00 -0.00000000000E+00 -0.45593999997E+02  0.45594000000E+02  0.51100000000E-03 0. -1.
    9900012    2    1    2    0    0  0.68529761413E+00  0.33976186577E+00  0.89889541561E+00  0.90007710242E+02  0.89999971217E+02 0.  0.
         12    1    1    2    0    0 -0.68529761413E+00 -0.33976186577E+00 -0.89889541561E+00  0.11802897583E+01  0.00000000000E+00 0. -1.
         11    1    3    3    0    0  0.20619764442E+02 -0.23713449084E+02 -0.24578222516E+02  0.39894753733E+02  0.51100000000E-03 0. -1.
        -11    1    3    3    0    0 -0.42420046476E+01  0.77877000972E+01 -0.64713774897E+01  0.10978233151E+02  0.51100000000E-03 0.  1.
        -12    1    3    3    0    0 -0.15692462180E+02  0.16265510853E+02  0.31948495422E+02  0.39134723358E+02  0.00000000000E+00 0.  1.
</event>
<event>
 7    1  0.3276565E-015  0.9000770E+02  0.7816164E-02  0.1186339E+00
        -11   -1    0    0    0    0  0.00000000000E+00  0.00000000000E+00  0.45593999997E+02  0.45594000000E+02  0.51100000000E-03 0.  1.
         11   -1    0    0    0    0 -0.00000000000E+00 -0.00000000000E+00 -0.45593999997E+02  0.45594000000E+02  0.51100000000E-03 0. -1.
    9900012    2    1    2    0    0  0.90580936467E+00 -0.75468283962E+00  0.55348071815E-01  0.90007703341E+02  0.89999964225E+02 0.  0.
         12    1    1    2    0    0 -0.90580936467E+00  0.75468283962E+00 -0.55348071815E-01  0.11802966587E+01  0.00000000000E+00 0. -1.
         11    1    3    3    0    0 -0.10229897343E+02  0.20435367020E+01  0.59643347212E+00  0.10449046609E+02  0.51100000000E-03 0. -1.
        -11    1    3    3    0    0  0.41547795073E+02  0.10363073813E+02  0.11438193262E+02  0.44322058162E+02  0.51100000000E-03 0.  1.
         12    1    3    3    0    0 -0.30412088366E+02 -0.13161293355E+02 -0.11979278662E+02  0.35236598570E+02  0.00000000000E+00 0. -1.
</event>
<event>
 7    1  0.3276565E-015  0.9000777E+02  0.7816164E-02  0.1186339E+00
        -11   -1    0    0    0    0  0.00000000000E+00  0.00000000000E+00  0.45593999997E+02  0.45594000000E+02  0.51100000000E-03 0.  1.
         11   -1    0    0    0    0 -0.00000000000E+00 -0.00000000000E+00 -0.45593999997E+02  0.45594000000E+02  0.51100000000E-03 0. -1.
    9900012    2    1    2    0    0  0.57302934115E-01  0.95469093940E+00 -0.69153897217E+00  0.90007769274E+02  0.90000031029E+02 0.  0.
         12    1    1    2    0    0 -0.57302934115E-01 -0.95469093940E+00  0.69153897217E+00  0.11802307258E+01  0.00000000000E+00 0. -1.
         11    1    3    3    0    0  0.21845951042E+02 -0.21714893344E+00  0.13520789753E+01  0.21888829306E+02  0.51100000000E-03 0. -1.
        -11    1    3    3    0    0 -0.14542166725E+02 -0.30493022013E+02 -0.88652083101E+01  0.34926936928E+02  0.51100000000E-03 0.  1.
         12    1    3    3    0    0 -0.72464813829E+01  0.31664861886E+02  0.68215903626E+01  0.33192003040E+02  0.00000000000E+00 0. -1.
</event>
<event>
 7    1  0.3276565E-015  0.9000807E+02  0.7816164E-02  0.1186338E+00
        -11   -1    0    0    0    0  0.00000000000E+00  0.00000000000E+00  0.45593999997E+02  0.45594000000E+02  0.51100000000E-03 0. -1.
         11   -1    0    0    0    0 -0.00000000000E+00 -0.00000000000E+00 -0.45593999997E+02  0.45594000000E+02  0.51100000000E-03 0.  1.
    9900012    2    1    2    0    0  0.52691801704E+00 -0.10087094762E+01 -0.31160924289E+00  0.90008068763E+02  0.90000334470E+02 0.  0.
         12    1    1    2    0    0 -0.52691801704E+00  0.10087094762E+01  0.31160924289E+00  0.11799312371E+01  0.00000000000E+00 0. -1.
         11    1    3    3    0    0  0.43706367447E+01  0.12209599846E+02 -0.55940987015E+01  0.14123410866E+02  0.51100000000E-03 0. -1.
        -11    1    3    3    0    0 -0.95225387208E+01  0.29464110025E+02 -0.56122656042E+01  0.31469192057E+02  0.51100000000E-03 0.  1.
         12    1    3    3    0    0  0.56788199932E+01 -0.42682419347E+02  0.10894755063E+02  0.44415465839E+02  0.00000000000E+00 0. -1.
</event>
<event>
 7    1  0.3276565E-015  0.9000792E+02  0.7816164E-02  0.1186339E+00
        -11   -1    0    0    0    0  0.00000000000E+00  0.00000000000E+00  0.45593999997E+02  0.45594000000E+02  0.51100000000E-03 0. -1.
         11   -1    0    0    0    0 -0.00000000000E+00 -0.00000000000E+00 -0.45593999997E+02  0.45594000000E+02  0.51100000000E-03 0.  1.
    9900012    2    1    2    0    0  0.11508438113E+01 -0.28630072070E-01 -0.25945599798E+00  0.90007924335E+02  0.90000188136E+02 0.  0.
         12    1    1    2    0    0 -0.11508438113E+01  0.28630072070E-01  0.25945599798E+00  0.11800756645E+01  0.00000000000E+00 0. -1.
         11    1    3    3    0    0  0.45143767908E+01 -0.11566713152E+02 -0.23696075457E+01  0.12640549479E+02  0.51100000000E-03 0. -1.
        -11    1    3    3    0    0 -0.15741143611E+02 -0.26803651672E+02  0.15729925208E+02  0.34837478274E+02  0.51100000000E-03 0.  1.
         12    1    3    3    0    0  0.12377610632E+02  0.38341734753E+02 -0.13619773660E+02  0.42529896583E+02  0.00000000000E+00 0. -1.
</event>
<event>
 7    1  0.3276565E-015  0.9000782E+02  0.7816164E-02  0.1186339E+00
        -11   -1    0    0    0    0  0.00000000000E+00  0.00000000000E+00  0.45593999997E+02  0.45594000000E+02  0.51100000000E-03 0. -1.
         11   -1    0    0    0    0 -0.00000000000E+00 -0.00000000000E+00 -0.45593999997E+02  0.45594000000E+02  0.51100000000E-03 0.  1.
    9900012    2    1    2    0    0 -0.10780172721E+01 -0.46712198724E+00 -0.11179554351E+00  0.90007821016E+02  0.90000083454E+02 0.  0.
         12    1    1    2    0    0  0.10780172721E+01  0.46712198724E+00  0.11179554351E+00  0.11801789836E+01  0.00000000000E+00 0. -1.
         11    1    3    3    0    0  0.78523017362E+01  0.26979200053E+02  0.29084555783E+02  0.40440663489E+02  0.51100000000E-03 0. -1.
        -11    1    3    3    0    0  0.65126123061E+01  0.19490813318E+01 -0.59441073832E+01  0.90302519307E+01  0.51100000000E-03 0.  1.
        -12    1    3    3    0    0 -0.15442931314E+02 -0.29395403372E+02 -0.23252243943E+02  0.40536905597E+02  0.00000000000E+00 0.  1.
</event>
<event>
 7    1  0.3276565E-015  0.9000771E+02  0.7816164E-02  0.1186339E+00
        -11   -1    0    0    0    0  0.00000000000E+00  0.00000000000E+00  0.45593999997E+02  0.45594000000E+02  0.51100000000E-03 0.  1.
         11   -1    0    0    0    0 -0.00000000000E+00 -0.00000000000E+00 -0.45593999997E+02  0.45594000000E+02  0.51100000000E-03 0. -1.
    9900012    2    1    2    0    0 -0.67355924361E+00 -0.85044478348E+00  0.46490364972E+00  0.90007714531E+02  0.89999975563E+02 0.  0.
         12    1    1    2    0    0  0.67355924361E+00  0.85044478348E+00 -0.46490364972E+00  0.11802854688E+01  0.00000000000E+00 0. -1.
         11    1    3    3    0    0  0.18225867089E+01  0.74301418913E+00 -0.84664539828E+01  0.86922227135E+01  0.51100000000E-03 0. -1.
        -11    1    3    3    0    0 -0.31716253270E+02  0.20023863580E+02 -0.11988769201E+02  0.39377740176E+02  0.51100000000E-03 0.  1.
         12    1    3    3    0    0  0.29220107318E+02 -0.21617322553E+02  0.20920126833E+02  0.41937751641E+02  0.00000000000E+00 0. -1.
</event>
<event>
 7    1  0.3276565E-015  0.9000758E+02  0.7816164E-02  0.1186339E+00
        -11   -1    0    0    0    0  0.00000000000E+00  0.00000000000E+00  0.45593999997E+02  0.45594000000E+02  0.51100000000E-03 0.  1.
         11   -1    0    0    0    0 -0.00000000000E+00 -0.00000000000E+00 -0.45593999997E+02  0.45594000000E+02  0.51100000000E-03 0. -1.
    9900012    2    1    2    0    0  0.10759789044E+01 -0.18757906434E+00  0.44774089095E+00  0.90007581255E+02  0.89999840527E+02 0.  0.
         12    1    1    2    0    0 -0.10759789044E+01  0.18757906434E+00 -0.44774089095E+00  0.11804187450E+01  0.00000000000E+00 0. -1.
         11    1    3    3    0    0  0.36831999824E+02  0.32486581789E+01  0.16225925387E+02  0.40378591431E+02  0.51100000000E-03 0. -1.
        -11    1    3    3    0    0 -0.15485764100E+02  0.10785536329E+02 -0.16188754923E+02  0.24863878818E+02  0.51100000000E-03 0.  1.
        -12    1    3    3    0    0 -0.20270256819E+02 -0.14221773572E+02  0.41057042733E+00  0.24765111006E+02  0.00000000000E+00 0.  1.
</event>
<event>
 7    1  0.3276565E-015  0.9000770E+02  0.7816164E-02  0.1186339E+00
        -11   -1    0    0    0    0  0.00000000000E+00  0.00000000000E+00  0.45593999997E+02  0.45594000000E+02  0.51100000000E-03 0. -1.
         11   -1    0    0    0    0 -0.00000000000E+00 -0.00000000000E+00 -0.45593999997E+02  0.45594000000E+02  0.51100000000E-03 0.  1.
    9900012    2    1    2    0    0 -0.11647236627E+01  0.19064342948E+00 -0.13448872142E-01  0.90007700462E+02  0.89999961308E+02 0.  0.
         12    1    1    2    0    0  0.11647236627E+01 -0.19064342948E+00  0.13448872142E-01  0.11802995382E+01  0.00000000000E+00 0. -1.
         11    1    3    3    0    0  0.15164605289E+01  0.86190084303E+01 -0.41691916641E+01  0.96937669794E+01  0.51100000000E-03 0. -1.
        -11    1    3    3    0    0  0.26031835420E+02  0.23246522982E+02 -0.81231018231E+01  0.35833532753E+02  0.51100000000E-03 0.  1.
         12    1    3    3    0    0 -0.28713019612E+02 -0.31674887983E+02  0.12278844615E+02  0.44480400729E+02  0.00000000000E+00 0. -1.
</event>
<event>
 7    1  0.3276565E-015  0.9000767E+02  0.7816164E-02  0.1186339E+00
        -11   -1    0    0    0    0  0.00000000000E+00  0.00000000000E+00  0.45593999997E+02  0.45594000000E+02  0.51100000000E-03 0. -1.
         11   -1    0    0    0    0 -0.00000000000E+00 -0.00000000000E+00 -0.45593999997E+02  0.45594000000E+02  0.51100000000E-03 0.  1.
    9900012    2    1    2    0    0  0.71228964722E-01  0.11536877159E+01  0.23895323516E+00  0.90007674808E+02  0.89999935315E+02 0.  0.
         12    1    1    2    0    0 -0.71228964722E-01 -0.11536877159E+01 -0.23895323516E+00  0.11803251924E+01  0.00000000000E+00 0. -1.
         11    1    3    3    0    0 -0.85436802567E+01  0.19970431449E+01  0.58402677409E+01  0.10539989620E+02  0.51100000000E-03 0. -1.
        -11    1    3    3    0    0 -0.26666546794E+02  0.19774924358E+02 -0.16644508508E+02  0.37137474537E+02  0.51100000000E-03 0.  1.
         12    1    3    3    0    0  0.35281456015E+02 -0.20618279787E+02  0.11043194002E+02  0.42330210650E+02  0.00000000000E+00 0. -1.
</event>
<event>
 7    1  0.3276565E-015  0.9000768E+02  0.7816164E-02  0.1186339E+00
        -11   -1    0    0    0    0  0.00000000000E+00  0.00000000000E+00  0.45593999997E+02  0.45594000000E+02  0.51100000000E-03 0. -1.
         11   -1    0    0    0    0 -0.00000000000E+00 -0.00000000000E+00 -0.45593999997E+02  0.45594000000E+02  0.51100000000E-03 0.  1.
    9900012    2    1    2    0    0 -0.11746359201E+01 -0.47547120417E-01 -0.10545935456E+00  0.90007681421E+02  0.89999942015E+02 0.  0.
         12    1    1    2    0    0  0.11746359201E+01  0.47547120417E-01  0.10545935456E+00  0.11803185794E+01  0.00000000000E+00 0. -1.
         11    1    3    3    0    0 -0.12836831923E+02 -0.94677592095E+01 -0.15658273934E+02  0.22351829033E+02  0.51100000000E-03 0. -1.
        -11    1    3    3    0    0 -0.15101875298E+02  0.22619355577E+02  0.24391292300E+02  0.36532684332E+02  0.51100000000E-03 0.  1.
         12    1    3    3    0    0  0.26764071300E+02 -0.13199143488E+02 -0.88384777204E+01  0.31123168055E+02  0.00000000000E+00 0. -1.
</event>
<event>
 7    1  0.3276565E-015  0.9000774E+02  0.7816164E-02  0.1186339E+00
        -11   -1    0    0    0    0  0.00000000000E+00  0.00000000000E+00  0.45593999997E+02  0.45594000000E+02  0.51100000000E-03 0. -1.
         11   -1    0    0    0    0 -0.00000000000E+00 -0.00000000000E+00 -0.45593999997E+02  0.45594000000E+02  0.51100000000E-03 0.  1.
    9900012    2    1    2    0    0 -0.64650471322E+00  0.70684439538E+00 -0.68950737035E+00  0.90007738267E+02  0.89999999613E+02 0.  0.
         12    1    1    2    0    0  0.64650471322E+00 -0.70684439538E+00  0.68950737035E+00  0.11802617325E+01  0.00000000000E+00 0. -1.
         11    1    3    3    0    0 -0.21990173966E+01 -0.34378799450E+01  0.32951817574E+02  0.33203568750E+02  0.51100000000E-03 0. -1.
        -11    1    3    3    0    0  0.27316044827E+01 -0.25222480725E+01  0.11021178021E+02  0.11631412796E+02  0.51100000000E-03 0.  1.
        -12    1    3    3    0    0 -0.11790917992E+01  0.66669724129E+01 -0.44662502966E+02  0.45172756721E+02  0.00000000000E+00 0.  1.
</event>
<event>
 7    1  0.3276565E-015  0.9000771E+02  0.7816164E-02  0.1186339E+00
        -11   -1    0    0    0    0  0.00000000000E+00  0.00000000000E+00  0.45593999997E+02  0.45594000000E+02  0.51100000000E-03 0. -1.
         11   -1    0    0    0    0 -0.00000000000E+00 -0.00000000000E+00 -0.45593999997E+02  0.45594000000E+02  0.51100000000E-03 0.  1.
    9900012    2    1    2    0    0  0.41008449102E+00  0.83381943666E-01 -0.11036150141E+01  0.90007708537E+02  0.89999969490E+02 0.  0.
         12    1    1    2    0    0 -0.41008449102E+00 -0.83381943666E-01  0.11036150141E+01  0.11802914630E+01  0.00000000000E+00 0. -1.
         11    1    3    3    0    0 -0.35454778801E+02 -0.60122842089E+01  0.65912410855E+01  0.36559996725E+02  0.51100000000E-03 0. -1.
        -11    1    3    3    0    0 -0.66201264142E+01  0.19408907758E+01  0.54393069411E+01  0.87851688091E+01  0.51100000000E-03 0.  1.
        -12    1    3    3    0    0  0.42484989706E+02  0.41547753767E+01 -0.13134163041E+02  0.44662543003E+02  0.00000000000E+00 0.  1.
</event>
<event>
 7    1  0.3276565E-015  0.9000772E+02  0.7816164E-02  0.1186339E+00
        -11   -1    0    0    0    0  0.00000000000E+00  0.00000000000E+00  0.45593999997E+02  0.45594000000E+02  0.51100000000E-03 0. -1.
         11   -1    0    0    0    0 -0.00000000000E+00 -0.00000000000E+00 -0.45593999997E+02  0.45594000000E+02  0.51100000000E-03 0.  1.
    9900012    2    1    2    0    0 -0.90617025096E+00 -0.75238092919E+00 -0.76403539598E-01  0.90007720759E+02  0.89999981873E+02 0.  0.
         12    1    1    2    0    0  0.90617025096E+00  0.75238092919E+00  0.76403539598E-01  0.11802792412E+01  0.00000000000E+00 0. -1.
         11    1    3    3    0    0  0.69640727194E+01 -0.47897524953E+01  0.47090646468E+01  0.96755014297E+01  0.51100000000E-03 0. -1.
        -11    1    3    3    0    0  0.25567367878E+02 -0.16906593834E+02 -0.21543755740E+02  0.37465405736E+02  0.51100000000E-03 0.  1.
         12    1    3    3    0    0 -0.33437610848E+02  0.20943965401E+02  0.16758287554E+02  0.42866813594E+02  0.00000000000E+00 0. -1.
</event>
<event>
 7    1  0.3276565E-015  0.9000770E+02  0.7816164E-02  0.1186339E+00
        -11   -1    0    0    0    0  0.00000000000E+00  0.00000000000E+00  0.45593999997E+02  0.45594000000E+02  0.51100000000E-03 0. -1.
         11   -1    0    0    0    0 -0.00000000000E+00 -0.00000000000E+00 -0.45593999997E+02  0.45594000000E+02  0.51100000000E-03 0.  1.
    9900012    2    1    2    0    0  0.59691911087E+00  0.55251114807E+00 -0.85528860871E+00  0.90007703597E+02  0.89999964485E+02 0.  0.
         12    1    1    2    0    0 -0.59691911087E+00 -0.55251114807E+00  0.85528860871E+00  0.11802964025E+01  0.00000000000E+00 0. -1.
         11    1    3    3    0    0  0.67949984701E+01  0.44520564557E+01 -0.36963246711E+01  0.89250001249E+01  0.51100000000E-03 0. -1.
        -11    1    3    3    0    0 -0.28413125952E+02 -0.15131849438E+02 -0.27146357854E+02  0.42109421021E+02  0.51100000000E-03 0.  1.
         12    1    3    3    0    0  0.22215046593E+02  0.11232304130E+02  0.29987393916E+02  0.38973282452E+02  0.00000000000E+00 0. -1.
</event>
<event>
 7    1  0.3276565E-015  0.9000774E+02  0.7816164E-02  0.1186339E+00
        -11   -1    0    0    0    0  0.00000000000E+00  0.00000000000E+00  0.45593999997E+02  0.45594000000E+02  0.51100000000E-03 0. -1.
         11   -1    0    0    0    0 -0.00000000000E+00 -0.00000000000E+00 -0.45593999997E+02  0.45594000000E+02  0.51100000000E-03 0.  1.
    9900012    2    1    2    0    0 -0.41391717047E+00  0.11052258718E+01  0.13089488790E-01  0.90007736052E+02  0.89999997368E+02 0.  0.
         12    1    1    2    0    0  0.41391717047E+00 -0.11052258718E+01 -0.13089488790E-01  0.11802639477E+01  0.00000000000E+00 0. -1.
         11    1    3    3    0    0 -0.11980382836E+02  0.11619761041E+01  0.81013348643E+01  0.14509010587E+02  0.51100000000E-03 0. -1.
        -11    1    3    3    0    0 -0.14598623336E+01  0.35682699704E+02  0.31034652781E+01  0.35847144283E+02  0.51100000000E-03 0.  1.
         12    1    3    3    0    0  0.13026327999E+02 -0.35739449937E+02 -0.11191710654E+02  0.39651581183E+02  0.00000000000E+00 0. -1.
</event>
<event>
 7    1  0.3276565E-015  0.9000784E+02  0.7816164E-02  0.1186339E+00
        -11   -1    0    0    0    0  0.00000000000E+00  0.00000000000E+00  0.45593999997E+02  0.45594000000E+02  0.51100000000E-03 0. -1.
         11   -1    0    0    0    0 -0.00000000000E+00 -0.00000000000E+00 -0.45593999997E+02  0.45594000000E+02  0.51100000000E-03 0.  1.
    9900012    2    1    2    0    0  0.80047437163E+00  0.84524461418E+00 -0.19386216212E+00  0.90007838903E+02  0.90000101576E+02 0.  0.
         12    1    1    2    0    0 -0.80047437163E+00 -0.84524461418E+00  0.19386216212E+00  0.11801610972E+01  0.00000000000E+00 0. -1.
         11    1    3    3    0    0  0.93049959431E+01 -0.31092603083E+01  0.29607472589E+02  0.31190589647E+02  0.51100000000E-03 0. -1.
        -11    1    3    3    0    0  0.56424021063E+01  0.19581610488E+02  0.22004771068E+01  0.20496786835E+02  0.51100000000E-03 0.  1.
        -12    1    3    3    0    0 -0.14146923678E+02 -0.15627105565E+02 -0.32001811858E+02  0.38320462420E+02  0.00000000000E+00 0.  1.
</event>
<event>
 7    1  0.3276565E-015  0.9000768E+02  0.7816164E-02  0.1186339E+00
        -11   -1    0    0    0    0  0.00000000000E+00  0.00000000000E+00  0.45593999997E+02  0.45594000000E+02  0.51100000000E-03 0.  1.
         11   -1    0    0    0    0 -0.00000000000E+00 -0.00000000000E+00 -0.45593999997E+02  0.45594000000E+02  0.51100000000E-03 0. -1.
    9900012    2    1    2    0    0 -0.39164729290E+00  0.10196112979E+01  0.44739992803E+00  0.90007677376E+02  0.89999937917E+02 0.  0.
         12    1    1    2    0    0  0.39164729290E+00 -0.10196112979E+01 -0.44739992803E+00  0.11803226239E+01  0.00000000000E+00 0. -1.
         11    1    3    3    0    0  0.13198944367E+02  0.21835253747E+02  0.63900114545E+01  0.26302522412E+02  0.51100000000E-03 0. -1.
        -11    1    3    3    0    0 -0.19396985795E+02  0.11345179470E+02 -0.18081661317E+02  0.28842722329E+02  0.51100000000E-03 0.  1.
         12    1    3    3    0    0  0.58063941346E+01 -0.32160821919E+02  0.12139049790E+02  0.34862432634E+02  0.00000000000E+00 0. -1.
</event>
<event>
 7    1  0.3276565E-015  0.9000772E+02  0.7816164E-02  0.1186339E+00
        -11   -1    0    0    0    0  0.00000000000E+00  0.00000000000E+00  0.45593999997E+02  0.45594000000E+02  0.51100000000E-03 0.  1.
         11   -1    0    0    0    0 -0.00000000000E+00 -0.00000000000E+00 -0.45593999997E+02  0.45594000000E+02  0.51100000000E-03 0. -1.
    9900012    2    1    2    0    0 -0.64868973998E+00  0.93315609661E+00 -0.31855262281E+00  0.90007722722E+02  0.89999983862E+02 0.  0.
         12    1    1    2    0    0  0.64868973998E+00 -0.93315609661E+00  0.31855262281E+00  0.11802772780E+01  0.00000000000E+00 0. -1.
         11    1    3    3    0    0  0.12820378466E+02  0.11553978269E+02  0.82804545343E+01  0.19142164073E+02  0.51100000000E-03 0. -1.
        -11    1    3    3    0    0 -0.20456413870E+02  0.22211132035E+02  0.10831833422E+02  0.32080022915E+02  0.51100000000E-03 0.  1.
         12    1    3    3    0    0  0.69873456638E+01 -0.32831954207E+02 -0.19430840579E+02  0.38785535733E+02  0.00000000000E+00 0. -1.
</event>
<event>
 7    1  0.3276565E-015  0.9000768E+02  0.7816164E-02  0.1186339E+00
        -11   -1    0    0    0    0  0.00000000000E+00  0.00000000000E+00  0.45593999997E+02  0.45594000000E+02  0.51100000000E-03 0.  1.
         11   -1    0    0    0    0 -0.00000000000E+00 -0.00000000000E+00 -0.45593999997E+02  0.45594000000E+02  0.51100000000E-03 0. -1.
    9900012    2    1    2    0    0  0.56525782338E-01  0.78615494848E+00  0.87858714561E+00  0.90007682187E+02  0.89999942792E+02 0.  0.
         12    1    1    2    0    0 -0.56525782338E-01 -0.78615494848E+00 -0.87858714561E+00  0.11803178129E+01  0.00000000000E+00 0. -1.
         11    1    3    3    0    0  0.13864495698E+01 -0.58252588956E+00 -0.13937763354E+02  0.14018659936E+02  0.51100000000E-03 0. -1.
        -11    1    3    3    0    0 -0.21955804688E+01 -0.36289255994E+02  0.28547834297E+01  0.36467526142E+02  0.51100000000E-03 0.  1.
         12    1    3    3    0    0  0.86565668129E+00  0.37657936832E+02  0.11961567070E+02  0.39521496109E+02  0.00000000000E+00 0. -1.
</event>
<event>
 7    1  0.3276565E-015  0.9000781E+02  0.7816164E-02  0.1186339E+00
        -11   -1    0    0    0    0  0.00000000000E+00  0.00000000000E+00  0.45593999997E+02  0.45594000000E+02  0.51100000000E-03 0.  1.
         11   -1    0    0    0    0 -0.00000000000E+00 -0.00000000000E+00 -0.45593999997E+02  0.45594000000E+02  0.51100000000E-03 0. -1.
    9900012    2    1    2    0    0 -0.72300276000E+00 -0.86278008612E+00  0.35457488713E+00  0.90007811109E+02  0.90000073416E+02 0.  0.
         12    1    1    2    0    0  0.72300276000E+00  0.86278008612E+00 -0.35457488713E+00  0.11801888910E+01  0.00000000000E+00 0. -1.
         11    1    3    3    0    0  0.38467286670E+02 -0.13891939377E+02 -0.82650728338E+01  0.41725646222E+02  0.51100000000E-03 0. -1.
        -11    1    3    3    0    0 -0.27293011324E-01  0.76772811489E+01  0.34559316026E+01  0.84193143575E+01  0.51100000000E-03 0.  1.
        -12    1    3    3    0    0 -0.39162996419E+02  0.53518781419E+01  0.51637161183E+01  0.39862850529E+02  0.00000000000E+00 0.  1.
</event>
<event>
 7    1  0.3276565E-015  0.9000774E+02  0.7816164E-02  0.1186339E+00
        -11   -1    0    0    0    0  0.00000000000E+00  0.00000000000E+00  0.45593999997E+02  0.45594000000E+02  0.51100000000E-03 0.  1.
         11   -1    0    0    0    0 -0.00000000000E+00 -0.00000000000E+00 -0.45593999997E+02  0.45594000000E+02  0.51100000000E-03 0. -1.
    9900012    2    1    2    0    0 -0.71829872714E+00 -0.82154497822E+00 -0.44957482747E+00  0.90007742936E+02  0.90000004342E+02 0.  0.
         12    1    1    2    0    0  0.71829872714E+00  0.82154497822E+00  0.44957482747E+00  0.11802570644E+01  0.00000000000E+00 0. -1.
         11    1    3    3    0    0  0.27763765622E+02 -0.15833351501E+02 -0.22108042150E+02  0.38862414094E+02  0.51100000000E-03 0. -1.
        -11    1    3    3    0    0 -0.58801389894E+01 -0.80597342197E+01 -0.31028182784E+01  0.10448101826E+02  0.51100000000E-03 0.  1.
        -12    1    3    3    0    0 -0.22601925360E+02  0.23071540742E+02  0.24761285601E+02  0.40697227016E+02  0.00000000000E+00 0.  1.
</event>
<event>
 7    1  0.3276565E-015  0.9000789E+02  0.7816164E-02  0.1186339E+00
        -11   -1    0    0    0    0  0.00000000000E+00  0.00000000000E+00  0.45593999997E+02  0.45594000000E+02  0.51100000000E-03 0. -1.
         11   -1    0    0    0    0 -0.00000000000E+00 -0.00000000000E+00 -0.45593999997E+02  0.45594000000E+02  0.51100000000E-03 0.  1.
    9900012    2    1    2    0    0 -0.15399146231E+00  0.76736199019E+00  0.88322817283E+00  0.90007894157E+02  0.90000157560E+02 0.  0.
         12    1    1    2    0    0  0.15399146231E+00 -0.76736199019E+00 -0.88322817283E+00  0.11801058426E+01  0.00000000000E+00 0. -1.
         11    1    3    3    0    0  0.31056452122E+02  0.64782377162E+01 -0.26318240182E+02  0.41220389965E+02  0.51100000000E-03 0. -1.
        -11    1    3    3    0    0  0.39292724823E+01  0.12578492819E+01  0.55965215707E+01  0.69528714218E+01  0.51100000000E-03 0.  1.
        -12    1    3    3    0    0 -0.35139716067E+02 -0.69687250079E+01  0.21604946784E+02  0.41834632771E+02  0.00000000000E+00 0.  1.
</event>
<event>
 7    1  0.3276565E-015  0.9000768E+02  0.7816164E-02  0.1186339E+00
        -11   -1    0    0    0    0  0.00000000000E+00  0.00000000000E+00  0.45593999997E+02  0.45594000000E+02  0.51100000000E-03 0.  1.
         11   -1    0    0    0    0 -0.00000000000E+00 -0.00000000000E+00 -0.45593999997E+02  0.45594000000E+02  0.51100000000E-03 0. -1.
    9900012    2    1    2    0    0 -0.82856556933E-01  0.26837729864E+00  0.11464155668E+01  0.90007677910E+02  0.89999938459E+02 0.  0.
         12    1    1    2    0    0  0.82856556933E-01 -0.26837729864E+00 -0.11464155668E+01  0.11803220897E+01  0.00000000000E+00 0. -1.
         11    1    3    3    0    0 -0.76030376972E+01  0.57195708896E+01 -0.42716191456E+00  0.95237671616E+01  0.51100000000E-03 0. -1.
        -11    1    3    3    0    0 -0.34716631896E+02 -0.12429528768E+02  0.63195705886E+01  0.37412226455E+02  0.51100000000E-03 0.  1.
         12    1    3    3    0    0  0.42236813037E+02  0.69783351771E+01 -0.47459931072E+01  0.43071684294E+02  0.00000000000E+00 0. -1.
</event>
<event>
 7    1  0.3276565E-015  0.9000849E+02  0.7816164E-02  0.1186338E+00
        -11   -1    0    0    0    0  0.00000000000E+00  0.00000000000E+00  0.45593999997E+02  0.45594000000E+02  0.51100000000E-03 0.  1.
         11   -1    0    0    0    0 -0.00000000000E+00 -0.00000000000E+00 -0.45593999997E+02  0.45594000000E+02  0.51100000000E-03 0. -1.
    9900012    2    1    2    0    0  0.72775039574E+00  0.86828770043E-01 -0.92416428883E+00  0.90008491837E+02  0.90000763126E+02 0.  0.
         12    1    1    2    0    0 -0.72775039574E+00 -0.86828770043E-01  0.92416428883E+00  0.11795081630E+01  0.00000000000E+00 0. -1.
         11    1    3    3    0    0  0.14308322091E+02 -0.38925016226E+02 -0.12443805511E+02  0.43298190091E+02  0.51100000000E-03 0. -1.
        -11    1    3    3    0    0  0.31379701163E+01  0.94758862132E+01 -0.19945627854E+01  0.10179270944E+02  0.51100000000E-03 0.  1.
        -12    1    3    3    0    0 -0.16718541812E+02  0.29535958783E+02  0.13514204008E+02  0.36531030803E+02  0.00000000000E+00 0.  1.
</event>
<event>
 7    1  0.3276565E-015  0.9000786E+02  0.7816164E-02  0.1186339E+00
        -11   -1    0    0    0    0  0.00000000000E+00  0.00000000000E+00  0.45593999997E+02  0.45594000000E+02  0.51100000000E-03 0. -1.
         11   -1    0    0    0    0 -0.00000000000E+00 -0.00000000000E+00 -0.45593999997E+02  0.45594000000E+02  0.51100000000E-03 0.  1.
    9900012    2    1    2    0    0  0.31176197547E+00  0.11310579782E+01 -0.12748247064E+00  0.90007856170E+02  0.90000119071E+02 0.  0.
         12    1    1    2    0    0 -0.31176197547E+00 -0.11310579782E+01  0.12748247064E+00  0.11801438301E+01  0.00000000000E+00 0. -1.
         11    1    3    3    0    0 -0.57515958912E+00 -0.11306510510E+02  0.67255692111E+00  0.11341089963E+02  0.51100000000E-03 0. -1.
        -11    1    3    3    0    0 -0.46045233114E+01 -0.22207313687E+02 -0.26723170472E+02  0.35049882403E+02  0.51100000000E-03 0.  1.
         12    1    3    3    0    0  0.54914448760E+01  0.34644882175E+02  0.25923131080E+02  0.43616883804E+02  0.00000000000E+00 0. -1.
</event>
<event>
 7    1  0.3276565E-015  0.9000745E+02  0.7816164E-02  0.1186340E+00
        -11   -1    0    0    0    0  0.00000000000E+00  0.00000000000E+00  0.45593999997E+02  0.45594000000E+02  0.51100000000E-03 0. -1.
         11   -1    0    0    0    0 -0.00000000000E+00 -0.00000000000E+00 -0.45593999997E+02  0.45594000000E+02  0.51100000000E-03 0.  1.
    9900012    2    1    2    0    0 -0.12044571923E+00  0.72152773534E+00 -0.92659940045E+00  0.90007451020E+02  0.89999708573E+02 0.  0.
         12    1    1    2    0    0  0.12044571923E+00 -0.72152773534E+00  0.92659940045E+00  0.11805489795E+01  0.00000000000E+00 0. -1.
         11    1    3    3    0    0  0.35349115397E+02  0.82971149678E+01  0.16093866601E+02  0.39716679350E+02  0.51100000000E-03 0. -1.
        -11    1    3    3    0    0 -0.16617446332E+01 -0.11139265827E+02  0.18436875954E+01  0.11412441571E+02  0.51100000000E-03 0.  1.
        -12    1    3    3    0    0 -0.33807816483E+02  0.35636785947E+01 -0.18864153596E+02  0.38878330100E+02  0.00000000000E+00 0.  1.
</event>
<event>
 7    1  0.3276565E-015  0.9000775E+02  0.7816164E-02  0.1186339E+00
        -11   -1    0    0    0    0  0.00000000000E+00  0.00000000000E+00  0.45593999997E+02  0.45594000000E+02  0.51100000000E-03 0. -1.
         11   -1    0    0    0    0 -0.00000000000E+00 -0.00000000000E+00 -0.45593999997E+02  0.45594000000E+02  0.51100000000E-03 0.  1.
    9900012    2    1    2    0    0  0.90423181367E+00  0.50847752100E+00 -0.56284877815E+00  0.90007752861E+02  0.90000014399E+02 0.  0.
         12    1    1    2    0    0 -0.90423181367E+00 -0.50847752100E+00  0.56284877815E+00  0.11802471391E+01  0.00000000000E+00 0. -1.
         11    1    3    3    0    0  0.30348296837E+00 -0.51130276890E+01  0.13083630148E+02  0.14050499357E+02  0.51100000000E-03 0. -1.
        -11    1    3    3    0    0 -0.36951833267E+02  0.27132546784E+01 -0.63280796991E+01  0.37587821508E+02  0.51100000000E-03 0.  1.
         12    1    3    3    0    0  0.37552582113E+02  0.29082505316E+01 -0.73183992272E+01  0.38369431996E+02  0.00000000000E+00 0. -1.
</event>
<event>
 7    1  0.3276565E-015  0.9000787E+02  0.7816164E-02  0.1186339E+00
        -11   -1    0    0    0    0  0.00000000000E+00  0.00000000000E+00  0.45593999997E+02  0.45594000000E+02  0.51100000000E-03 0.  1.
         11   -1    0    0    0    0 -0.00000000000E+00 -0.00000000000E+00 -0.45593999997E+02  0.45594000000E+02  0.51100000000E-03 0. -1.
    9900012    2    1    2    0    0 -0.31638917568E+00 -0.11272455410E+01 -0.14809316431E+00  0.90007866022E+02  0.90000129054E+02 0.  0.
         12    1    1    2    0    0  0.31638917568E+00  0.11272455410E+01  0.14809316431E+00  0.11801339778E+01  0.00000000000E+00 0. -1.
         11    1    3    3    0    0  0.11239054510E+02  0.20985516702E+02  0.20871962358E+02  0.31659865295E+02  0.51100000000E-03 0. -1.
        -11    1    3    3    0    0 -0.86115626200E+01 -0.63199468572E+01  0.15284909092E+02  0.18647498096E+02  0.51100000000E-03 0.  1.
         12    1    3    3    0    0 -0.29438810659E+01 -0.15792815386E+02 -0.36304964614E+02  0.39700502631E+02  0.00000000000E+00 0. -1.
</event>
<event>
 7    1  0.3276565E-015  0.9000682E+02  0.7816164E-02  0.1186341E+00
        -11   -1    0    0    0    0  0.00000000000E+00  0.00000000000E+00  0.45593999997E+02  0.45594000000E+02  0.51100000000E-03 0.  1.
         11   -1    0    0    0    0 -0.00000000000E+00 -0.00000000000E+00 -0.45593999997E+02  0.45594000000E+02  0.51100000000E-03 0. -1.
    9900012    2    1    2    0    0 -0.87451137503E+00 -0.30608022920E+00  0.73262089421E+00  0.90006818970E+02  0.89999068175E+02 0.  0.
         12    1    1    2    0    0  0.87451137503E+00  0.30608022920E+00 -0.73262089421E+00  0.11811810303E+01  0.00000000000E+00 0. -1.
         11    1    3    3    0    0  0.27808701925E+02  0.84054195598E+01 -0.19377464213E+02  0.34920783215E+02  0.51100000000E-03 0. -1.
        -11    1    3    3    0    0  0.10323989127E+02  0.26202988426E+01  0.46820880783E+01  0.11634976001E+02  0.51100000000E-03 0.  1.
        -12    1    3    3    0    0 -0.39007202427E+02 -0.11331798632E+02  0.15427997029E+02  0.43451059754E+02  0.00000000000E+00 0.  1.
</event>
<event>
 7    1  0.3276565E-015  0.9000773E+02  0.7816164E-02  0.1186339E+00
        -11   -1    0    0    0    0  0.00000000000E+00  0.00000000000E+00  0.45593999997E+02  0.45594000000E+02  0.51100000000E-03 0.  1.
         11   -1    0    0    0    0 -0.00000000000E+00 -0.00000000000E+00 -0.45593999997E+02  0.45594000000E+02  0.51100000000E-03 0. -1.
    9900012    2    1    2    0    0  0.86808152206E+00  0.30914297692E+00 -0.73750025299E+00  0.90007728196E+02  0.89999989408E+02 0.  0.
         12    1    1    2    0    0 -0.86808152206E+00 -0.30914297692E+00  0.73750025299E+00  0.11802718044E+01  0.00000000000E+00 0. -1.
         11    1    3    3    0    0  0.40330716630E+02 -0.94223655791E+00 -0.68323075160E+01  0.40916194103E+02  0.51100000000E-03 0. -1.
        -11    1    3    3    0    0 -0.36662444086E+01 -0.67136006128E+01 -0.67836797147E+01  0.10224093700E+02  0.51100000000E-03 0.  1.
        -12    1    3    3    0    0 -0.35796390699E+02  0.79649801476E+01  0.12878486978E+02  0.38867440393E+02  0.00000000000E+00 0.  1.
</event>
<event>
 7    1  0.3276565E-015  0.9000777E+02  0.7816164E-02  0.1186339E+00
        -11   -1    0    0    0    0  0.00000000000E+00  0.00000000000E+00  0.45593999997E+02  0.45594000000E+02  0.51100000000E-03 0. -1.
         11   -1    0    0    0    0 -0.00000000000E+00 -0.00000000000E+00 -0.45593999997E+02  0.45594000000E+02  0.51100000000E-03 0.  1.
    9900012    2    1    2    0    0 -0.57981402059E+00 -0.91917561606E+00  0.46029821589E+00  0.90007770124E+02  0.90000031890E+02 0.  0.
         12    1    1    2    0    0  0.57981402059E+00  0.91917561606E+00 -0.46029821589E+00  0.11802298756E+01  0.00000000000E+00 0. -1.
         11    1    3    3    0    0  0.33992836701E+01 -0.30541197545E+01 -0.59365842095E+01  0.74917160439E+01  0.51100000000E-03 0. -1.
        -11    1    3    3    0    0 -0.21595003819E+02  0.22374881341E+00 -0.32930984180E+02  0.39380756376E+02  0.51100000000E-03 0.  1.
         12    1    3    3    0    0  0.17615906128E+02  0.19111953250E+01  0.39327866605E+02  0.43135297704E+02  0.00000000000E+00 0. -1.
</event>
<event>
 7    1  0.3276565E-015  0.9000785E+02  0.7816164E-02  0.1186339E+00
        -11   -1    0    0    0    0  0.00000000000E+00  0.00000000000E+00  0.45593999997E+02  0.45594000000E+02  0.51100000000E-03 0.  1.
         11   -1    0    0    0    0 -0.00000000000E+00 -0.00000000000E+00 -0.45593999997E+02  0.45594000000E+02  0.51100000000E-03 0. -1.
    9900012    2    1    2    0    0  0.75815653174E+00 -0.18337280689E+00  0.88562443422E+00  0.90007848505E+02  0.90000111305E+02 0.  0.
         12    1    1    2    0    0 -0.75815653174E+00  0.18337280689E+00 -0.88562443422E+00  0.11801514951E+01  0.00000000000E+00 0. -1.
         11    1    3    3    0    0  0.82126273881E+01 -0.56959937354E+01  0.92390062985E+00  0.10037190139E+02  0.51100000000E-03 0. -1.
        -11    1    3    3    0    0 -0.14235921124E+02 -0.12127826815E+02  0.35270671273E+02  0.39921997518E+02  0.51100000000E-03 0.  1.
         12    1    3    3    0    0  0.67814502673E+01  0.17640447744E+02 -0.35308947469E+02  0.40048660848E+02  0.00000000000E+00 0. -1.
</event>
<event>
 7    1  0.3276565E-015  0.9000775E+02  0.7816164E-02  0.1186339E+00
        -11   -1    0    0    0    0  0.00000000000E+00  0.00000000000E+00  0.45593999997E+02  0.45594000000E+02  0.51100000000E-03 0.  1.
         11   -1    0    0    0    0 -0.00000000000E+00 -0.00000000000E+00 -0.45593999997E+02  0.45594000000E+02  0.51100000000E-03 0. -1.
    9900012    2    1    2    0    0 -0.11184355004E+01  0.17514689351E+00  0.33380602907E+00  0.90007745422E+02  0.90000006862E+02 0.  0.
         12    1    1    2    0    0  0.11184355004E+01 -0.17514689351E+00 -0.33380602907E+00  0.11802545776E+01  0.00000000000E+00 0. -1.
         11    1    3    3    0    0 -0.45480901394E+01  0.51719393695E+01  0.65929406939E+01  0.95341988658E+01  0.51100000000E-03 0. -1.
        -11    1    3    3    0    0  0.20416826638E+02 -0.28887096061E+02  0.20413122315E+02  0.40841237637E+02  0.51100000000E-03 0.  1.
         12    1    3    3    0    0 -0.16987171999E+02  0.23890303585E+02 -0.26672256980E+02  0.39632308920E+02  0.00000000000E+00 0. -1.
</event>
<event>
 7    1  0.3276565E-015  0.9000798E+02  0.7816164E-02  0.1186339E+00
        -11   -1    0    0    0    0  0.00000000000E+00  0.00000000000E+00  0.45593999997E+02  0.45594000000E+02  0.51100000000E-03 0. -1.
         11   -1    0    0    0    0 -0.00000000000E+00 -0.00000000000E+00 -0.45593999997E+02  0.45594000000E+02  0.51100000000E-03 0.  1.
    9900012    2    1    2    0    0 -0.99490428451E+00  0.48444901794E+00 -0.40977047481E+00  0.90007984225E+02  0.90000248817E+02 0.  0.
         12    1    1    2    0    0  0.99490428451E+00 -0.48444901794E+00  0.40977047481E+00  0.11800157746E+01  0.00000000000E+00 0. -1.
         11    1    3    3    0    0  0.35007478507E+02 -0.62364232263E+01  0.61104470546E+01  0.36079829400E+02  0.51100000000E-03 0. -1.
        -11    1    3    3    0    0  0.59179956200E+01 -0.62827791940E+01  0.27701709064E+01  0.90647577833E+01  0.51100000000E-03 0.  1.
        -12    1    3    3    0    0 -0.41920378411E+02  0.13003651438E+02 -0.92903884357E+01  0.44863397042E+02  0.00000000000E+00 0.  1.
</event>
<event>
 7    1  0.3276565E-015  0.9000774E+02  0.7816164E-02  0.1186339E+00
        -11   -1    0    0    0    0  0.00000000000E+00  0.00000000000E+00  0.45593999997E+02  0.45594000000E+02  0.51100000000E-03 0. -1.
         11   -1    0    0    0    0 -0.00000000000E+00 -0.00000000000E+00 -0.45593999997E+02  0.45594000000E+02  0.51100000000E-03 0.  1.
    9900012    2    1    2    0    0 -0.40712603646E+00  0.10923674959E+01 -0.18434845594E+00  0.90007744643E+02  0.90000006072E+02 0.  0.
         12    1    1    2    0    0  0.40712603646E+00 -0.10923674959E+01  0.18434845594E+00  0.11802553575E+01  0.00000000000E+00 0. -1.
         11    1    3    3    0    0 -0.11950661117E+01 -0.26325430242E+02  0.14391894653E+02  0.30026373281E+02  0.51100000000E-03 0. -1.
        -11    1    3    3    0    0  0.17574403290E+02  0.78301268047E+00  0.98245224290E+01  0.20149292818E+02  0.51100000000E-03 0.  1.
        -12    1    3    3    0    0 -0.16786463215E+02  0.26634785057E+02 -0.24400765538E+02  0.39832078544E+02  0.00000000000E+00 0.  1.
</event>
<event>
 7    1  0.3276565E-015  0.9000777E+02  0.7816164E-02  0.1186339E+00
        -11   -1    0    0    0    0  0.00000000000E+00  0.00000000000E+00  0.45593999997E+02  0.45594000000E+02  0.51100000000E-03 0. -1.
         11   -1    0    0    0    0 -0.00000000000E+00 -0.00000000000E+00 -0.45593999997E+02  0.45594000000E+02  0.51100000000E-03 0.  1.
    9900012    2    1    2    0    0  0.78769500407E+00  0.41300929751E+00 -0.77583011164E+00  0.90007765929E+02  0.90000027640E+02 0.  0.
         12    1    1    2    0    0 -0.78769500407E+00 -0.41300929751E+00  0.77583011164E+00  0.11802340706E+01  0.00000000000E+00 0. -1.
         11    1    3    3    0    0 -0.32841588824E+02  0.24361496923E+01 -0.22227479979E+02  0.39731167216E+02  0.51100000000E-03 0. -1.
        -11    1    3    3    0    0 -0.19909240755E+01  0.81245785512E+01  0.50392696841E+01  0.97655923793E+01  0.51100000000E-03 0.  1.
        -12    1    3    3    0    0  0.35620207904E+02 -0.10147718946E+02  0.16412380184E+02  0.40511006334E+02  0.00000000000E+00 0.  1.
</event>
<event>
 7    1  0.3276565E-015  0.9000767E+02  0.7816164E-02  0.1186339E+00
        -11   -1    0    0    0    0  0.00000000000E+00  0.00000000000E+00  0.45593999997E+02  0.45594000000E+02  0.51100000000E-03 0. -1.
         11   -1    0    0    0    0 -0.00000000000E+00 -0.00000000000E+00 -0.45593999997E+02  0.45594000000E+02  0.51100000000E-03 0.  1.
    9900012    2    1    2    0    0  0.10292612707E+01 -0.47835552274E+00 -0.32401747467E+00  0.90007665262E+02  0.89999925644E+02 0.  0.
         12    1    1    2    0    0 -0.10292612707E+01  0.47835552274E+00  0.32401747467E+00  0.11803347378E+01  0.00000000000E+00 0. -1.
         11    1    3    3    0    0 -0.17981483939E+02  0.69624523385E+01  0.85268374300E+01  0.21083559093E+02  0.51100000000E-03 0. -1.
        -11    1    3    3    0    0 -0.11487023292E+02 -0.23169900192E+02 -0.20163241249E+02  0.32792564354E+02  0.51100000000E-03 0.  1.
         12    1    3    3    0    0  0.30497768502E+02  0.15729092330E+02  0.11312386344E+02  0.36131541815E+02  0.00000000000E+00 0. -1.
</event>
<event>
 7    1  0.3276565E-015  0.9000785E+02  0.7816164E-02  0.1186339E+00
        -11   -1    0    0    0    0  0.00000000000E+00  0.00000000000E+00  0.45593999997E+02  0.45594000000E+02  0.51100000000E-03 0.  1.
         11   -1    0    0    0    0 -0.00000000000E+00 -0.00000000000E+00 -0.45593999997E+02  0.45594000000E+02  0.51100000000E-03 0. -1.
    9900012    2    1    2    0    0 -0.57555745489E+00 -0.63434739978E+00  0.81184401003E+00  0.90007850135E+02  0.90000112957E+02 0.  0.
         12    1    1    2    0    0  0.57555745489E+00  0.63434739978E+00 -0.81184401003E+00  0.11801498651E+01  0.00000000000E+00 0. -1.
         11    1    3    3    0    0 -0.20667238936E+02 -0.27413229056E+02  0.85332513319E+01  0.35375645169E+02  0.51100000000E-03 0. -1.
        -11    1    3    3    0    0  0.14115074317E+02 -0.84568000383E+01  0.41559439138E+01  0.16971289283E+02  0.51100000000E-03 0.  1.
        -12    1    3    3    0    0  0.59766071646E+01  0.35235681695E+02 -0.11877351236E+02  0.37660915683E+02  0.00000000000E+00 0.  1.
</event>
<event>
 7    1  0.3276565E-015  0.9000779E+02  0.7816164E-02  0.1186339E+00
        -11   -1    0    0    0    0  0.00000000000E+00  0.00000000000E+00  0.45593999997E+02  0.45594000000E+02  0.51100000000E-03 0. -1.
         11   -1    0    0    0    0 -0.00000000000E+00 -0.00000000000E+00 -0.45593999997E+02  0.45594000000E+02  0.51100000000E-03 0.  1.
    9900012    2    1    2    0    0  0.55832856697E+00 -0.97736130706E+00 -0.35485741057E+00  0.90007792520E+02  0.90000054582E+02 0.  0.
         12    1    1    2    0    0 -0.55832856697E+00  0.97736130706E+00  0.35485741057E+00  0.11802074797E+01  0.00000000000E+00 0. -1.
         11    1    3    3    0    0  0.52286390943E+01 -0.32003265632E+02  0.23166295993E+02  0.39852540047E+02  0.51100000000E-03 0. -1.
        -11    1    3    3    0    0 -0.75143460924E+01 -0.36863383992E+01 -0.45714097257E+00  0.83823305900E+01  0.51100000000E-03 0.  1.
        -12    1    3    3    0    0  0.28440355651E+01  0.34712242724E+02 -0.23064012431E+02  0.41772921883E+02  0.00000000000E+00 0.  1.
</event>
<event>
 7    1  0.3276565E-015  0.9000757E+02  0.7816164E-02  0.1186339E+00
        -11   -1    0    0    0    0  0.00000000000E+00  0.00000000000E+00  0.45593999997E+02  0.45594000000E+02  0.51100000000E-03 0. -1.
         11   -1    0    0    0    0 -0.00000000000E+00 -0.00000000000E+00 -0.45593999997E+02  0.45594000000E+02  0.51100000000E-03 0.  1.
    9900012    2    1    2    0    0 -0.80834806333E+00  0.33852044972E+00  0.79081166521E+00  0.90007573901E+02  0.89999833076E+02 0.  0.
         12    1    1    2    0    0  0.80834806333E+00 -0.33852044972E+00 -0.79081166521E+00  0.11804260994E+01  0.00000000000E+00 0. -1.
         11    1    3    3    0    0  0.20676875563E+02 -0.31270048855E+02 -0.98657162668E+01  0.38764435971E+02  0.51100000000E-03 0. -1.
        -11    1    3    3    0    0  0.81969388809E+01  0.25627508639E+01  0.15482776467E+01  0.87266639067E+01  0.51100000000E-03 0.  1.
        -12    1    3    3    0    0 -0.29682162508E+02  0.29045818441E+02  0.91082502853E+01  0.42516474022E+02  0.00000000000E+00 0.  1.
</event>
<event>
 7    1  0.3276565E-015  0.9000799E+02  0.7816164E-02  0.1186339E+00
        -11   -1    0    0    0    0  0.00000000000E+00  0.00000000000E+00  0.45593999997E+02  0.45594000000E+02  0.51100000000E-03 0.  1.
         11   -1    0    0    0    0 -0.00000000000E+00 -0.00000000000E+00 -0.45593999997E+02  0.45594000000E+02  0.51100000000E-03 0. -1.
    9900012    2    1    2    0    0  0.45516506939E+00 -0.15337040804E-02  0.10886874005E+01  0.90007992437E+02  0.90000257137E+02 0.  0.
         12    1    1    2    0    0 -0.45516506939E+00  0.15337040804E-02 -0.10886874005E+01  0.11800075630E+01  0.00000000000E+00 0. -1.
         11    1    3    3    0    0  0.35015824329E+01  0.39420519852E+01 -0.76348481870E+01  0.92785645704E+01  0.51100000000E-03 0. -1.
        -11    1    3    3    0    0  0.37579865084E+02  0.58653849767E+01 -0.97932147069E-03  0.38034839317E+02  0.51100000000E-03 0.  1.
         12    1    3    3    0    0 -0.40626282447E+02 -0.98089706660E+01  0.87245149090E+01  0.42694588550E+02  0.00000000000E+00 0. -1.
</event>
<event>
 7    1  0.3276565E-015  0.9000750E+02  0.7816164E-02  0.1186340E+00
        -11   -1    0    0    0    0  0.00000000000E+00  0.00000000000E+00  0.45593999997E+02  0.45594000000E+02  0.51100000000E-03 0.  1.
         11   -1    0    0    0    0 -0.00000000000E+00 -0.00000000000E+00 -0.45593999997E+02  0.45594000000E+02  0.51100000000E-03 0. -1.
    9900012    2    1    2    0    0 -0.90922237599E+00  0.75230156703E+00  0.30640702988E-01  0.90007499331E+02  0.89999757522E+02 0.  0.
         12    1    1    2    0    0  0.90922237599E+00 -0.75230156703E+00 -0.30640702988E-01  0.11805006690E+01  0.00000000000E+00 0. -1.
         11    1    3    3    0    0 -0.10454649559E+02  0.39784574666E+01 -0.38680842893E+01  0.11835957821E+02  0.51100000000E-03 0. -1.
        -11    1    3    3    0    0 -0.28199965852E+02  0.54922352550E+01 -0.17772617156E+02  0.33782667790E+02  0.51100000000E-03 0.  1.
         12    1    3    3    0    0  0.37745393034E+02 -0.87183911546E+01  0.21671342149E+02  0.44388873720E+02  0.00000000000E+00 0. -1.
</event>
<event>
 7    1  0.3276565E-015  0.9000776E+02  0.7816164E-02  0.1186339E+00
        -11   -1    0    0    0    0  0.00000000000E+00  0.00000000000E+00  0.45593999997E+02  0.45594000000E+02  0.51100000000E-03 0. -1.
         11   -1    0    0    0    0 -0.00000000000E+00 -0.00000000000E+00 -0.45593999997E+02  0.45594000000E+02  0.51100000000E-03 0.  1.
    9900012    2    1    2    0    0 -0.33311279279E+00  0.50324980399E+00 -0.10142715083E+01  0.90007757995E+02  0.90000019600E+02 0.  0.
         12    1    1    2    0    0  0.33311279279E+00 -0.50324980399E+00  0.10142715083E+01  0.11802420051E+01  0.00000000000E+00 0. -1.
         11    1    3    3    0    0  0.60291203616E+01 -0.20197452808E+00  0.84713686736E+01  0.10399767955E+02  0.51100000000E-03 0. -1.
        -11    1    3    3    0    0  0.24807580187E+02  0.17672195731E+02  0.17406391430E+02  0.35081405325E+02  0.51100000000E-03 0.  1.
         12    1    3    3    0    0 -0.31169813342E+02 -0.16966971399E+02 -0.26892031612E+02  0.44526584715E+02  0.00000000000E+00 0. -1.
</event>
<event>
 7    1  0.3276565E-015  0.9000785E+02  0.7816164E-02  0.1186339E+00
        -11   -1    0    0    0    0  0.00000000000E+00  0.00000000000E+00  0.45593999997E+02  0.45594000000E+02  0.51100000000E-03 0. -1.
         11   -1    0    0    0    0 -0.00000000000E+00 -0.00000000000E+00 -0.45593999997E+02  0.45594000000E+02  0.51100000000E-03 0.  1.
    9900012    2    1    2    0    0 -0.30603129772E-01  0.72779170406E+00 -0.92851249170E+00  0.90007850533E+02  0.90000113360E+02 0.  0.
         12    1    1    2    0    0  0.30603129772E-01 -0.72779170406E+00  0.92851249170E+00  0.11801494665E+01  0.00000000000E+00 0. -1.
         11    1    3    3    0    0 -0.59413640012E+00  0.20685464356E+01  0.36031730698E+02  0.36095948523E+02  0.51100000000E-03 0. -1.
        -11    1    3    3    0    0 -0.68604958354E+01 -0.54022582364E+01  0.56951168363E+01  0.10425217178E+02  0.51100000000E-03 0.  1.
        -12    1    3    3    0    0  0.74240291058E+01  0.40615035049E+01 -0.42655360026E+02  0.43486684833E+02  0.00000000000E+00 0.  1.
</event>
<event>
 7    1  0.3276565E-015  0.9000781E+02  0.7816164E-02  0.1186339E+00
        -11   -1    0    0    0    0  0.00000000000E+00  0.00000000000E+00  0.45593999997E+02  0.45594000000E+02  0.51100000000E-03 0.  1.
         11   -1    0    0    0    0 -0.00000000000E+00 -0.00000000000E+00 -0.45593999997E+02  0.45594000000E+02  0.51100000000E-03 0. -1.
    9900012    2    1    2    0    0 -0.54792282505E+00 -0.32686320703E-01  0.10447734107E+01  0.90007813872E+02  0.90000076215E+02 0.  0.
         12    1    1    2    0    0  0.54792282505E+00  0.32686320703E-01 -0.10447734107E+01  0.11801861283E+01  0.00000000000E+00 0. -1.
         11    1    3    3    0    0 -0.51659448295E+01 -0.16152105384E+01  0.72255340204E+01  0.90279694952E+01  0.51100000000E-03 0. -1.
        -11    1    3    3    0    0  0.15240672956E+02 -0.36114860416E+01  0.34888086305E+02  0.38242639944E+02  0.51100000000E-03 0.  1.
         12    1    3    3    0    0 -0.10622650951E+02  0.51940102594E+01 -0.41068846915E+02  0.42737204433E+02  0.00000000000E+00 0. -1.
</event>
<event>
 7    1  0.3276565E-015  0.9000753E+02  0.7816164E-02  0.1186339E+00
        -11   -1    0    0    0    0  0.00000000000E+00  0.00000000000E+00  0.45593999997E+02  0.45594000000E+02  0.51100000000E-03 0.  1.
         11   -1    0    0    0    0 -0.00000000000E+00 -0.00000000000E+00 -0.45593999997E+02  0.45594000000E+02  0.51100000000E-03 0. -1.
    9900012    2    1    2    0    0  0.47316343261E+00 -0.91516985438E+00  0.57626791804E+00  0.90007532207E+02  0.89999790832E+02 0.  0.
         12    1    1    2    0    0 -0.47316343261E+00  0.91516985438E+00 -0.57626791804E+00  0.11804677927E+01  0.00000000000E+00 0. -1.
         11    1    3    3    0    0 -0.17410190276E+02 -0.26287980375E+01  0.76095235828E+01  0.19181505520E+02  0.51100000000E-03 0. -1.
        -11    1    3    3    0    0 -0.87135721956E+01 -0.76395066733E+01  0.25359791557E+02  0.27882027019E+02  0.51100000000E-03 0.  1.
         12    1    3    3    0    0  0.26596925905E+02  0.93531348565E+01 -0.32393047222E+02  0.42943999668E+02  0.00000000000E+00 0. -1.
</event>
<event>
 7    1  0.3276565E-015  0.9000781E+02  0.7816164E-02  0.1186339E+00
        -11   -1    0    0    0    0  0.00000000000E+00  0.00000000000E+00  0.45593999997E+02  0.45594000000E+02  0.51100000000E-03 0. -1.
         11   -1    0    0    0    0 -0.00000000000E+00 -0.00000000000E+00 -0.45593999997E+02  0.45594000000E+02  0.51100000000E-03 0.  1.
    9900012    2    1    2    0    0  0.11550154140E+01 -0.21138955190E+00 -0.11879590475E+00  0.90007805687E+02  0.90000067922E+02 0.  0.
         12    1    1    2    0    0 -0.11550154140E+01  0.21138955190E+00  0.11879590475E+00  0.11801943129E+01  0.00000000000E+00 0. -1.
         11    1    3    3    0    0 -0.34103691462E+02 -0.93635590310E+01  0.38425843999E+01  0.35573915502E+02  0.51100000000E-03 0. -1.
        -11    1    3    3    0    0 -0.74021094716E+01  0.53984285563E+01 -0.69569211759E+01  0.11503608478E+02  0.51100000000E-03 0.  1.
        -12    1    3    3    0    0  0.42660816347E+02  0.37537409228E+01  0.29955408712E+01  0.42930281707E+02  0.00000000000E+00 0.  1.
</event>
<event>
 7    1  0.3276565E-015  0.9000776E+02  0.7816164E-02  0.1186339E+00
        -11   -1    0    0    0    0  0.00000000000E+00  0.00000000000E+00  0.45593999997E+02  0.45594000000E+02  0.51100000000E-03 0. -1.
         11   -1    0    0    0    0 -0.00000000000E+00 -0.00000000000E+00 -0.45593999997E+02  0.45594000000E+02  0.51100000000E-03 0.  1.
    9900012    2    1    2    0    0 -0.20517341160E+00 -0.81130258182E+00 -0.83226568158E+00  0.90007756732E+02  0.90000018320E+02 0.  0.
         12    1    1    2    0    0  0.20517341160E+00  0.81130258182E+00  0.83226568158E+00  0.11802432685E+01  0.00000000000E+00 0. -1.
         11    1    3    3    0    0 -0.12823073302E+02 -0.11202341510E+02  0.35229339571E+02  0.39128378845E+02  0.51100000000E-03 0. -1.
        -11    1    3    3    0    0 -0.55089295809E+01 -0.79509423898E+01 -0.65175458797E+01  0.11663798462E+02  0.51100000000E-03 0.  1.
        -12    1    3    3    0    0  0.18126829471E+02  0.18341981318E+02 -0.29544059372E+02  0.39215579424E+02  0.00000000000E+00 0.  1.
</event>
<event>
 7    1  0.3276565E-015  0.9000778E+02  0.7816164E-02  0.1186339E+00
        -11   -1    0    0    0    0  0.00000000000E+00  0.00000000000E+00  0.45593999997E+02  0.45594000000E+02  0.51100000000E-03 0. -1.
         11   -1    0    0    0    0 -0.00000000000E+00 -0.00000000000E+00 -0.45593999997E+02  0.45594000000E+02  0.51100000000E-03 0.  1.
    9900012    2    1    2    0    0  0.13994603411E-01 -0.11364259293E+01  0.31820360479E+00  0.90007782530E+02  0.90000044460E+02 0.  0.
         12    1    1    2    0    0 -0.13994603411E-01  0.11364259293E+01 -0.31820360479E+00  0.11802174697E+01  0.00000000000E+00 0. -1.
         11    1    3    3    0    0 -0.19708762093E+02  0.28130240784E+02  0.18825333997E+02  0.39168085863E+02  0.51100000000E-03 0. -1.
        -11    1    3    3    0    0  0.37467455821E+01 -0.19055118200E+01  0.83215264229E+01  0.93229222898E+01  0.51100000000E-03 0.  1.
        -12    1    3    3    0    0  0.15976011114E+02 -0.27361154894E+02 -0.26828656815E+02  0.41516774378E+02  0.00000000000E+00 0.  1.
</event>
<event>
 7    1  0.3276565E-015  0.9000765E+02  0.7816164E-02  0.1186339E+00
        -11   -1    0    0    0    0  0.00000000000E+00  0.00000000000E+00  0.45593999997E+02  0.45594000000E+02  0.51100000000E-03 0. -1.
         11   -1    0    0    0    0 -0.00000000000E+00 -0.00000000000E+00 -0.45593999997E+02  0.45594000000E+02  0.51100000000E-03 0.  1.
    9900012    2    1    2    0    0  0.78000627752E+00 -0.36465760519E+00 -0.80736929071E+00  0.90007648301E+02  0.89999908458E+02 0.  0.
         12    1    1    2    0    0 -0.78000627752E+00  0.36465760519E+00  0.80736929071E+00  0.11803516991E+01  0.00000000000E+00 0. -1.
         11    1    3    3    0    0  0.17075988923E+02 -0.41312774363E+01  0.28619120118E+02  0.33581406873E+02  0.51100000000E-03 0. -1.
        -11    1    3    3    0    0  0.65354775869E+01  0.65698272871E+01  0.81679272556E+01  0.12352737906E+02  0.51100000000E-03 0.  1.
        -12    1    3    3    0    0 -0.22831460233E+02 -0.28032074559E+01 -0.37594416664E+02  0.44073503522E+02  0.00000000000E+00 0.  1.
</event>
<event>
 7    1  0.3276565E-015  0.9000795E+02  0.7816164E-02  0.1186339E+00
        -11   -1    0    0    0    0  0.00000000000E+00  0.00000000000E+00  0.45593999997E+02  0.45594000000E+02  0.51100000000E-03 0.  1.
         11   -1    0    0    0    0 -0.00000000000E+00 -0.00000000000E+00 -0.45593999997E+02  0.45594000000E+02  0.51100000000E-03 0. -1.
    9900012    2    1    2    0    0 -0.79511842351E-02  0.44099171866E+00  0.10945184949E+01  0.90007954385E+02  0.90000218583E+02 0.  0.
         12    1    1    2    0    0  0.79511842351E-02 -0.44099171866E+00 -0.10945184949E+01  0.11800456148E+01  0.00000000000E+00 0. -1.
         11    1    3    3    0    0 -0.84341469856E+01  0.70996662200E+01 -0.77024408371E+01  0.13448705920E+02  0.51100000000E-03 0. -1.
        -11    1    3    3    0    0  0.26776338175E+02  0.23571732477E+02  0.18085211932E+02  0.39995921653E+02  0.51100000000E-03 0.  1.
         12    1    3    3    0    0 -0.18350142373E+02 -0.30230406978E+02 -0.92882526000E+01  0.36563326812E+02  0.00000000000E+00 0. -1.
</event>
<event>
 7    1  0.3276565E-015  0.9000772E+02  0.7816164E-02  0.1186339E+00
        -11   -1    0    0    0    0  0.00000000000E+00  0.00000000000E+00  0.45593999997E+02  0.45594000000E+02  0.51100000000E-03 0.  1.
         11   -1    0    0    0    0 -0.00000000000E+00 -0.00000000000E+00 -0.45593999997E+02  0.45594000000E+02  0.51100000000E-03 0. -1.
    9900012    2    1    2    0    0  0.19203886539E+00  0.69201148246E+00  0.93664200542E+00  0.90007721616E+02  0.89999982741E+02 0.  0.
         12    1    1    2    0    0 -0.19203886539E+00 -0.69201148246E+00 -0.93664200542E+00  0.11802783841E+01  0.00000000000E+00 0. -1.
         11    1    3    3    0    0  0.19114975880E+02  0.28425200000E+02 -0.12934013392E+02  0.36615065213E+02  0.51100000000E-03 0. -1.
        -11    1    3    3    0    0  0.71856389124E+01  0.11934065177E+01 -0.61957513631E+01  0.95626858628E+01  0.51100000000E-03 0.  1.
        -12    1    3    3    0    0 -0.26108575927E+02 -0.28926595035E+02  0.20066406760E+02  0.43829970540E+02  0.00000000000E+00 0.  1.
</event>
<event>
 7    1  0.3276565E-015  0.9000779E+02  0.7816164E-02  0.1186339E+00
        -11   -1    0    0    0    0  0.00000000000E+00  0.00000000000E+00  0.45593999997E+02  0.45594000000E+02  0.51100000000E-03 0.  1.
         11   -1    0    0    0    0 -0.00000000000E+00 -0.00000000000E+00 -0.45593999997E+02  0.45594000000E+02  0.51100000000E-03 0. -1.
    9900012    2    1    2    0    0  0.31322791874E+00  0.92296503028E+00 -0.66552807579E+00  0.90007786546E+02  0.90000048529E+02 0.  0.
         12    1    1    2    0    0 -0.31322791874E+00 -0.92296503028E+00  0.66552807579E+00  0.11802134535E+01  0.00000000000E+00 0. -1.
         11    1    3    3    0    0  0.17526253928E+01  0.11668786558E+02  0.79279165998E+01  0.14215630038E+02  0.51100000000E-03 0. -1.
        -11    1    3    3    0    0  0.18526541477E+02  0.21032165698E+02  0.14671816760E+02  0.31636165070E+02  0.51100000000E-03 0.  1.
        -12    1    3    3    0    0 -0.19965938951E+02 -0.31777987225E+02 -0.23265261436E+02  0.44155991439E+02  0.00000000000E+00 0.  1.
</event>
<event>
 7    1  0.3276565E-015  0.9000800E+02  0.7816164E-02  0.1186339E+00
        -11   -1    0    0    0    0  0.00000000000E+00  0.00000000000E+00  0.45593999997E+02  0.45594000000E+02  0.51100000000E-03 0. -1.
         11   -1    0    0    0    0 -0.00000000000E+00 -0.00000000000E+00 -0.45593999997E+02  0.45594000000E+02  0.51100000000E-03 0.  1.
    9900012    2    1    2    0    0  0.53244993482E+00 -0.70073206987E+00  0.78604180577E+00  0.90008004200E+02  0.90000269055E+02 0.  0.
         12    1    1    2    0    0 -0.53244993482E+00  0.70073206987E+00 -0.78604180577E+00  0.11799957997E+01  0.00000000000E+00 0. -1.
         11    1    3    3    0    0 -0.19723177713E+01 -0.35500121360E+01 -0.90354909635E+01  0.99061960797E+01  0.51100000000E-03 0. -1.
        -11    1    3    3    0    0  0.13118594928E+02  0.21958064478E+02 -0.27056004520E+02  0.37232801525E+02  0.51100000000E-03 0.  1.
         12    1    3    3    0    0 -0.10613827222E+02 -0.19108784412E+02  0.36877537290E+02  0.42869006596E+02  0.00000000000E+00 0. -1.
</event>
<event>
 7    1  0.3276565E-015  0.9000777E+02  0.7816164E-02  0.1186339E+00
        -11   -1    0    0    0    0  0.00000000000E+00  0.00000000000E+00  0.45593999997E+02  0.45594000000E+02  0.51100000000E-03 0.  1.
         11   -1    0    0    0    0 -0.00000000000E+00 -0.00000000000E+00 -0.45593999997E+02  0.45594000000E+02  0.51100000000E-03 0. -1.
    9900012    2    1    2    0    0 -0.36665248262E+00  0.10629097779E+01  0.35880084633E+00  0.90007767275E+02  0.90000029003E+02 0.  0.
         12    1    1    2    0    0  0.36665248262E+00 -0.10629097779E+01 -0.35880084633E+00  0.11802327255E+01  0.00000000000E+00 0. -1.
         11    1    3    3    0    0  0.53944658522E+01  0.77365268275E+01 -0.14822922535E+01  0.95473189833E+01  0.51100000000E-03 0. -1.
        -11    1    3    3    0    0  0.17841668342E+02 -0.33794970788E+02 -0.14621431877E+02  0.40917129056E+02  0.51100000000E-03 0.  1.
         12    1    3    3    0    0 -0.23602786677E+02  0.27121353739E+02  0.16462524977E+02  0.39543319235E+02  0.00000000000E+00 0. -1.
</event>
<event>
 7    1  0.3844777E-015  0.9000759E+02  0.7816164E-02  0.1186339E+00
        -11   -1    0    0    0    0  0.00000000000E+00  0.00000000000E+00  0.45593999997E+02  0.45594000000E+02  0.51100000000E-03 0. -1.
         11   -1    0    0    0    0 -0.00000000000E+00 -0.00000000000E+00 -0.45593999997E+02  0.45594000000E+02  0.51100000000E-03 0.  1.
    9900012    2    1    2    0    0  0.93732855949E+00 -0.13038281197E+00 -0.70553153000E+00  0.90007593610E+02  0.89999853045E+02 0.  0.
         12    1    1    2    0    0 -0.93732855949E+00  0.13038281197E+00  0.70553153000E+00  0.11804063902E+01  0.00000000000E+00 0. -1.
         11    1    3    3    0    0  0.45999494949E+01  0.31570976640E+01 -0.75640526262E+01  0.93990261947E+01  0.51100000000E-03 0. -1.
        -11    1    3    3    0    0 -0.19753594366E+02  0.31438275779E+02 -0.10497314931E+02  0.38584495531E+02  0.51100000000E-03 0.  1.
         12    1    3    3    0    0  0.16090973431E+02 -0.34725756255E+02  0.17355836028E+02  0.42024071884E+02  0.00000000000E+00 0. -1.
</event>
<event>
 7    1  0.3276565E-015  0.9000825E+02  0.7816164E-02  0.1186338E+00
        -11   -1    0    0    0    0  0.00000000000E+00  0.00000000000E+00  0.45593999997E+02  0.45594000000E+02  0.51100000000E-03 0. -1.
         11   -1    0    0    0    0 -0.00000000000E+00 -0.00000000000E+00 -0.45593999997E+02  0.45594000000E+02  0.51100000000E-03 0.  1.
    9900012    2    1    2    0    0  0.49952865316E+00  0.57704240111E+00 -0.89961553103E+00  0.90008247945E+02  0.90000516016E+02 0.  0.
         12    1    1    2    0    0 -0.49952865316E+00 -0.57704240111E+00  0.89961553103E+00  0.11797520552E+01  0.00000000000E+00 0. -1.
         11    1    3    3    0    0 -0.31612887512E+02  0.14148477656E+02  0.10492164741E+02  0.36188943036E+02  0.51100000000E-03 0. -1.
        -11    1    3    3    0    0 -0.73124195236E+01  0.22813560216E+01  0.39792521268E+01  0.86319471927E+01  0.51100000000E-03 0.  1.
        -12    1    3    3    0    0  0.39424835689E+02 -0.15852791277E+02 -0.15371032399E+02  0.45187357716E+02  0.00000000000E+00 0.  1.
</event>
<event>
 7    1  0.3276565E-015  0.9000772E+02  0.7816164E-02  0.1186339E+00
        -11   -1    0    0    0    0  0.00000000000E+00  0.00000000000E+00  0.45593999997E+02  0.45594000000E+02  0.51100000000E-03 0.  1.
         11   -1    0    0    0    0 -0.00000000000E+00 -0.00000000000E+00 -0.45593999997E+02  0.45594000000E+02  0.51100000000E-03 0. -1.
    9900012    2    1    2    0    0  0.59059860911E-01  0.87211761239E+00  0.79308193010E+00  0.90007722005E+02  0.89999983136E+02 0.  0.
         12    1    1    2    0    0 -0.59059860911E-01 -0.87211761239E+00 -0.79308193010E+00  0.11802779947E+01  0.00000000000E+00 0. -1.
         11    1    3    3    0    0  0.28617944241E+02  0.23138461045E+02  0.41739733669E+01  0.37037780252E+02  0.51100000000E-03 0. -1.
        -11    1    3    3    0    0  0.29200998075E+01  0.42077527780E+01  0.87046160854E+01  0.10099629091E+02  0.51100000000E-03 0.  1.
        -12    1    3    3    0    0 -0.31478984188E+02 -0.26474096210E+02 -0.12085507522E+02  0.42870312662E+02  0.00000000000E+00 0.  1.
</event>
<event>
 7    1  0.3276565E-015  0.9000778E+02  0.7816164E-02  0.1186339E+00
        -11   -1    0    0    0    0  0.00000000000E+00  0.00000000000E+00  0.45593999997E+02  0.45594000000E+02  0.51100000000E-03 0. -1.
         11   -1    0    0    0    0 -0.00000000000E+00 -0.00000000000E+00 -0.45593999997E+02  0.45594000000E+02  0.51100000000E-03 0.  1.
    9900012    2    1    2    0    0  0.35484975502E+00 -0.72513994506E+00 -0.86091608407E+00  0.90007778499E+02  0.90000040375E+02 0.  0.
         12    1    1    2    0    0 -0.35484975502E+00  0.72513994506E+00  0.86091608407E+00  0.11802215014E+01  0.00000000000E+00 0. -1.
         11    1    3    3    0    0  0.35374650982E+02 -0.19127615414E+02  0.10437660526E+02  0.41547278623E+02  0.51100000000E-03 0. -1.
        -11    1    3    3    0    0 -0.78870880377E+01 -0.26320093442E+01  0.57697172712E+01  0.10120438160E+02  0.51100000000E-03 0.  1.
        -12    1    3    3    0    0 -0.27132713189E+02  0.21034484813E+02 -0.17068293881E+02  0.38340061715E+02  0.00000000000E+00 0.  1.
</event>
<event>
 7    1  0.3276565E-015  0.9000783E+02  0.7816164E-02  0.1186339E+00
        -11   -1    0    0    0    0  0.00000000000E+00  0.00000000000E+00  0.45593999997E+02  0.45594000000E+02  0.51100000000E-03 0.  1.
         11   -1    0    0    0    0 -0.00000000000E+00 -0.00000000000E+00 -0.45593999997E+02  0.45594000000E+02  0.51100000000E-03 0. -1.
    9900012    2    1    2    0    0  0.28537647682E+00  0.19872466789E+00  0.11277754582E+01  0.90007826830E+02  0.90000089344E+02 0.  0.
         12    1    1    2    0    0 -0.28537647682E+00 -0.19872466789E+00 -0.11277754582E+01  0.11801731700E+01  0.00000000000E+00 0. -1.
         11    1    3    3    0    0  0.81193043917E+01 -0.46105013390E+01  0.53132159125E+01  0.10742908824E+02  0.51100000000E-03 0. -1.
        -11    1    3    3    0    0  0.21670522032E+01 -0.28586857853E+02  0.21607000414E+02  0.35899401447E+02  0.51100000000E-03 0.  1.
         12    1    3    3    0    0 -0.10000980118E+02  0.33396083860E+02 -0.25792440868E+02  0.43365516559E+02  0.00000000000E+00 0. -1.
</event>
<event>
 7    1  0.3276565E-015  0.9000781E+02  0.7816164E-02  0.1186339E+00
        -11   -1    0    0    0    0  0.00000000000E+00  0.00000000000E+00  0.45593999997E+02  0.45594000000E+02  0.51100000000E-03 0. -1.
         11   -1    0    0    0    0 -0.00000000000E+00 -0.00000000000E+00 -0.45593999997E+02  0.45594000000E+02  0.51100000000E-03 0.  1.
    9900012    2    1    2    0    0  0.83290845610E+00 -0.75762412551E+00 -0.35373126704E+00  0.90007806532E+02  0.90000068779E+02 0.  0.
         12    1    1    2    0    0 -0.83290845610E+00  0.75762412551E+00  0.35373126704E+00  0.11801934676E+01  0.00000000000E+00 0. -1.
         11    1    3    3    0    0  0.78361991640E+01  0.38567212837E+01  0.47225808277E+00  0.87466190242E+01  0.51100000000E-03 0. -1.
        -11    1    3    3    0    0  0.30839508652E+02 -0.23612210804E+02  0.13173917799E+01  0.38863187135E+02  0.51100000000E-03 0.  1.
         12    1    3    3    0    0 -0.37842799360E+02  0.18997865394E+02 -0.21433811298E+01  0.42398000373E+02  0.00000000000E+00 0. -1.
</event>
<event>
 7    1  0.3276565E-015  0.9000781E+02  0.7816164E-02  0.1186339E+00
        -11   -1    0    0    0    0  0.00000000000E+00  0.00000000000E+00  0.45593999997E+02  0.45594000000E+02  0.51100000000E-03 0.  1.
         11   -1    0    0    0    0 -0.00000000000E+00 -0.00000000000E+00 -0.45593999997E+02  0.45594000000E+02  0.51100000000E-03 0. -1.
    9900012    2    1    2    0    0  0.27793603300E+00  0.11189392587E+01  0.25212053469E+00  0.90007814308E+02  0.90000076657E+02 0.  0.
         12    1    1    2    0    0 -0.27793603300E+00 -0.11189392587E+01 -0.25212053469E+00  0.11801856918E+01  0.00000000000E+00 0. -1.
         11    1    3    3    0    0 -0.25270840988E+02  0.17653130215E+02 -0.23864314159E+02  0.38984021100E+02  0.51100000000E-03 0. -1.
        -11    1    3    3    0    0  0.26373765507E+01  0.92848796240E+01  0.15315793851E+01  0.97729463508E+01  0.51100000000E-03 0.  1.
        -12    1    3    3    0    0  0.22911400470E+02 -0.25819070580E+02  0.22584855308E+02  0.41250846857E+02  0.00000000000E+00 0.  1.
</event>
<event>
 7    1  0.3276565E-015  0.9000778E+02  0.7816164E-02  0.1186339E+00
        -11   -1    0    0    0    0  0.00000000000E+00  0.00000000000E+00  0.45593999997E+02  0.45594000000E+02  0.51100000000E-03 0.  1.
         11   -1    0    0    0    0 -0.00000000000E+00 -0.00000000000E+00 -0.45593999997E+02  0.45594000000E+02  0.51100000000E-03 0. -1.
    9900012    2    1    2    0    0  0.41418562017E+00 -0.33604473299E+00  0.10528317548E+01  0.90007775236E+02  0.90000037069E+02 0.  0.
         12    1    1    2    0    0 -0.41418562017E+00  0.33604473299E+00 -0.10528317548E+01  0.11802247644E+01  0.00000000000E+00 0. -1.
         11    1    3    3    0    0 -0.13602909485E+01  0.85363013666E+01  0.46491117181E+01  0.98149412894E+01  0.51100000000E-03 0. -1.
        -11    1    3    3    0    0  0.14464678068E+02  0.31879141477E+02 -0.11373343916E+02  0.36808416496E+02  0.51100000000E-03 0.  1.
         12    1    3    3    0    0 -0.12690201499E+02 -0.40751487576E+02  0.77770639525E+01  0.43384417450E+02  0.00000000000E+00 0. -1.
</event>
<event>
 7    1  0.3276565E-015  0.9000791E+02  0.7816164E-02  0.1186339E+00
        -11   -1    0    0    0    0  0.00000000000E+00  0.00000000000E+00  0.45593999997E+02  0.45594000000E+02  0.51100000000E-03 0. -1.
         11   -1    0    0    0    0 -0.00000000000E+00 -0.00000000000E+00 -0.45593999997E+02  0.45594000000E+02  0.51100000000E-03 0.  1.
    9900012    2    1    2    0    0  0.10224252277E+01  0.38495788278E+00  0.44616419906E+00  0.90007911694E+02  0.90000175328E+02 0.  0.
         12    1    1    2    0    0 -0.10224252277E+01 -0.38495788278E+00 -0.44616419906E+00  0.11800883062E+01  0.00000000000E+00 0. -1.
         11    1    3    3    0    0  0.41212134457E+01  0.38672023693E+01 -0.79397586371E+01  0.97457386537E+01  0.51100000000E-03 0. -1.
        -11    1    3    3    0    0 -0.12637126762E+02 -0.35221488496E+02 -0.14344068041E+02  0.40074961172E+02  0.51100000000E-03 0.  1.
         12    1    3    3    0    0  0.95383385445E+01  0.31739244009E+02  0.22729990878E+02  0.40187211868E+02  0.00000000000E+00 0. -1.
</event>
<event>
 7    1  0.3276565E-015  0.9000776E+02  0.7816164E-02  0.1186339E+00
        -11   -1    0    0    0    0  0.00000000000E+00  0.00000000000E+00  0.45593999997E+02  0.45594000000E+02  0.51100000000E-03 0. -1.
         11   -1    0    0    0    0 -0.00000000000E+00 -0.00000000000E+00 -0.45593999997E+02  0.45594000000E+02  0.51100000000E-03 0.  1.
    9900012    2    1    2    0    0  0.67226486994E+00 -0.83598246275E+00 -0.49210787495E+00  0.90007755579E+02  0.90000017152E+02 0.  0.
         12    1    1    2    0    0 -0.67226486994E+00  0.83598246275E+00  0.49210787495E+00  0.11802444213E+01  0.00000000000E+00 0. -1.
         11    1    3    3    0    0 -0.26162399717E+02 -0.21210758928E+01 -0.26981834975E+02  0.37642921523E+02  0.51100000000E-03 0. -1.
        -11    1    3    3    0    0  0.45041393075E+01  0.16239230067E+01 -0.91378039445E+01  0.10316193970E+02  0.51100000000E-03 0.  1.
        -12    1    3    3    0    0  0.22330525279E+02 -0.33882957670E+00  0.35627531045E+02  0.42048640086E+02  0.00000000000E+00 0.  1.
</event>
<event>
 7    1  0.3276565E-015  0.9000774E+02  0.7816164E-02  0.1186339E+00
        -11   -1    0    0    0    0  0.00000000000E+00  0.00000000000E+00  0.45593999997E+02  0.45594000000E+02  0.51100000000E-03 0.  1.
         11   -1    0    0    0    0 -0.00000000000E+00 -0.00000000000E+00 -0.45593999997E+02  0.45594000000E+02  0.51100000000E-03 0. -1.
    9900012    2    1    2    0    0 -0.81744197970E+00  0.47022761942E+00  0.70971445256E+00  0.90007737314E+02  0.89999998646E+02 0.  0.
         12    1    1    2    0    0  0.81744197970E+00 -0.47022761942E+00 -0.70971445256E+00  0.11802626862E+01  0.00000000000E+00 0. -1.
         11    1    3    3    0    0  0.37228517968E+02  0.13079668643E+02  0.25514711234E+01  0.39541753718E+02  0.51100000000E-03 0. -1.
        -11    1    3    3    0    0 -0.43293391712E+01 -0.12359729656E+02 -0.91367692631E+01  0.15968301339E+02  0.51100000000E-03 0.  1.
        -12    1    3    3    0    0 -0.33716620777E+02 -0.24971136802E+00  0.72950125923E+01  0.34497682257E+02  0.00000000000E+00 0.  1.
</event>
<event>
 7    1  0.3276565E-015  0.9000764E+02  0.7816164E-02  0.1186339E+00
        -11   -1    0    0    0    0  0.00000000000E+00  0.00000000000E+00  0.45593999997E+02  0.45594000000E+02  0.51100000000E-03 0. -1.
         11   -1    0    0    0    0 -0.00000000000E+00 -0.00000000000E+00 -0.45593999997E+02  0.45594000000E+02  0.51100000000E-03 0.  1.
    9900012    2    1    2    0    0 -0.11831585776E+00  0.76081692672E+00 -0.89465128117E+00  0.90007643294E+02  0.89999903386E+02 0.  0.
         12    1    1    2    0    0  0.11831585776E+00 -0.76081692672E+00  0.89465128117E+00  0.11803567059E+01  0.00000000000E+00 0. -1.
         11    1    3    3    0    0 -0.64523748905E+01  0.40177090428E+01 -0.63254310277E+01  0.98886907944E+01  0.51100000000E-03 0. -1.
        -11    1    3    3    0    0 -0.58170037479E+01 -0.35526379732E+02 -0.16133898702E+02  0.39449510479E+02  0.51100000000E-03 0.  1.
         12    1    3    3    0    0  0.12151062781E+02  0.32269487616E+02  0.21564678449E+02  0.40669442021E+02  0.00000000000E+00 0. -1.
</event>
<event>
 7    1  0.3276565E-015  0.9000798E+02  0.7816164E-02  0.1186339E+00
        -11   -1    0    0    0    0  0.00000000000E+00  0.00000000000E+00  0.45593999997E+02  0.45594000000E+02  0.51100000000E-03 0.  1.
         11   -1    0    0    0    0 -0.00000000000E+00 -0.00000000000E+00 -0.45593999997E+02  0.45594000000E+02  0.51100000000E-03 0. -1.
    9900012    2    1    2    0    0 -0.99454575731E+00  0.51502309287E+00  0.37157571785E+00  0.90007983660E+02  0.90000248244E+02 0.  0.
         12    1    1    2    0    0  0.99454575731E+00 -0.51502309287E+00 -0.37157571785E+00  0.11800163404E+01  0.00000000000E+00 0. -1.
         11    1    3    3    0    0  0.22645084873E+02 -0.57438517980E+01  0.25220190405E+01  0.23497920816E+02  0.51100000000E-03 0. -1.
        -11    1    3    3    0    0  0.10015830609E+02  0.14638815339E+02 -0.20633529588E+02  0.27209452785E+02  0.51100000000E-03 0.  1.
        -12    1    3    3    0    0 -0.33655461239E+02 -0.83799404482E+01  0.18483086266E+02  0.39300610059E+02  0.00000000000E+00 0.  1.
</event>
<event>
 7    1  0.3276565E-015  0.9000768E+02  0.7816164E-02  0.1186339E+00
        -11   -1    0    0    0    0  0.00000000000E+00  0.00000000000E+00  0.45593999997E+02  0.45594000000E+02  0.51100000000E-03 0. -1.
         11   -1    0    0    0    0 -0.00000000000E+00 -0.00000000000E+00 -0.45593999997E+02  0.45594000000E+02  0.51100000000E-03 0.  1.
    9900012    2    1    2    0    0 -0.11774269433E+01 -0.67513078612E-01  0.47522452067E-01  0.90007681989E+02  0.89999942592E+02 0.  0.
         12    1    1    2    0    0  0.11774269433E+01  0.67513078612E-01 -0.47522452067E-01  0.11803180105E+01  0.00000000000E+00 0. -1.
         11    1    3    3    0    0 -0.20413372253E+01 -0.19813279194E+00  0.10626019565E+02  0.10822135018E+02  0.51100000000E-03 0. -1.
        -11    1    3    3    0    0  0.32278124548E+02 -0.22313863543E+02 -0.10327324447E+02  0.40576341149E+02  0.51100000000E-03 0.  1.
         12    1    3    3    0    0 -0.31414214266E+02  0.22444483256E+02 -0.25117266657E+00  0.38609205823E+02  0.00000000000E+00 0. -1.
</event>
<event>
 7    1  0.3276565E-015  0.9000770E+02  0.7816164E-02  0.1186339E+00
        -11   -1    0    0    0    0  0.00000000000E+00  0.00000000000E+00  0.45593999997E+02  0.45594000000E+02  0.51100000000E-03 0.  1.
         11   -1    0    0    0    0 -0.00000000000E+00 -0.00000000000E+00 -0.45593999997E+02  0.45594000000E+02  0.51100000000E-03 0. -1.
    9900012    2    1    2    0    0  0.23013507642E+00 -0.33107172290E-01  0.11571749212E+01  0.90007698328E+02  0.89999959146E+02 0.  0.
         12    1    1    2    0    0 -0.23013507642E+00  0.33107172290E-01 -0.11571749212E+01  0.11803016718E+01  0.00000000000E+00 0. -1.
         11    1    3    3    0    0  0.28621556844E+02  0.19542910256E+02 -0.95732725671E+01  0.35955060914E+02  0.51100000000E-03 0. -1.
        -11    1    3    3    0    0 -0.26768110456E+01  0.10314806830E+02 -0.47832352025E+01  0.11680748973E+02  0.51100000000E-03 0.  1.
        -12    1    3    3    0    0 -0.25714610722E+02 -0.29890824258E+02  0.15513682691E+02  0.42371888441E+02  0.00000000000E+00 0.  1.
</event>
<event>
 7    1  0.3276565E-015  0.9000746E+02  0.7816164E-02  0.1186340E+00
        -11   -1    0    0    0    0  0.00000000000E+00  0.00000000000E+00  0.45593999997E+02  0.45594000000E+02  0.51100000000E-03 0.  1.
         11   -1    0    0    0    0 -0.00000000000E+00 -0.00000000000E+00 -0.45593999997E+02  0.45594000000E+02  0.51100000000E-03 0. -1.
    9900012    2    1    2    0    0 -0.10475455751E+01  0.91087272513E-01  0.53668136293E+00  0.90007459654E+02  0.89999717321E+02 0.  0.
         12    1    1    2    0    0  0.10475455751E+01 -0.91087272513E-01 -0.53668136293E+00  0.11805403460E+01  0.00000000000E+00 0. -1.
         11    1    3    3    0    0  0.89892994795E+01 -0.10076983325E+02  0.11575788784E+01  0.13553342288E+02  0.51100000000E-03 0. -1.
        -11    1    3    3    0    0  0.21247731683E+02  0.37762537955E+01  0.26769430830E+02  0.34385005768E+02  0.51100000000E-03 0.  1.
         12    1    3    3    0    0 -0.31284576738E+02  0.63918168021E+01 -0.27390328346E+02  0.42069111598E+02  0.00000000000E+00 0. -1.
</event>
<event>
 7    1  0.3276565E-015  0.9000776E+02  0.7816164E-02  0.1186339E+00
        -11   -1    0    0    0    0  0.00000000000E+00  0.00000000000E+00  0.45593999997E+02  0.45594000000E+02  0.51100000000E-03 0.  1.
         11   -1    0    0    0    0 -0.00000000000E+00 -0.00000000000E+00 -0.45593999997E+02  0.45594000000E+02  0.51100000000E-03 0. -1.
    9900012    2    1    2    0    0 -0.82768543123E-01  0.10491619981E+00  0.11726497867E+01  0.90007760379E+02  0.90000022016E+02 0.  0.
         12    1    1    2    0    0  0.82768543123E-01 -0.10491619981E+00 -0.11726497867E+01  0.11802396210E+01  0.00000000000E+00 0. -1.
         11    1    3    3    0    0 -0.20346290269E+02  0.23497584096E+02 -0.20789429726E+02  0.37393961741E+02  0.51100000000E-03 0. -1.
        -11    1    3    3    0    0 -0.73218916835E+01 -0.28979042105E+01 -0.46535512880E+01  0.91467746495E+01  0.51100000000E-03 0.  1.
        -12    1    3    3    0    0  0.27585413410E+02 -0.20494763686E+02  0.26615630800E+02  0.43467023989E+02  0.00000000000E+00 0.  1.
</event>
<event>
 7    1  0.3276565E-015  0.9000776E+02  0.7816164E-02  0.1186339E+00
        -11   -1    0    0    0    0  0.00000000000E+00  0.00000000000E+00  0.45593999997E+02  0.45594000000E+02  0.51100000000E-03 0.  1.
         11   -1    0    0    0    0 -0.00000000000E+00 -0.00000000000E+00 -0.45593999997E+02  0.45594000000E+02  0.51100000000E-03 0. -1.
    9900012    2    1    2    0    0 -0.11169571103E+01  0.42259072760E-01  0.37893543817E+00  0.90007758041E+02  0.90000019647E+02 0.  0.
         12    1    1    2    0    0  0.11169571103E+01 -0.42259072760E-01 -0.37893543817E+00  0.11802419590E+01  0.00000000000E+00 0. -1.
         11    1    3    3    0    0  0.34809386476E+01 -0.92955868742E+01  0.11726441947E+01  0.99949969421E+01  0.51100000000E-03 0. -1.
        -11    1    3    3    0    0 -0.37648652981E+01  0.29389059290E+02  0.30701606220E+02  0.42667079129E+02  0.51100000000E-03 0.  1.
         12    1    3    3    0    0 -0.83303045982E+00 -0.20051213343E+02 -0.31495314977E+02  0.37345681970E+02  0.00000000000E+00 0. -1.
</event>
<event>
 7    1  0.3276565E-015  0.9000775E+02  0.7816164E-02  0.1186339E+00
        -11   -1    0    0    0    0  0.00000000000E+00  0.00000000000E+00  0.45593999997E+02  0.45594000000E+02  0.51100000000E-03 0. -1.
         11   -1    0    0    0    0 -0.00000000000E+00 -0.00000000000E+00 -0.45593999997E+02  0.45594000000E+02  0.51100000000E-03 0.  1.
    9900012    2    1    2    0    0  0.15364560844E+00  0.96808760362E+00 -0.65741152063E+00  0.90007749819E+02  0.90000011317E+02 0.  0.
         12    1    1    2    0    0 -0.15364560844E+00 -0.96808760362E+00  0.65741152063E+00  0.11802501806E+01  0.00000000000E+00 0. -1.
         11    1    3    3    0    0  0.10207968467E+01 -0.86827460902E+01 -0.93106606423E+00  0.87919844259E+01  0.51100000000E-03 0. -1.
        -11    1    3    3    0    0 -0.74932861674E+01 -0.15934492679E+02 -0.33789189131E+02  0.38102056334E+02  0.51100000000E-03 0.  1.
         12    1    3    3    0    0  0.66261349291E+01  0.25585326373E+02  0.34062843674E+02  0.43113709059E+02  0.00000000000E+00 0. -1.
</event>
<event>
 7    1  0.3276565E-015  0.9000792E+02  0.7816164E-02  0.1186339E+00
        -11   -1    0    0    0    0  0.00000000000E+00  0.00000000000E+00  0.45593999997E+02  0.45594000000E+02  0.51100000000E-03 0.  1.
         11   -1    0    0    0    0 -0.00000000000E+00 -0.00000000000E+00 -0.45593999997E+02  0.45594000000E+02  0.51100000000E-03 0. -1.
    9900012    2    1    2    0    0  0.10344170156E+01  0.21912225064E+00  0.52397449196E+00  0.90007922718E+02  0.90000186498E+02 0.  0.
         12    1    1    2    0    0 -0.10344170156E+01 -0.21912225064E+00 -0.52397449196E+00  0.11800772818E+01  0.00000000000E+00 0. -1.
         11    1    3    3    0    0  0.16578017947E+00  0.67951167311E+01  0.71926930564E+01  0.98962582890E+01  0.51100000000E-03 0. -1.
        -11    1    3    3    0    0 -0.18259626972E+02  0.31961689485E+02 -0.31121862128E+01  0.36941159635E+02  0.51100000000E-03 0.  1.
         12    1    3    3    0    0  0.19128263808E+02 -0.38537683966E+02 -0.35565323516E+01  0.43170504794E+02  0.00000000000E+00 0. -1.
</event>
<event>
 7    1  0.3276565E-015  0.9000797E+02  0.7816164E-02  0.1186339E+00
        -11   -1    0    0    0    0  0.00000000000E+00  0.00000000000E+00  0.45593999997E+02  0.45594000000E+02  0.51100000000E-03 0.  1.
         11   -1    0    0    0    0 -0.00000000000E+00 -0.00000000000E+00 -0.45593999997E+02  0.45594000000E+02  0.51100000000E-03 0. -1.
    9900012    2    1    2    0    0  0.10694320502E+01  0.34085852856E-01  0.49762778511E+00  0.90007966031E+02  0.90000230382E+02 0.  0.
         12    1    1    2    0    0 -0.10694320502E+01 -0.34085852856E-01 -0.49762778511E+00  0.11800339689E+01  0.00000000000E+00 0. -1.
         11    1    3    3    0    0  0.98271268476E+01 -0.41910666227E+02 -0.66140706387E+01  0.43552523421E+02  0.51100000000E-03 0. -1.
        -11    1    3    3    0    0  0.97407292304E+00  0.10151126165E+02 -0.46217284819E+01  0.11196184837E+02  0.51100000000E-03 0.  1.
        -12    1    3    3    0    0 -0.97317677205E+01  0.31793625914E+02  0.11733426906E+02  0.35259257773E+02  0.00000000000E+00 0.  1.
</event>
<event>
 7    1  0.3276565E-015  0.9000774E+02  0.7816164E-02  0.1186339E+00
        -11   -1    0    0    0    0  0.00000000000E+00  0.00000000000E+00  0.45593999997E+02  0.45594000000E+02  0.51100000000E-03 0. -1.
         11   -1    0    0    0    0 -0.00000000000E+00 -0.00000000000E+00 -0.45593999997E+02  0.45594000000E+02  0.51100000000E-03 0.  1.
    9900012    2    1    2    0    0  0.94896643220E+00 -0.19401411134E+00 -0.67442021178E+00  0.90007736730E+02  0.89999998055E+02 0.  0.
         12    1    1    2    0    0 -0.94896643220E+00  0.19401411134E+00  0.67442021178E+00  0.11802632702E+01  0.00000000000E+00 0. -1.
         11    1    3    3    0    0 -0.41047770614E+02 -0.96511607989E+01 -0.12724877244E+02  0.44045282135E+02  0.51100000000E-03 0. -1.
        -11    1    3    3    0    0  0.10052365679E+02 -0.19158237412E+01  0.92311880914E+00  0.10274852065E+02  0.51100000000E-03 0.  1.
        -12    1    3    3    0    0  0.31944371368E+02  0.11372970429E+02  0.11127338224E+02  0.35687602531E+02  0.00000000000E+00 0.  1.
</event>
<event>
 7    1  0.3276565E-015  0.9000743E+02  0.7816164E-02  0.1186340E+00
        -11   -1    0    0    0    0  0.00000000000E+00  0.00000000000E+00  0.45593999997E+02  0.45594000000E+02  0.51100000000E-03 0.  1.
         11   -1    0    0    0    0 -0.00000000000E+00 -0.00000000000E+00 -0.45593999997E+02  0.45594000000E+02  0.51100000000E-03 0. -1.
    9900012    2    1    2    0    0  0.83570547647E+00 -0.59819538841E+00  0.58094311367E+00  0.90007433921E+02  0.89999691248E+02 0.  0.
         12    1    1    2    0    0 -0.83570547647E+00  0.59819538841E+00 -0.58094311367E+00  0.11805660792E+01  0.00000000000E+00 0. -1.
         11    1    3    3    0    0  0.20056013340E+02  0.36501836718E+02 -0.54711804105E+00  0.41652456030E+02  0.51100000000E-03 0. -1.
        -11    1    3    3    0    0 -0.21291348145E+01 -0.45311735616E+00 -0.68076495765E+01  0.71472108836E+01  0.51100000000E-03 0.  1.
        -12    1    3    3    0    0 -0.17091173049E+02 -0.36646914751E+02  0.79357107312E+01  0.41207767007E+02  0.00000000000E+00 0.  1.
</event>
<event>
 7    1  0.3276565E-015  0.9000784E+02  0.7816164E-02  0.1186339E+00
        -11   -1    0    0    0    0  0.00000000000E+00  0.00000000000E+00  0.45593999997E+02  0.45594000000E+02  0.51100000000E-03 0. -1.
         11   -1    0    0    0    0 -0.00000000000E+00 -0.00000000000E+00 -0.45593999997E+02  0.45594000000E+02  0.51100000000E-03 0.  1.
    9900012    2    1    2    0    0 -0.41378957318E+00 -0.94984243537E+00 -0.56511337440E+00  0.90007840863E+02  0.90000103562E+02 0.  0.
         12    1    1    2    0    0  0.41378957318E+00  0.94984243537E+00  0.56511337440E+00  0.11801591371E+01  0.00000000000E+00 0. -1.
         11    1    3    3    0    0  0.17860795449E+02  0.20384005961E+02  0.21422896111E+02  0.34546435289E+02  0.51100000000E-03 0. -1.
        -11    1    3    3    0    0  0.53121103486E+01  0.60178295871E+01  0.57902006394E+01  0.98974346676E+01  0.51100000000E-03 0.  1.
        -12    1    3    3    0    0 -0.23586695371E+02 -0.27351677983E+02 -0.27778210125E+02  0.45563970907E+02  0.00000000000E+00 0.  1.
</event>
<event>
 7    1  0.3276565E-015  0.9000764E+02  0.7816164E-02  0.1186339E+00
        -11   -1    0    0    0    0  0.00000000000E+00  0.00000000000E+00  0.45593999997E+02  0.45594000000E+02  0.51100000000E-03 0.  1.
         11   -1    0    0    0    0 -0.00000000000E+00 -0.00000000000E+00 -0.45593999997E+02  0.45594000000E+02  0.51100000000E-03 0. -1.
    9900012    2    1    2    0    0 -0.10680532517E+01 -0.49632410124E+00 -0.78621085099E-01  0.90007637074E+02  0.89999897083E+02 0.  0.
         12    1    1    2    0    0  0.10680532517E+01  0.49632410124E+00  0.78621085099E-01  0.11803629259E+01  0.00000000000E+00 0. -1.
         11    1    3    3    0    0  0.33626089633E+02 -0.73735186025E+01 -0.12554821476E+02  0.36642955983E+02  0.51100000000E-03 0. -1.
        -11    1    3    3    0    0  0.40915235859E+01 -0.53504328478E+01 -0.56966114708E+01  0.88215123093E+01  0.51100000000E-03 0.  1.
        -12    1    3    3    0    0 -0.38785666471E+02  0.12227627349E+02  0.18172811862E+02  0.44543168782E+02  0.00000000000E+00 0.  1.
</event>
<event>
 7    1  0.3276565E-015  0.9000760E+02  0.7816164E-02  0.1186339E+00
        -11   -1    0    0    0    0  0.00000000000E+00  0.00000000000E+00  0.45593999997E+02  0.45594000000E+02  0.51100000000E-03 0.  1.
         11   -1    0    0    0    0 -0.00000000000E+00 -0.00000000000E+00 -0.45593999997E+02  0.45594000000E+02  0.51100000000E-03 0. -1.
    9900012    2    1    2    0    0  0.10264960515E+00  0.84682456727E+00 -0.81590765296E+00  0.90007595795E+02  0.89999855259E+02 0.  0.
         12    1    1    2    0    0 -0.10264960515E+00 -0.84682456727E+00  0.81590765296E+00  0.11804042051E+01  0.00000000000E+00 0. -1.
         11    1    3    3    0    0  0.69350893725E+01  0.45920749352E+01 -0.43620891968E+02  0.44406810662E+02  0.51100000000E-03 0. -1.
        -11    1    3    3    0    0 -0.45985901042E+01  0.42613261343E+01  0.10372395825E+02  0.12119922721E+02  0.51100000000E-03 0.  1.
        -12    1    3    3    0    0 -0.22338496632E+01 -0.80065765022E+01  0.32432588491E+02  0.33480862411E+02  0.00000000000E+00 0.  1.
</event>
<event>
 7    1  0.3276565E-015  0.9000757E+02  0.7816164E-02  0.1186339E+00
        -11   -1    0    0    0    0  0.00000000000E+00  0.00000000000E+00  0.45593999997E+02  0.45594000000E+02  0.51100000000E-03 0.  1.
         11   -1    0    0    0    0 -0.00000000000E+00 -0.00000000000E+00 -0.45593999997E+02  0.45594000000E+02  0.51100000000E-03 0. -1.
    9900012    2    1    2    0    0 -0.51426488999E+00 -0.83356049826E+00  0.65887407920E+00  0.90007573580E+02  0.89999832751E+02 0.  0.
         12    1    1    2    0    0  0.51426488999E+00  0.83356049826E+00 -0.65887407920E+00  0.11804264202E+01  0.00000000000E+00 0. -1.
         11    1    3    3    0    0  0.44492221222E+01  0.74453801790E+01 -0.42038689250E+02  0.42924126754E+02  0.51100000000E-03 0. -1.
        -11    1    3    3    0    0 -0.61018546921E+01  0.84181303173E+00  0.40829754442E+01  0.73899911098E+01  0.51100000000E-03 0.  1.
        -12    1    3    3    0    0  0.11383676799E+01 -0.91207537090E+01  0.38614587884E+02  0.39693455716E+02  0.00000000000E+00 0.  1.
</event>
<event>
 7    1  0.3276565E-015  0.9000779E+02  0.7816164E-02  0.1186339E+00
        -11   -1    0    0    0    0  0.00000000000E+00  0.00000000000E+00  0.45593999997E+02  0.45594000000E+02  0.51100000000E-03 0.  1.
         11   -1    0    0    0    0 -0.00000000000E+00 -0.00000000000E+00 -0.45593999997E+02  0.45594000000E+02  0.51100000000E-03 0. -1.
    9900012    2    1    2    0    0  0.27966324990E+00  0.40470533553E+00  0.10727970009E+01  0.90007791820E+02  0.90000053872E+02 0.  0.
         12    1    1    2    0    0 -0.27966324990E+00 -0.40470533553E+00 -0.10727970009E+01  0.11802081796E+01  0.00000000000E+00 0. -1.
         11    1    3    3    0    0  0.48514473669E+01  0.81274203910E+01 -0.20374400585E+01  0.96820796329E+01  0.51100000000E-03 0. -1.
        -11    1    3    3    0    0  0.16267307546E+02 -0.30571378386E+02 -0.21536797203E+02  0.40780732035E+02  0.51100000000E-03 0.  1.
         12    1    3    3    0    0 -0.20839091663E+02  0.22848663331E+02  0.24647034263E+02  0.39544980153E+02  0.00000000000E+00 0. -1.
</event>
<event>
 7    1  0.3276565E-015  0.9000755E+02  0.7816164E-02  0.1186339E+00
        -11   -1    0    0    0    0  0.00000000000E+00  0.00000000000E+00  0.45593999997E+02  0.45594000000E+02  0.51100000000E-03 0.  1.
         11   -1    0    0    0    0 -0.00000000000E+00 -0.00000000000E+00 -0.45593999997E+02  0.45594000000E+02  0.51100000000E-03 0. -1.
    9900012    2    1    2    0    0  0.89678027160E+00 -0.60110405041E+00  0.47740247885E+00  0.90007553448E+02  0.89999812353E+02 0.  0.
         12    1    1    2    0    0 -0.89678027160E+00  0.60110405041E+00 -0.47740247885E+00  0.11804465518E+01  0.00000000000E+00 0. -1.
         11    1    3    3    0    0  0.25582689289E+02  0.98112238084E+00 -0.28301529349E+02  0.38162981489E+02  0.51100000000E-03 0. -1.
        -11    1    3    3    0    0 -0.38179326198E+01  0.55892128421E+01 -0.70452638584E+01  0.97699361707E+01  0.51100000000E-03 0.  1.
        -12    1    3    3    0    0 -0.20867976397E+02 -0.71714392734E+01  0.35824195686E+02  0.42074635789E+02  0.00000000000E+00 0.  1.
</event>
<event>
 7    1  0.3276565E-015  0.9000732E+02  0.7816164E-02  0.1186340E+00
        -11   -1    0    0    0    0  0.00000000000E+00  0.00000000000E+00  0.45593999997E+02  0.45594000000E+02  0.51100000000E-03 0.  1.
         11   -1    0    0    0    0 -0.00000000000E+00 -0.00000000000E+00 -0.45593999997E+02  0.45594000000E+02  0.51100000000E-03 0. -1.
    9900012    2    1    2    0    0 -0.37130328126E-01 -0.10339765630E+01 -0.56878018163E+00  0.90007323461E+02  0.89999579330E+02 0.  0.
         12    1    1    2    0    0  0.37130328126E-01  0.10339765630E+01  0.56878018163E+00  0.11806765387E+01  0.00000000000E+00 0. -1.
         11    1    3    3    0    0  0.14282948295E+02 -0.46934557231E+01  0.12668898882E+02  0.19660420590E+02  0.51100000000E-03 0. -1.
        -11    1    3    3    0    0 -0.29117755676E+02  0.85832094128E+01  0.18100113337E+02  0.35343023110E+02  0.51100000000E-03 0.  1.
         12    1    3    3    0    0  0.14797677053E+02 -0.49237302527E+01 -0.31337792402E+02  0.35003879762E+02  0.00000000000E+00 0. -1.
</event>
<event>
 7    1  0.3276565E-015  0.9000774E+02  0.7816164E-02  0.1186339E+00
        -11   -1    0    0    0    0  0.00000000000E+00  0.00000000000E+00  0.45593999997E+02  0.45594000000E+02  0.51100000000E-03 0.  1.
         11   -1    0    0    0    0 -0.00000000000E+00 -0.00000000000E+00 -0.45593999997E+02  0.45594000000E+02  0.51100000000E-03 0. -1.
    9900012    2    1    2    0    0  0.55684701961E+00  0.97359201327E+00  0.36750948126E+00  0.90007735949E+02  0.89999997263E+02 0.  0.
         12    1    1    2    0    0 -0.55684701961E+00 -0.97359201327E+00 -0.36750948126E+00  0.11802640511E+01  0.00000000000E+00 0. -1.
         11    1    3    3    0    0  0.10792872094E+01 -0.36051444158E+01  0.95812831652E+01  0.10293828952E+02  0.51100000000E-03 0. -1.
        -11    1    3    3    0    0 -0.19832183072E+02 -0.20085069572E+02  0.21776827326E+02  0.35650465828E+02  0.51100000000E-03 0.  1.
         12    1    3    3    0    0  0.19309742883E+02  0.24663806001E+02 -0.30990601010E+02  0.44063441169E+02  0.00000000000E+00 0. -1.
</event>
<event>
 7    1  0.3276565E-015  0.9000744E+02  0.7816164E-02  0.1186340E+00
        -11   -1    0    0    0    0  0.00000000000E+00  0.00000000000E+00  0.45593999997E+02  0.45594000000E+02  0.51100000000E-03 0.  1.
         11   -1    0    0    0    0 -0.00000000000E+00 -0.00000000000E+00 -0.45593999997E+02  0.45594000000E+02  0.51100000000E-03 0. -1.
    9900012    2    1    2    0    0  0.58504341460E-01  0.67230047957E+00  0.96867066531E+00  0.90007435071E+02  0.89999692414E+02 0.  0.
         12    1    1    2    0    0 -0.58504341460E-01 -0.67230047957E+00 -0.96867066531E+00  0.11805649286E+01  0.00000000000E+00 0. -1.
         11    1    3    3    0    0 -0.27202537513E+01  0.15632775596E+02 -0.33075155802E+02  0.36684456993E+02  0.51100000000E-03 0. -1.
        -11    1    3    3    0    0 -0.55706257264E+01  0.41367820239E+01 -0.53456209624E+01  0.87590239315E+01  0.51100000000E-03 0.  1.
        -12    1    3    3    0    0  0.83493838192E+01 -0.19097257140E+02  0.39389447429E+02  0.44563954147E+02  0.00000000000E+00 0.  1.
</event>
<event>
 7    1  0.3276565E-015  0.9000773E+02  0.7816164E-02  0.1186339E+00
        -11   -1    0    0    0    0  0.00000000000E+00  0.00000000000E+00  0.45593999997E+02  0.45594000000E+02  0.51100000000E-03 0. -1.
         11   -1    0    0    0    0 -0.00000000000E+00 -0.00000000000E+00 -0.45593999997E+02  0.45594000000E+02  0.51100000000E-03 0.  1.
    9900012    2    1    2    0    0  0.76798594050E+00  0.27337490198E+00 -0.85351589444E+00  0.90007734935E+02  0.89999996236E+02 0.  0.
         12    1    1    2    0    0 -0.76798594050E+00 -0.27337490198E+00  0.85351589444E+00  0.11802650651E+01  0.00000000000E+00 0. -1.
         11    1    3    3    0    0 -0.10683826517E+02  0.24605179446E+01  0.68886395873E+01  0.12948036655E+02  0.51100000000E-03 0. -1.
        -11    1    3    3    0    0 -0.28569165083E+02 -0.16136009178E+02 -0.10863451358E+02  0.34562733709E+02  0.51100000000E-03 0.  1.
         12    1    3    3    0    0  0.40020977541E+02  0.13948866135E+02  0.31212958758E+01  0.42496964571E+02  0.00000000000E+00 0. -1.
</event>
<event>
 7    1  0.3276565E-015  0.9000759E+02  0.7816164E-02  0.1186339E+00
        -11   -1    0    0    0    0  0.00000000000E+00  0.00000000000E+00  0.45593999997E+02  0.45594000000E+02  0.51100000000E-03 0.  1.
         11   -1    0    0    0    0 -0.00000000000E+00 -0.00000000000E+00 -0.45593999997E+02  0.45594000000E+02  0.51100000000E-03 0. -1.
    9900012    2    1    2    0    0  0.83686176411E+00 -0.25466803274E+00  0.79256784380E+00  0.90007594474E+02  0.89999853921E+02 0.  0.
         12    1    1    2    0    0 -0.83686176411E+00  0.25466803274E+00 -0.79256784380E+00  0.11804055261E+01  0.00000000000E+00 0. -1.
         11    1    3    3    0    0 -0.84633620770E+01 -0.45680917014E+01  0.17723777526E+01  0.97794316091E+01  0.51100000000E-03 0. -1.
        -11    1    3    3    0    0 -0.17856426855E+02 -0.20228348081E+02  0.23838649902E+02  0.36004434109E+02  0.51100000000E-03 0.  1.
         12    1    3    3    0    0  0.27156650696E+02  0.24541771750E+02 -0.24818459811E+02  0.44223728755E+02  0.00000000000E+00 0. -1.
</event>
<event>
 7    1  0.3276565E-015  0.9000772E+02  0.7816164E-02  0.1186339E+00
        -11   -1    0    0    0    0  0.00000000000E+00  0.00000000000E+00  0.45593999997E+02  0.45594000000E+02  0.51100000000E-03 0.  1.
         11   -1    0    0    0    0 -0.00000000000E+00 -0.00000000000E+00 -0.45593999997E+02  0.45594000000E+02  0.51100000000E-03 0. -1.
    9900012    2    1    2    0    0 -0.11200344605E+01 -0.27190044405E+00  0.25427913802E+00  0.90007718286E+02  0.89999979367E+02 0.  0.
         12    1    1    2    0    0  0.11200344605E+01  0.27190044405E+00 -0.25427913802E+00  0.11802817139E+01  0.00000000000E+00 0. -1.
         11    1    3    3    0    0  0.30457828197E+02 -0.23671765698E+02 -0.36912979395E+01  0.38751225406E+02  0.51100000000E-03 0. -1.
        -11    1    3    3    0    0 -0.81856796954E+01 -0.78354344025E+01  0.45949049795E+01  0.12227531901E+02  0.51100000000E-03 0.  1.
        -12    1    3    3    0    0 -0.23392182962E+02  0.31235299657E+02 -0.64932790195E+00  0.39028960979E+02  0.00000000000E+00 0.  1.
</event>
<event>
 7    1  0.3276565E-015  0.9000764E+02  0.7816164E-02  0.1186339E+00
        -11   -1    0    0    0    0  0.00000000000E+00  0.00000000000E+00  0.45593999997E+02  0.45594000000E+02  0.51100000000E-03 0. -1.
         11   -1    0    0    0    0 -0.00000000000E+00 -0.00000000000E+00 -0.45593999997E+02  0.45594000000E+02  0.51100000000E-03 0.  1.
    9900012    2    1    2    0    0  0.24205638285E+00  0.52034835439E+00 -0.10314489798E+01  0.90007643825E+02  0.89999903923E+02 0.  0.
         12    1    1    2    0    0 -0.24205638285E+00 -0.52034835439E+00  0.10314489798E+01  0.11803561752E+01  0.00000000000E+00 0. -1.
         11    1    3    3    0    0  0.36507042132E+02 -0.13046670941E+02  0.12927979694E+02  0.40867008786E+02  0.51100000000E-03 0. -1.
        -11    1    3    3    0    0  0.10575839190E+01  0.38118791075E+01 -0.95205725254E+01  0.10309714232E+02  0.51100000000E-03 0.  1.
        -12    1    3    3    0    0 -0.37322569668E+02  0.97551401883E+01 -0.44388561487E+01  0.38830920806E+02  0.00000000000E+00 0.  1.
</event>
<event>
 7    1  0.3276565E-015  0.9000790E+02  0.7816164E-02  0.1186339E+00
        -11   -1    0    0    0    0  0.00000000000E+00  0.00000000000E+00  0.45593999997E+02  0.45594000000E+02  0.51100000000E-03 0. -1.
         11   -1    0    0    0    0 -0.00000000000E+00 -0.00000000000E+00 -0.45593999997E+02  0.45594000000E+02  0.51100000000E-03 0.  1.
    9900012    2    1    2    0    0 -0.95778460659E+00 -0.68560924140E+00 -0.72354842121E-01  0.90007895510E+02  0.90000158930E+02 0.  0.
         12    1    1    2    0    0  0.95778460659E+00  0.68560924140E+00  0.72354842121E-01  0.11801044902E+01  0.00000000000E+00 0. -1.
         11    1    3    3    0    0  0.14520251118E+02  0.13276400993E+02  0.33253467676E+02  0.38637981684E+02  0.51100000000E-03 0. -1.
        -11    1    3    3    0    0 -0.72955685436E+01 -0.39398770346E+01  0.58273593928E+01  0.10134400287E+02  0.51100000000E-03 0.  1.
        -12    1    3    3    0    0 -0.81824671808E+01 -0.10022133200E+02 -0.39153181911E+02  0.41235513539E+02  0.00000000000E+00 0.  1.
</event>
<event>
 7    1  0.3276565E-015  0.9000786E+02  0.7816164E-02  0.1186339E+00
        -11   -1    0    0    0    0  0.00000000000E+00  0.00000000000E+00  0.45593999997E+02  0.45594000000E+02  0.51100000000E-03 0.  1.
         11   -1    0    0    0    0 -0.00000000000E+00 -0.00000000000E+00 -0.45593999997E+02  0.45594000000E+02  0.51100000000E-03 0. -1.
    9900012    2    1    2    0    0  0.74027597284E+00 -0.40304774501E+00  0.82599794391E+00  0.90007860769E+02  0.90000123731E+02 0.  0.
         12    1    1    2    0    0 -0.74027597284E+00  0.40304774501E+00 -0.82599794391E+00  0.11801392308E+01  0.00000000000E+00 0. -1.
         11    1    3    3    0    0 -0.13815612021E+02 -0.33892541048E+02 -0.13644763093E+02  0.39060914407E+02  0.51100000000E-03 0. -1.
        -11    1    3    3    0    0  0.32090604402E+01  0.22516471036E+01 -0.92958112804E+01  0.10088611957E+02  0.51100000000E-03 0.  1.
        -12    1    3    3    0    0  0.11346827553E+02  0.31237846199E+02  0.23766572317E+02  0.40858334406E+02  0.00000000000E+00 0.  1.
</event>
<event>
 7    1  0.3276565E-015  0.9000762E+02  0.7816164E-02  0.1186339E+00
        -11   -1    0    0    0    0  0.00000000000E+00  0.00000000000E+00  0.45593999997E+02  0.45594000000E+02  0.51100000000E-03 0.  1.
         11   -1    0    0    0    0 -0.00000000000E+00 -0.00000000000E+00 -0.45593999997E+02  0.45594000000E+02  0.51100000000E-03 0. -1.
    9900012    2    1    2    0    0  0.10235734054E+00  0.72314749981E+00  0.92728989790E+00  0.90007624684E+02  0.89999884530E+02 0.  0.
         12    1    1    2    0    0 -0.10235734054E+00 -0.72314749981E+00 -0.92728989790E+00  0.11803753159E+01  0.00000000000E+00 0. -1.
         11    1    3    3    0    0 -0.71268051662E+01  0.31509330651E+01 -0.48883222619E+01  0.91986643517E+01  0.51100000000E-03 0. -1.
        -11    1    3    3    0    0 -0.34770643101E+02 -0.13237235159E+02  0.16667715453E+01  0.37242450832E+02  0.51100000000E-03 0.  1.
         12    1    3    3    0    0  0.41999805608E+02  0.10809449593E+02  0.41488406145E+01  0.43566509501E+02  0.00000000000E+00 0. -1.
</event>
<event>
 7    1  0.3276565E-015  0.9000771E+02  0.7816164E-02  0.1186339E+00
        -11   -1    0    0    0    0  0.00000000000E+00  0.00000000000E+00  0.45593999997E+02  0.45594000000E+02  0.51100000000E-03 0. -1.
         11   -1    0    0    0    0 -0.00000000000E+00 -0.00000000000E+00 -0.45593999997E+02  0.45594000000E+02  0.51100000000E-03 0.  1.
    9900012    2    1    2    0    0 -0.26597490813E+00  0.10538340964E+01  0.46018661314E+00  0.90007711614E+02  0.89999972608E+02 0.  0.
         12    1    1    2    0    0  0.26597490813E+00 -0.10538340964E+01 -0.46018661314E+00  0.11802883857E+01  0.00000000000E+00 0. -1.
         11    1    3    3    0    0 -0.32263293816E+01 -0.10110825002E+01 -0.10467480797E+02  0.10999983800E+02  0.51100000000E-03 0. -1.
        -11    1    3    3    0    0  0.36738736421E+02  0.17968421133E+02  0.49152474260E+01  0.41191729380E+02  0.51100000000E-03 0.  1.
         12    1    3    3    0    0 -0.33778381947E+02 -0.15903504536E+02  0.60124199842E+01  0.37815998434E+02  0.00000000000E+00 0. -1.
</event>
<event>
 7    1  0.3276565E-015  0.9000774E+02  0.7816164E-02  0.1186339E+00
        -11   -1    0    0    0    0  0.00000000000E+00  0.00000000000E+00  0.45593999997E+02  0.45594000000E+02  0.51100000000E-03 0.  1.
         11   -1    0    0    0    0 -0.00000000000E+00 -0.00000000000E+00 -0.45593999997E+02  0.45594000000E+02  0.51100000000E-03 0. -1.
    9900012    2    1    2    0    0  0.10731520459E+01 -0.48453162695E+00 -0.81097831616E-01  0.90007744490E+02  0.90000005917E+02 0.  0.
         12    1    1    2    0    0 -0.10731520459E+01  0.48453162695E+00  0.81097831616E-01  0.11802555102E+01  0.00000000000E+00 0. -1.
         11    1    3    3    0    0  0.15531580008E+02 -0.16581697990E+02 -0.33514655436E+02  0.40489687762E+02  0.51100000000E-03 0. -1.
        -11    1    3    3    0    0  0.19837632863E+01  0.62957971059E+01 -0.38256263673E+01  0.76294033409E+01  0.51100000000E-03 0.  1.
        -12    1    3    3    0    0 -0.16442191248E+02  0.98013692571E+01  0.37259183972E+02  0.41888653387E+02  0.00000000000E+00 0.  1.
</event>
<event>
 7    1  0.3276565E-015  0.9000769E+02  0.7816164E-02  0.1186339E+00
        -11   -1    0    0    0    0  0.00000000000E+00  0.00000000000E+00  0.45593999997E+02  0.45594000000E+02  0.51100000000E-03 0.  1.
         11   -1    0    0    0    0 -0.00000000000E+00 -0.00000000000E+00 -0.45593999997E+02  0.45594000000E+02  0.51100000000E-03 0. -1.
    9900012    2    1    2    0    0  0.97137106235E+00  0.58120808683E+00  0.33431638185E+00  0.90007689861E+02  0.89999950567E+02 0.  0.
         12    1    1    2    0    0 -0.97137106235E+00 -0.58120808683E+00 -0.33431638185E+00  0.11803101390E+01  0.00000000000E+00 0. -1.
         11    1    3    3    0    0 -0.47151887371E+01 -0.50547400763E+01 -0.66195743106E+01  0.95709020672E+01  0.51100000000E-03 0. -1.
        -11    1    3    3    0    0  0.24248284021E+02 -0.29763414220E+02  0.11824763832E+02  0.40170451130E+02  0.51100000000E-03 0.  1.
         12    1    3    3    0    0 -0.18561724222E+02  0.35399362383E+02 -0.48708731395E+01  0.40266336664E+02  0.00000000000E+00 0. -1.
</event>
<event>
 7    1  0.3276565E-015  0.9000775E+02  0.7816164E-02  0.1186339E+00
        -11   -1    0    0    0    0  0.00000000000E+00  0.00000000000E+00  0.45593999997E+02  0.45594000000E+02  0.51100000000E-03 0.  1.
         11   -1    0    0    0    0 -0.00000000000E+00 -0.00000000000E+00 -0.45593999997E+02  0.45594000000E+02  0.51100000000E-03 0. -1.
    9900012    2    1    2    0    0  0.24029535991E+00  0.60560259843E+00  0.98411744515E+00  0.90007752775E+02  0.90000014311E+02 0.  0.
         12    1    1    2    0    0 -0.24029535991E+00 -0.60560259843E+00 -0.98411744515E+00  0.11802472254E+01  0.00000000000E+00 0. -1.
         11    1    3    3    0    0  0.28100420395E+02 -0.33683735809E+01  0.25096640226E+02  0.37826193542E+02  0.51100000000E-03 0. -1.
        -11    1    3    3    0    0  0.40095793745E+01 -0.94978009418E+01 -0.55736795780E+00  0.10324514942E+02  0.51100000000E-03 0.  1.
        -12    1    3    3    0    0 -0.31869704410E+02  0.13471777121E+02 -0.23555154823E+02  0.41857044290E+02  0.00000000000E+00 0.  1.
</event>
<event>
 7    1  0.3276565E-015  0.9000778E+02  0.7816164E-02  0.1186339E+00
        -11   -1    0    0    0    0  0.00000000000E+00  0.00000000000E+00  0.45593999997E+02  0.45594000000E+02  0.51100000000E-03 0. -1.
         11   -1    0    0    0    0 -0.00000000000E+00 -0.00000000000E+00 -0.45593999997E+02  0.45594000000E+02  0.51100000000E-03 0.  1.
    9900012    2    1    2    0    0 -0.72574627390E+00  0.83504017676E+00  0.41101052043E+00  0.90007775700E+02  0.90000037539E+02 0.  0.
         12    1    1    2    0    0  0.72574627390E+00 -0.83504017676E+00 -0.41101052043E+00  0.11802243002E+01  0.00000000000E+00 0. -1.
         11    1    3    3    0    0 -0.18380555338E+02 -0.27147852792E+02 -0.24529843176E+02  0.40945865875E+02  0.51100000000E-03 0. -1.
        -11    1    3    3    0    0  0.22356199225E+01  0.63565702751E+01  0.21193093604E+02  0.22238507119E+02  0.51100000000E-03 0.  1.
        -12    1    3    3    0    0  0.15419189141E+02  0.21626322694E+02  0.37477600927E+01  0.26823402706E+02  0.00000000000E+00 0.  1.
</event>
<event>
 7    1  0.3276565E-015  0.9000769E+02  0.7816164E-02  0.1186339E+00
        -11   -1    0    0    0    0  0.00000000000E+00  0.00000000000E+00  0.45593999997E+02  0.45594000000E+02  0.51100000000E-03 0.  1.
         11   -1    0    0    0    0 -0.00000000000E+00 -0.00000000000E+00 -0.45593999997E+02  0.45594000000E+02  0.51100000000E-03 0. -1.
    9900012    2    1    2    0    0 -0.49065961985E+00  0.96525715652E+00 -0.46973580212E+00  0.90007694970E+02  0.89999955743E+02 0.  0.
         12    1    1    2    0    0  0.49065961985E+00 -0.96525715652E+00  0.46973580212E+00  0.11803050303E+01  0.00000000000E+00 0. -1.
         11    1    3    3    0    0 -0.15560732054E+01  0.36899106879E+01 -0.60878315490E+01  0.72868716151E+01  0.51100000000E-03 0. -1.
        -11    1    3    3    0    0 -0.14090732330E+02  0.27697705846E+02  0.28159683624E+02  0.41936612033E+02  0.51100000000E-03 0.  1.
         12    1    3    3    0    0  0.15156145915E+02 -0.30422359378E+02 -0.22541587877E+02  0.40784211322E+02  0.00000000000E+00 0. -1.
</event>
<event>
 7    1  0.3276565E-015  0.9000779E+02  0.7816164E-02  0.1186339E+00
        -11   -1    0    0    0    0  0.00000000000E+00  0.00000000000E+00  0.45593999997E+02  0.45594000000E+02  0.51100000000E-03 0. -1.
         11   -1    0    0    0    0 -0.00000000000E+00 -0.00000000000E+00 -0.45593999997E+02  0.45594000000E+02  0.51100000000E-03 0.  1.
    9900012    2    1    2    0    0 -0.77896423931E+00 -0.34985487550E+00 -0.81469139907E+00  0.90007785699E+02  0.90000047670E+02 0.  0.
         12    1    1    2    0    0  0.77896423931E+00  0.34985487550E+00  0.81469139907E+00  0.11802143008E+01  0.00000000000E+00 0. -1.
         11    1    3    3    0    0 -0.57911506840E+01 -0.67249356971E+01  0.18106585641E+01  0.90576305440E+01  0.51100000000E-03 0. -1.
        -11    1    3    3    0    0 -0.23114028399E+02  0.30856362381E+02 -0.15427098795E+02  0.41525519692E+02  0.51100000000E-03 0.  1.
         12    1    3    3    0    0  0.28126214844E+02 -0.24481281559E+02  0.12801748832E+02  0.39424635463E+02  0.00000000000E+00 0. -1.
</event>
<event>
 7    1  0.3276565E-015  0.9000790E+02  0.7816164E-02  0.1186339E+00
        -11   -1    0    0    0    0  0.00000000000E+00  0.00000000000E+00  0.45593999997E+02  0.45594000000E+02  0.51100000000E-03 0. -1.
         11   -1    0    0    0    0 -0.00000000000E+00 -0.00000000000E+00 -0.45593999997E+02  0.45594000000E+02  0.51100000000E-03 0.  1.
    9900012    2    1    2    0    0 -0.42989099489E+00  0.99950307008E+00 -0.45697331008E+00  0.90007899470E+02  0.90000162943E+02 0.  0.
         12    1    1    2    0    0  0.42989099489E+00 -0.99950307008E+00  0.45697331008E+00  0.11801005299E+01  0.00000000000E+00 0. -1.
         11    1    3    3    0    0  0.26484891724E+02  0.22520939283E+02  0.19875176894E+02  0.40045784455E+02  0.51100000000E-03 0. -1.
        -11    1    3    3    0    0  0.62511955691E+01 -0.71336653057E+01 -0.41315358489E+01  0.10345830825E+02  0.51100000000E-03 0.  1.
        -12    1    3    3    0    0 -0.33165978288E+02 -0.14387770908E+02 -0.16200614355E+02  0.39616284189E+02  0.00000000000E+00 0.  1.
</event>
<event>
 7    1  0.3276565E-015  0.9000824E+02  0.7816164E-02  0.1186338E+00
        -11   -1    0    0    0    0  0.00000000000E+00  0.00000000000E+00  0.45593999997E+02  0.45594000000E+02  0.51100000000E-03 0. -1.
         11   -1    0    0    0    0 -0.00000000000E+00 -0.00000000000E+00 -0.45593999997E+02  0.45594000000E+02  0.51100000000E-03 0.  1.
    9900012    2    1    2    0    0 -0.49132786759E+00  0.92124466615E+00 -0.54929828274E+00  0.90008244342E+02  0.90000512366E+02 0.  0.
         12    1    1    2    0    0  0.49132786759E+00 -0.92124466615E+00  0.54929828274E+00  0.11797556577E+01  0.00000000000E+00 0. -1.
         11    1    3    3    0    0 -0.26281494047E+02 -0.50112378280E+01  0.28872150046E+02  0.39362805825E+02  0.51100000000E-03 0. -1.
        -11    1    3    3    0    0 -0.69439724265E+01  0.47720017781E+01 -0.51071516588E+01  0.98526012990E+01  0.51100000000E-03 0.  1.
        -12    1    3    3    0    0  0.32734138606E+02  0.11604807160E+01 -0.24314296670E+02  0.40792837218E+02  0.00000000000E+00 0.  1.
</event>
<event>
 7    1  0.3276565E-015  0.9000764E+02  0.7816164E-02  0.1186339E+00
        -11   -1    0    0    0    0  0.00000000000E+00  0.00000000000E+00  0.45593999997E+02  0.45594000000E+02  0.51100000000E-03 0. -1.
         11   -1    0    0    0    0 -0.00000000000E+00 -0.00000000000E+00 -0.45593999997E+02  0.45594000000E+02  0.51100000000E-03 0.  1.
    9900012    2    1    2    0    0 -0.21054754303E+00  0.75892570632E+00 -0.87917883642E+00  0.90007638224E+02  0.89999898249E+02 0.  0.
         12    1    1    2    0    0  0.21054754303E+00 -0.75892570632E+00  0.87917883642E+00  0.11803617759E+01  0.00000000000E+00 0. -1.
         11    1    3    3    0    0 -0.13842204730E+02  0.88868997913E+01  0.32857241102E+02  0.36744821578E+02  0.51100000000E-03 0. -1.
        -11    1    3    3    0    0 -0.21449650480E+01 -0.63045724490E+01  0.69264463100E+01  0.96085465898E+01  0.51100000000E-03 0.  1.
        -12    1    3    3    0    0  0.15776622235E+02 -0.18234016360E+01 -0.40662866248E+02  0.43654270057E+02  0.00000000000E+00 0.  1.
</event>
<event>
 7    1  0.3276565E-015  0.9000782E+02  0.7816164E-02  0.1186339E+00
        -11   -1    0    0    0    0  0.00000000000E+00  0.00000000000E+00  0.45593999997E+02  0.45594000000E+02  0.51100000000E-03 0.  1.
         11   -1    0    0    0    0 -0.00000000000E+00 -0.00000000000E+00 -0.45593999997E+02  0.45594000000E+02  0.51100000000E-03 0. -1.
    9900012    2    1    2    0    0  0.53878536501E+00  0.76064959965E+00  0.72383862951E+00  0.90007822113E+02  0.90000084565E+02 0.  0.
         12    1    1    2    0    0 -0.53878536501E+00 -0.76064959965E+00 -0.72383862951E+00  0.11801778868E+01  0.00000000000E+00 0. -1.
         11    1    3    3    0    0 -0.55287626415E+00  0.56282650384E+01 -0.62050719822E+01  0.83955915856E+01  0.51100000000E-03 0. -1.
        -11    1    3    3    0    0  0.28860011157E+02  0.23446171673E+02 -0.99805507907E+01  0.38499800057E+02  0.51100000000E-03 0.  1.
         12    1    3    3    0    0 -0.27768349528E+02 -0.28313787112E+02  0.16909461402E+02  0.43112430470E+02  0.00000000000E+00 0. -1.
</event>
<event>
 7    1  0.3276565E-015  0.9000769E+02  0.7816164E-02  0.1186339E+00
        -11   -1    0    0    0    0  0.00000000000E+00  0.00000000000E+00  0.45593999997E+02  0.45594000000E+02  0.51100000000E-03 0.  1.
         11   -1    0    0    0    0 -0.00000000000E+00 -0.00000000000E+00 -0.45593999997E+02  0.45594000000E+02  0.51100000000E-03 0. -1.
    9900012    2    1    2    0    0  0.86517488982E+00 -0.49873602401E+00 -0.62917748266E+00  0.90007690923E+02  0.89999951644E+02 0.  0.
         12    1    1    2    0    0 -0.86517488982E+00  0.49873602401E+00  0.62917748266E+00  0.11803090766E+01  0.00000000000E+00 0. -1.
         11    1    3    3    0    0  0.75442955428E+01  0.65379650995E+01 -0.14371942941E+01  0.10085975936E+02  0.51100000000E-03 0. -1.
        -11    1    3    3    0    0  0.28297296530E+02 -0.63331410476E+01  0.24257842402E+02  0.37805933195E+02  0.51100000000E-03 0.  1.
         12    1    3    3    0    0 -0.34976417183E+02 -0.70356007594E+00 -0.23449825591E+02  0.42115781793E+02  0.00000000000E+00 0. -1.
</event>
<event>
 7    1  0.3276565E-015  0.9000773E+02  0.7816164E-02  0.1186339E+00
        -11   -1    0    0    0    0  0.00000000000E+00  0.00000000000E+00  0.45593999997E+02  0.45594000000E+02  0.51100000000E-03 0. -1.
         11   -1    0    0    0    0 -0.00000000000E+00 -0.00000000000E+00 -0.45593999997E+02  0.45594000000E+02  0.51100000000E-03 0.  1.
    9900012    2    1    2    0    0 -0.11534798907E+01  0.14820227277E+00 -0.20135997003E+00  0.90007734941E+02  0.89999996242E+02 0.  0.
         12    1    1    2    0    0  0.11534798907E+01 -0.14820227277E+00  0.20135997003E+00  0.11802650590E+01  0.00000000000E+00 0. -1.
         11    1    3    3    0    0 -0.27961592276E+02  0.28424488647E+02  0.15010700499E+02  0.42604264190E+02  0.51100000000E-03 0. -1.
        -11    1    3    3    0    0  0.24828480177E+01 -0.10803416931E+00 -0.94142221509E+01  0.97367235058E+01  0.51100000000E-03 0.  1.
        -12    1    3    3    0    0  0.24325264367E+02 -0.28168252205E+02 -0.57978383182E+01  0.37666747245E+02  0.00000000000E+00 0.  1.
</event>
<event>
 7    1  0.3276565E-015  0.9000764E+02  0.7816164E-02  0.1186339E+00
        -11   -1    0    0    0    0  0.00000000000E+00  0.00000000000E+00  0.45593999997E+02  0.45594000000E+02  0.51100000000E-03 0.  1.
         11   -1    0    0    0    0 -0.00000000000E+00 -0.00000000000E+00 -0.45593999997E+02  0.45594000000E+02  0.51100000000E-03 0. -1.
    9900012    2    1    2    0    0  0.60288575632E+00  0.41008919256E+00  0.92822781680E+00  0.90007639351E+02  0.89999899391E+02 0.  0.
         12    1    1    2    0    0 -0.60288575632E+00 -0.41008919256E+00 -0.92822781680E+00  0.11803606487E+01  0.00000000000E+00 0. -1.
         11    1    3    3    0    0 -0.70549358506E+01 -0.41249599295E+00  0.72204465408E+01  0.10103322291E+02  0.51100000000E-03 0. -1.
        -11    1    3    3    0    0  0.85502297598E+01 -0.25201963741E+02  0.26817696847E+02  0.37781401109E+02  0.51100000000E-03 0.  1.
         12    1    3    3    0    0 -0.89240815288E+00  0.26024548927E+02 -0.33109915571E+02  0.42122915951E+02  0.00000000000E+00 0. -1.
</event>
<event>
 7    1  0.3276565E-015  0.9000773E+02  0.7816164E-02  0.1186339E+00
        -11   -1    0    0    0    0  0.00000000000E+00  0.00000000000E+00  0.45593999997E+02  0.45594000000E+02  0.51100000000E-03 0. -1.
         11   -1    0    0    0    0 -0.00000000000E+00 -0.00000000000E+00 -0.45593999997E+02  0.45594000000E+02  0.51100000000E-03 0.  1.
    9900012    2    1    2    0    0  0.10689793849E+01  0.42979247268E+00 -0.25611792662E+00  0.90007731011E+02  0.89999992260E+02 0.  0.
         12    1    1    2    0    0 -0.10689793849E+01 -0.42979247268E+00  0.25611792662E+00  0.11802689894E+01  0.00000000000E+00 0. -1.
         11    1    3    3    0    0  0.19082451344E+01  0.10851029261E+02  0.42790535318E+01  0.11819328868E+02  0.51100000000E-03 0. -1.
        -11    1    3    3    0    0  0.23279990849E+01  0.12238652616E+02 -0.36676749820E+02  0.38734844458E+02  0.51100000000E-03 0.  1.
         12    1    3    3    0    0 -0.31672648344E+01 -0.22659889404E+02  0.32141578362E+02  0.39453557684E+02  0.00000000000E+00 0. -1.
</event>
<event>
 7    1  0.3276565E-015  0.9000777E+02  0.7816164E-02  0.1186339E+00
        -11   -1    0    0    0    0  0.00000000000E+00  0.00000000000E+00  0.45593999997E+02  0.45594000000E+02  0.51100000000E-03 0. -1.
         11   -1    0    0    0    0 -0.00000000000E+00 -0.00000000000E+00 -0.45593999997E+02  0.45594000000E+02  0.51100000000E-03 0.  1.
    9900012    2    1    2    0    0  0.19164836197E+00  0.43285646148E+00 -0.10811296539E+01  0.90007773268E+02  0.90000035075E+02 0.  0.
         12    1    1    2    0    0 -0.19164836197E+00 -0.43285646148E+00  0.10811296539E+01  0.11802267322E+01  0.00000000000E+00 0. -1.
         11    1    3    3    0    0 -0.92170544601E+00 -0.77968728113E+01 -0.44122262243E+01  0.90060261536E+01  0.51100000000E-03 0. -1.
        -11    1    3    3    0    0 -0.32398373164E+01 -0.28112823150E+02  0.25597822489E+02  0.38158562444E+02  0.51100000000E-03 0.  1.
         12    1    3    3    0    0  0.43531911244E+01  0.36342552423E+02 -0.22266725919E+02  0.42843184671E+02  0.00000000000E+00 0. -1.
</event>
<event>
 7    1  0.3276565E-015  0.9000763E+02  0.7816164E-02  0.1186339E+00
        -11   -1    0    0    0    0  0.00000000000E+00  0.00000000000E+00  0.45593999997E+02  0.45594000000E+02  0.51100000000E-03 0.  1.
         11   -1    0    0    0    0 -0.00000000000E+00 -0.00000000000E+00 -0.45593999997E+02  0.45594000000E+02  0.51100000000E-03 0. -1.
    9900012    2    1    2    0    0  0.19988102422E+00 -0.96138525212E+00  0.65502385387E+00  0.90007631297E+02  0.89999891230E+02 0.  0.
         12    1    1    2    0    0 -0.19988102422E+00  0.96138525212E+00 -0.65502385387E+00  0.11803687034E+01  0.00000000000E+00 0. -1.
         11    1    3    3    0    0 -0.75236797981E+01 -0.43527987397E+01 -0.42627565075E+02  0.43504734444E+02  0.51100000000E-03 0. -1.
        -11    1    3    3    0    0  0.40355757322E+01 -0.58042357827E+01  0.19328245595E+02  0.20580478676E+02  0.51100000000E-03 0.  1.
        -12    1    3    3    0    0  0.36879850901E+01  0.91956492702E+01  0.23954343334E+02  0.25922418176E+02  0.00000000000E+00 0.  1.
</event>
<event>
 7    1  0.3276565E-015  0.9000791E+02  0.7816164E-02  0.1186339E+00
        -11   -1    0    0    0    0  0.00000000000E+00  0.00000000000E+00  0.45593999997E+02  0.45594000000E+02  0.51100000000E-03 0. -1.
         11   -1    0    0    0    0 -0.00000000000E+00 -0.00000000000E+00 -0.45593999997E+02  0.45594000000E+02  0.51100000000E-03 0.  1.
    9900012    2    1    2    0    0  0.60699007630E-01  0.11517466551E+01 -0.24979686911E+00  0.90007913900E+02  0.90000177564E+02 0.  0.
         12    1    1    2    0    0 -0.60699007630E-01 -0.11517466551E+01  0.24979686911E+00  0.11800860998E+01  0.00000000000E+00 0. -1.
         11    1    3    3    0    0 -0.38837890254E+01  0.96042057113E+01  0.38275680995E+02  0.39652898260E+02  0.51100000000E-03 0. -1.
        -11    1    3    3    0    0  0.43412188586E+01  0.92566675993E+01 -0.29948739105E+01  0.10653701057E+02  0.51100000000E-03 0.  1.
        -12    1    3    3    0    0 -0.39673082556E+00 -0.17709126655E+02 -0.35530603954E+02  0.39701314582E+02  0.00000000000E+00 0.  1.
</event>
<event>
 7    1  0.3276565E-015  0.9000768E+02  0.7816164E-02  0.1186339E+00
        -11   -1    0    0    0    0  0.00000000000E+00  0.00000000000E+00  0.45593999997E+02  0.45594000000E+02  0.51100000000E-03 0.  1.
         11   -1    0    0    0    0 -0.00000000000E+00 -0.00000000000E+00 -0.45593999997E+02  0.45594000000E+02  0.51100000000E-03 0. -1.
    9900012    2    1    2    0    0  0.61907404089E+00  0.94409332751E+00  0.34436202551E+00  0.90007682211E+02  0.89999942816E+02 0.  0.
         12    1    1    2    0    0 -0.61907404089E+00 -0.94409332751E+00 -0.34436202551E+00  0.11803177893E+01  0.00000000000E+00 0. -1.
         11    1    3    3    0    0  0.41386042268E+01  0.39179110949E+02 -0.29918653125E+01  0.39510530723E+02  0.51100000000E-03 0. -1.
        -11    1    3    3    0    0  0.64057682621E+01  0.22599575485E+01 -0.43981167472E+01  0.80922621270E+01  0.51100000000E-03 0.  1.
        -12    1    3    3    0    0 -0.99252984480E+01 -0.40494975170E+02  0.77343440852E+01  0.42404889361E+02  0.00000000000E+00 0.  1.
</event>
<event>
 7    1  0.4147493E-015  0.9000847E+02  0.7816164E-02  0.1186338E+00
        -11   -1    0    0    0    0  0.00000000000E+00  0.00000000000E+00  0.45593999997E+02  0.45594000000E+02  0.51100000000E-03 0.  1.
         11   -1    0    0    0    0 -0.00000000000E+00 -0.00000000000E+00 -0.45593999997E+02  0.45594000000E+02  0.51100000000E-03 0. -1.
    9900012    2    1    2    0    0 -0.51368645064E+00 -0.10551879321E+01  0.11827789172E+00  0.90008472552E+02  0.90000743586E+02 0.  0.
         12    1    1    2    0    0  0.51368645064E+00  0.10551879321E+01 -0.11827789172E+00  0.11795274483E+01  0.00000000000E+00 0. -1.
         11    1    3    3    0    0 -0.59552632762E+01  0.71338351693E+01 -0.46229457405E+00  0.93043259534E+01  0.51100000000E-03 0. -1.
        -11    1    3    3    0    0 -0.15314894612E+02  0.24399175190E+02  0.22255232164E+02  0.36402762338E+02  0.51100000000E-03 0.  1.
         12    1    3    3    0    0  0.20756471437E+02 -0.32588198291E+02 -0.21674659698E+02  0.44301384261E+02  0.00000000000E+00 0. -1.
</event>
<event>
 7    1  0.3276565E-015  0.9000777E+02  0.7816164E-02  0.1186339E+00
        -11   -1    0    0    0    0  0.00000000000E+00  0.00000000000E+00  0.45593999997E+02  0.45594000000E+02  0.51100000000E-03 0.  1.
         11   -1    0    0    0    0 -0.00000000000E+00 -0.00000000000E+00 -0.45593999997E+02  0.45594000000E+02  0.51100000000E-03 0. -1.
    9900012    2    1    2    0    0  0.84954362152E+00 -0.81878924342E+00 -0.28329334076E-01  0.90007770047E+02  0.90000031812E+02 0.  0.
         12    1    1    2    0    0 -0.84954362152E+00  0.81878924342E+00  0.28329334076E-01  0.11802299527E+01  0.00000000000E+00 0. -1.
         11    1    3    3    0    0 -0.18207405861E+02 -0.30383329947E+02  0.10416698489E+02  0.36921050561E+02  0.51100000000E-03 0. -1.
        -11    1    3    3    0    0  0.14518448341E+01 -0.80122584909E+01  0.40978086902E+01  0.91157103875E+01  0.51100000000E-03 0.  1.
        -12    1    3    3    0    0  0.17605104648E+02  0.37576799194E+02 -0.14542836514E+02  0.43971009099E+02  0.00000000000E+00 0.  1.
</event>
<event>
 7    1  0.3276565E-015  0.9000760E+02  0.7816164E-02  0.1186339E+00
        -11   -1    0    0    0    0  0.00000000000E+00  0.00000000000E+00  0.45593999997E+02  0.45594000000E+02  0.51100000000E-03 0.  1.
         11   -1    0    0    0    0 -0.00000000000E+00 -0.00000000000E+00 -0.45593999997E+02  0.45594000000E+02  0.51100000000E-03 0. -1.
    9900012    2    1    2    0    0 -0.83596454292E+00 -0.21567469978E+00  0.80497277201E+00  0.90007604534E+02  0.89999864113E+02 0.  0.
         12    1    1    2    0    0  0.83596454292E+00  0.21567469978E+00 -0.80497277201E+00  0.11803954663E+01  0.00000000000E+00 0. -1.
         11    1    3    3    0    0 -0.19806784800E+00 -0.16836481289E+02  0.11892930390E+02  0.20614269975E+02  0.51100000000E-03 0. -1.
        -11    1    3    3    0    0 -0.25245093729E+02  0.24920911752E+02  0.89581046313E+01  0.36587077484E+02  0.51100000000E-03 0.  1.
         12    1    3    3    0    0  0.24607197034E+02 -0.83001051630E+01 -0.20046062249E+02  0.32806257075E+02  0.00000000000E+00 0. -1.
</event>
<event>
 7    1  0.3276565E-015  0.9000773E+02  0.7816164E-02  0.1186339E+00
        -11   -1    0    0    0    0  0.00000000000E+00  0.00000000000E+00  0.45593999997E+02  0.45594000000E+02  0.51100000000E-03 0.  1.
         11   -1    0    0    0    0 -0.00000000000E+00 -0.00000000000E+00 -0.45593999997E+02  0.45594000000E+02  0.51100000000E-03 0. -1.
    9900012    2    1    2    0    0 -0.49782048789E+00 -0.36451075941E+00  0.10061495736E+01  0.90007732956E+02  0.89999994231E+02 0.  0.
         12    1    1    2    0    0  0.49782048789E+00  0.36451075941E+00 -0.10061495736E+01  0.11802670445E+01  0.00000000000E+00 0. -1.
         11    1    3    3    0    0  0.65113870159E+01 -0.10888451817E+02 -0.13397110012E+02  0.18450991865E+02  0.51100000000E-03 0. -1.
        -11    1    3    3    0    0 -0.29299732932E+02  0.10400058842E+02 -0.15112741481E+02  0.34569213603E+02  0.51100000000E-03 0.  1.
         12    1    3    3    0    0  0.22290525429E+02  0.12388221571E+00  0.29516001066E+02  0.36987527488E+02  0.00000000000E+00 0. -1.
</event>
<event>
 7    1  0.3276565E-015  0.9000753E+02  0.7816164E-02  0.1186339E+00
        -11   -1    0    0    0    0  0.00000000000E+00  0.00000000000E+00  0.45593999997E+02  0.45594000000E+02  0.51100000000E-03 0. -1.
         11   -1    0    0    0    0 -0.00000000000E+00 -0.00000000000E+00 -0.45593999997E+02  0.45594000000E+02  0.51100000000E-03 0.  1.
    9900012    2    1    2    0    0 -0.79723360662E+00 -0.73546904375E+00  0.46585921664E+00  0.90007525118E+02  0.89999783649E+02 0.  0.
         12    1    1    2    0    0  0.79723360662E+00  0.73546904375E+00 -0.46585921664E+00  0.11804748822E+01  0.00000000000E+00 0. -1.
         11    1    3    3    0    0 -0.34336357350E+01  0.15108170910E+01  0.63133580956E+01  0.73437669725E+01  0.51100000000E-03 0. -1.
        -11    1    3    3    0    0 -0.47564464143E+01 -0.35970870796E+02 -0.24150981861E+02  0.43586663711E+02  0.51100000000E-03 0.  1.
         12    1    3    3    0    0  0.73928485427E+01  0.33724584661E+02  0.18303482983E+02  0.39077094434E+02  0.00000000000E+00 0. -1.
</event>
<event>
 7    1  0.3276565E-015  0.9000778E+02  0.7816164E-02  0.1186339E+00
        -11   -1    0    0    0    0  0.00000000000E+00  0.00000000000E+00  0.45593999997E+02  0.45594000000E+02  0.51100000000E-03 0.  1.
         11   -1    0    0    0    0 -0.00000000000E+00 -0.00000000000E+00 -0.45593999997E+02  0.45594000000E+02  0.51100000000E-03 0. -1.
    9900012    2    1    2    0    0 -0.12334206039E+00  0.98024607355E+00  0.64561826214E+00  0.90007780288E+02  0.90000042188E+02 0.  0.
         12    1    1    2    0    0  0.12334206039E+00 -0.98024607355E+00 -0.64561826214E+00  0.11802197122E+01  0.00000000000E+00 0. -1.
         11    1    3    3    0    0 -0.59792521600E+01 -0.67733781857E+01 -0.35088643336E+01  0.96923803893E+01  0.51100000000E-03 0. -1.
        -11    1    3    3    0    0 -0.27124354907E+02 -0.20694562469E+02  0.11789114841E+02  0.36096797280E+02  0.51100000000E-03 0.  1.
         12    1    3    3    0    0  0.32980265006E+02  0.28448186728E+02 -0.76346322455E+01  0.44218602618E+02  0.00000000000E+00 0. -1.
</event>
<event>
 7    1  0.3276565E-015  0.9000797E+02  0.7816164E-02  0.1186339E+00
        -11   -1    0    0    0    0  0.00000000000E+00  0.00000000000E+00  0.45593999997E+02  0.45594000000E+02  0.51100000000E-03 0.  1.
         11   -1    0    0    0    0 -0.00000000000E+00 -0.00000000000E+00 -0.45593999997E+02  0.45594000000E+02  0.51100000000E-03 0. -1.
    9900012    2    1    2    0    0  0.10104773467E+01  0.26377940140E+00 -0.54939451530E+00  0.90007966791E+02  0.90000231152E+02 0.  0.
         12    1    1    2    0    0 -0.10104773467E+01 -0.26377940140E+00  0.54939451530E+00  0.11800332090E+01  0.00000000000E+00 0. -1.
         11    1    3    3    0    0 -0.32015215476E+01  0.72100405303E+01  0.32726099842E+01  0.85407494424E+01  0.51100000000E-03 0. -1.
        -11    1    3    3    0    0 -0.29745086368E+02 -0.24193052202E+02  0.12073192747E+02  0.40197461627E+02  0.51100000000E-03 0.  1.
         12    1    3    3    0    0  0.33957085262E+02  0.17246791073E+02 -0.15895197247E+02  0.41269755722E+02  0.00000000000E+00 0. -1.
</event>
<event>
 7    1  0.3276565E-015  0.9000808E+02  0.7816164E-02  0.1186338E+00
        -11   -1    0    0    0    0  0.00000000000E+00  0.00000000000E+00  0.45593999997E+02  0.45594000000E+02  0.51100000000E-03 0.  1.
         11   -1    0    0    0    0 -0.00000000000E+00 -0.00000000000E+00 -0.45593999997E+02  0.45594000000E+02  0.51100000000E-03 0. -1.
    9900012    2    1    2    0    0 -0.86892797157E+00 -0.66515777022E+00  0.44128701826E+00  0.90008082667E+02  0.90000348558E+02 0.  0.
         12    1    1    2    0    0  0.86892797157E+00  0.66515777022E+00 -0.44128701826E+00  0.11799173325E+01  0.00000000000E+00 0. -1.
         11    1    3    3    0    0 -0.24480539629E+01  0.16010256617E+01  0.94513387342E+01  0.98936371221E+01  0.51100000000E-03 0. -1.
        -11    1    3    3    0    0 -0.37426625980E+02 -0.12130697915E+02 -0.33744346778E+01  0.39487883886E+02  0.51100000000E-03 0.  1.
         12    1    3    3    0    0  0.39005751971E+02  0.98645144834E+01 -0.56356170382E+01  0.40626561659E+02  0.00000000000E+00 0. -1.
</event>
<event>
 7    1  0.3276565E-015  0.9000772E+02  0.7816164E-02  0.1186339E+00
        -11   -1    0    0    0    0  0.00000000000E+00  0.00000000000E+00  0.45593999997E+02  0.45594000000E+02  0.51100000000E-03 0.  1.
         11   -1    0    0    0    0 -0.00000000000E+00 -0.00000000000E+00 -0.45593999997E+02  0.45594000000E+02  0.51100000000E-03 0. -1.
    9900012    2    1    2    0    0 -0.37344530472E+00 -0.87480731744E+00  0.69879765450E+00  0.90007717237E+02  0.89999978305E+02 0.  0.
         12    1    1    2    0    0  0.37344530472E+00  0.87480731744E+00 -0.69879765450E+00  0.11802827628E+01  0.00000000000E+00 0. -1.
         11    1    3    3    0    0  0.28649803201E+02  0.85253674574E+01 -0.20930530342E+02  0.36490823702E+02  0.51100000000E-03 0. -1.
        -11    1    3    3    0    0  0.74557238603E+01 -0.23522189343E+00 -0.35430191531E+01  0.82580949741E+01  0.51100000000E-03 0.  1.
        -12    1    3    3    0    0 -0.36478972366E+02 -0.91649528814E+01  0.25172347149E+02  0.45258798562E+02  0.00000000000E+00 0.  1.
</event>
<event>
 7    1  0.3276565E-015  0.9000772E+02  0.7816164E-02  0.1186339E+00
        -11   -1    0    0    0    0  0.00000000000E+00  0.00000000000E+00  0.45593999997E+02  0.45594000000E+02  0.51100000000E-03 0.  1.
         11   -1    0    0    0    0 -0.00000000000E+00 -0.00000000000E+00 -0.45593999997E+02  0.45594000000E+02  0.51100000000E-03 0. -1.
    9900012    2    1    2    0    0  0.69199496145E+00  0.76743018570E+00  0.57030459089E+00  0.90007723150E+02  0.89999984295E+02 0.  0.
         12    1    1    2    0    0 -0.69199496145E+00 -0.76743018570E+00 -0.57030459089E+00  0.11802768501E+01  0.00000000000E+00 0. -1.
         11    1    3    3    0    0 -0.18210487973E+02 -0.31275503520E+02 -0.14575770890E+01  0.36220208778E+02  0.51100000000E-03 0. -1.
        -11    1    3    3    0    0 -0.16767069658E+00 -0.81881493184E+01 -0.35332570153E+01  0.89195183794E+01  0.51100000000E-03 0.  1.
        -12    1    3    3    0    0  0.19070153631E+02  0.40231083024E+02  0.55611386952E+01  0.44867995993E+02  0.00000000000E+00 0.  1.
</event>
<event>
 7    1  0.4461034E-015  0.9000783E+02  0.7816164E-02  0.1186339E+00
        -11   -1    0    0    0    0  0.00000000000E+00  0.00000000000E+00  0.45593999997E+02  0.45594000000E+02  0.51100000000E-03 0. -1.
         11   -1    0    0    0    0 -0.00000000000E+00 -0.00000000000E+00 -0.45593999997E+02  0.45594000000E+02  0.51100000000E-03 0.  1.
    9900012    2    1    2    0    0 -0.51915128793E+00  0.88738071697E+00 -0.57950642273E+00  0.90007834634E+02  0.90000097251E+02 0.  0.
         12    1    1    2    0    0  0.51915128793E+00 -0.88738071697E+00  0.57950642273E+00  0.11801653658E+01  0.00000000000E+00 0. -1.
         11    1    3    3    0    0 -0.19636986584E+01  0.88403943074E+01 -0.20352472119E+01  0.92817517424E+01  0.51100000000E-03 0. -1.
        -11    1    3    3    0    0  0.27711766704E+02  0.10510537520E+02 -0.25272145279E+02  0.38949900386E+02  0.51100000000E-03 0.  1.
         12    1    3    3    0    0 -0.26267219333E+02 -0.18463551110E+02  0.26727886068E+02  0.41776182506E+02  0.00000000000E+00 0. -1.
</event>
<event>
 7    1  0.3276565E-015  0.9000770E+02  0.7816164E-02  0.1186339E+00
        -11   -1    0    0    0    0  0.00000000000E+00  0.00000000000E+00  0.45593999997E+02  0.45594000000E+02  0.51100000000E-03 0.  1.
         11   -1    0    0    0    0 -0.00000000000E+00 -0.00000000000E+00 -0.45593999997E+02  0.45594000000E+02  0.51100000000E-03 0. -1.
    9900012    2    1    2    0    0 -0.57877137240E+00 -0.83570099927E+00  0.59978377484E+00  0.90007697904E+02  0.89999958716E+02 0.  0.
         12    1    1    2    0    0  0.57877137240E+00  0.83570099927E+00 -0.59978377484E+00  0.11803020962E+01  0.00000000000E+00 0. -1.
         11    1    3    3    0    0  0.30879321548E+00  0.89738806295E+01 -0.10398446859E+01  0.90392015153E+01  0.51100000000E-03 0. -1.
        -11    1    3    3    0    0 -0.15601942299E+02  0.31567031862E+02 -0.77637208135E+01  0.36057918203E+02  0.51100000000E-03 0.  1.
         12    1    3    3    0    0  0.14714377711E+02 -0.41376613490E+02  0.94033492743E+01  0.44910578185E+02  0.00000000000E+00 0. -1.
</event>
<event>
 7    1  0.3276565E-015  0.9000775E+02  0.7816164E-02  0.1186339E+00
        -11   -1    0    0    0    0  0.00000000000E+00  0.00000000000E+00  0.45593999997E+02  0.45594000000E+02  0.51100000000E-03 0.  1.
         11   -1    0    0    0    0 -0.00000000000E+00 -0.00000000000E+00 -0.45593999997E+02  0.45594000000E+02  0.51100000000E-03 0. -1.
    9900012    2    1    2    0    0  0.11002275500E+01 -0.36169519242E+00 -0.22728112289E+00  0.90007753931E+02  0.90000015483E+02 0.  0.
         12    1    1    2    0    0 -0.11002275500E+01  0.36169519242E+00  0.22728112289E+00  0.11802460688E+01  0.00000000000E+00 0. -1.
         11    1    3    3    0    0  0.78084849132E+01  0.31956477554E+00 -0.26987283811E+01  0.82678711542E+01  0.51100000000E-03 0. -1.
        -11    1    3    3    0    0 -0.12949157316E+02 -0.39817812505E+02  0.41333408037E+01  0.42074022559E+02  0.51100000000E-03 0.  1.
         12    1    3    3    0    0  0.62408999524E+01  0.39136552537E+02 -0.16618935455E+01  0.39665860218E+02  0.00000000000E+00 0. -1.
</event>
<event>
 7    1  0.3276565E-015  0.9000774E+02  0.7816164E-02  0.1186339E+00
        -11   -1    0    0    0    0  0.00000000000E+00  0.00000000000E+00  0.45593999997E+02  0.45594000000E+02  0.51100000000E-03 0. -1.
         11   -1    0    0    0    0 -0.00000000000E+00 -0.00000000000E+00 -0.45593999997E+02  0.45594000000E+02  0.51100000000E-03 0.  1.
    9900012    2    1    2    0    0  0.76492311949E+00 -0.11124461010E+00 -0.89192907383E+00  0.90007737226E+02  0.89999998558E+02 0.  0.
         12    1    1    2    0    0 -0.76492311949E+00  0.11124461010E+00  0.89192907383E+00  0.11802627736E+01  0.00000000000E+00 0. -1.
         11    1    3    3    0    0 -0.19020510875E+01  0.15665400206E+02 -0.19789895287E+02  0.25311312050E+02  0.51100000000E-03 0. -1.
        -11    1    3    3    0    0 -0.23084144837E+02 -0.10285209397E+02 -0.85331171320E+01  0.26673533014E+02  0.51100000000E-03 0.  1.
         12    1    3    3    0    0  0.25751119044E+02 -0.54914354191E+01  0.27431083345E+02  0.38022892163E+02  0.00000000000E+00 0. -1.
</event>
<event>
 7    1  0.3276565E-015  0.9000769E+02  0.7816164E-02  0.1186339E+00
        -11   -1    0    0    0    0  0.00000000000E+00  0.00000000000E+00  0.45593999997E+02  0.45594000000E+02  0.51100000000E-03 0. -1.
         11   -1    0    0    0    0 -0.00000000000E+00 -0.00000000000E+00 -0.45593999997E+02  0.45594000000E+02  0.51100000000E-03 0.  1.
    9900012    2    1    2    0    0  0.70782990860E+00  0.92996338348E+00  0.16513767026E+00  0.90007692615E+02  0.89999953357E+02 0.  0.
         12    1    1    2    0    0 -0.70782990860E+00 -0.92996338348E+00 -0.16513767026E+00  0.11803073855E+01  0.00000000000E+00 0. -1.
         11    1    3    3    0    0  0.22845070964E+01 -0.30678249365E+02 -0.27425841882E+02  0.41213477892E+02  0.51100000000E-03 0. -1.
        -11    1    3    3    0    0 -0.86234647144E+01  0.22175235585E+01  0.18492883765E+01  0.90940322285E+01  0.51100000000E-03 0.  1.
        -12    1    3    3    0    0  0.70467875266E+01  0.29390689190E+02  0.25741691176E+02  0.39700182494E+02  0.00000000000E+00 0.  1.
</event>
<event>
 7    1  0.3276565E-015  0.9000786E+02  0.7816164E-02  0.1186339E+00
        -11   -1    0    0    0    0  0.00000000000E+00  0.00000000000E+00  0.45593999997E+02  0.45594000000E+02  0.51100000000E-03 0.  1.
         11   -1    0    0    0    0 -0.00000000000E+00 -0.00000000000E+00 -0.45593999997E+02  0.45594000000E+02  0.51100000000E-03 0. -1.
    9900012    2    1    2    0    0 -0.15287925612E+00  0.11537475548E+01 -0.19550144630E+00  0.90007861744E+02  0.90000124719E+02 0.  0.
         12    1    1    2    0    0  0.15287925612E+00 -0.11537475548E+01  0.19550144630E+00  0.11801382557E+01  0.00000000000E+00 0. -1.
         11    1    3    3    0    0 -0.10407691345E+01  0.98469051683E-01 -0.18993303965E+02  0.19022052789E+02  0.51100000000E-03 0. -1.
        -11    1    3    3    0    0  0.25101211322E+02  0.13148156488E+02 -0.11302102780E+02  0.30507086986E+02  0.51100000000E-03 0.  1.
         12    1    3    3    0    0 -0.24213321444E+02 -0.12092877984E+02  0.30099905299E+02  0.40478721969E+02  0.00000000000E+00 0. -1.
</event>
<event>
 7    1  0.3276565E-015  0.9000778E+02  0.7816164E-02  0.1186339E+00
        -11   -1    0    0    0    0  0.00000000000E+00  0.00000000000E+00  0.45593999997E+02  0.45594000000E+02  0.51100000000E-03 0. -1.
         11   -1    0    0    0    0 -0.00000000000E+00 -0.00000000000E+00 -0.45593999997E+02  0.45594000000E+02  0.51100000000E-03 0.  1.
    9900012    2    1    2    0    0  0.42098637109E+00 -0.10982676008E+01 -0.97437209178E-01  0.90007781691E+02  0.90000043609E+02 0.  0.
         12    1    1    2    0    0 -0.42098637109E+00  0.10982676008E+01  0.97437209178E-01  0.11802183092E+01  0.00000000000E+00 0. -1.
         11    1    3    3    0    0  0.38359652744E+01  0.21493937357E+01 -0.85873892344E+01  0.96476824752E+01  0.51100000000E-03 0. -1.
        -11    1    3    3    0    0 -0.39930470135E+02  0.29397810080E+01 -0.62027213031E+01  0.40516151216E+02  0.51100000000E-03 0.  1.
         12    1    3    3    0    0  0.36515491231E+02 -0.61874423445E+01  0.14692673328E+02  0.39843947999E+02  0.00000000000E+00 0. -1.
</event>
<event>
 7    1  0.3276565E-015  0.9000777E+02  0.7816164E-02  0.1186339E+00
        -11   -1    0    0    0    0  0.00000000000E+00  0.00000000000E+00  0.45593999997E+02  0.45594000000E+02  0.51100000000E-03 0.  1.
         11   -1    0    0    0    0 -0.00000000000E+00 -0.00000000000E+00 -0.45593999997E+02  0.45594000000E+02  0.51100000000E-03 0. -1.
    9900012    2    1    2    0    0  0.27701424361E+00  0.74580256294E+00  0.87176804690E+00  0.90007772106E+02  0.90000033898E+02 0.  0.
         12    1    1    2    0    0 -0.27701424361E+00 -0.74580256294E+00 -0.87176804690E+00  0.11802278939E+01  0.00000000000E+00 0. -1.
         11    1    3    3    0    0  0.35113855733E+02  0.27163226288E+02  0.57994815334E+01  0.44771170558E+02  0.51100000000E-03 0. -1.
        -11    1    3    3    0    0 -0.50560553451E+01 -0.41569421332E+01 -0.46944224844E+01  0.80549032443E+01  0.51100000000E-03 0.  1.
        -12    1    3    3    0    0 -0.29780786144E+02 -0.22260481592E+02 -0.23329100204E+00  0.37181698304E+02  0.00000000000E+00 0.  1.
</event>
<event>
 7    1  0.3276565E-015  0.9000779E+02  0.7816164E-02  0.1186339E+00
        -11   -1    0    0    0    0  0.00000000000E+00  0.00000000000E+00  0.45593999997E+02  0.45594000000E+02  0.51100000000E-03 0.  1.
         11   -1    0    0    0    0 -0.00000000000E+00 -0.00000000000E+00 -0.45593999997E+02  0.45594000000E+02  0.51100000000E-03 0. -1.
    9900012    2    1    2    0    0 -0.49032536025E+00  0.76883872967E+00 -0.74924983815E+00  0.90007785074E+02  0.90000047037E+02 0.  0.
         12    1    1    2    0    0  0.49032536025E+00 -0.76883872967E+00  0.74924983815E+00  0.11802149258E+01  0.00000000000E+00 0. -1.
         11    1    3    3    0    0  0.94008429926E+01 -0.36651371343E+01 -0.37471926793E+02  0.38806628004E+02  0.51100000000E-03 0. -1.
        -11    1    3    3    0    0  0.63462733160E+01 -0.64922574829E+01 -0.55754996297E+00  0.90959031684E+01  0.51100000000E-03 0.  1.
        -12    1    3    3    0    0 -0.16237441669E+02  0.10926233347E+02  0.37280226918E+02  0.42105253902E+02  0.00000000000E+00 0.  1.
</event>
<event>
 7    1  0.3276565E-015  0.9000770E+02  0.7816164E-02  0.1186339E+00
        -11   -1    0    0    0    0  0.00000000000E+00  0.00000000000E+00  0.45593999997E+02  0.45594000000E+02  0.51100000000E-03 0.  1.
         11   -1    0    0    0    0 -0.00000000000E+00 -0.00000000000E+00 -0.45593999997E+02  0.45594000000E+02  0.51100000000E-03 0. -1.
    9900012    2    1    2    0    0 -0.52251146344E+00  0.93561619148E+00  0.49469313740E+00  0.90007696146E+02  0.89999956935E+02 0.  0.
         12    1    1    2    0    0  0.52251146344E+00 -0.93561619148E+00 -0.49469313740E+00  0.11803038538E+01  0.00000000000E+00 0. -1.
         11    1    3    3    0    0 -0.74563070142E+01  0.68414156741E+01  0.17388293513E+01  0.10267668211E+02  0.51100000000E-03 0. -1.
        -11    1    3    3    0    0 -0.20998128275E+01  0.28178139881E+02  0.23427444235E+02  0.36705066744E+02  0.51100000000E-03 0.  1.
         12    1    3    3    0    0  0.90336083783E+01 -0.34083939363E+02 -0.24671580449E+02  0.43034961191E+02  0.00000000000E+00 0. -1.
</event>
<event>
 7    1  0.3276565E-015  0.9000786E+02  0.7816164E-02  0.1186339E+00
        -11   -1    0    0    0    0  0.00000000000E+00  0.00000000000E+00  0.45593999997E+02  0.45594000000E+02  0.51100000000E-03 0.  1.
         11   -1    0    0    0    0 -0.00000000000E+00 -0.00000000000E+00 -0.45593999997E+02  0.45594000000E+02  0.51100000000E-03 0. -1.
    9900012    2    1    2    0    0 -0.37860058484E+00 -0.30080347688E+00  0.10765245400E+01  0.90007861779E+02  0.90000124755E+02 0.  0.
         12    1    1    2    0    0  0.37860058484E+00  0.30080347688E+00 -0.10765245400E+01  0.11801382207E+01  0.00000000000E+00 0. -1.
         11    1    3    3    0    0 -0.35280656939E+02  0.11655346833E+02  0.48080734542E+01  0.37465843570E+02  0.51100000000E-03 0. -1.
        -11    1    3    3    0    0 -0.51097122047E+01  0.11626942687E+00  0.76740461234E+01  0.92202853296E+01  0.51100000000E-03 0.  1.
        -12    1    3    3    0    0  0.40011768559E+02 -0.12072419737E+02 -0.11405595038E+02  0.43321732879E+02  0.00000000000E+00 0.  1.
</event>
<event>
 7    1  0.3276565E-015  0.9000858E+02  0.7816164E-02  0.1186337E+00
        -11   -1    0    0    0    0  0.00000000000E+00  0.00000000000E+00  0.45593999997E+02  0.45594000000E+02  0.51100000000E-03 0.  1.
         11   -1    0    0    0    0 -0.00000000000E+00 -0.00000000000E+00 -0.45593999997E+02  0.45594000000E+02  0.51100000000E-03 0. -1.
    9900012    2    1    2    0    0  0.11655248622E+01  0.14185635869E+00  0.11166832075E+00  0.90008575884E+02  0.90000848282E+02 0.  0.
         12    1    1    2    0    0 -0.11655248622E+01 -0.14185635869E+00 -0.11166832075E+00  0.11794241157E+01  0.00000000000E+00 0. -1.
         11    1    3    3    0    0  0.29663014708E+02  0.22419778315E+02 -0.91510662915E+01  0.38292073798E+02  0.51100000000E-03 0. -1.
        -11    1    3    3    0    0  0.80251388370E+01 -0.82724995276E+01  0.29122318499E-01  0.11525534702E+02  0.51100000000E-03 0.  1.
        -12    1    3    3    0    0 -0.36522628683E+02 -0.14005422429E+02  0.92336122937E+01  0.40190967384E+02  0.00000000000E+00 0.  1.
</event>
<event>
 7    1  0.3276565E-015  0.9000667E+02  0.7816164E-02  0.1186341E+00
        -11   -1    0    0    0    0  0.00000000000E+00  0.00000000000E+00  0.45593999997E+02  0.45594000000E+02  0.51100000000E-03 0.  1.
         11   -1    0    0    0    0 -0.00000000000E+00 -0.00000000000E+00 -0.45593999997E+02  0.45594000000E+02  0.51100000000E-03 0. -1.
    9900012    2    1    2    0    0  0.11693439844E+01  0.40378028692E-01  0.16290933494E+00  0.90006672276E+02  0.89998919544E+02 0.  0.
         12    1    1    2    0    0 -0.11693439844E+01 -0.40378028692E-01 -0.16290933494E+00  0.11813277235E+01  0.00000000000E+00 0. -1.
         11    1    3    3    0    0 -0.74931315638E+01 -0.67730786074E+01 -0.52345836978E+01  0.11376400187E+02  0.51100000000E-03 0. -1.
        -11    1    3    3    0    0  0.33898573317E+02 -0.21789057173E+02  0.24039024133E+01  0.40368986022E+02  0.51100000000E-03 0.  1.
         12    1    3    3    0    0 -0.25236097768E+02  0.28602513809E+02  0.29935906195E+01  0.38261286068E+02  0.00000000000E+00 0. -1.
</event>
<event>
 7    1  0.4602354E-015  0.9000785E+02  0.7816164E-02  0.1186339E+00
        -11   -1    0    0    0    0  0.00000000000E+00  0.00000000000E+00  0.45593999997E+02  0.45594000000E+02  0.51100000000E-03 0.  1.
         11   -1    0    0    0    0 -0.00000000000E+00 -0.00000000000E+00 -0.45593999997E+02  0.45594000000E+02  0.51100000000E-03 0. -1.
    9900012    2    1    2    0    0  0.73682207267E+00  0.48317788227E+00  0.78510283622E+00  0.90007849969E+02  0.90000112788E+02 0.  0.
         12    1    1    2    0    0 -0.73682207267E+00 -0.48317788227E+00 -0.78510283622E+00  0.11801500312E+01  0.00000000000E+00 0. -1.
         11    1    3    3    0    0  0.44779820869E+01  0.70245408065E+01  0.38528795760E+01  0.91782993197E+01  0.51100000000E-03 0. -1.
        -11    1    3    3    0    0  0.92064990772E+00 -0.18589552735E+02  0.35539471022E+02  0.40118238595E+02  0.51100000000E-03 0.  1.
         12    1    3    3    0    0 -0.46618099220E+01  0.12048189811E+02 -0.38607247762E+02  0.40711312055E+02  0.00000000000E+00 0. -1.
</event>
<event>
 7    1  0.3276565E-015  0.9000769E+02  0.7816164E-02  0.1186339E+00
        -11   -1    0    0    0    0  0.00000000000E+00  0.00000000000E+00  0.45593999997E+02  0.45594000000E+02  0.51100000000E-03 0.  1.
         11   -1    0    0    0    0 -0.00000000000E+00 -0.00000000000E+00 -0.45593999997E+02  0.45594000000E+02  0.51100000000E-03 0. -1.
    9900012    2    1    2    0    0 -0.58504462774E+00 -0.10247134363E+01  0.28457913834E-01  0.90007692965E+02  0.89999953713E+02 0.  0.
         12    1    1    2    0    0  0.58504462774E+00  0.10247134363E+01 -0.28457913834E-01  0.11803070345E+01  0.00000000000E+00 0. -1.
         11    1    3    3    0    0  0.34920936264E+01  0.10061069912E+02 -0.24980291156E+01  0.10938921125E+02  0.51100000000E-03 0. -1.
        -11    1    3    3    0    0  0.25093591822E+02 -0.33753562246E+02  0.32603908701E+00  0.42060642132E+02  0.51100000000E-03 0.  1.
         12    1    3    3    0    0 -0.29170730076E+02  0.22667778898E+02  0.22004479424E+01  0.37008129708E+02  0.00000000000E+00 0. -1.
</event>
<event>
 7    1  0.3276565E-015  0.9000750E+02  0.7816164E-02  0.1186340E+00
        -11   -1    0    0    0    0  0.00000000000E+00  0.00000000000E+00  0.45593999997E+02  0.45594000000E+02  0.51100000000E-03 0. -1.
         11   -1    0    0    0    0 -0.00000000000E+00 -0.00000000000E+00 -0.45593999997E+02  0.45594000000E+02  0.51100000000E-03 0.  1.
    9900012    2    1    2    0    0 -0.52791036509E+00  0.45324230526E+00 -0.95365198666E+00  0.90007504319E+02  0.89999762576E+02 0.  0.
         12    1    1    2    0    0  0.52791036509E+00 -0.45324230526E+00  0.95365198666E+00  0.11804956808E+01  0.00000000000E+00 0. -1.
         11    1    3    3    0    0 -0.57416246869E+01 -0.29140961322E+01 -0.18179533599E+01  0.66905280055E+01  0.51100000000E-03 0. -1.
        -11    1    3    3    0    0 -0.13307726134E+01 -0.19531495084E+02 -0.35095194094E+02  0.40186103378E+02  0.51100000000E-03 0.  1.
         12    1    3    3    0    0  0.65444869352E+01  0.22898833521E+02  0.35959495468E+02  0.43130872935E+02  0.00000000000E+00 0. -1.
</event>
<event>
 7    1  0.3276565E-015  0.9000768E+02  0.7816164E-02  0.1186339E+00
        -11   -1    0    0    0    0  0.00000000000E+00  0.00000000000E+00  0.45593999997E+02  0.45594000000E+02  0.51100000000E-03 0. -1.
         11   -1    0    0    0    0 -0.00000000000E+00 -0.00000000000E+00 -0.45593999997E+02  0.45594000000E+02  0.51100000000E-03 0.  1.
    9900012    2    1    2    0    0  0.47026031205E+00 -0.59517285751E+00 -0.90431746084E+00  0.90007675654E+02  0.89999936173E+02 0.  0.
         12    1    1    2    0    0 -0.47026031205E+00  0.59517285751E+00  0.90431746084E+00  0.11803243458E+01  0.00000000000E+00 0. -1.
         11    1    3    3    0    0 -0.24560302001E+02  0.24907442449E+02 -0.99205375666E+01  0.36359403042E+02  0.51100000000E-03 0. -1.
        -11    1    3    3    0    0 -0.78373098176E+01  0.38897090377E+01  0.69712097263E+00  0.87771999799E+01  0.51100000000E-03 0.  1.
        -12    1    3    3    0    0  0.32867872130E+02 -0.29392324345E+02  0.83190991332E+01  0.44871072632E+02  0.00000000000E+00 0.  1.
</event>
<event>
 7    1  0.3276565E-015  0.9000778E+02  0.7816164E-02  0.1186339E+00
        -11   -1    0    0    0    0  0.00000000000E+00  0.00000000000E+00  0.45593999997E+02  0.45594000000E+02  0.51100000000E-03 0.  1.
         11   -1    0    0    0    0 -0.00000000000E+00 -0.00000000000E+00 -0.45593999997E+02  0.45594000000E+02  0.51100000000E-03 0. -1.
    9900012    2    1    2    0    0  0.61207382184E+00 -0.29961063387E+00  0.96359375607E+00  0.90007782299E+02  0.90000044225E+02 0.  0.
         12    1    1    2    0    0 -0.61207382184E+00  0.29961063387E+00 -0.96359375607E+00  0.11802177011E+01  0.00000000000E+00 0. -1.
         11    1    3    3    0    0 -0.85620143016E+01 -0.48888972184E+01  0.38494150466E+01  0.10584299758E+02  0.51100000000E-03 0. -1.
        -11    1    3    3    0    0 -0.28469648085E+02 -0.12658402445E+02 -0.17228277084E+02  0.35602942941E+02  0.51100000000E-03 0.  1.
         12    1    3    3    0    0  0.37643736208E+02  0.17247689029E+02  0.14342455793E+02  0.43820539599E+02  0.00000000000E+00 0. -1.
</event>
<event>
 7    1  0.3276565E-015  0.9000773E+02  0.7816164E-02  0.1186339E+00
        -11   -1    0    0    0    0  0.00000000000E+00  0.00000000000E+00  0.45593999997E+02  0.45594000000E+02  0.51100000000E-03 0.  1.
         11   -1    0    0    0    0 -0.00000000000E+00 -0.00000000000E+00 -0.45593999997E+02  0.45594000000E+02  0.51100000000E-03 0. -1.
    9900012    2    1    2    0    0 -0.17996843871E+00 -0.10527094288E+01  0.50244027318E+00  0.90007732230E+02  0.89999993496E+02 0.  0.
         12    1    1    2    0    0  0.17996843871E+00  0.10527094288E+01 -0.50244027318E+00  0.11802677699E+01  0.00000000000E+00 0. -1.
         11    1    3    3    0    0 -0.28101258301E+01 -0.20862470982E+02  0.53465166093E+00  0.21057667376E+02  0.51100000000E-03 0. -1.
        -11    1    3    3    0    0  0.95412231568E+01 -0.22989515416E+02 -0.47515462133E+01  0.25340283149E+02  0.51100000000E-03 0.  1.
        -12    1    3    3    0    0 -0.69110657654E+01  0.42799276970E+02  0.47193348255E+01  0.43609781705E+02  0.00000000000E+00 0.  1.
</event>
<event>
 7    1  0.3276565E-015  0.9000772E+02  0.7816164E-02  0.1186339E+00
        -11   -1    0    0    0    0  0.00000000000E+00  0.00000000000E+00  0.45593999997E+02  0.45594000000E+02  0.51100000000E-03 0. -1.
         11   -1    0    0    0    0 -0.00000000000E+00 -0.00000000000E+00 -0.45593999997E+02  0.45594000000E+02  0.51100000000E-03 0.  1.
    9900012    2    1    2    0    0  0.57139621762E-01  0.52373799230E+00 -0.10561735653E+01  0.90007716551E+02  0.89999977609E+02 0.  0.
         12    1    1    2    0    0 -0.57139621762E-01 -0.52373799230E+00  0.10561735653E+01  0.11802834494E+01  0.00000000000E+00 0. -1.
         11    1    3    3    0    0  0.64902393859E+01  0.57189457843E+01 -0.67225033863E+01  0.10955437016E+02  0.51100000000E-03 0. -1.
        -11    1    3    3    0    0  0.14154622647E+02 -0.13527383754E+02 -0.30716622447E+02  0.36426011974E+02  0.51100000000E-03 0.  1.
         12    1    3    3    0    0 -0.20587722411E+02  0.83321759622E+01  0.36382952268E+02  0.42626267560E+02  0.00000000000E+00 0. -1.
</event>
<event>
 7    1  0.3276565E-015  0.9000776E+02  0.7816164E-02  0.1186339E+00
        -11   -1    0    0    0    0  0.00000000000E+00  0.00000000000E+00  0.45593999997E+02  0.45594000000E+02  0.51100000000E-03 0.  1.
         11   -1    0    0    0    0 -0.00000000000E+00 -0.00000000000E+00 -0.45593999997E+02  0.45594000000E+02  0.51100000000E-03 0. -1.
    9900012    2    1    2    0    0  0.11370681615E+01 -0.26459139826E+00  0.17332834985E+00  0.90007756242E+02  0.90000017824E+02 0.  0.
         12    1    1    2    0    0 -0.11370681615E+01  0.26459139826E+00 -0.17332834985E+00  0.11802437582E+01  0.00000000000E+00 0. -1.
         11    1    3    3    0    0  0.24777901487E+02  0.91905699816E+01 -0.32417242335E+02  0.41824497362E+02  0.51100000000E-03 0. -1.
        -11    1    3    3    0    0 -0.95012160602E+01  0.31719455106E+01 -0.51963007837E+00  0.10030172512E+02  0.51100000000E-03 0.  1.
        -12    1    3    3    0    0 -0.14139617265E+02 -0.12627106890E+02  0.33110200763E+02  0.38153086368E+02  0.00000000000E+00 0.  1.
</event>
<event>
 7    1  0.3276565E-015  0.9000771E+02  0.7816164E-02  0.1186339E+00
        -11   -1    0    0    0    0  0.00000000000E+00  0.00000000000E+00  0.45593999997E+02  0.45594000000E+02  0.51100000000E-03 0.  1.
         11   -1    0    0    0    0 -0.00000000000E+00 -0.00000000000E+00 -0.45593999997E+02  0.45594000000E+02  0.51100000000E-03 0. -1.
    9900012    2    1    2    0    0  0.64516571942E+00  0.98439891410E+00 -0.88347524887E-01  0.90007709649E+02  0.89999970616E+02 0.  0.
         12    1    1    2    0    0 -0.64516571942E+00 -0.98439891410E+00  0.88347524887E-01  0.11802903510E+01  0.00000000000E+00 0. -1.
         11    1    3    3    0    0 -0.34375374778E+01  0.29633478062E+02  0.28594465566E+01  0.29968919247E+02  0.51100000000E-03 0. -1.
        -11    1    3    3    0    0 -0.18982083096E+02 -0.45921212312E+01  0.12622320317E+02  0.23253602441E+02  0.51100000000E-03 0.  1.
        -12    1    3    3    0    0  0.23064786293E+02 -0.24056957916E+02 -0.15570114399E+02  0.36785187961E+02  0.00000000000E+00 0.  1.
</event>
<event>
 7    1  0.3276565E-015  0.9000771E+02  0.7816164E-02  0.1186339E+00
        -11   -1    0    0    0    0  0.00000000000E+00  0.00000000000E+00  0.45593999997E+02  0.45594000000E+02  0.51100000000E-03 0.  1.
         11   -1    0    0    0    0 -0.00000000000E+00 -0.00000000000E+00 -0.45593999997E+02  0.45594000000E+02  0.51100000000E-03 0. -1.
    9900012    2    1    2    0    0  0.18544656560E+00  0.75692030892E+00  0.88644003078E+00  0.90007705668E+02  0.89999966582E+02 0.  0.
         12    1    1    2    0    0 -0.18544656560E+00 -0.75692030892E+00 -0.88644003078E+00  0.11802943323E+01  0.00000000000E+00 0. -1.
         11    1    3    3    0    0  0.22809304162E+02 -0.23996246716E+02  0.30503155101E+01  0.33247385428E+02  0.51100000000E-03 0. -1.
        -11    1    3    3    0    0 -0.95553170444E+01 -0.72737342764E+01  0.14113611443E+02  0.18531198622E+02  0.51100000000E-03 0.  1.
        -12    1    3    3    0    0 -0.13068540552E+02  0.32026901301E+02 -0.16277486923E+02  0.38229121617E+02  0.00000000000E+00 0.  1.
</event>
<event>
 7    1  0.3276565E-015  0.9000773E+02  0.7816164E-02  0.1186339E+00
        -11   -1    0    0    0    0  0.00000000000E+00  0.00000000000E+00  0.45593999997E+02  0.45594000000E+02  0.51100000000E-03 0.  1.
         11   -1    0    0    0    0 -0.00000000000E+00 -0.00000000000E+00 -0.45593999997E+02  0.45594000000E+02  0.51100000000E-03 0. -1.
    9900012    2    1    2    0    0  0.46293717755E+00 -0.17423547048E+00  0.10716176714E+01  0.90007731699E+02  0.89999992957E+02 0.  0.
         12    1    1    2    0    0 -0.46293717755E+00  0.17423547048E+00 -0.10716176714E+01  0.11802683014E+01  0.00000000000E+00 0. -1.
         11    1    3    3    0    0  0.66697767291E+01  0.71924766174E+01  0.41682455852E+01  0.10657950695E+02  0.51100000000E-03 0. -1.
        -11    1    3    3    0    0  0.18560925115E+02  0.25302527519E+02  0.14705163921E+02  0.34654980684E+02  0.51100000000E-03 0.  1.
         12    1    3    3    0    0 -0.24767764666E+02 -0.32669239607E+02 -0.17801791835E+02  0.44694800320E+02  0.00000000000E+00 0. -1.
</event>
<event>
 7    1  0.5928831E-015  0.9000787E+02  0.7816164E-02  0.1186339E+00
        -11   -1    0    0    0    0  0.00000000000E+00  0.00000000000E+00  0.45593999997E+02  0.45594000000E+02  0.51100000000E-03 0.  1.
         11   -1    0    0    0    0 -0.00000000000E+00 -0.00000000000E+00 -0.45593999997E+02  0.45594000000E+02  0.51100000000E-03 0. -1.
    9900012    2    1    2    0    0  0.13304904637E+00  0.10650453542E+01  0.49059325156E+00  0.90007870603E+02  0.90000133695E+02 0.  0.
         12    1    1    2    0    0 -0.13304904637E+00 -0.10650453542E+01 -0.49059325156E+00  0.11801293970E+01  0.00000000000E+00 0. -1.
         11    1    3    3    0    0 -0.30034627098E+01  0.65839071537E+01 -0.61490123904E+01  0.94962611219E+01  0.51100000000E-03 0. -1.
        -11    1    3    3    0    0  0.15138593815E+02  0.28936478708E+02  0.23584324010E+02  0.40282963670E+02  0.51100000000E-03 0.  1.
         12    1    3    3    0    0 -0.12002082059E+02 -0.34455340508E+02 -0.16944718368E+02  0.40228645812E+02  0.00000000000E+00 0. -1.
</event>
<event>
 7    1  0.3276565E-015  0.9000775E+02  0.7816164E-02  0.1186339E+00
        -11   -1    0    0    0    0  0.00000000000E+00  0.00000000000E+00  0.45593999997E+02  0.45594000000E+02  0.51100000000E-03 0. -1.
         11   -1    0    0    0    0 -0.00000000000E+00 -0.00000000000E+00 -0.45593999997E+02  0.45594000000E+02  0.51100000000E-03 0.  1.
    9900012    2    1    2    0    0 -0.69803203424E+00 -0.95170400786E+00  0.21047406092E-02  0.90007748472E+02  0.90000009952E+02 0.  0.
         12    1    1    2    0    0  0.69803203424E+00  0.95170400786E+00 -0.21047406092E-02  0.11802515280E+01  0.00000000000E+00 0. -1.
         11    1    3    3    0    0  0.60431229486E+01  0.25332889197E+01  0.16447198256E+02  0.17704440643E+02  0.51100000000E-03 0. -1.
        -11    1    3    3    0    0  0.19358811309E+02  0.24601782954E+02 -0.21333070204E+01  0.31377735720E+02  0.51100000000E-03 0.  1.
         12    1    3    3    0    0 -0.26099966292E+02 -0.28086775881E+02 -0.14311786495E+02  0.40925572110E+02  0.00000000000E+00 0. -1.
</event>
<event>
 7    1  0.3276565E-015  0.9000776E+02  0.7816164E-02  0.1186339E+00
        -11   -1    0    0    0    0  0.00000000000E+00  0.00000000000E+00  0.45593999997E+02  0.45594000000E+02  0.51100000000E-03 0. -1.
         11   -1    0    0    0    0 -0.00000000000E+00 -0.00000000000E+00 -0.45593999997E+02  0.45594000000E+02  0.51100000000E-03 0.  1.
    9900012    2    1    2    0    0 -0.44015815052E+00 -0.17281352713E+00 -0.10813703815E+01  0.90007760357E+02  0.90000021994E+02 0.  0.
         12    1    1    2    0    0  0.44015815052E+00  0.17281352713E+00  0.10813703815E+01  0.11802396429E+01  0.00000000000E+00 0. -1.
         11    1    3    3    0    0  0.33165275232E+02  0.15180773443E+02 -0.12662734109E+02  0.38610053081E+02  0.51100000000E-03 0. -1.
        -11    1    3    3    0    0  0.58711365629E+01 -0.26759801466E+01  0.72569260103E+01  0.97105143872E+01  0.51100000000E-03 0.  1.
        -12    1    3    3    0    0 -0.39476569945E+02 -0.12677606824E+02  0.43244377170E+01  0.41687192889E+02  0.00000000000E+00 0.  1.
</event>
<event>
 7    1  0.4372734E-015  0.9000787E+02  0.7816164E-02  0.1186339E+00
        -11   -1    0    0    0    0  0.00000000000E+00  0.00000000000E+00  0.45593999997E+02  0.45594000000E+02  0.51100000000E-03 0. -1.
         11   -1    0    0    0    0 -0.00000000000E+00 -0.00000000000E+00 -0.45593999997E+02  0.45594000000E+02  0.51100000000E-03 0.  1.
    9900012    2    1    2    0    0 -0.52357568080E+00 -0.65181795219E+00 -0.83289022324E+00  0.90007871083E+02  0.90000134181E+02 0.  0.
         12    1    1    2    0    0  0.52357568080E+00  0.65181795219E+00  0.83289022324E+00  0.11801289168E+01  0.00000000000E+00 0. -1.
         11    1    3    3    0    0 -0.13025554580E+01 -0.16535389210E+01  0.89863308697E+01  0.92295711951E+01  0.51100000000E-03 0. -1.
        -11    1    3    3    0    0 -0.47758632002E+01  0.37394604051E+02 -0.19873075123E+02  0.42615776381E+02  0.51100000000E-03 0.  1.
         12    1    3    3    0    0  0.55548429774E+01 -0.36392883083E+02  0.10053854030E+02  0.38162523507E+02  0.00000000000E+00 0. -1.
</event>
<event>
 7    1  0.3276565E-015  0.9000768E+02  0.7816164E-02  0.1186339E+00
        -11   -1    0    0    0    0  0.00000000000E+00  0.00000000000E+00  0.45593999997E+02  0.45594000000E+02  0.51100000000E-03 0. -1.
         11   -1    0    0    0    0 -0.00000000000E+00 -0.00000000000E+00 -0.45593999997E+02  0.45594000000E+02  0.51100000000E-03 0.  1.
    9900012    2    1    2    0    0  0.23282127381E+00 -0.11542122049E+01 -0.82070150683E-01  0.90007683488E+02  0.89999944110E+02 0.  0.
         12    1    1    2    0    0 -0.23282127381E+00  0.11542122049E+01  0.82070150683E-01  0.11803165122E+01  0.00000000000E+00 0. -1.
         11    1    3    3    0    0  0.18362119238E+02 -0.23706920459E+02  0.26109750961E+02  0.39760590993E+02  0.51100000000E-03 0. -1.
        -11    1    3    3    0    0 -0.44418925973E+01 -0.17026510651E+01  0.60147621695E+01  0.76685588420E+01  0.51100000000E-03 0.  1.
        -12    1    3    3    0    0 -0.13687405367E+02  0.24255359319E+02 -0.32206583281E+02  0.42578533653E+02  0.00000000000E+00 0.  1.
</event>
<event>
 7    1  0.3276565E-015  0.9000774E+02  0.7816164E-02  0.1186339E+00
        -11   -1    0    0    0    0  0.00000000000E+00  0.00000000000E+00  0.45593999997E+02  0.45594000000E+02  0.51100000000E-03 0. -1.
         11   -1    0    0    0    0 -0.00000000000E+00 -0.00000000000E+00 -0.45593999997E+02  0.45594000000E+02  0.51100000000E-03 0.  1.
    9900012    2    1    2    0    0  0.37126974271E+00  0.95830896304E+00 -0.58035279458E+00  0.90007742970E+02  0.90000004377E+02 0.  0.
         12    1    1    2    0    0 -0.37126974271E+00 -0.95830896304E+00  0.58035279458E+00  0.11802570299E+01  0.00000000000E+00 0. -1.
         11    1    3    3    0    0  0.24917664992E+01  0.41187524530E+01  0.15402383360E+02  0.16137113605E+02  0.51100000000E-03 0. -1.
        -11    1    3    3    0    0  0.29222886593E+02 -0.72657831895E+01 -0.26949789299E+02  0.40411135219E+02  0.51100000000E-03 0.  1.
         12    1    3    3    0    0 -0.31343383350E+02  0.41053396995E+01  0.10967053144E+02  0.33459494146E+02  0.00000000000E+00 0. -1.
</event>
<event>
 7    1  0.3276565E-015  0.9000776E+02  0.7816164E-02  0.1186339E+00
        -11   -1    0    0    0    0  0.00000000000E+00  0.00000000000E+00  0.45593999997E+02  0.45594000000E+02  0.51100000000E-03 0. -1.
         11   -1    0    0    0    0 -0.00000000000E+00 -0.00000000000E+00 -0.45593999997E+02  0.45594000000E+02  0.51100000000E-03 0.  1.
    9900012    2    1    2    0    0  0.92778025648E+00 -0.68309512919E+00  0.25605815674E+00  0.90007762338E+02  0.90000024001E+02 0.  0.
         12    1    1    2    0    0 -0.92778025648E+00  0.68309512919E+00 -0.25605815674E+00  0.11802376623E+01  0.00000000000E+00 0. -1.
         11    1    3    3    0    0 -0.55598424471E+00 -0.93058462047E+01  0.15521180310E+01  0.94507651918E+01  0.51100000000E-03 0. -1.
        -11    1    3    3    0    0 -0.12043547727E+02 -0.12170113093E+02 -0.34850269468E+02  0.38829112490E+02  0.51100000000E-03 0.  1.
         12    1    3    3    0    0  0.13527312228E+02  0.20792864168E+02  0.33554209593E+02  0.41727884656E+02  0.00000000000E+00 0. -1.
</event>
<event>
 7    1  0.3276565E-015  0.9000774E+02  0.7816164E-02  0.1186339E+00
        -11   -1    0    0    0    0  0.00000000000E+00  0.00000000000E+00  0.45593999997E+02  0.45594000000E+02  0.51100000000E-03 0.  1.
         11   -1    0    0    0    0 -0.00000000000E+00 -0.00000000000E+00 -0.45593999997E+02  0.45594000000E+02  0.51100000000E-03 0. -1.
    9900012    2    1    2    0    0 -0.11910930549E+00  0.10823831436E+01  0.45527844300E+00  0.90007737844E+02  0.89999999184E+02 0.  0.
         12    1    1    2    0    0  0.11910930549E+00 -0.10823831436E+01 -0.45527844300E+00  0.11802621560E+01  0.00000000000E+00 0. -1.
         11    1    3    3    0    0  0.29463977378E+01 -0.84899343989E+01 -0.54692867994E+01  0.10520139927E+02  0.51100000000E-03 0. -1.
        -11    1    3    3    0    0  0.22521274956E+02 -0.21807121412E+02  0.19339225697E+02  0.36834277796E+02  0.51100000000E-03 0.  1.
         12    1    3    3    0    0 -0.25586782000E+02  0.31379438955E+02 -0.13414660455E+02  0.42653320121E+02  0.00000000000E+00 0. -1.
</event>
<event>
 7    1  0.5536476E-015  0.9000770E+02  0.7816164E-02  0.1186339E+00
        -11   -1    0    0    0    0  0.00000000000E+00  0.00000000000E+00  0.45593999997E+02  0.45594000000E+02  0.51100000000E-03 0. -1.
         11   -1    0    0    0    0 -0.00000000000E+00 -0.00000000000E+00 -0.45593999997E+02  0.45594000000E+02  0.51100000000E-03 0.  1.
    9900012    2    1    2    0    0 -0.47176386520E-01 -0.10932776722E+01 -0.44230446089E+00  0.90007697108E+02  0.89999957910E+02 0.  0.
         12    1    1    2    0    0  0.47176386520E-01  0.10932776722E+01  0.44230446089E+00  0.11803028917E+01  0.00000000000E+00 0. -1.
         11    1    3    3    0    0 -0.46073484207E+01 -0.16928697390E+01  0.78667554811E+01  0.92725028705E+01  0.51100000000E-03 0. -1.
        -11    1    3    3    0    0 -0.34800003960E+02 -0.13960652878E+02 -0.97526137478E+01  0.38743432728E+02  0.51100000000E-03 0.  1.
         12    1    3    3    0    0  0.39360175994E+02  0.14560244945E+02  0.14435538058E+01  0.41991761510E+02  0.00000000000E+00 0. -1.
</event>
<event>
 7    1  0.3276565E-015  0.9000772E+02  0.7816164E-02  0.1186339E+00
        -11   -1    0    0    0    0  0.00000000000E+00  0.00000000000E+00  0.45593999997E+02  0.45594000000E+02  0.51100000000E-03 0.  1.
         11   -1    0    0    0    0 -0.00000000000E+00 -0.00000000000E+00 -0.45593999997E+02  0.45594000000E+02  0.51100000000E-03 0. -1.
    9900012    2    1    2    0    0 -0.37956241619E-01  0.10820313433E+01  0.46991287776E+00  0.90007724347E+02  0.89999985508E+02 0.  0.
         12    1    1    2    0    0  0.37956241619E-01 -0.10820313433E+01 -0.46991287776E+00  0.11802756529E+01  0.00000000000E+00 0. -1.
         11    1    3    3    0    0  0.45794960958E+01 -0.61555270195E+01  0.20670601686E+01  0.79457558093E+01  0.51100000000E-03 0. -1.
        -11    1    3    3    0    0  0.13025066886E+02 -0.34384850813E+02 -0.24039822526E+01  0.36847652079E+02  0.51100000000E-03 0.  1.
         12    1    3    3    0    0 -0.17642519223E+02  0.41622409176E+02  0.80683496175E+00  0.45214316459E+02  0.00000000000E+00 0. -1.
</event>
<event>
 7    1  0.3276565E-015  0.9000773E+02  0.7816164E-02  0.1186339E+00
        -11   -1    0    0    0    0  0.00000000000E+00  0.00000000000E+00  0.45593999997E+02  0.45594000000E+02  0.51100000000E-03 0.  1.
         11   -1    0    0    0    0 -0.00000000000E+00 -0.00000000000E+00 -0.45593999997E+02  0.45594000000E+02  0.51100000000E-03 0. -1.
    9900012    2    1    2    0    0 -0.80567378013E+00 -0.50344079758E+00  0.70033341264E+00  0.90007733180E+02  0.89999994458E+02 0.  0.
         12    1    1    2    0    0  0.80567378013E+00  0.50344079758E+00 -0.70033341264E+00  0.11802668196E+01  0.00000000000E+00 0. -1.
         11    1    3    3    0    0  0.81603556351E+00 -0.35034823236E+02 -0.15427010665E+02  0.38289651495E+02  0.51100000000E-03 0. -1.
        -11    1    3    3    0    0  0.73555676612E+00 -0.62055200004E+01  0.79326094588E+01  0.10098307547E+02  0.51100000000E-03 0.  1.
        -12    1    3    3    0    0 -0.23572661098E+01  0.40736902439E+02  0.81947346191E+01  0.41619774139E+02  0.00000000000E+00 0.  1.
</event>
<event>
 7    1  0.3276565E-015  0.9000773E+02  0.7816164E-02  0.1186339E+00
        -11   -1    0    0    0    0  0.00000000000E+00  0.00000000000E+00  0.45593999997E+02  0.45594000000E+02  0.51100000000E-03 0.  1.
         11   -1    0    0    0    0 -0.00000000000E+00 -0.00000000000E+00 -0.45593999997E+02  0.45594000000E+02  0.51100000000E-03 0. -1.
    9900012    2    1    2    0    0 -0.84847478890E-01 -0.93839364043E+00  0.71080509125E+00  0.90007734946E+02  0.89999996248E+02 0.  0.
         12    1    1    2    0    0  0.84847478890E-01  0.93839364043E+00 -0.71080509125E+00  0.11802650536E+01  0.00000000000E+00 0. -1.
         11    1    3    3    0    0  0.32332674814E+02 -0.60282934602E+01  0.29828151672E+02  0.44401135290E+02  0.51100000000E-03 0. -1.
        -11    1    3    3    0    0 -0.51287242190E+01  0.57498925576E+01 -0.50272136261E+01  0.91998887843E+01  0.51100000000E-03 0.  1.
        -12    1    3    3    0    0 -0.27288798074E+02 -0.65999273783E+00 -0.24090132954E+02  0.36406710872E+02  0.00000000000E+00 0.  1.
</event>
<event>
 7    1  0.3276565E-015  0.9000772E+02  0.7816164E-02  0.1186339E+00
        -11   -1    0    0    0    0  0.00000000000E+00  0.00000000000E+00  0.45593999997E+02  0.45594000000E+02  0.51100000000E-03 0. -1.
         11   -1    0    0    0    0 -0.00000000000E+00 -0.00000000000E+00 -0.45593999997E+02  0.45594000000E+02  0.51100000000E-03 0.  1.
    9900012    2    1    2    0    0 -0.75228236902E+00  0.26119104641E+00 -0.87115384336E+00  0.90007720989E+02  0.89999982106E+02 0.  0.
         12    1    1    2    0    0  0.75228236902E+00 -0.26119104641E+00  0.87115384336E+00  0.11802790112E+01  0.00000000000E+00 0. -1.
         11    1    3    3    0    0  0.37100488852E+01  0.31455064806E+02  0.11439269255E+02  0.33675546707E+02  0.51100000000E-03 0. -1.
        -11    1    3    3    0    0  0.11431224336E+02  0.69531311877E+01 -0.66114683367E+00  0.13396120279E+02  0.51100000000E-03 0.  1.
        -12    1    3    3    0    0 -0.15893555591E+02 -0.38147004947E+02 -0.11649276265E+02  0.42936054002E+02  0.00000000000E+00 0.  1.
</event>
<event>
 7    1  0.3276565E-015  0.9000774E+02  0.7816164E-02  0.1186339E+00
        -11   -1    0    0    0    0  0.00000000000E+00  0.00000000000E+00  0.45593999997E+02  0.45594000000E+02  0.51100000000E-03 0. -1.
         11   -1    0    0    0    0 -0.00000000000E+00 -0.00000000000E+00 -0.45593999997E+02  0.45594000000E+02  0.51100000000E-03 0.  1.
    9900012    2    1    2    0    0  0.46398710630E+00 -0.94484951378E+00 -0.53385246511E+00  0.90007736007E+02  0.89999997322E+02 0.  0.
         12    1    1    2    0    0 -0.46398710630E+00  0.94484951378E+00  0.53385246511E+00  0.11802639929E+01  0.00000000000E+00 0. -1.
         11    1    3    3    0    0  0.31045496056E+02 -0.14505598115E+02  0.18148343137E+02  0.38776249959E+02  0.51100000000E-03 0. -1.
        -11    1    3    3    0    0 -0.39146820939E+01 -0.46440987278E+01  0.75076132521E+01  0.96569480631E+01  0.51100000000E-03 0.  1.
        -12    1    3    3    0    0 -0.26666826856E+02  0.18204847329E+02 -0.26189808854E+02  0.41574537985E+02  0.00000000000E+00 0.  1.
</event>
<event>
 7    1  0.3276565E-015  0.9000779E+02  0.7816164E-02  0.1186339E+00
        -11   -1    0    0    0    0  0.00000000000E+00  0.00000000000E+00  0.45593999997E+02  0.45594000000E+02  0.51100000000E-03 0. -1.
         11   -1    0    0    0    0 -0.00000000000E+00 -0.00000000000E+00 -0.45593999997E+02  0.45594000000E+02  0.51100000000E-03 0.  1.
    9900012    2    1    2    0    0  0.49553994519E+00 -0.24105077266E+00 -0.10436574225E+01  0.90007794032E+02  0.90000056113E+02 0.  0.
         12    1    1    2    0    0 -0.49553994519E+00  0.24105077266E+00  0.10436574225E+01  0.11802059684E+01  0.00000000000E+00 0. -1.
         11    1    3    3    0    0  0.15669659853E+02 -0.17796092525E+02  0.29317313458E+02  0.37706020974E+02  0.51100000000E-03 0. -1.
        -11    1    3    3    0    0  0.69314511660E+01 -0.63356021056E+01 -0.32373685738E+01  0.99330471081E+01  0.51100000000E-03 0.  1.
        -12    1    3    3    0    0 -0.22105571074E+02  0.23890643858E+02 -0.27123602307E+02  0.42368725949E+02  0.00000000000E+00 0.  1.
</event>
<event>
 7    1  0.3276565E-015  0.9000767E+02  0.7816164E-02  0.1186339E+00
        -11   -1    0    0    0    0  0.00000000000E+00  0.00000000000E+00  0.45593999997E+02  0.45594000000E+02  0.51100000000E-03 0. -1.
         11   -1    0    0    0    0 -0.00000000000E+00 -0.00000000000E+00 -0.45593999997E+02  0.45594000000E+02  0.51100000000E-03 0.  1.
    9900012    2    1    2    0    0  0.11277384962E+01 -0.30932480019E+00 -0.16033045989E+00  0.90007668774E+02  0.89999929201E+02 0.  0.
         12    1    1    2    0    0 -0.11277384962E+01  0.30932480019E+00  0.16033045989E+00  0.11803312265E+01  0.00000000000E+00 0. -1.
         11    1    3    3    0    0  0.29994428100E+02  0.15715038223E+02  0.14117327486E+02  0.36686878840E+02  0.51100000000E-03 0. -1.
        -11    1    3    3    0    0  0.87068669619E+01 -0.36227899598E+01 -0.96348900064E+01  0.13482034160E+02  0.51100000000E-03 0.  1.
        -12    1    3    3    0    0 -0.37573556566E+02 -0.12401573064E+02 -0.46427679395E+01  0.39838755774E+02  0.00000000000E+00 0.  1.
</event>
<event>
 7    1  0.3276565E-015  0.9000767E+02  0.7816164E-02  0.1186339E+00
        -11   -1    0    0    0    0  0.00000000000E+00  0.00000000000E+00  0.45593999997E+02  0.45594000000E+02  0.51100000000E-03 0.  1.
         11   -1    0    0    0    0 -0.00000000000E+00 -0.00000000000E+00 -0.45593999997E+02  0.45594000000E+02  0.51100000000E-03 0. -1.
    9900012    2    1    2    0    0  0.16379381696E+00  0.21436028834E+00  0.11490891845E+01  0.90007667546E+02  0.89999927958E+02 0.  0.
         12    1    1    2    0    0 -0.16379381696E+00 -0.21436028834E+00 -0.11490891845E+01  0.11803324539E+01  0.00000000000E+00 0. -1.
         11    1    3    3    0    0 -0.12516916594E+02 -0.35768025925E+02 -0.17163250477E+02  0.41600505367E+02  0.51100000000E-03 0. -1.
        -11    1    3    3    0    0 -0.58472710558E+00  0.10955541457E+02 -0.46772425867E+01  0.11926541530E+02  0.51100000000E-03 0.  1.
        -12    1    3    3    0    0  0.13265437517E+02  0.25026844756E+02  0.22989582248E+02  0.36480620649E+02  0.00000000000E+00 0.  1.
</event>
<event>
 7    1  0.3276565E-015  0.9000749E+02  0.7816164E-02  0.1186340E+00
        -11   -1    0    0    0    0  0.00000000000E+00  0.00000000000E+00  0.45593999997E+02  0.45594000000E+02  0.51100000000E-03 0. -1.
         11   -1    0    0    0    0 -0.00000000000E+00 -0.00000000000E+00 -0.45593999997E+02  0.45594000000E+02  0.51100000000E-03 0.  1.
    9900012    2    1    2    0    0 -0.49356675737E+00 -0.50195389013E+00 -0.94765405110E+00  0.90007485683E+02  0.89999743694E+02 0.  0.
         12    1    1    2    0    0  0.49356675737E+00  0.50195389013E+00  0.94765405110E+00  0.11805143169E+01  0.00000000000E+00 0. -1.
         11    1    3    3    0    0  0.15045072364E+01  0.12767410299E+02 -0.17457967058E+01  0.12973747113E+02  0.51100000000E-03 0. -1.
        -11    1    3    3    0    0 -0.11532933840E+02  0.30124179693E+02  0.39291104165E+01  0.32494809956E+02  0.51100000000E-03 0.  1.
         12    1    3    3    0    0  0.95348598462E+01 -0.43393543882E+02 -0.31309677618E+01  0.44538928614E+02  0.00000000000E+00 0. -1.
</event>
<event>
 7    1  0.4021821E-015  0.9000781E+02  0.7816164E-02  0.1186339E+00
        -11   -1    0    0    0    0  0.00000000000E+00  0.00000000000E+00  0.45593999997E+02  0.45594000000E+02  0.51100000000E-03 0. -1.
         11   -1    0    0    0    0 -0.00000000000E+00 -0.00000000000E+00 -0.45593999997E+02  0.45594000000E+02  0.51100000000E-03 0.  1.
    9900012    2    1    2    0    0  0.70916125448E+00  0.73579895924E+00 -0.59037405970E+00  0.90007808777E+02  0.90000071052E+02 0.  0.
         12    1    1    2    0    0 -0.70916125448E+00 -0.73579895924E+00  0.59037405970E+00  0.11801912233E+01  0.00000000000E+00 0. -1.
         11    1    3    3    0    0 -0.60947860428E+01 -0.69754794889E+01 -0.33716582415E+01  0.98575763028E+01  0.51100000000E-03 0. -1.
        -11    1    3    3    0    0 -0.16214273200E+02  0.11431853283E+02 -0.32371596045E+02  0.37967224755E+02  0.51100000000E-03 0.  1.
         12    1    3    3    0    0  0.23018220497E+02 -0.37205748346E+01  0.35152880227E+02  0.42183007718E+02  0.00000000000E+00 0. -1.
</event>
<event>
 7    1  0.3276565E-015  0.9000773E+02  0.7816164E-02  0.1186339E+00
        -11   -1    0    0    0    0  0.00000000000E+00  0.00000000000E+00  0.45593999997E+02  0.45594000000E+02  0.51100000000E-03 0. -1.
         11   -1    0    0    0    0 -0.00000000000E+00 -0.00000000000E+00 -0.45593999997E+02  0.45594000000E+02  0.51100000000E-03 0.  1.
    9900012    2    1    2    0    0  0.58608959553E+00 -0.98046251810E+00 -0.29703605427E+00  0.90007729615E+02  0.89999990846E+02 0.  0.
         12    1    1    2    0    0 -0.58608959553E+00  0.98046251810E+00  0.29703605427E+00  0.11802703847E+01  0.00000000000E+00 0. -1.
         11    1    3    3    0    0 -0.23372776636E+02  0.66424205696E+01  0.27188048932E+02  0.36463659220E+02  0.51100000000E-03 0. -1.
        -11    1    3    3    0    0 -0.32934323885E+01 -0.43992276922E+01  0.73631392835E+01  0.91878028688E+01  0.51100000000E-03 0.  1.
        -12    1    3    3    0    0  0.27252298620E+02 -0.32236553955E+01 -0.34848224270E+02  0.44356267527E+02  0.00000000000E+00 0.  1.
</event>
<event>
 7    1  0.3276565E-015  0.9000773E+02  0.7816164E-02  0.1186339E+00
        -11   -1    0    0    0    0  0.00000000000E+00  0.00000000000E+00  0.45593999997E+02  0.45594000000E+02  0.51100000000E-03 0.  1.
         11   -1    0    0    0    0 -0.00000000000E+00 -0.00000000000E+00 -0.45593999997E+02  0.45594000000E+02  0.51100000000E-03 0. -1.
    9900012    2    1    2    0    0  0.10261673687E+01 -0.54216991433E+00  0.21465986491E+00  0.90007726073E+02  0.89999987257E+02 0.  0.
         12    1    1    2    0    0 -0.10261673687E+01  0.54216991433E+00 -0.21465986491E+00  0.11802739267E+01  0.00000000000E+00 0. -1.
         11    1    3    3    0    0 -0.13457050643E+02  0.56271369519E+00 -0.34757582539E+02  0.37275976217E+02  0.51100000000E-03 0. -1.
        -11    1    3    3    0    0 -0.36406714895E+01 -0.83149726686E+01 -0.33948429287E+01  0.96911412200E+01  0.51100000000E-03 0.  1.
        -12    1    3    3    0    0  0.18123889501E+02  0.72100890591E+01  0.38367085332E+02  0.43040608636E+02  0.00000000000E+00 0.  1.
</event>
<event>
 7    1  0.3276565E-015  0.9000757E+02  0.7816164E-02  0.1186339E+00
        -11   -1    0    0    0    0  0.00000000000E+00  0.00000000000E+00  0.45593999997E+02  0.45594000000E+02  0.51100000000E-03 0.  1.
         11   -1    0    0    0    0 -0.00000000000E+00 -0.00000000000E+00 -0.45593999997E+02  0.45594000000E+02  0.51100000000E-03 0. -1.
    9900012    2    1    2    0    0  0.49225200595E+00  0.85790450009E+00  0.64428500279E+00  0.90007569852E+02  0.89999828974E+02 0.  0.
         12    1    1    2    0    0 -0.49225200595E+00 -0.85790450009E+00 -0.64428500279E+00  0.11804301476E+01  0.00000000000E+00 0. -1.
         11    1    3    3    0    0  0.78757439159E+01  0.26306677999E+01 -0.36979184586E+01  0.90896840699E+01  0.51100000000E-03 0. -1.
        -11    1    3    3    0    0  0.31840474814E+02 -0.19945661762E+02  0.20862974453E+01  0.37629747499E+02  0.51100000000E-03 0.  1.
         12    1    3    3    0    0 -0.39223966724E+02  0.18172898463E+02  0.22559060160E+01  0.43288138284E+02  0.00000000000E+00 0. -1.
</event>
<event>
 7    1  0.3276565E-015  0.9000776E+02  0.7816164E-02  0.1186339E+00
        -11   -1    0    0    0    0  0.00000000000E+00  0.00000000000E+00  0.45593999997E+02  0.45594000000E+02  0.51100000000E-03 0.  1.
         11   -1    0    0    0    0 -0.00000000000E+00 -0.00000000000E+00 -0.45593999997E+02  0.45594000000E+02  0.51100000000E-03 0. -1.
    9900012    2    1    2    0    0 -0.42161806296E+00  0.84305200139E+00  0.71025991011E+00  0.90007759513E+02  0.90000021138E+02 0.  0.
         12    1    1    2    0    0  0.42161806296E+00 -0.84305200139E+00 -0.71025991011E+00  0.11802404873E+01  0.00000000000E+00 0. -1.
         11    1    3    3    0    0  0.27600395818E+02 -0.25398754296E+01 -0.15298670250E+02  0.31658839653E+02  0.51100000000E-03 0. -1.
        -11    1    3    3    0    0  0.63079724991E+01 -0.12404532241E+02 -0.53906586672E+01  0.14923878125E+02  0.51100000000E-03 0.  1.
        -12    1    3    3    0    0 -0.34329986380E+02  0.15787459672E+02  0.21399588827E+02  0.43425041735E+02  0.00000000000E+00 0.  1.
</event>
<event>
 7    1  0.3276565E-015  0.9000785E+02  0.7816164E-02  0.1186339E+00
        -11   -1    0    0    0    0  0.00000000000E+00  0.00000000000E+00  0.45593999997E+02  0.45594000000E+02  0.51100000000E-03 0.  1.
         11   -1    0    0    0    0 -0.00000000000E+00 -0.00000000000E+00 -0.45593999997E+02  0.45594000000E+02  0.51100000000E-03 0. -1.
    9900012    2    1    2    0    0  0.59100675480E+00 -0.69026826500E+00  0.75299294589E+00  0.90007848468E+02  0.90000111268E+02 0.  0.
         12    1    1    2    0    0 -0.59100675480E+00  0.69026826500E+00 -0.75299294589E+00  0.11801515320E+01  0.00000000000E+00 0. -1.
         11    1    3    3    0    0  0.18701675977E+02  0.70407061034E+01 -0.34347044794E+02  0.39737183004E+02  0.51100000000E-03 0. -1.
        -11    1    3    3    0    0 -0.19866910360E+01  0.83298992436E+01  0.15094199729E+00  0.85648669826E+01  0.51100000000E-03 0.  1.
        -12    1    3    3    0    0 -0.16123978186E+02 -0.16060873612E+02  0.34949095743E+02  0.41705798481E+02  0.00000000000E+00 0.  1.
</event>
<event>
 7    1  0.3276565E-015  0.9000772E+02  0.7816164E-02  0.1186339E+00
        -11   -1    0    0    0    0  0.00000000000E+00  0.00000000000E+00  0.45593999997E+02  0.45594000000E+02  0.51100000000E-03 0. -1.
         11   -1    0    0    0    0 -0.00000000000E+00 -0.00000000000E+00 -0.45593999997E+02  0.45594000000E+02  0.51100000000E-03 0.  1.
    9900012    2    1    2    0    0  0.94421111674E+00  0.55961508700E-01  0.70597892875E+00  0.90007715047E+02  0.89999976085E+02 0.  0.
         12    1    1    2    0    0 -0.94421111674E+00 -0.55961508700E-01 -0.70597892875E+00  0.11802849534E+01  0.00000000000E+00 0. -1.
         11    1    3    3    0    0 -0.15354463865E+01  0.78950569081E+01  0.40931843360E+01  0.90246150864E+01  0.51100000000E-03 0. -1.
        -11    1    3    3    0    0  0.29227179498E+02 -0.71262012601E+01 -0.30535539875E+02  0.42865253546E+02  0.51100000000E-03 0.  1.
         12    1    3    3    0    0 -0.26747521995E+02 -0.71289413934E+00  0.27148334467E+02  0.38117846415E+02  0.00000000000E+00 0. -1.
</event>
<event>
 7    1  0.3276565E-015  0.9000768E+02  0.7816164E-02  0.1186339E+00
        -11   -1    0    0    0    0  0.00000000000E+00  0.00000000000E+00  0.45593999997E+02  0.45594000000E+02  0.51100000000E-03 0.  1.
         11   -1    0    0    0    0 -0.00000000000E+00 -0.00000000000E+00 -0.45593999997E+02  0.45594000000E+02  0.51100000000E-03 0. -1.
    9900012    2    1    2    0    0 -0.10889377628E+01 -0.35473521353E+00 -0.28554336954E+00  0.90007679053E+02  0.89999939616E+02 0.  0.
         12    1    1    2    0    0  0.10889377628E+01  0.35473521353E+00  0.28554336954E+00  0.11803209474E+01  0.00000000000E+00 0. -1.
         11    1    3    3    0    0  0.90199922404E+01  0.80381817086E+01  0.39141930267E+01  0.12700139074E+02  0.51100000000E-03 0. -1.
        -11    1    3    3    0    0 -0.23613329250E+02 -0.44015148581E+01  0.31103888985E+02  0.39299040212E+02  0.51100000000E-03 0.  1.
         12    1    3    3    0    0  0.13504399246E+02 -0.39914020640E+01 -0.35303625381E+02  0.38008499767E+02  0.00000000000E+00 0. -1.
</event>
<event>
 7    1  0.3276565E-015  0.9000775E+02  0.7816164E-02  0.1186339E+00
        -11   -1    0    0    0    0  0.00000000000E+00  0.00000000000E+00  0.45593999997E+02  0.45594000000E+02  0.51100000000E-03 0.  1.
         11   -1    0    0    0    0 -0.00000000000E+00 -0.00000000000E+00 -0.45593999997E+02  0.45594000000E+02  0.51100000000E-03 0. -1.
    9900012    2    1    2    0    0  0.99446805382E+00 -0.33408403778E+00  0.54076122114E+00  0.90007745132E+02  0.90000006568E+02 0.  0.
         12    1    1    2    0    0 -0.99446805382E+00  0.33408403778E+00 -0.54076122114E+00  0.11802548677E+01  0.00000000000E+00 0. -1.
         11    1    3    3    0    0  0.78457016320E+01 -0.11409918314E+02 -0.34902495148E+02  0.37548973859E+02  0.51100000000E-03 0. -1.
        -11    1    3    3    0    0  0.19092051999E+01 -0.10067230916E+02 -0.26228316642E-01  0.10246701469E+02  0.51100000000E-03 0.  1.
        -12    1    3    3    0    0 -0.87604387780E+01  0.21143065192E+02  0.35469484686E+02  0.42212069804E+02  0.00000000000E+00 0.  1.
</event>
<event>
 7    1  0.3606980E-015  0.9000778E+02  0.7816164E-02  0.1186339E+00
        -11   -1    0    0    0    0  0.00000000000E+00  0.00000000000E+00  0.45593999997E+02  0.45594000000E+02  0.51100000000E-03 0.  1.
         11   -1    0    0    0    0 -0.00000000000E+00 -0.00000000000E+00 -0.45593999997E+02  0.45594000000E+02  0.51100000000E-03 0. -1.
    9900012    2    1    2    0    0 -0.17236554860E+00 -0.84762677220E+00  0.80294919096E+00  0.90007784583E+02  0.90000046539E+02 0.  0.
         12    1    1    2    0    0  0.17236554860E+00  0.84762677220E+00 -0.80294919096E+00  0.11802154170E+01  0.00000000000E+00 0. -1.
         11    1    3    3    0    0  0.23841633550E+01  0.67068995046E+01  0.71836662624E+01  0.10112951948E+02  0.51100000000E-03 0. -1.
        -11    1    3    3    0    0 -0.23782315086E+02  0.27047701066E+02  0.78814260879E+01  0.36868598038E+02  0.51100000000E-03 0.  1.
         12    1    3    3    0    0  0.21225786182E+02 -0.34602227343E+02 -0.14262143159E+02  0.43026234598E+02  0.00000000000E+00 0. -1.
</event>
<event>
 7    1  0.3276565E-015  0.9000772E+02  0.7816164E-02  0.1186339E+00
        -11   -1    0    0    0    0  0.00000000000E+00  0.00000000000E+00  0.45593999997E+02  0.45594000000E+02  0.51100000000E-03 0.  1.
         11   -1    0    0    0    0 -0.00000000000E+00 -0.00000000000E+00 -0.45593999997E+02  0.45594000000E+02  0.51100000000E-03 0. -1.
    9900012    2    1    2    0    0  0.95007717782E-01 -0.63423200118E+00  0.99084601544E+00  0.90007723539E+02  0.89999984690E+02 0.  0.
         12    1    1    2    0    0 -0.95007717782E-01  0.63423200118E+00 -0.99084601544E+00  0.11802764609E+01  0.00000000000E+00 0. -1.
         11    1    3    3    0    0 -0.31879819459E+02 -0.17297657488E+01 -0.22968945943E+02  0.39330490160E+02  0.51100000000E-03 0. -1.
        -11    1    3    3    0    0  0.51918432847E+01  0.39217033204E+01 -0.70576854138E+01  0.95992664973E+01  0.51100000000E-03 0.  1.
        -12    1    3    3    0    0  0.26782983892E+02 -0.28261695727E+01  0.31017477372E+02  0.41077966882E+02  0.00000000000E+00 0.  1.
</event>
<event>
 7    1  0.3276565E-015  0.9000766E+02  0.7816164E-02  0.1186339E+00
        -11   -1    0    0    0    0  0.00000000000E+00  0.00000000000E+00  0.45593999997E+02  0.45594000000E+02  0.51100000000E-03 0. -1.
         11   -1    0    0    0    0 -0.00000000000E+00 -0.00000000000E+00 -0.45593999997E+02  0.45594000000E+02  0.51100000000E-03 0.  1.
    9900012    2    1    2    0    0 -0.35501426755E+00 -0.11122657971E+01 -0.17329733456E+00  0.90007660091E+02  0.89999920405E+02 0.  0.
         12    1    1    2    0    0  0.35501426755E+00  0.11122657971E+01  0.17329733456E+00  0.11803399086E+01  0.00000000000E+00 0. -1.
         11    1    3    3    0    0  0.78841703827E+01 -0.11352569130E+02  0.59197598554E+01  0.15036107391E+02  0.51100000000E-03 0. -1.
        -11    1    3    3    0    0  0.37031384364E+00 -0.30155704274E+02  0.82207157666E+01  0.31258339696E+02  0.51100000000E-03 0.  1.
         12    1    3    3    0    0 -0.86094984939E+01  0.40396007607E+02 -0.14313772957E+02  0.43713213004E+02  0.00000000000E+00 0. -1.
</event>
<event>
 7    1  0.3276565E-015  0.9000798E+02  0.7816164E-02  0.1186339E+00
        -11   -1    0    0    0    0  0.00000000000E+00  0.00000000000E+00  0.45593999997E+02  0.45594000000E+02  0.51100000000E-03 0.  1.
         11   -1    0    0    0    0 -0.00000000000E+00 -0.00000000000E+00 -0.45593999997E+02  0.45594000000E+02  0.51100000000E-03 0. -1.
    9900012    2    1    2    0    0 -0.10489556970E+01  0.35736835265E+00  0.40548353159E+00  0.90007984285E+02  0.90000248877E+02 0.  0.
         12    1    1    2    0    0  0.10489556970E+01 -0.35736835265E+00 -0.40548353159E+00  0.11800157152E+01  0.00000000000E+00 0. -1.
         11    1    3    3    0    0 -0.15130282810E+02 -0.30108259338E+02 -0.26018154399E+02  0.42572022467E+02  0.51100000000E-03 0. -1.
        -11    1    3    3    0    0 -0.22867873752E+01  0.12475286042E+01  0.96197311053E+01  0.99661903913E+01  0.51100000000E-03 0.  1.
        -12    1    3    3    0    0  0.16368114488E+02  0.29218099087E+02  0.16803906826E+02  0.37469771427E+02  0.00000000000E+00 0.  1.
</event>
<event>
 7    1  0.3276565E-015  0.9000757E+02  0.7816164E-02  0.1186339E+00
        -11   -1    0    0    0    0  0.00000000000E+00  0.00000000000E+00  0.45593999997E+02  0.45594000000E+02  0.51100000000E-03 0.  1.
         11   -1    0    0    0    0 -0.00000000000E+00 -0.00000000000E+00 -0.45593999997E+02  0.45594000000E+02  0.51100000000E-03 0. -1.
    9900012    2    1    2    0    0  0.39447433815E-01 -0.11738945253E+01 -0.11759236654E+00  0.90007571086E+02  0.89999830224E+02 0.  0.
         12    1    1    2    0    0 -0.39447433815E-01  0.11738945253E+01  0.11759236654E+00  0.11804289141E+01  0.00000000000E+00 0. -1.
         11    1    3    3    0    0 -0.12357438339E+02  0.93472104266E+01 -0.36398148685E+02  0.39558840391E+02  0.51100000000E-03 0. -1.
        -11    1    3    3    0    0  0.23782007805E+01 -0.92876197603E+01 -0.28780877819E+01  0.10009950515E+02  0.51100000000E-03 0.  1.
        -12    1    3    3    0    0  0.10018684993E+02 -0.12334851916E+01  0.39158644101E+02  0.40438780181E+02  0.00000000000E+00 0.  1.
</event>
<event>
 7    1  0.3276565E-015  0.9000796E+02  0.7816164E-02  0.1186339E+00
        -11   -1    0    0    0    0  0.00000000000E+00  0.00000000000E+00  0.45593999997E+02  0.45594000000E+02  0.51100000000E-03 0.  1.
         11   -1    0    0    0    0 -0.00000000000E+00 -0.00000000000E+00 -0.45593999997E+02  0.45594000000E+02  0.51100000000E-03 0. -1.
    9900012    2    1    2    0    0  0.18458676883E+00 -0.47572454837E+00  0.10640042048E+01  0.90007961412E+02  0.90000225702E+02 0.  0.
         12    1    1    2    0    0 -0.18458676883E+00  0.47572454837E+00 -0.10640042048E+01  0.11800385880E+01  0.00000000000E+00 0. -1.
         11    1    3    3    0    0  0.18160143188E+02 -0.13784189308E+02 -0.29423700641E+02  0.37222961128E+02  0.51100000000E-03 0. -1.
        -11    1    3    3    0    0 -0.30736497642E+01 -0.47636294755E+01 -0.67363029301E+01  0.88043890237E+01  0.51100000000E-03 0.  1.
        -12    1    3    3    0    0 -0.14901906654E+02  0.18072094235E+02  0.37224007776E+02  0.43980611261E+02  0.00000000000E+00 0.  1.
</event>
<event>
 7    1  0.3276565E-015  0.9000801E+02  0.7816164E-02  0.1186339E+00
        -11   -1    0    0    0    0  0.00000000000E+00  0.00000000000E+00  0.45593999997E+02  0.45594000000E+02  0.51100000000E-03 0. -1.
         11   -1    0    0    0    0 -0.00000000000E+00 -0.00000000000E+00 -0.45593999997E+02  0.45594000000E+02  0.51100000000E-03 0.  1.
    9900012    2    1    2    0    0 -0.10968577609E+01 -0.66144517066E-01 -0.43001217814E+00  0.90008007408E+02  0.90000272305E+02 0.  0.
         12    1    1    2    0    0  0.10968577609E+01  0.66144517066E-01  0.43001217814E+00  0.11799925924E+01  0.00000000000E+00 0. -1.
         11    1    3    3    0    0 -0.59370899035E+01  0.28492440230E+02  0.20588089898E+02  0.35650212239E+02  0.51100000000E-03 0. -1.
        -11    1    3    3    0    0  0.41178775140E+01  0.77024878142E+01  0.46791289707E+01  0.99085559964E+01  0.51100000000E-03 0.  1.
        -12    1    3    3    0    0  0.72235462859E+00 -0.36261072561E+02 -0.25697231047E+02  0.44449239172E+02  0.00000000000E+00 0.  1.
</event>
<event>
 7    1  0.3276565E-015  0.9000769E+02  0.7816164E-02  0.1186339E+00
        -11   -1    0    0    0    0  0.00000000000E+00  0.00000000000E+00  0.45593999997E+02  0.45594000000E+02  0.51100000000E-03 0. -1.
         11   -1    0    0    0    0 -0.00000000000E+00 -0.00000000000E+00 -0.45593999997E+02  0.45594000000E+02  0.51100000000E-03 0.  1.
    9900012    2    1    2    0    0  0.96537359560E+00  0.10189897003E+00 -0.67142241363E+00  0.90007687483E+02  0.89999948158E+02 0.  0.
         12    1    1    2    0    0 -0.96537359560E+00 -0.10189897003E+00  0.67142241363E+00  0.11803125165E+01  0.00000000000E+00 0. -1.
         11    1    3    3    0    0  0.38831381940E+01 -0.82154481584E+01  0.72881855741E+00  0.91161136142E+01  0.51100000000E-03 0. -1.
        -11    1    3    3    0    0  0.38633263433E+02  0.13255923220E+01  0.12174838609E+01  0.38675166525E+02  0.51100000000E-03 0.  1.
         12    1    3    3    0    0 -0.41551028032E+02  0.69917548064E+01 -0.26177248319E+01  0.42216407344E+02  0.00000000000E+00 0. -1.
</event>
<event>
 7    1  0.3276565E-015  0.9000773E+02  0.7816164E-02  0.1186339E+00
        -11   -1    0    0    0    0  0.00000000000E+00  0.00000000000E+00  0.45593999997E+02  0.45594000000E+02  0.51100000000E-03 0.  1.
         11   -1    0    0    0    0 -0.00000000000E+00 -0.00000000000E+00 -0.45593999997E+02  0.45594000000E+02  0.51100000000E-03 0. -1.
    9900012    2    1    2    0    0 -0.25218728020E+00  0.15041744705E+00  0.11431543298E+01  0.90007734922E+02  0.89999996223E+02 0.  0.
         12    1    1    2    0    0  0.25218728020E+00 -0.15041744705E+00 -0.11431543298E+01  0.11802650780E+01  0.00000000000E+00 0. -1.
         11    1    3    3    0    0 -0.35781960983E+02 -0.10340363438E+02 -0.76646807726E+01  0.38026558869E+02  0.51100000000E-03 0. -1.
        -11    1    3    3    0    0  0.12535577993E+02  0.19100266327E+02 -0.55867416577E+01  0.23519621000E+02  0.51100000000E-03 0.  1.
        -12    1    3    3    0    0  0.22994195710E+02 -0.86094854418E+01  0.14394576760E+02  0.28461555053E+02  0.00000000000E+00 0.  1.
</event>
<event>
 7    1  0.3276565E-015  0.9000766E+02  0.7816164E-02  0.1186339E+00
        -11   -1    0    0    0    0  0.00000000000E+00  0.00000000000E+00  0.45593999997E+02  0.45594000000E+02  0.51100000000E-03 0. -1.
         11   -1    0    0    0    0 -0.00000000000E+00 -0.00000000000E+00 -0.45593999997E+02  0.45594000000E+02  0.51100000000E-03 0.  1.
    9900012    2    1    2    0    0 -0.79790754563E+00 -0.82542012821E+00 -0.27427000167E+00  0.90007661543E+02  0.89999921875E+02 0.  0.
         12    1    1    2    0    0  0.79790754563E+00  0.82542012821E+00  0.27427000167E+00  0.11803384571E+01  0.00000000000E+00 0. -1.
         11    1    3    3    0    0  0.15988998626E+02  0.29905520370E+02 -0.26778029908E+01  0.34017037713E+02  0.51100000000E-03 0. -1.
        -11    1    3    3    0    0 -0.41635301135E+01  0.96495469496E+01  0.81436412155E+01  0.13295398898E+02  0.51100000000E-03 0.  1.
        -12    1    3    3    0    0 -0.12623376058E+02 -0.40380487447E+02 -0.57401082264E+01  0.42695224933E+02  0.00000000000E+00 0.  1.
</event>
<event>
 7    1  0.3276565E-015  0.9000781E+02  0.7816164E-02  0.1186339E+00
        -11   -1    0    0    0    0  0.00000000000E+00  0.00000000000E+00  0.45593999997E+02  0.45594000000E+02  0.51100000000E-03 0. -1.
         11   -1    0    0    0    0 -0.00000000000E+00 -0.00000000000E+00 -0.45593999997E+02  0.45594000000E+02  0.51100000000E-03 0.  1.
    9900012    2    1    2    0    0 -0.74688873112E+00  0.87587022352E+00  0.26049353963E+00  0.90007810054E+02  0.90000072346E+02 0.  0.
         12    1    1    2    0    0  0.74688873112E+00 -0.87587022352E+00 -0.26049353963E+00  0.11801899463E+01  0.00000000000E+00 0. -1.
         11    1    3    3    0    0 -0.30280040853E+02 -0.13372095474E+02 -0.61123966536E+01  0.33660885380E+02  0.51100000000E-03 0. -1.
        -11    1    3    3    0    0 -0.10762327633E+02  0.86783538689E+00 -0.56939974246E+01  0.12206655614E+02  0.51100000000E-03 0.  1.
        -12    1    3    3    0    0  0.40295479756E+02  0.13380130311E+02  0.12066887618E+02  0.44140269060E+02  0.00000000000E+00 0.  1.
</event>
<event>
 7    1  0.3276565E-015  0.9000772E+02  0.7816164E-02  0.1186339E+00
        -11   -1    0    0    0    0  0.00000000000E+00  0.00000000000E+00  0.45593999997E+02  0.45594000000E+02  0.51100000000E-03 0.  1.
         11   -1    0    0    0    0 -0.00000000000E+00 -0.00000000000E+00 -0.45593999997E+02  0.45594000000E+02  0.51100000000E-03 0. -1.
    9900012    2    1    2    0    0 -0.91961902997E+00  0.69128780698E+00 -0.26357706861E+00  0.90007724243E+02  0.89999985403E+02 0.  0.
         12    1    1    2    0    0  0.91961902997E+00 -0.69128780698E+00  0.26357706861E+00  0.11802757574E+01  0.00000000000E+00 0. -1.
         11    1    3    3    0    0 -0.38920498266E+02 -0.90402347566E+01  0.54138646913E+01  0.40321718228E+02  0.51100000000E-03 0. -1.
        -11    1    3    3    0    0  0.94120318043E+00 -0.27607119357E-01  0.87029003384E+01  0.87536906583E+01  0.51100000000E-03 0.  1.
        -12    1    3    3    0    0  0.37059676056E+02  0.97591296829E+01 -0.14380342098E+02  0.40932315356E+02  0.00000000000E+00 0.  1.
</event>
<event>
 7    1  0.3276565E-015  0.9000762E+02  0.7816164E-02  0.1186339E+00
        -11   -1    0    0    0    0  0.00000000000E+00  0.00000000000E+00  0.45593999997E+02  0.45594000000E+02  0.51100000000E-03 0. -1.
         11   -1    0    0    0    0 -0.00000000000E+00 -0.00000000000E+00 -0.45593999997E+02  0.45594000000E+02  0.51100000000E-03 0.  1.
    9900012    2    1    2    0    0 -0.11173009983E+01  0.34765182369E+00 -0.15512972703E+00  0.90007623559E+02  0.89999883389E+02 0.  0.
         12    1    1    2    0    0  0.11173009983E+01 -0.34765182369E+00  0.15512972703E+00  0.11803764414E+01  0.00000000000E+00 0. -1.
         11    1    3    3    0    0 -0.93392993238E+01  0.39086662316E+02  0.11652432410E+02  0.41842190002E+02  0.51100000000E-03 0. -1.
        -11    1    3    3    0    0  0.71887606023E+01 -0.31283050733E+01 -0.97073782330E+01  0.12477891010E+02  0.51100000000E-03 0.  1.
        -12    1    3    3    0    0  0.10332377232E+01 -0.35610705419E+02 -0.21001839043E+01  0.35687542547E+02  0.00000000000E+00 0.  1.
</event>
<event>
 7    1  0.3276565E-015  0.9000771E+02  0.7816164E-02  0.1186339E+00
        -11   -1    0    0    0    0  0.00000000000E+00  0.00000000000E+00  0.45593999997E+02  0.45594000000E+02  0.51100000000E-03 0.  1.
         11   -1    0    0    0    0 -0.00000000000E+00 -0.00000000000E+00 -0.45593999997E+02  0.45594000000E+02  0.51100000000E-03 0. -1.
    9900012    2    1    2    0    0  0.98363677100E+00  0.39006580993E-01  0.65116484619E+00  0.90007712549E+02  0.89999973554E+02 0.  0.
         12    1    1    2    0    0 -0.98363677100E+00 -0.39006580993E-01 -0.65116484619E+00  0.11802874512E+01  0.00000000000E+00 0. -1.
         11    1    3    3    0    0  0.30246955919E+02  0.17987706311E+02 -0.94198121180E+01  0.36430327768E+02  0.51100000000E-03 0. -1.
        -11    1    3    3    0    0  0.96677494518E+01 -0.17674025000E+01 -0.12931536282E+01  0.99126856920E+01  0.51100000000E-03 0.  1.
        -12    1    3    3    0    0 -0.38931068600E+02 -0.16181297230E+02  0.11364130592E+02  0.43664699089E+02  0.00000000000E+00 0.  1.
</event>
<event>
 7    1  0.3276565E-015  0.9000774E+02  0.7816164E-02  0.1186339E+00
        -11   -1    0    0    0    0  0.00000000000E+00  0.00000000000E+00  0.45593999997E+02  0.45594000000E+02  0.51100000000E-03 0. -1.
         11   -1    0    0    0    0 -0.00000000000E+00 -0.00000000000E+00 -0.45593999997E+02  0.45594000000E+02  0.51100000000E-03 0.  1.
    9900012    2    1    2    0    0  0.56533810947E+00 -0.91789975624E+00 -0.48048337015E+00  0.90007740957E+02  0.90000002337E+02 0.  0.
         12    1    1    2    0    0 -0.56533810947E+00  0.91789975624E+00  0.48048337015E+00  0.11802590434E+01  0.00000000000E+00 0. -1.
         11    1    3    3    0    0 -0.53588215028E+00  0.10232102910E+02 -0.62069186162E+01  0.11979521635E+02  0.51100000000E-03 0. -1.
        -11    1    3    3    0    0 -0.22756634271E+02  0.20074957866E+02  0.19860741419E+02  0.36267304651E+02  0.51100000000E-03 0.  1.
         12    1    3    3    0    0  0.23857854531E+02 -0.31224960533E+02 -0.14134306173E+02  0.41760914670E+02  0.00000000000E+00 0. -1.
</event>
<event>
 7    1  0.3276565E-015  0.9000767E+02  0.7816164E-02  0.1186339E+00
        -11   -1    0    0    0    0  0.00000000000E+00  0.00000000000E+00  0.45593999997E+02  0.45594000000E+02  0.51100000000E-03 0.  1.
         11   -1    0    0    0    0 -0.00000000000E+00 -0.00000000000E+00 -0.45593999997E+02  0.45594000000E+02  0.51100000000E-03 0. -1.
    9900012    2    1    2    0    0  0.69886408112E-02 -0.11189445154E+01  0.37563035529E+00  0.90007667914E+02  0.89999928330E+02 0.  0.
         12    1    1    2    0    0 -0.69886408112E-02  0.11189445154E+01 -0.37563035529E+00  0.11803320861E+01  0.00000000000E+00 0. -1.
         11    1    3    3    0    0 -0.36371174785E+02 -0.19026467132E+02  0.80786520165E+01  0.41834596035E+02  0.51100000000E-03 0. -1.
        -11    1    3    3    0    0  0.65095793731E+01 -0.50862177153E+00  0.74891274505E+01  0.99358114894E+01  0.51100000000E-03 0.  1.
        -12    1    3    3    0    0  0.29868584053E+02  0.18416144388E+02 -0.15192149112E+02  0.38237260389E+02  0.00000000000E+00 0.  1.
</event>
<event>
 7    1  0.3276565E-015  0.9000768E+02  0.7816164E-02  0.1186339E+00
        -11   -1    0    0    0    0  0.00000000000E+00  0.00000000000E+00  0.45593999997E+02  0.45594000000E+02  0.51100000000E-03 0. -1.
         11   -1    0    0    0    0 -0.00000000000E+00 -0.00000000000E+00 -0.45593999997E+02  0.45594000000E+02  0.51100000000E-03 0.  1.
    9900012    2    1    2    0    0  0.71588142825E+00  0.68282577848E+00 -0.64375764364E+00  0.90007677516E+02  0.89999938059E+02 0.  0.
         12    1    1    2    0    0 -0.71588142825E+00 -0.68282577848E+00  0.64375764364E+00  0.11803224842E+01  0.00000000000E+00 0. -1.
         11    1    3    3    0    0 -0.45881723993E+01 -0.28551623423E+02 -0.98645447673E+01  0.30554144887E+02  0.51100000000E-03 0. -1.
        -11    1    3    3    0    0 -0.12924699073E+02  0.16515094135E+02 -0.15598136102E+02  0.26136144140E+02  0.51100000000E-03 0.  1.
         12    1    3    3    0    0  0.18228752900E+02  0.12719355066E+02  0.24818923226E+02  0.33317388488E+02  0.00000000000E+00 0. -1.
</event>
<event>
 7    1  0.3276565E-015  0.9000766E+02  0.7816164E-02  0.1186339E+00
        -11   -1    0    0    0    0  0.00000000000E+00  0.00000000000E+00  0.45593999997E+02  0.45594000000E+02  0.51100000000E-03 0. -1.
         11   -1    0    0    0    0 -0.00000000000E+00 -0.00000000000E+00 -0.45593999997E+02  0.45594000000E+02  0.51100000000E-03 0.  1.
    9900012    2    1    2    0    0  0.44070935484E+00 -0.92389555005E+00 -0.58770543005E+00  0.90007658780E+02  0.89999919076E+02 0.  0.
         12    1    1    2    0    0 -0.44070935484E+00  0.92389555005E+00  0.58770543005E+00  0.11803412199E+01  0.00000000000E+00 0. -1.
         11    1    3    3    0    0  0.65181050852E+01 -0.25511024606E+02  0.24704067114E+02  0.36105248962E+02  0.51100000000E-03 0. -1.
        -11    1    3    3    0    0  0.51446081048E+01 -0.26038925918E+01  0.77527272999E+01  0.96618854283E+01  0.51100000000E-03 0.  1.
        -12    1    3    3    0    0 -0.11222003835E+02  0.27191021648E+02 -0.33044499844E+02  0.44240524390E+02  0.00000000000E+00 0.  1.
</event>
<event>
 7    1  0.3276565E-015  0.9000758E+02  0.7816164E-02  0.1186339E+00
        -11   -1    0    0    0    0  0.00000000000E+00  0.00000000000E+00  0.45593999997E+02  0.45594000000E+02  0.51100000000E-03 0.  1.
         11   -1    0    0    0    0 -0.00000000000E+00 -0.00000000000E+00 -0.45593999997E+02  0.45594000000E+02  0.51100000000E-03 0. -1.
    9900012    2    1    2    0    0  0.21743513230E-01 -0.11788430779E+01 -0.57016748084E-01  0.90007578596E+02  0.89999837833E+02 0.  0.
         12    1    1    2    0    0 -0.21743513230E-01  0.11788430779E+01  0.57016748084E-01  0.11804214045E+01  0.00000000000E+00 0. -1.
         11    1    3    3    0    0  0.64505435748E+01  0.16251402401E+02 -0.14939333713E+01  0.17548487957E+02  0.51100000000E-03 0. -1.
        -11    1    3    3    0    0 -0.34430230616E+02  0.14908172254E+01  0.12863298872E+02  0.36784885135E+02  0.51100000000E-03 0.  1.
         12    1    3    3    0    0  0.28001430555E+02 -0.18921062704E+02 -0.11426382249E+02  0.35674205503E+02  0.00000000000E+00 0. -1.
</event>
<event>
 7    1  0.3276565E-015  0.9000772E+02  0.7816164E-02  0.1186339E+00
        -11   -1    0    0    0    0  0.00000000000E+00  0.00000000000E+00  0.45593999997E+02  0.45594000000E+02  0.51100000000E-03 0. -1.
         11   -1    0    0    0    0 -0.00000000000E+00 -0.00000000000E+00 -0.45593999997E+02  0.45594000000E+02  0.51100000000E-03 0.  1.
    9900012    2    1    2    0    0 -0.91461995053E+00 -0.51965721635E+00 -0.53523682976E+00  0.90007723871E+02  0.89999985026E+02 0.  0.
         12    1    1    2    0    0  0.91461995053E+00  0.51965721635E+00  0.53523682976E+00  0.11802761289E+01  0.00000000000E+00 0. -1.
         11    1    3    3    0    0 -0.33833396477E+02 -0.53920428361E+01 -0.14910807650E+02  0.37364488865E+02  0.51100000000E-03 0. -1.
        -11    1    3    3    0    0 -0.16499935953E+01 -0.97376209878E+01 -0.42430145327E+01  0.10749275043E+02  0.51100000000E-03 0.  1.
        -12    1    3    3    0    0  0.34568770122E+02  0.14610006608E+02  0.18618585353E+02  0.41893959963E+02  0.00000000000E+00 0.  1.
</event>
<event>
 7    1  0.3276565E-015  0.9000777E+02  0.7816164E-02  0.1186339E+00
        -11   -1    0    0    0    0  0.00000000000E+00  0.00000000000E+00  0.45593999997E+02  0.45594000000E+02  0.51100000000E-03 0.  1.
         11   -1    0    0    0    0 -0.00000000000E+00 -0.00000000000E+00 -0.45593999997E+02  0.45594000000E+02  0.51100000000E-03 0. -1.
    9900012    2    1    2    0    0 -0.60172503394E+00 -0.77552213132E+00 -0.65531967116E+00  0.90007766352E+02  0.90000028068E+02 0.  0.
         12    1    1    2    0    0  0.60172503394E+00  0.77552213132E+00  0.65531967116E+00  0.11802336481E+01  0.00000000000E+00 0. -1.
         11    1    3    3    0    0  0.35237840189E+02 -0.13998716745E+02  0.12703855533E+02  0.39988215731E+02  0.51100000000E-03 0. -1.
        -11    1    3    3    0    0  0.24278388050E+01  0.14194452497E+01 -0.93605597608E+01  0.97739094213E+01  0.51100000000E-03 0.  1.
        -12    1    3    3    0    0 -0.38267404028E+02  0.11803749364E+02 -0.39986154431E+01  0.40245641199E+02  0.00000000000E+00 0.  1.
</event>
<event>
 7    1  0.3276565E-015  0.9000773E+02  0.7816164E-02  0.1186339E+00
        -11   -1    0    0    0    0  0.00000000000E+00  0.00000000000E+00  0.45593999997E+02  0.45594000000E+02  0.51100000000E-03 0.  1.
         11   -1    0    0    0    0 -0.00000000000E+00 -0.00000000000E+00 -0.45593999997E+02  0.45594000000E+02  0.51100000000E-03 0. -1.
    9900012    2    1    2    0    0 -0.10243143408E+00  0.49310695656E+00  0.10674205828E+01  0.90007731653E+02  0.89999992911E+02 0.  0.
         12    1    1    2    0    0  0.10243143408E+00 -0.49310695656E+00 -0.10674205828E+01  0.11802683466E+01  0.00000000000E+00 0. -1.
         11    1    3    3    0    0  0.72891211240E+01 -0.34664152356E+01  0.12652367336E+01  0.81699538309E+01  0.51100000000E-03 0. -1.
        -11    1    3    3    0    0  0.62266233448E+01  0.67916508114E+01  0.39089532694E+02  0.40160788408E+02  0.51100000000E-03 0.  1.
         12    1    3    3    0    0 -0.13618175903E+02 -0.28321286192E+01 -0.39287348845E+02  0.41676989415E+02  0.00000000000E+00 0. -1.
</event>
<event>
 7    1  0.3276565E-015  0.9000771E+02  0.7816164E-02  0.1186339E+00
        -11   -1    0    0    0    0  0.00000000000E+00  0.00000000000E+00  0.45593999997E+02  0.45594000000E+02  0.51100000000E-03 0.  1.
         11   -1    0    0    0    0 -0.00000000000E+00 -0.00000000000E+00 -0.45593999997E+02  0.45594000000E+02  0.51100000000E-03 0. -1.
    9900012    2    1    2    0    0 -0.62072362086E+00 -0.91631422118E+00  0.41005469451E+00  0.90007714264E+02  0.89999975293E+02 0.  0.
         12    1    1    2    0    0  0.62072362086E+00  0.91631422118E+00 -0.41005469451E+00  0.11802857357E+01  0.00000000000E+00 0. -1.
         11    1    3    3    0    0 -0.21303170467E+02 -0.92119096028E+01 -0.26322920772E+02  0.35093881357E+02  0.51100000000E-03 0. -1.
        -11    1    3    3    0    0  0.18315966142E+02 -0.18993151593E+01 -0.69195867548E+01  0.19671367388E+02  0.51100000000E-03 0.  1.
        -12    1    3    3    0    0  0.23664807045E+01  0.10194910541E+02  0.33652562221E+02  0.35242465520E+02  0.00000000000E+00 0.  1.
</event>
<event>
 7    1  0.3276565E-015  0.9000767E+02  0.7816164E-02  0.1186339E+00
        -11   -1    0    0    0    0  0.00000000000E+00  0.00000000000E+00  0.45593999997E+02  0.45594000000E+02  0.51100000000E-03 0. -1.
         11   -1    0    0    0    0 -0.00000000000E+00 -0.00000000000E+00 -0.45593999997E+02  0.45594000000E+02  0.51100000000E-03 0.  1.
    9900012    2    1    2    0    0  0.49899250764E+00 -0.10692935561E+01 -0.28102844073E-01  0.90007672926E+02  0.89999933409E+02 0.  0.
         12    1    1    2    0    0 -0.49899250764E+00  0.10692935561E+01  0.28102844073E-01  0.11803270740E+01  0.00000000000E+00 0. -1.
         11    1    3    3    0    0 -0.28005712326E+02 -0.28078031349E+02  0.10243516568E+02  0.40958825657E+02  0.51100000000E-03 0. -1.
        -11    1    3    3    0    0 -0.30199256252E+01  0.15371921901E+01 -0.77300872843E+01  0.84402109153E+01  0.51100000000E-03 0.  1.
        -12    1    3    3    0    0  0.31524630459E+02  0.25471545602E+02 -0.25415321281E+01  0.40608636353E+02  0.00000000000E+00 0.  1.
</event>
<event>
 7    1  0.3276565E-015  0.9000778E+02  0.7816164E-02  0.1186339E+00
        -11   -1    0    0    0    0  0.00000000000E+00  0.00000000000E+00  0.45593999997E+02  0.45594000000E+02  0.51100000000E-03 0. -1.
         11   -1    0    0    0    0 -0.00000000000E+00 -0.00000000000E+00 -0.45593999997E+02  0.45594000000E+02  0.51100000000E-03 0.  1.
    9900012    2    1    2    0    0 -0.58125246040E+00  0.70775457987E+00 -0.74440626601E+00  0.90007783216E+02  0.90000045155E+02 0.  0.
         12    1    1    2    0    0  0.58125246040E+00 -0.70775457987E+00  0.74440626601E+00  0.11802167839E+01  0.00000000000E+00 0. -1.
         11    1    3    3    0    0 -0.52963814730E+00  0.64247738072E+01 -0.59652892032E+01  0.87831036986E+01  0.51100000000E-03 0. -1.
        -11    1    3    3    0    0  0.27088092905E+02  0.25336931586E+02 -0.79448017047E+01  0.37932107163E+02  0.51100000000E-03 0.  1.
         12    1    3    3    0    0 -0.27139707218E+02 -0.31053950813E+02  0.13165684642E+02  0.43292572355E+02  0.00000000000E+00 0. -1.
</event>
<event>
 7    1  0.3276565E-015  0.9000771E+02  0.7816164E-02  0.1186339E+00
        -11   -1    0    0    0    0  0.00000000000E+00  0.00000000000E+00  0.45593999997E+02  0.45594000000E+02  0.51100000000E-03 0. -1.
         11   -1    0    0    0    0 -0.00000000000E+00 -0.00000000000E+00 -0.45593999997E+02  0.45594000000E+02  0.51100000000E-03 0.  1.
    9900012    2    1    2    0    0 -0.21026523555E+00  0.11386349742E+01 -0.22889205647E+00  0.90007706542E+02  0.89999967468E+02 0.  0.
         12    1    1    2    0    0  0.21026523555E+00 -0.11386349742E+01  0.22889205647E+00  0.11802934582E+01  0.00000000000E+00 0. -1.
         11    1    3    3    0    0  0.16795747652E+02 -0.78631280504E+01  0.30259771384E+02  0.35490557707E+02  0.51100000000E-03 0. -1.
        -11    1    3    3    0    0 -0.11384964841E+02 -0.10427707073E+02  0.26783672391E+01  0.15669337911E+02  0.51100000000E-03 0.  1.
        -12    1    3    3    0    0 -0.56210480462E+01  0.19429470098E+02 -0.33167030679E+02  0.38847810923E+02  0.00000000000E+00 0.  1.
</event>
<event>
 7    1  0.3276565E-015  0.9000772E+02  0.7816164E-02  0.1186339E+00
        -11   -1    0    0    0    0  0.00000000000E+00  0.00000000000E+00  0.45593999997E+02  0.45594000000E+02  0.51100000000E-03 0.  1.
         11   -1    0    0    0    0 -0.00000000000E+00 -0.00000000000E+00 -0.45593999997E+02  0.45594000000E+02  0.51100000000E-03 0. -1.
    9900012    2    1    2    0    0  0.10793672904E+01 -0.26493794340E+00  0.39727563943E+00  0.90007723001E+02  0.89999984144E+02 0.  0.
         12    1    1    2    0    0 -0.10793672904E+01  0.26493794340E+00 -0.39727563943E+00  0.11802769993E+01  0.00000000000E+00 0. -1.
         11    1    3    3    0    0  0.16346954990E+02 -0.59454804351E+01  0.11437435022E+02  0.20817939264E+02  0.51100000000E-03 0. -1.
        -11    1    3    3    0    0 -0.50555547524E+01  0.30574412201E+02  0.12522490246E+02  0.33424034429E+02  0.51100000000E-03 0.  1.
         12    1    3    3    0    0 -0.10212032947E+02 -0.24893869710E+02 -0.23562649628E+02  0.35765749308E+02  0.00000000000E+00 0. -1.
</event>
<event>
 7    1  0.3276565E-015  0.9000779E+02  0.7816164E-02  0.1186339E+00
        -11   -1    0    0    0    0  0.00000000000E+00  0.00000000000E+00  0.45593999997E+02  0.45594000000E+02  0.51100000000E-03 0.  1.
         11   -1    0    0    0    0 -0.00000000000E+00 -0.00000000000E+00 -0.45593999997E+02  0.45594000000E+02  0.51100000000E-03 0. -1.
    9900012    2    1    2    0    0  0.24935750375E+00  0.10884798840E+01  0.38200265411E+00  0.90007790845E+02  0.90000052884E+02 0.  0.
         12    1    1    2    0    0 -0.24935750375E+00 -0.10884798840E+01 -0.38200265411E+00  0.11802091553E+01  0.00000000000E+00 0. -1.
         11    1    3    3    0    0 -0.31926821822E+01 -0.37445775796E+02 -0.30233298674E+01  0.37703048527E+02  0.51100000000E-03 0. -1.
        -11    1    3    3    0    0 -0.92053938075E+01 -0.20949527679E+01  0.23982510453E+01  0.97406216736E+01  0.51100000000E-03 0.  1.
        -12    1    3    3    0    0  0.12647433493E+02  0.40629208448E+02  0.10070814762E+01  0.42564120644E+02  0.00000000000E+00 0.  1.
</event>
<event>
 7    1  0.3276565E-015  0.9000771E+02  0.7816164E-02  0.1186339E+00
        -11   -1    0    0    0    0  0.00000000000E+00  0.00000000000E+00  0.45593999997E+02  0.45594000000E+02  0.51100000000E-03 0. -1.
         11   -1    0    0    0    0 -0.00000000000E+00 -0.00000000000E+00 -0.45593999997E+02  0.45594000000E+02  0.51100000000E-03 0.  1.
    9900012    2    1    2    0    0  0.42923726169E+00  0.48449902459E-01 -0.10984026151E+01  0.90007711762E+02  0.89999972757E+02 0.  0.
         12    1    1    2    0    0 -0.42923726169E+00 -0.48449902459E-01  0.10984026151E+01  0.11802882380E+01  0.00000000000E+00 0. -1.
         11    1    3    3    0    0 -0.78555223339E+01 -0.22335701809E+02  0.30659496346E+02  0.38737546681E+02  0.51100000000E-03 0. -1.
        -11    1    3    3    0    0 -0.75869751792E+01  0.64580041601E+01  0.25189214155E+01  0.10276817380E+02  0.51100000000E-03 0.  1.
        -12    1    3    3    0    0  0.15871734775E+02  0.15926147552E+02 -0.34276820376E+02  0.40993347701E+02  0.00000000000E+00 0.  1.
</event>
<event>
 7    1  0.3276565E-015  0.9000760E+02  0.7816164E-02  0.1186339E+00
        -11   -1    0    0    0    0  0.00000000000E+00  0.00000000000E+00  0.45593999997E+02  0.45594000000E+02  0.51100000000E-03 0. -1.
         11   -1    0    0    0    0 -0.00000000000E+00 -0.00000000000E+00 -0.45593999997E+02  0.45594000000E+02  0.51100000000E-03 0.  1.
    9900012    2    1    2    0    0  0.15989129341E+00 -0.97111207602E+00 -0.65170632862E+00  0.90007599632E+02  0.89999859147E+02 0.  0.
         12    1    1    2    0    0 -0.15989129341E+00  0.97111207602E+00  0.65170632862E+00  0.11804003679E+01  0.00000000000E+00 0. -1.
         11    1    3    3    0    0  0.30472641305E+02 -0.16590317055E+02  0.75459034307E+01  0.35507198523E+02  0.51100000000E-03 0. -1.
        -11    1    3    3    0    0  0.10232707040E+02  0.82122921028E+00 -0.44108775814E+01  0.11173117384E+02  0.51100000000E-03 0.  1.
        -12    1    3    3    0    0 -0.40545457052E+02  0.14797975769E+02 -0.37867321780E+01  0.43327283725E+02  0.00000000000E+00 0.  1.
</event>
<event>
 7    1  0.3276565E-015  0.9000789E+02  0.7816164E-02  0.1186339E+00
        -11   -1    0    0    0    0  0.00000000000E+00  0.00000000000E+00  0.45593999997E+02  0.45594000000E+02  0.51100000000E-03 0.  1.
         11   -1    0    0    0    0 -0.00000000000E+00 -0.00000000000E+00 -0.45593999997E+02  0.45594000000E+02  0.51100000000E-03 0. -1.
    9900012    2    1    2    0    0  0.81286464664E-01 -0.10568972325E+01  0.51867333356E+00  0.90007889295E+02  0.90000152633E+02 0.  0.
         12    1    1    2    0    0 -0.81286464664E-01  0.10568972325E+01 -0.51867333356E+00  0.11801107051E+01  0.00000000000E+00 0. -1.
         11    1    3    3    0    0 -0.99350273035E+01 -0.40527856029E+01  0.24149235199E+01  0.10998258705E+02  0.51100000000E-03 0. -1.
        -11    1    3    3    0    0 -0.19842137697E+02 -0.28917535743E+02 -0.37264972899E+01  0.35267847739E+02  0.51100000000E-03 0.  1.
         12    1    3    3    0    0  0.29858451465E+02  0.31913424114E+02  0.18302471036E+01  0.43741782851E+02  0.00000000000E+00 0. -1.
</event>
<event>
 7    1  0.3276565E-015  0.9000782E+02  0.7816164E-02  0.1186339E+00
        -11   -1    0    0    0    0  0.00000000000E+00  0.00000000000E+00  0.45593999997E+02  0.45594000000E+02  0.51100000000E-03 0.  1.
         11   -1    0    0    0    0 -0.00000000000E+00 -0.00000000000E+00 -0.45593999997E+02  0.45594000000E+02  0.51100000000E-03 0. -1.
    9900012    2    1    2    0    0 -0.91668282813E+00  0.10625351683E+00  0.73568521107E+00  0.90007817833E+02  0.90000080228E+02 0.  0.
         12    1    1    2    0    0  0.91668282813E+00 -0.10625351683E+00 -0.73568521107E+00  0.11801821669E+01  0.00000000000E+00 0. -1.
         11    1    3    3    0    0  0.86820096596E+01  0.37779987234E+02 -0.50650699904E+01  0.39094240770E+02  0.51100000000E-03 0. -1.
        -11    1    3    3    0    0  0.73027233980E+01  0.17876132677E+01 -0.45293231391E+00  0.75319637655E+01  0.51100000000E-03 0.  1.
        -12    1    3    3    0    0 -0.16901415886E+02 -0.39461346985E+02  0.62536875153E+01  0.43381613298E+02  0.00000000000E+00 0.  1.
</event>
<event>
 7    1  0.3276565E-015  0.9000778E+02  0.7816164E-02  0.1186339E+00
        -11   -1    0    0    0    0  0.00000000000E+00  0.00000000000E+00  0.45593999997E+02  0.45594000000E+02  0.51100000000E-03 0.  1.
         11   -1    0    0    0    0 -0.00000000000E+00 -0.00000000000E+00 -0.45593999997E+02  0.45594000000E+02  0.51100000000E-03 0. -1.
    9900012    2    1    2    0    0 -0.45636875891E+00  0.10685262171E+01  0.20709204335E+00  0.90007784835E+02  0.90000046795E+02 0.  0.
         12    1    1    2    0    0  0.45636875891E+00 -0.10685262171E+01 -0.20709204335E+00  0.11802151648E+01  0.00000000000E+00 0. -1.
         11    1    3    3    0    0 -0.32692965737E+02  0.36827659953E+01  0.24377595481E+02  0.40947038180E+02  0.51100000000E-03 0. -1.
        -11    1    3    3    0    0  0.95475482875E+00  0.81547432431E+01 -0.21223778127E+00  0.82131869138E+01  0.51100000000E-03 0.  1.
        -12    1    3    3    0    0  0.31281842149E+02 -0.10768983021E+02 -0.23958265656E+02  0.40847559741E+02  0.00000000000E+00 0.  1.
</event>
<event>
 7    1  0.3276565E-015  0.9000778E+02  0.7816164E-02  0.1186339E+00
        -11   -1    0    0    0    0  0.00000000000E+00  0.00000000000E+00  0.45593999997E+02  0.45594000000E+02  0.51100000000E-03 0. -1.
         11   -1    0    0    0    0 -0.00000000000E+00 -0.00000000000E+00 -0.45593999997E+02  0.45594000000E+02  0.51100000000E-03 0.  1.
    9900012    2    1    2    0    0  0.99867586851E+00 -0.15742395856E+00 -0.60891229165E+00  0.90007783930E+02  0.90000045878E+02 0.  0.
         12    1    1    2    0    0 -0.99867586851E+00  0.15742395856E+00  0.60891229165E+00  0.11802160700E+01  0.00000000000E+00 0. -1.
         11    1    3    3    0    0  0.90206668566E+00  0.33663361008E+01 -0.74426963834E+01  0.82182524156E+01  0.51100000000E-03 0. -1.
        -11    1    3    3    0    0  0.29107596038E+02 -0.10624722065E+02 -0.23750074415E+02  0.39041041239E+02  0.51100000000E-03 0.  1.
         12    1    3    3    0    0 -0.29010986855E+02  0.71009620054E+01  0.30583858506E+02  0.42748490276E+02  0.00000000000E+00 0. -1.
</event>
<event>
 7    1  0.3276565E-015  0.9000774E+02  0.7816164E-02  0.1186339E+00
        -11   -1    0    0    0    0  0.00000000000E+00  0.00000000000E+00  0.45593999997E+02  0.45594000000E+02  0.51100000000E-03 0.  1.
         11   -1    0    0    0    0 -0.00000000000E+00 -0.00000000000E+00 -0.45593999997E+02  0.45594000000E+02  0.51100000000E-03 0. -1.
    9900012    2    1    2    0    0 -0.36358544198E+00  0.10884735367E+01  0.27575453821E+00  0.90007741732E+02  0.90000003123E+02 0.  0.
         12    1    1    2    0    0  0.36358544198E+00 -0.10884735367E+01 -0.27575453821E+00  0.11802582679E+01  0.00000000000E+00 0. -1.
         11    1    3    3    0    0 -0.63365494173E+01  0.59213607236E+01 -0.10337811586E+02  0.13493877130E+02  0.51100000000E-03 0. -1.
        -11    1    3    3    0    0 -0.85352785919E+01  0.32970324973E+02  0.11690857104E+02  0.36007908153E+02  0.51100000000E-03 0.  1.
         12    1    3    3    0    0  0.14508242567E+02 -0.37803212160E+02 -0.10772909798E+01  0.40505956449E+02  0.00000000000E+00 0. -1.
</event>
<event>
 7    1  0.3276565E-015  0.9000798E+02  0.7816164E-02  0.1186339E+00
        -11   -1    0    0    0    0  0.00000000000E+00  0.00000000000E+00  0.45593999997E+02  0.45594000000E+02  0.51100000000E-03 0. -1.
         11   -1    0    0    0    0 -0.00000000000E+00 -0.00000000000E+00 -0.45593999997E+02  0.45594000000E+02  0.51100000000E-03 0.  1.
    9900012    2    1    2    0    0 -0.17199961912E+00 -0.11581451155E+01  0.14687195540E+00  0.90007976547E+02  0.90000241037E+02 0.  0.
         12    1    1    2    0    0  0.17199961912E+00  0.11581451155E+01 -0.14687195540E+00  0.11800234527E+01  0.00000000000E+00 0. -1.
         11    1    3    3    0    0 -0.30138053700E+02 -0.11461138519E+02 -0.26293673512E+02  0.41605495357E+02  0.51100000000E-03 0. -1.
        -11    1    3    3    0    0 -0.23319480156E+01  0.16820370085E+01  0.11380255723E+02  0.11737863972E+02  0.51100000000E-03 0.  1.
        -12    1    3    3    0    0  0.32298002096E+02  0.86209563949E+01  0.15060289744E+02  0.36664617218E+02  0.00000000000E+00 0.  1.
</event>
<event>
 7    1  0.3276565E-015  0.9000774E+02  0.7816164E-02  0.1186339E+00
        -11   -1    0    0    0    0  0.00000000000E+00  0.00000000000E+00  0.45593999997E+02  0.45594000000E+02  0.51100000000E-03 0. -1.
         11   -1    0    0    0    0 -0.00000000000E+00 -0.00000000000E+00 -0.45593999997E+02  0.45594000000E+02  0.51100000000E-03 0.  1.
    9900012    2    1    2    0    0  0.10202205893E+01  0.91438503014E-01 -0.58634154992E+00  0.90007742628E+02  0.90000004031E+02 0.  0.
         12    1    1    2    0    0 -0.10202205893E+01 -0.91438503014E-01  0.58634154992E+00  0.11802573719E+01  0.00000000000E+00 0. -1.
         11    1    3    3    0    0  0.80162102167E+01  0.27080540114E+02  0.27787383957E+02  0.39620120981E+02  0.51100000000E-03 0. -1.
        -11    1    3    3    0    0  0.66419050723E+01  0.39917730986E+01 -0.61689289338E+01  0.99047887363E+01  0.51100000000E-03 0.  1.
        -12    1    3    3    0    0 -0.13637894700E+02 -0.30980874710E+02 -0.22204796573E+02  0.40482832911E+02  0.00000000000E+00 0.  1.
</event>
<event>
 7    1  0.3276565E-015  0.9000735E+02  0.7816164E-02  0.1186340E+00
        -11   -1    0    0    0    0  0.00000000000E+00  0.00000000000E+00  0.45593999997E+02  0.45594000000E+02  0.51100000000E-03 0. -1.
         11   -1    0    0    0    0 -0.00000000000E+00 -0.00000000000E+00 -0.45593999997E+02  0.45594000000E+02  0.51100000000E-03 0.  1.
    9900012    2    1    2    0    0 -0.35153923686E+00 -0.47460258320E+00 -0.10223094214E+01  0.90007345944E+02  0.89999602110E+02 0.  0.
         12    1    1    2    0    0  0.35153923686E+00  0.47460258320E+00  0.10223094214E+01  0.11806540560E+01  0.00000000000E+00 0. -1.
         11    1    3    3    0    0  0.11137136249E+01 -0.89798246071E+01 -0.59448810815E+01  0.10826782502E+02  0.51100000000E-03 0. -1.
        -11    1    3    3    0    0  0.35088000825E+02  0.14429780786E+02 -0.10034272971E+02  0.39243763960E+02  0.51100000000E-03 0.  1.
         12    1    3    3    0    0 -0.36553253686E+02 -0.59245587618E+01  0.14956844631E+02  0.39936799482E+02  0.00000000000E+00 0. -1.
</event>
<event>
 7    1  0.3276565E-015  0.9000787E+02  0.7816164E-02  0.1186339E+00
        -11   -1    0    0    0    0  0.00000000000E+00  0.00000000000E+00  0.45593999997E+02  0.45594000000E+02  0.51100000000E-03 0. -1.
         11   -1    0    0    0    0 -0.00000000000E+00 -0.00000000000E+00 -0.45593999997E+02  0.45594000000E+02  0.51100000000E-03 0.  1.
    9900012    2    1    2    0    0  0.46337744248E+00 -0.87989375111E+00  0.63543517056E+00  0.90007868853E+02  0.90000131922E+02 0.  0.
         12    1    1    2    0    0 -0.46337744248E+00  0.87989375111E+00 -0.63543517056E+00  0.11801311467E+01  0.00000000000E+00 0. -1.
         11    1    3    3    0    0 -0.66392754220E+01  0.79498173918E+01 -0.42998682852E+01  0.11214653014E+02  0.51100000000E-03 0. -1.
        -11    1    3    3    0    0 -0.94494864891E+01  0.32161378639E+02  0.80595714891E+01  0.34476133248E+02  0.51100000000E-03 0.  1.
         12    1    3    3    0    0  0.16552139354E+02 -0.40991089782E+02 -0.31242680333E+01  0.44317082592E+02  0.00000000000E+00 0. -1.
</event>
<event>
 7    1  0.3276565E-015  0.9000789E+02  0.7816164E-02  0.1186339E+00
        -11   -1    0    0    0    0  0.00000000000E+00  0.00000000000E+00  0.45593999997E+02  0.45594000000E+02  0.51100000000E-03 0.  1.
         11   -1    0    0    0    0 -0.00000000000E+00 -0.00000000000E+00 -0.45593999997E+02  0.45594000000E+02  0.51100000000E-03 0. -1.
    9900012    2    1    2    0    0  0.20473668773E-02  0.40911908454E+00  0.11069246262E+01  0.90007887825E+02  0.90000151144E+02 0.  0.
         12    1    1    2    0    0 -0.20473668773E-02 -0.40911908454E+00 -0.11069246262E+01  0.11801121748E+01  0.00000000000E+00 0. -1.
         11    1    3    3    0    0 -0.85480989819E+00  0.20615263494E+02  0.24508037411E+02  0.32036911319E+02  0.51100000000E-03 0. -1.
        -11    1    3    3    0    0  0.18499080378E+02 -0.28036320201E+01  0.58786827058E+01  0.19612119670E+02  0.51100000000E-03 0.  1.
        -12    1    3    3    0    0 -0.17642223113E+02 -0.17402512389E+02 -0.29279795490E+02  0.38358856836E+02  0.00000000000E+00 0.  1.
</event>
<event>
 7    1  0.3276565E-015  0.9000772E+02  0.7816164E-02  0.1186339E+00
        -11   -1    0    0    0    0  0.00000000000E+00  0.00000000000E+00  0.45593999997E+02  0.45594000000E+02  0.51100000000E-03 0.  1.
         11   -1    0    0    0    0 -0.00000000000E+00 -0.00000000000E+00 -0.45593999997E+02  0.45594000000E+02  0.51100000000E-03 0. -1.
    9900012    2    1    2    0    0  0.10621613671E+01 -0.47709243000E+00 -0.19303321966E+00  0.90007717923E+02  0.89999979000E+02 0.  0.
         12    1    1    2    0    0 -0.10621613671E+01  0.47709243000E+00  0.19303321966E+00  0.11802820766E+01  0.00000000000E+00 0. -1.
         11    1    3    3    0    0  0.30862768901E+01 -0.68229511816E+01  0.12744985968E+02  0.14782166129E+02  0.51100000000E-03 0. -1.
        -11    1    3    3    0    0  0.32519509352E+02  0.19478055875E+01  0.93354459767E+01  0.33888980317E+02  0.51100000000E-03 0.  1.
         12    1    3    3    0    0 -0.34543624875E+02  0.43980531640E+01 -0.22273465164E+02  0.41336571478E+02  0.00000000000E+00 0. -1.
</event>
<event>
 7    1  0.3276565E-015  0.9000779E+02  0.7816164E-02  0.1186339E+00
        -11   -1    0    0    0    0  0.00000000000E+00  0.00000000000E+00  0.45593999997E+02  0.45594000000E+02  0.51100000000E-03 0. -1.
         11   -1    0    0    0    0 -0.00000000000E+00 -0.00000000000E+00 -0.45593999997E+02  0.45594000000E+02  0.51100000000E-03 0.  1.
    9900012    2    1    2    0    0 -0.24773695051E+00 -0.72906416271E+00 -0.89442675978E+00  0.90007785029E+02  0.90000046991E+02 0.  0.
         12    1    1    2    0    0  0.24773695051E+00  0.72906416271E+00  0.89442675978E+00  0.11802149714E+01  0.00000000000E+00 0. -1.
         11    1    3    3    0    0  0.23977626283E+01  0.92058980736E+01 -0.93442502223E+01  0.13334648006E+02  0.51100000000E-03 0. -1.
        -11    1    3    3    0    0 -0.21496897337E+02  0.12881069763E+02 -0.22622515052E+02  0.33761172090E+02  0.51100000000E-03 0.  1.
         12    1    3    3    0    0  0.18851397758E+02 -0.22816032000E+02  0.31072338514E+02  0.42911964933E+02  0.00000000000E+00 0. -1.
</event>
<event>
 7    1  0.3276565E-015  0.9000743E+02  0.7816164E-02  0.1186340E+00
        -11   -1    0    0    0    0  0.00000000000E+00  0.00000000000E+00  0.45593999997E+02  0.45594000000E+02  0.51100000000E-03 0.  1.
         11   -1    0    0    0    0 -0.00000000000E+00 -0.00000000000E+00 -0.45593999997E+02  0.45594000000E+02  0.51100000000E-03 0. -1.
    9900012    2    1    2    0    0 -0.10069846016E+01 -0.15851574107E+00  0.59547418926E+00  0.90007434568E+02  0.89999691904E+02 0.  0.
         12    1    1    2    0    0  0.10069846016E+01  0.15851574107E+00 -0.59547418926E+00  0.11805654315E+01  0.00000000000E+00 0. -1.
         11    1    3    3    0    0  0.70960069627E+00 -0.51592398808E+01  0.92833730805E+01  0.10644355561E+02  0.51100000000E-03 0. -1.
        -11    1    3    3    0    0  0.27466957447E+02 -0.15616334619E+02  0.16501244545E+02  0.35645402650E+02  0.51100000000E-03 0.  1.
         12    1    3    3    0    0 -0.29183542745E+02  0.20617058759E+02 -0.25189143436E+02  0.43717676357E+02  0.00000000000E+00 0. -1.
</event>
<event>
 7    1  0.3276565E-015  0.9000758E+02  0.7816164E-02  0.1186339E+00
        -11   -1    0    0    0    0  0.00000000000E+00  0.00000000000E+00  0.45593999997E+02  0.45594000000E+02  0.51100000000E-03 0. -1.
         11   -1    0    0    0    0 -0.00000000000E+00 -0.00000000000E+00 -0.45593999997E+02  0.45594000000E+02  0.51100000000E-03 0.  1.
    9900012    2    1    2    0    0 -0.45618115195E+00  0.10733498365E+01 -0.18222808743E+00  0.90007581349E+02  0.89999840623E+02 0.  0.
         12    1    1    2    0    0  0.45618115195E+00 -0.10733498365E+01  0.18222808743E+00  0.11804186506E+01  0.00000000000E+00 0. -1.
         11    1    3    3    0    0 -0.40030829941E+01 -0.53831854207E+01  0.87522794856E+01  0.11027499952E+02  0.51100000000E-03 0. -1.
        -11    1    3    3    0    0 -0.29749535641E+02 -0.31569623017E+01 -0.26643735878E+02  0.40061077665E+02  0.51100000000E-03 0.  1.
         12    1    3    3    0    0  0.33296437484E+02  0.96134975589E+01  0.17709228305E+02  0.38919003733E+02  0.00000000000E+00 0. -1.
</event>
<event>
 7    1  0.3276565E-015  0.9000783E+02  0.7816164E-02  0.1186339E+00
        -11   -1    0    0    0    0  0.00000000000E+00  0.00000000000E+00  0.45593999997E+02  0.45594000000E+02  0.51100000000E-03 0. -1.
         11   -1    0    0    0    0 -0.00000000000E+00 -0.00000000000E+00 -0.45593999997E+02  0.45594000000E+02  0.51100000000E-03 0.  1.
    9900012    2    1    2    0    0  0.43706647464E+00 -0.95122898526E+00 -0.54492166266E+00  0.90007829121E+02  0.90000091665E+02 0.  0.
         12    1    1    2    0    0 -0.43706647464E+00  0.95122898526E+00  0.54492166266E+00  0.11801708792E+01  0.00000000000E+00 0. -1.
         11    1    3    3    0    0  0.25584287840E+02 -0.26084329992E+01 -0.27243422609E+02  0.37464166649E+02  0.51100000000E-03 0. -1.
        -11    1    3    3    0    0 -0.21596593609E+01 -0.25866047479E+01 -0.91478968137E+01  0.97487778235E+01  0.51100000000E-03 0.  1.
        -12    1    3    3    0    0 -0.22987562004E+02  0.42438087619E+01  0.35846397760E+02  0.42794884648E+02  0.00000000000E+00 0.  1.
</event>
<event>
 7    1  0.3276565E-015  0.9000759E+02  0.7816164E-02  0.1186339E+00
        -11   -1    0    0    0    0  0.00000000000E+00  0.00000000000E+00  0.45593999997E+02  0.45594000000E+02  0.51100000000E-03 0.  1.
         11   -1    0    0    0    0 -0.00000000000E+00 -0.00000000000E+00 -0.45593999997E+02  0.45594000000E+02  0.51100000000E-03 0. -1.
    9900012    2    1    2    0    0 -0.30670252334E+00 -0.11397593684E+01 -0.15993700186E-01  0.90007587507E+02  0.89999846862E+02 0.  0.
         12    1    1    2    0    0  0.30670252334E+00  0.11397593684E+01  0.15993700186E-01  0.11804124933E+01  0.00000000000E+00 0. -1.
         11    1    3    3    0    0  0.70034006768E+01  0.30530887513E+01  0.15533217339E+01  0.77962670961E+01  0.51100000000E-03 0. -1.
        -11    1    3    3    0    0  0.13942625435E+02 -0.10527634524E+01  0.36173917941E+02  0.38782179598E+02  0.51100000000E-03 0.  1.
         12    1    3    3    0    0 -0.21252728635E+02 -0.31400846673E+01 -0.37743233375E+02  0.43429140813E+02  0.00000000000E+00 0. -1.
</event>
<event>
 7    1  0.3276565E-015  0.9000763E+02  0.7816164E-02  0.1186339E+00
        -11   -1    0    0    0    0  0.00000000000E+00  0.00000000000E+00  0.45593999997E+02  0.45594000000E+02  0.51100000000E-03 0. -1.
         11   -1    0    0    0    0 -0.00000000000E+00 -0.00000000000E+00 -0.45593999997E+02  0.45594000000E+02  0.51100000000E-03 0.  1.
    9900012    2    1    2    0    0  0.10387944316E+01  0.47177209223E+00 -0.30265681433E+00  0.90007633987E+02  0.89999893955E+02 0.  0.
         12    1    1    2    0    0 -0.10387944316E+01 -0.47177209223E+00  0.30265681433E+00  0.11803660133E+01  0.00000000000E+00 0. -1.
         11    1    3    3    0    0 -0.15439695907E+01  0.22495076913E+01  0.53290830359E+01  0.59869235184E+01  0.51100000000E-03 0. -1.
        -11    1    3    3    0    0  0.11234328583E+02  0.32737674180E+02 -0.25753986831E+02  0.43142013019E+02  0.51100000000E-03 0.  1.
         12    1    3    3    0    0 -0.86515645604E+01 -0.34515409779E+02  0.20122246981E+02  0.40878697449E+02  0.00000000000E+00 0. -1.
</event>
<event>
 7    1  0.3276565E-015  0.9000645E+02  0.7816164E-02  0.1186342E+00
        -11   -1    0    0    0    0  0.00000000000E+00  0.00000000000E+00  0.45593999997E+02  0.45594000000E+02  0.51100000000E-03 0. -1.
         11   -1    0    0    0    0 -0.00000000000E+00 -0.00000000000E+00 -0.45593999997E+02  0.45594000000E+02  0.51100000000E-03 0.  1.
    9900012    2    1    2    0    0 -0.74949038113E+00 -0.80800772897E+00  0.42597470986E+00  0.90006447303E+02  0.89998691598E+02 0.  0.
         12    1    1    2    0    0  0.74949038113E+00  0.80800772897E+00 -0.42597470986E+00  0.11815526966E+01  0.00000000000E+00 0. -1.
         11    1    3    3    0    0  0.33265190315E+02  0.65117603316E+00  0.17386537547E+02  0.37540492871E+02  0.51100000000E-03 0. -1.
        -11    1    3    3    0    0  0.61652360702E+01  0.62005559685E+01 -0.31396929070E+01  0.92905705924E+01  0.51100000000E-03 0.  1.
        -12    1    3    3    0    0 -0.40179916766E+02 -0.76597397306E+01 -0.13820869930E+02  0.43175383840E+02  0.00000000000E+00 0.  1.
</event>
<event>
 7    1  0.3276565E-015  0.9000770E+02  0.7816164E-02  0.1186339E+00
        -11   -1    0    0    0    0  0.00000000000E+00  0.00000000000E+00  0.45593999997E+02  0.45594000000E+02  0.51100000000E-03 0. -1.
         11   -1    0    0    0    0 -0.00000000000E+00 -0.00000000000E+00 -0.45593999997E+02  0.45594000000E+02  0.51100000000E-03 0.  1.
    9900012    2    1    2    0    0 -0.23954818809E+00  0.26842062816E+00 -0.11241359718E+01  0.90007697221E+02  0.89999958024E+02 0.  0.
         12    1    1    2    0    0  0.23954818809E+00 -0.26842062816E+00  0.11241359718E+01  0.11803027795E+01  0.00000000000E+00 0. -1.
         11    1    3    3    0    0 -0.84632850317E+01  0.34769642905E+01 -0.30333752628E+01  0.96393900197E+01  0.51100000000E-03 0. -1.
        -11    1    3    3    0    0 -0.39451084484E+01  0.37142785977E+02 -0.49129285374E+01  0.37673429601E+02  0.51100000000E-03 0.  1.
         12    1    3    3    0    0  0.12168845292E+02 -0.40351329639E+02  0.68221678284E+01  0.42694877600E+02  0.00000000000E+00 0. -1.
</event>
<event>
 7    1  0.3276565E-015  0.9000754E+02  0.7816164E-02  0.1186339E+00
        -11   -1    0    0    0    0  0.00000000000E+00  0.00000000000E+00  0.45593999997E+02  0.45594000000E+02  0.51100000000E-03 0. -1.
         11   -1    0    0    0    0 -0.00000000000E+00 -0.00000000000E+00 -0.45593999997E+02  0.45594000000E+02  0.51100000000E-03 0.  1.
    9900012    2    1    2    0    0 -0.29853852905E+00 -0.86489809620E+00 -0.74585889934E+00  0.90007542687E+02  0.89999801450E+02 0.  0.
         12    1    1    2    0    0  0.29853852905E+00  0.86489809620E+00  0.74585889934E+00  0.11804573130E+01  0.00000000000E+00 0. -1.
         11    1    3    3    0    0 -0.16853502504E+02 -0.33496708423E+02 -0.27140995727E+01  0.37595696011E+02  0.51100000000E-03 0. -1.
        -11    1    3    3    0    0  0.14652778762E+02 -0.71968542080E+00 -0.90484196798E+01  0.17236466330E+02  0.51100000000E-03 0.  1.
        -12    1    3    3    0    0  0.19021852124E+01  0.33351495747E+02  0.11016660353E+02  0.35175380346E+02  0.00000000000E+00 0.  1.
</event>
<event>
 7    1  0.3276565E-015  0.9000775E+02  0.7816164E-02  0.1186339E+00
        -11   -1    0    0    0    0  0.00000000000E+00  0.00000000000E+00  0.45593999997E+02  0.45594000000E+02  0.51100000000E-03 0.  1.
         11   -1    0    0    0    0 -0.00000000000E+00 -0.00000000000E+00 -0.45593999997E+02  0.45594000000E+02  0.51100000000E-03 0. -1.
    9900012    2    1    2    0    0  0.39389240896E+00  0.88529436819E+00  0.67387075596E+00  0.90007746153E+02  0.90000007602E+02 0.  0.
         12    1    1    2    0    0 -0.39389240896E+00 -0.88529436819E+00 -0.67387075596E+00  0.11802538472E+01  0.00000000000E+00 0. -1.
         11    1    3    3    0    0 -0.88189621290E+01 -0.48745638499E+01  0.51983350206E+00  0.10089880717E+02  0.51100000000E-03 0. -1.
        -11    1    3    3    0    0 -0.17188799318E+02 -0.17820762127E+02  0.26140071440E+02  0.36004690249E+02  0.51100000000E-03 0.  1.
         12    1    3    3    0    0  0.26401653856E+02  0.23580620345E+02 -0.25986034186E+02  0.43913175186E+02  0.00000000000E+00 0. -1.
</event>
<event>
 7    1  0.3276565E-015  0.9000779E+02  0.7816164E-02  0.1186339E+00
        -11   -1    0    0    0    0  0.00000000000E+00  0.00000000000E+00  0.45593999997E+02  0.45594000000E+02  0.51100000000E-03 0.  1.
         11   -1    0    0    0    0 -0.00000000000E+00 -0.00000000000E+00 -0.45593999997E+02  0.45594000000E+02  0.51100000000E-03 0. -1.
    9900012    2    1    2    0    0 -0.57296060927E+00  0.12120779668E+00  0.10246539829E+01  0.90007791978E+02  0.90000054032E+02 0.  0.
         12    1    1    2    0    0  0.57296060927E+00 -0.12120779668E+00 -0.10246539829E+01  0.11802080217E+01  0.00000000000E+00 0. -1.
         11    1    3    3    0    0  0.54578119938E+01 -0.46751483664E+01  0.36637200087E+01  0.80664470847E+01  0.51100000000E-03 0. -1.
        -11    1    3    3    0    0  0.29538959194E+02  0.63586875553E+01  0.23078046308E+02  0.38020773787E+02  0.51100000000E-03 0.  1.
         12    1    3    3    0    0 -0.35569731797E+02 -0.15623313922E+01 -0.25717112334E+02  0.43920571106E+02  0.00000000000E+00 0. -1.
</event>
<event>
 7    1  0.3276565E-015  0.9000802E+02  0.7816164E-02  0.1186338E+00
        -11   -1    0    0    0    0  0.00000000000E+00  0.00000000000E+00  0.45593999997E+02  0.45594000000E+02  0.51100000000E-03 0. -1.
         11   -1    0    0    0    0 -0.00000000000E+00 -0.00000000000E+00 -0.45593999997E+02  0.45594000000E+02  0.51100000000E-03 0.  1.
    9900012    2    1    2    0    0  0.21575996672E-01 -0.13163334330E+00 -0.11724149277E+01  0.90008021346E+02  0.90000286427E+02 0.  0.
         12    1    1    2    0    0 -0.21575996672E-01  0.13163334330E+00  0.11724149277E+01  0.11799786538E+01  0.00000000000E+00 0. -1.
         11    1    3    3    0    0 -0.16386526181E+02  0.94099540963E+01 -0.58365151641E+01  0.19777016608E+02  0.51100000000E-03 0. -1.
        -11    1    3    3    0    0 -0.34787844481E+00  0.15566191843E+01 -0.30064129692E+02  0.30106410897E+02  0.51100000000E-03 0.  1.
         12    1    3    3    0    0  0.16755980623E+02 -0.11098206624E+02  0.34728229929E+02  0.40124593841E+02  0.00000000000E+00 0. -1.
</event>
<event>
 7    1  0.3276565E-015  0.9000776E+02  0.7816164E-02  0.1186339E+00
        -11   -1    0    0    0    0  0.00000000000E+00  0.00000000000E+00  0.45593999997E+02  0.45594000000E+02  0.51100000000E-03 0.  1.
         11   -1    0    0    0    0 -0.00000000000E+00 -0.00000000000E+00 -0.45593999997E+02  0.45594000000E+02  0.51100000000E-03 0. -1.
    9900012    2    1    2    0    0 -0.30323315487E+00 -0.10750017857E+01  0.38129189987E+00  0.90007761593E+02  0.90000023246E+02 0.  0.
         12    1    1    2    0    0  0.30323315487E+00  0.10750017857E+01 -0.38129189987E+00  0.11802384074E+01  0.00000000000E+00 0. -1.
         11    1    3    3    0    0  0.31658424183E+01  0.54385258685E+01 -0.80742318563E+01  0.10236861930E+02  0.51100000000E-03 0. -1.
        -11    1    3    3    0    0  0.36127685601E+02 -0.18726412182E+01  0.15373635058E+02  0.39307316204E+02  0.51100000000E-03 0.  1.
         12    1    3    3    0    0 -0.39596761174E+02 -0.46408864360E+01 -0.69181113017E+01  0.40463583459E+02  0.00000000000E+00 0. -1.
</event>
<event>
 7    1  0.3276565E-015  0.9000771E+02  0.7816164E-02  0.1186339E+00
        -11   -1    0    0    0    0  0.00000000000E+00  0.00000000000E+00  0.45593999997E+02  0.45594000000E+02  0.51100000000E-03 0.  1.
         11   -1    0    0    0    0 -0.00000000000E+00 -0.00000000000E+00 -0.45593999997E+02  0.45594000000E+02  0.51100000000E-03 0. -1.
    9900012    2    1    2    0    0  0.87863653110E+00 -0.26446343653E+00  0.74239032857E+00  0.90007709162E+02  0.89999970123E+02 0.  0.
         12    1    1    2    0    0 -0.87863653110E+00  0.26446343653E+00 -0.74239032857E+00  0.11802908383E+01  0.00000000000E+00 0. -1.
         11    1    3    3    0    0  0.53251914961E+01 -0.29728455636E+01  0.59735884688E+01  0.85369335637E+01  0.51100000000E-03 0. -1.
        -11    1    3    3    0    0  0.19918190350E+01 -0.68749003161E+01  0.37002018322E+02  0.37687941806E+02  0.51100000000E-03 0.  1.
         12    1    3    3    0    0 -0.64383739999E+01  0.95832824431E+01 -0.42233216462E+02  0.43782833792E+02  0.00000000000E+00 0. -1.
</event>
<event>
 7    1  0.3276565E-015  0.9000756E+02  0.7816164E-02  0.1186339E+00
        -11   -1    0    0    0    0  0.00000000000E+00  0.00000000000E+00  0.45593999997E+02  0.45594000000E+02  0.51100000000E-03 0. -1.
         11   -1    0    0    0    0 -0.00000000000E+00 -0.00000000000E+00 -0.45593999997E+02  0.45594000000E+02  0.51100000000E-03 0.  1.
    9900012    2    1    2    0    0  0.11223630246E+01  0.34551789827E+00  0.11984007876E+00  0.90007558124E+02  0.89999817092E+02 0.  0.
         12    1    1    2    0    0 -0.11223630246E+01 -0.34551789827E+00 -0.11984007876E+00  0.11804418756E+01  0.00000000000E+00 0. -1.
         11    1    3    3    0    0  0.40246728235E+01  0.50034069852E+01 -0.62622936249E+01  0.89693028994E+01  0.51100000000E-03 0. -1.
        -11    1    3    3    0    0  0.74252025551E+01  0.13109450436E+02 -0.33189162945E+02  0.36448756645E+02  0.51100000000E-03 0.  1.
         12    1    3    3    0    0 -0.10327512354E+02 -0.17767339523E+02  0.39571296649E+02  0.44589498580E+02  0.00000000000E+00 0. -1.
</event>
<event>
 7    1  0.3276565E-015  0.9000778E+02  0.7816164E-02  0.1186339E+00
        -11   -1    0    0    0    0  0.00000000000E+00  0.00000000000E+00  0.45593999997E+02  0.45594000000E+02  0.51100000000E-03 0.  1.
         11   -1    0    0    0    0 -0.00000000000E+00 -0.00000000000E+00 -0.45593999997E+02  0.45594000000E+02  0.51100000000E-03 0. -1.
    9900012    2    1    2    0    0 -0.84931826744E+00 -0.81120244041E+00  0.11636094670E+00  0.90007775111E+02  0.90000036942E+02 0.  0.
         12    1    1    2    0    0  0.84931826744E+00  0.81120244041E+00 -0.11636094670E+00  0.11802248890E+01  0.00000000000E+00 0. -1.
         11    1    3    3    0    0  0.35175769222E+01 -0.29693168086E+02 -0.19784180120E+02  0.35853470706E+02  0.51100000000E-03 0. -1.
        -11    1    3    3    0    0 -0.64437829883E+01 -0.74755266861E+01 -0.39411159506E+01  0.10627240170E+02  0.51100000000E-03 0.  1.
        -12    1    3    3    0    0  0.20768877987E+01  0.36357492332E+02  0.23841657017E+02  0.43527064235E+02  0.00000000000E+00 0.  1.
</event>
<event>
 7    1  0.3276565E-015  0.9000776E+02  0.7816164E-02  0.1186339E+00
        -11   -1    0    0    0    0  0.00000000000E+00  0.00000000000E+00  0.45593999997E+02  0.45594000000E+02  0.51100000000E-03 0. -1.
         11   -1    0    0    0    0 -0.00000000000E+00 -0.00000000000E+00 -0.45593999997E+02  0.45594000000E+02  0.51100000000E-03 0.  1.
    9900012    2    1    2    0    0 -0.39037665694E+00 -0.10634266022E+01 -0.33121521028E+00  0.90007756979E+02  0.90000018571E+02 0.  0.
         12    1    1    2    0    0  0.39037665694E+00  0.10634266022E+01  0.33121521028E+00  0.11802430208E+01  0.00000000000E+00 0. -1.
         11    1    3    3    0    0  0.14010630772E+02 -0.38324289135E+02  0.10998393705E+02  0.42261253846E+02  0.51100000000E-03 0. -1.
        -11    1    3    3    0    0 -0.42675833934E+01  0.37024105758E+01  0.63382685804E+01  0.84908044937E+01  0.51100000000E-03 0.  1.
        -12    1    3    3    0    0 -0.10133424036E+02  0.33558451957E+02 -0.17667877496E+02  0.39255698639E+02  0.00000000000E+00 0.  1.
</event>
<event>
 7    1  0.3276565E-015  0.9000774E+02  0.7816164E-02  0.1186339E+00
        -11   -1    0    0    0    0  0.00000000000E+00  0.00000000000E+00  0.45593999997E+02  0.45594000000E+02  0.51100000000E-03 0.  1.
         11   -1    0    0    0    0 -0.00000000000E+00 -0.00000000000E+00 -0.45593999997E+02  0.45594000000E+02  0.51100000000E-03 0. -1.
    9900012    2    1    2    0    0  0.24718314225E+00  0.86301882369E+00  0.76623875242E+00  0.90007736122E+02  0.89999997439E+02 0.  0.
         12    1    1    2    0    0 -0.24718314225E+00 -0.86301882369E+00 -0.76623875242E+00  0.11802638779E+01  0.00000000000E+00 0. -1.
         11    1    3    3    0    0  0.95804918943E+01  0.28578767639E+02 -0.20077842132E+02  0.36216729969E+02  0.51100000000E-03 0.  1.
        -11    1    3    3    0    0  0.81213471819E+01 -0.25748876141E+01 -0.80349790449E+01  0.11710986926E+02  0.51100000000E-03 0. -1.
        -12    1    3    3    0    0 -0.17454655934E+02 -0.25140861201E+02  0.28879059929E+02  0.42080019227E+02  0.00000000000E+00 0.  1.
</event>
<event>
 7    1  0.3276565E-015  0.9000780E+02  0.7816164E-02  0.1186339E+00
        -11   -1    0    0    0    0  0.00000000000E+00  0.00000000000E+00  0.45593999997E+02  0.45594000000E+02  0.51100000000E-03 0. -1.
         11   -1    0    0    0    0 -0.00000000000E+00 -0.00000000000E+00 -0.45593999997E+02  0.45594000000E+02  0.51100000000E-03 0.  1.
    9900012    2    1    2    0    0  0.18908767522E+00  0.38857333980E+00 -0.10982362294E+01  0.90007802472E+02  0.90000064665E+02 0.  0.
         12    1    1    2    0    0 -0.18908767522E+00 -0.38857333980E+00  0.10982362294E+01  0.11801975279E+01  0.00000000000E+00 0. -1.
         11    1    3    3    0    0 -0.20262970663E+01 -0.10448969425E+02 -0.40833863580E+01  0.11400038871E+02  0.51100000000E-03 0. -1.
        -11    1    3    3    0    0  0.29517970133E+02  0.28420418426E+02 -0.12206750352E+02  0.42755531791E+02  0.51100000000E-03 0.  1.
         12    1    3    3    0    0 -0.27302585392E+02 -0.17582875661E+02  0.15191900481E+02  0.35852231811E+02  0.00000000000E+00 0. -1.
</event>
<event>
 7    1  0.3276565E-015  0.9000683E+02  0.7816164E-02  0.1186341E+00
        -11   -1    0    0    0    0  0.00000000000E+00  0.00000000000E+00  0.45593999997E+02  0.45594000000E+02  0.51100000000E-03 0. -1.
         11   -1    0    0    0    0 -0.00000000000E+00 -0.00000000000E+00 -0.45593999997E+02  0.45594000000E+02  0.51100000000E-03 0.  1.
    9900012    2    1    2    0    0 -0.45270077635E+00 -0.27733442576E+00 -0.10551381116E+01  0.90006827358E+02  0.89999076674E+02 0.  0.
         12    1    1    2    0    0  0.45270077635E+00  0.27733442576E+00  0.10551381116E+01  0.11811726424E+01  0.00000000000E+00 0. -1.
         11    1    3    3    0    0  0.41888611266E+01  0.11433296711E+02 -0.10303303311E+01  0.12220000494E+02  0.51100000000E-03 0. -1.
        -11    1    3    3    0    0  0.27209413259E+02  0.14201004864E+02 -0.14897154574E+02  0.34116651707E+02  0.51100000000E-03 0.  1.
         12    1    3    3    0    0 -0.31850975162E+02 -0.25911636001E+02  0.14872346793E+02  0.43670175156E+02  0.00000000000E+00 0. -1.
</event>
<event>
 7    1  0.3276565E-015  0.9000772E+02  0.7816164E-02  0.1186339E+00
        -11   -1    0    0    0    0  0.00000000000E+00  0.00000000000E+00  0.45593999997E+02  0.45594000000E+02  0.51100000000E-03 0. -1.
         11   -1    0    0    0    0 -0.00000000000E+00 -0.00000000000E+00 -0.45593999997E+02  0.45594000000E+02  0.51100000000E-03 0.  1.
    9900012    2    1    2    0    0  0.50747850523E+00  0.10562713366E+01  0.14077110750E+00  0.90007720341E+02  0.89999981449E+02 0.  0.
         12    1    1    2    0    0 -0.50747850523E+00 -0.10562713366E+01 -0.14077110750E+00  0.11802796594E+01  0.00000000000E+00 0. -1.
         11    1    3    3    0    0 -0.21123272708E+02 -0.19112390477E+02  0.90709864110E+00  0.28500858721E+02  0.51100000000E-03 0. -1.
        -11    1    3    3    0    0  0.10613452699E+02 -0.17566516607E+02  0.65036813486E+01  0.21529648284E+02  0.51100000000E-03 0.  1.
         12    1    3    3    0    0  0.11017298514E+02  0.37735178420E+02 -0.72700088822E+01  0.39977213336E+02  0.00000000000E+00 0. -1.
</event>
<event>
 7    1  0.3276565E-015  0.9000776E+02  0.7816164E-02  0.1186339E+00
        -11   -1    0    0    0    0  0.00000000000E+00  0.00000000000E+00  0.45593999997E+02  0.45594000000E+02  0.51100000000E-03 0.  1.
         11   -1    0    0    0    0 -0.00000000000E+00 -0.00000000000E+00 -0.45593999997E+02  0.45594000000E+02  0.51100000000E-03 0. -1.
    9900012    2    1    2    0    0 -0.58526761465E+00 -0.14690805968E+00  0.10143251525E+01  0.90007756096E+02  0.90000017676E+02 0.  0.
         12    1    1    2    0    0  0.58526761465E+00  0.14690805968E+00 -0.10143251525E+01  0.11802439044E+01  0.00000000000E+00 0. -1.
         11    1    3    3    0    0 -0.24708820795E+02  0.20830004118E+02 -0.21198882527E+02  0.38649806174E+02  0.51100000000E-03 0. -1.
        -11    1    3    3    0    0  0.60899681324E+01  0.57190444547E+01 -0.45162148264E+01  0.94969141276E+01  0.51100000000E-03 0.  1.
        -12    1    3    3    0    0  0.18033585048E+02 -0.26695956633E+02  0.26729422506E+02  0.41861035794E+02  0.00000000000E+00 0.  1.
</event>
<event>
 7    1  0.3276565E-015  0.9000775E+02  0.7816164E-02  0.1186339E+00
        -11   -1    0    0    0    0  0.00000000000E+00  0.00000000000E+00  0.45593999997E+02  0.45594000000E+02  0.51100000000E-03 0.  1.
         11   -1    0    0    0    0 -0.00000000000E+00 -0.00000000000E+00 -0.45593999997E+02  0.45594000000E+02  0.51100000000E-03 0. -1.
    9900012    2    1    2    0    0 -0.72785649242E+00  0.92835395534E+00  0.37007464527E-01  0.90007751851E+02  0.90000013376E+02 0.  0.
         12    1    1    2    0    0  0.72785649242E+00 -0.92835395534E+00 -0.37007464527E-01  0.11802481486E+01  0.00000000000E+00 0. -1.
         11    1    3    3    0    0  0.89776563350E+01 -0.12072000916E+01  0.18098743036E+01  0.92374937394E+01  0.51100000000E-03 0. -1.
        -11    1    3    3    0    0  0.18774109093E+01  0.18630015814E+02  0.34511497286E+02  0.39263795106E+02  0.51100000000E-03 0.  1.
         12    1    3    3    0    0 -0.11582923737E+02 -0.16494461767E+02 -0.36284364125E+02  0.41506463006E+02  0.00000000000E+00 0. -1.
</event>
<event>
 7    1  0.3279017E-015  0.9000773E+02  0.7816164E-02  0.1186339E+00
        -11   -1    0    0    0    0  0.00000000000E+00  0.00000000000E+00  0.45593999997E+02  0.45594000000E+02  0.51100000000E-03 0. -1.
         11   -1    0    0    0    0 -0.00000000000E+00 -0.00000000000E+00 -0.45593999997E+02  0.45594000000E+02  0.51100000000E-03 0.  1.
    9900012    2    1    2    0    0 -0.71666417338E+00 -0.93746279587E+00  0.24391532552E-01  0.90007729278E+02  0.89999990504E+02 0.  0.
         12    1    1    2    0    0  0.71666417338E+00  0.93746279587E+00 -0.24391532552E-01  0.11802707223E+01  0.00000000000E+00 0. -1.
         11    1    3    3    0    0  0.27139186285E+01 -0.29886649039E+01 -0.87260535576E+01  0.96146494050E+01  0.51100000000E-03 0. -1.
        -11    1    3    3    0    0 -0.75052778479E+01 -0.22366476811E+02 -0.27665952336E+02  0.36359227157E+02  0.51100000000E-03 0.  1.
         12    1    3    3    0    0  0.40746950460E+01  0.24417678919E+02  0.36416397426E+02  0.44033852716E+02  0.00000000000E+00 0. -1.
</event>
<event>
 7    1  0.3276565E-015  0.9000769E+02  0.7816164E-02  0.1186339E+00
        -11   -1    0    0    0    0  0.00000000000E+00  0.00000000000E+00  0.45593999997E+02  0.45594000000E+02  0.51100000000E-03 0.  1.
         11   -1    0    0    0    0 -0.00000000000E+00 -0.00000000000E+00 -0.45593999997E+02  0.45594000000E+02  0.51100000000E-03 0. -1.
    9900012    2    1    2    0    0  0.12346241990E+00 -0.13994533318E+00  0.11654627695E+01  0.90007690239E+02  0.89999950950E+02 0.  0.
         12    1    1    2    0    0 -0.12346241990E+00  0.13994533318E+00 -0.11654627695E+01  0.11803097612E+01  0.00000000000E+00 0. -1.
         11    1    3    3    0    0 -0.85771463489E+01  0.17348039787E+02 -0.16065711255E+02  0.25152117253E+02  0.51100000000E-03 0.  1.
        -11    1    3    3    0    0  0.15736998673E+02  0.11730795760E+02  0.26886268864E+02  0.33288679008E+02  0.51100000000E-03 0. -1.
        -12    1    3    3    0    0 -0.70363899045E+01 -0.29218780880E+02 -0.96550948394E+01  0.31566893977E+02  0.00000000000E+00 0.  1.
</event>
<event>
 7    1  0.3276565E-015  0.9000768E+02  0.7816164E-02  0.1186339E+00
        -11   -1    0    0    0    0  0.00000000000E+00  0.00000000000E+00  0.45593999997E+02  0.45594000000E+02  0.51100000000E-03 0.  1.
         11   -1    0    0    0    0 -0.00000000000E+00 -0.00000000000E+00 -0.45593999997E+02  0.45594000000E+02  0.51100000000E-03 0. -1.
    9900012    2    1    2    0    0 -0.11108254026E+01 -0.33369263979E+00  0.21877969020E+00  0.90007682922E+02  0.89999943536E+02 0.  0.
         12    1    1    2    0    0  0.11108254026E+01  0.33369263979E+00 -0.21877969020E+00  0.11803170785E+01  0.00000000000E+00 0. -1.
         11    1    3    3    0    0 -0.46857487524E+01  0.12026923574E+02  0.17892483455E+02  0.22062277681E+02  0.51100000000E-03 0. -1.
        -11    1    3    3    0    0 -0.10181366059E+02  0.13344013237E+02  0.16148967652E+02  0.23291888300E+02  0.51100000000E-03 0.  1.
         12    1    3    3    0    0  0.13756289409E+02 -0.25704629451E+02 -0.33822671416E+02  0.44653516941E+02  0.00000000000E+00 0. -1.
</event>
<event>
 7    1  0.3276565E-015  0.9000778E+02  0.7816164E-02  0.1186339E+00
        -11   -1    0    0    0    0  0.00000000000E+00  0.00000000000E+00  0.45593999997E+02  0.45594000000E+02  0.51100000000E-03 0.  1.
         11   -1    0    0    0    0 -0.00000000000E+00 -0.00000000000E+00 -0.45593999997E+02  0.45594000000E+02  0.51100000000E-03 0. -1.
    9900012    2    1    2    0    0  0.10860102925E+00  0.55932062834E+00  0.10335806168E+01  0.90007778563E+02  0.90000040440E+02 0.  0.
         12    1    1    2    0    0 -0.10860102925E+00 -0.55932062834E+00 -0.10335806168E+01  0.11802214370E+01  0.00000000000E+00 0. -1.
         11    1    3    3    0    0  0.42029652897E+01 -0.67224784183E+01 -0.35069084965E+02  0.35954100655E+02  0.51100000000E-03 0. -1.
        -11    1    3    3    0    0 -0.31856964720E+01  0.27825003336E+01 -0.83523571053E+01  0.93623095224E+01  0.51100000000E-03 0.  1.
        -12    1    3    3    0    0 -0.90866778842E+00  0.44992987131E+01  0.44455022688E+02  0.44691368386E+02  0.00000000000E+00 0.  1.
</event>
<event>
 7    1  0.3276565E-015  0.9000784E+02  0.7816164E-02  0.1186339E+00
        -11   -1    0    0    0    0  0.00000000000E+00  0.00000000000E+00  0.45593999997E+02  0.45594000000E+02  0.51100000000E-03 0.  1.
         11   -1    0    0    0    0 -0.00000000000E+00 -0.00000000000E+00 -0.45593999997E+02  0.45594000000E+02  0.51100000000E-03 0. -1.
    9900012    2    1    2    0    0  0.55160978381E+00  0.97393681760E-01  0.10387615540E+01  0.90007837109E+02  0.90000099759E+02 0.  0.
         12    1    1    2    0    0 -0.55160978381E+00 -0.97393681760E-01 -0.10387615540E+01  0.11801628908E+01  0.00000000000E+00 0. -1.
         11    1    3    3    0    0 -0.84641839856E+01  0.50192235365E+01 -0.40189143467E+02  0.41376349142E+02  0.51100000000E-03 0. -1.
        -11    1    3    3    0    0  0.11152817147E+02  0.22332802418E+01  0.64806761466E+01  0.13090914198E+02  0.51100000000E-03 0.  1.
        -12    1    3    3    0    0 -0.21370233779E+01 -0.71551100966E+01  0.34747228874E+02  0.35540573769E+02  0.00000000000E+00 0.  1.
</event>
<event>
 7    1  0.3276565E-015  0.9000772E+02  0.7816164E-02  0.1186339E+00
        -11   -1    0    0    0    0  0.00000000000E+00  0.00000000000E+00  0.45593999997E+02  0.45594000000E+02  0.51100000000E-03 0.  1.
         11   -1    0    0    0    0 -0.00000000000E+00 -0.00000000000E+00 -0.45593999997E+02  0.45594000000E+02  0.51100000000E-03 0. -1.
    9900012    2    1    2    0    0 -0.16657045413E-01  0.20649971052E+00  0.11619523827E+01  0.90007723368E+02  0.89999984517E+02 0.  0.
         12    1    1    2    0    0  0.16657045413E-01 -0.20649971052E+00 -0.11619523827E+01  0.11802766316E+01  0.00000000000E+00 0. -1.
         11    1    3    3    0    0 -0.98230415023E+01  0.11288907539E+01 -0.43279320219E+01  0.10793402361E+02  0.51100000000E-03 0. -1.
        -11    1    3    3    0    0  0.48091605699E+01 -0.16384889138E+02 -0.33153817059E+02  0.37293004750E+02  0.51100000000E-03 0.  1.
         12    1    3    3    0    0  0.49972238870E+01  0.15462498095E+02  0.38643701463E+02  0.41921316257E+02  0.00000000000E+00 0. -1.
</event>
<event>
 7    1  0.3276565E-015  0.9000776E+02  0.7816164E-02  0.1186339E+00
        -11   -1    0    0    0    0  0.00000000000E+00  0.00000000000E+00  0.45593999997E+02  0.45594000000E+02  0.51100000000E-03 0.  1.
         11   -1    0    0    0    0 -0.00000000000E+00 -0.00000000000E+00 -0.45593999997E+02  0.45594000000E+02  0.51100000000E-03 0. -1.
    9900012    2    1    2    0    0 -0.88519232848E+00  0.75189023596E+00  0.20992687149E+00  0.90007756942E+02  0.90000018533E+02 0.  0.
         12    1    1    2    0    0  0.88519232848E+00 -0.75189023596E+00 -0.20992687149E+00  0.11802430583E+01  0.00000000000E+00 0. -1.
         11    1    3    3    0    0 -0.23985454680E+02  0.15750057180E+02 -0.22220789192E+02  0.36292283064E+02  0.51100000000E-03 0. -1.
        -11    1    3    3    0    0  0.12354380357E+01  0.44628806583E+01 -0.93958884222E+01  0.10475033671E+02  0.51100000000E-03 0.  1.
        -12    1    3    3    0    0  0.21864824316E+02 -0.19461047602E+02  0.31826604486E+02  0.43240440207E+02  0.00000000000E+00 0.  1.
</event>
<event>
 7    1  0.3276565E-015  0.9000774E+02  0.7816164E-02  0.1186339E+00
        -11   -1    0    0    0    0  0.00000000000E+00  0.00000000000E+00  0.45593999997E+02  0.45594000000E+02  0.51100000000E-03 0.  1.
         11   -1    0    0    0    0 -0.00000000000E+00 -0.00000000000E+00 -0.45593999997E+02  0.45594000000E+02  0.51100000000E-03 0. -1.
    9900012    2    1    2    0    0  0.10388238738E+01 -0.55354172114E+00  0.86250238080E-01  0.90007744697E+02  0.90000006127E+02 0.  0.
         12    1    1    2    0    0 -0.10388238738E+01  0.55354172114E+00 -0.86250238080E-01  0.11802553035E+01  0.00000000000E+00 0. -1.
         11    1    3    3    0    0 -0.26762647177E+02 -0.16150534937E+02  0.18373206540E+02  0.36258154689E+02  0.51100000000E-03 0. -1.
        -11    1    3    3    0    0 -0.82359341323E+01 -0.28408162227E+00  0.32560800226E+01  0.88607770977E+01  0.51100000000E-03 0.  1.
        -12    1    3    3    0    0  0.36037405183E+02  0.15881074838E+02 -0.21543036325E+02  0.44888812909E+02  0.00000000000E+00 0.  1.
</event>
<event>
 7    1  0.3276565E-015  0.9000783E+02  0.7816164E-02  0.1186339E+00
        -11   -1    0    0    0    0  0.00000000000E+00  0.00000000000E+00  0.45593999997E+02  0.45594000000E+02  0.51100000000E-03 0. -1.
         11   -1    0    0    0    0 -0.00000000000E+00 -0.00000000000E+00 -0.45593999997E+02  0.45594000000E+02  0.51100000000E-03 0.  1.
    9900012    2    1    2    0    0 -0.90465817444E+00 -0.74599931902E+00  0.13368884034E+00  0.90007833019E+02  0.90000095615E+02 0.  0.
         12    1    1    2    0    0  0.90465817444E+00  0.74599931902E+00 -0.13368884034E+00  0.11801669808E+01  0.00000000000E+00 0. -1.
         11    1    3    3    0    0 -0.46802623221E+00  0.41121948163E+00  0.88288295299E+01  0.88507842108E+01  0.51100000000E-03 0. -1.
        -11    1    3    3    0    0 -0.14598177668E+02 -0.36428093141E+02  0.73058634968E+01  0.39918522052E+02  0.51100000000E-03 0.  1.
         12    1    3    3    0    0  0.14161545725E+02  0.35270874340E+02 -0.16001004186E+02  0.41238526757E+02  0.00000000000E+00 0. -1.
</event>
<event>
 7    1  0.3276565E-015  0.9000801E+02  0.7816164E-02  0.1186338E+00
        -11   -1    0    0    0    0  0.00000000000E+00  0.00000000000E+00  0.45593999997E+02  0.45594000000E+02  0.51100000000E-03 0.  1.
         11   -1    0    0    0    0 -0.00000000000E+00 -0.00000000000E+00 -0.45593999997E+02  0.45594000000E+02  0.51100000000E-03 0. -1.
    9900012    2    1    2    0    0 -0.11665563875E+01 -0.13847885825E+00 -0.11109014502E+00  0.90008012195E+02  0.90000277156E+02 0.  0.
         12    1    1    2    0    0  0.11665563875E+01  0.13847885825E+00  0.11109014502E+00  0.11799878049E+01  0.00000000000E+00 0. -1.
         11    1    3    3    0    0 -0.35902616249E+01 -0.86299923735E+01 -0.37643685056E+02  0.38786773155E+02  0.51100000000E-03 0. -1.
        -11    1    3    3    0    0 -0.54739415599E+00  0.83773038160E+01 -0.41970205887E+01  0.93858319647E+01  0.51100000000E-03 0.  1.
        -12    1    3    3    0    0  0.29710993935E+01  0.11420969925E+00  0.41729615500E+02  0.41835407076E+02  0.00000000000E+00 0.  1.
</event>
<event>
 7    1  0.3276565E-015  0.9000823E+02  0.7816164E-02  0.1186338E+00
        -11   -1    0    0    0    0  0.00000000000E+00  0.00000000000E+00  0.45593999997E+02  0.45594000000E+02  0.51100000000E-03 0. -1.
         11   -1    0    0    0    0 -0.00000000000E+00 -0.00000000000E+00 -0.45593999997E+02  0.45594000000E+02  0.51100000000E-03 0.  1.
    9900012    2    1    2    0    0 -0.89301703365E+00  0.21477058366E+00 -0.74044053961E+00  0.90008229675E+02  0.90000497506E+02 0.  0.
         12    1    1    2    0    0  0.89301703365E+00 -0.21477058366E+00  0.74044053961E+00  0.11797703245E+01  0.00000000000E+00 0. -1.
         11    1    3    3    0    0 -0.67230947410E+00 -0.11452909578E+01  0.97073618843E+01  0.97977837505E+01  0.51100000000E-03 0. -1.
        -11    1    3    3    0    0  0.20074520152E+01 -0.38623601245E+02 -0.10828175064E+02  0.40162940781E+02  0.51100000000E-03 0.  1.
         12    1    3    3    0    0 -0.22281595747E+01  0.39983662786E+02  0.38037264026E+00  0.40047505144E+02  0.00000000000E+00 0. -1.
</event>
<event>
 7    1  0.3276565E-015  0.9000728E+02  0.7816164E-02  0.1186340E+00
        -11   -1    0    0    0    0  0.00000000000E+00  0.00000000000E+00  0.45593999997E+02  0.45594000000E+02  0.51100000000E-03 0. -1.
         11   -1    0    0    0    0 -0.00000000000E+00 -0.00000000000E+00 -0.45593999997E+02  0.45594000000E+02  0.51100000000E-03 0.  1.
    9900012    2    1    2    0    0 -0.74735276711E+00  0.25058106671E+00 -0.87907075687E+00  0.90007283089E+02  0.89999538424E+02 0.  0.
         12    1    1    2    0    0  0.74735276711E+00 -0.25058106671E+00  0.87907075687E+00  0.11807169115E+01  0.00000000000E+00 0. -1.
         11    1    3    3    0    0  0.39587338063E+02 -0.72871720493E+00  0.12624959268E+01  0.39614167414E+02  0.51100000000E-03 0. -1.
        -11    1    3    3    0    0 -0.96549883584E+00 -0.18778208018E+01 -0.99362620694E+01  0.10158134826E+02  0.51100000000E-03 0.  1.
        -12    1    3    3    0    0 -0.39369191995E+02  0.28571190734E+01  0.77946953857E+01  0.40234980848E+02  0.00000000000E+00 0.  1.
</event>
<event>
 7    1  0.3276565E-015  0.9000776E+02  0.7816164E-02  0.1186339E+00
        -11   -1    0    0    0    0  0.00000000000E+00  0.00000000000E+00  0.45593999997E+02  0.45594000000E+02  0.51100000000E-03 0. -1.
         11   -1    0    0    0    0 -0.00000000000E+00 -0.00000000000E+00 -0.45593999997E+02  0.45594000000E+02  0.51100000000E-03 0.  1.
    9900012    2    1    2    0    0  0.64039970062E+00  0.83629134305E+00  0.53242999038E+00  0.90007755669E+02  0.90000017243E+02 0.  0.
         12    1    1    2    0    0 -0.64039970062E+00 -0.83629134305E+00 -0.53242999038E+00  0.11802443313E+01  0.00000000000E+00 0. -1.
         11    1    3    3    0    0  0.14834337356E+02 -0.15870216717E+02  0.17592161851E+02  0.27953631290E+02  0.51100000000E-03 0. -1.
        -11    1    3    3    0    0  0.19196517513E+02 -0.46233223674E+01 -0.27924273721E+01  0.19941891716E+02  0.51100000000E-03 0.  1.
        -12    1    3    3    0    0 -0.33390455169E+02  0.21329830427E+02 -0.14267304489E+02  0.42112232662E+02  0.00000000000E+00 0.  1.
</event>
<event>
 7    1  0.3276565E-015  0.9000786E+02  0.7816164E-02  0.1186339E+00
        -11   -1    0    0    0    0  0.00000000000E+00  0.00000000000E+00  0.45593999997E+02  0.45594000000E+02  0.51100000000E-03 0. -1.
         11   -1    0    0    0    0 -0.00000000000E+00 -0.00000000000E+00 -0.45593999997E+02  0.45594000000E+02  0.51100000000E-03 0.  1.
    9900012    2    1    2    0    0 -0.77985732672E-01  0.10532105172E+01 -0.52668496447E+00  0.90007859661E+02  0.90000122608E+02 0.  0.
         12    1    1    2    0    0  0.77985732672E-01 -0.10532105172E+01  0.52668496447E+00  0.11801403390E+01  0.00000000000E+00 0. -1.
         11    1    3    3    0    0 -0.68574734454E+01  0.25295959984E+01 -0.13432500418E+01  0.74315623462E+01  0.51100000000E-03 0. -1.
        -11    1    3    3    0    0  0.15736817050E+00  0.33168073454E+01 -0.40410436233E+02  0.40546631580E+02  0.51100000000E-03 0.  1.
         12    1    3    3    0    0  0.66221195422E+01 -0.47931928266E+01  0.41227001310E+02  0.42029665734E+02  0.00000000000E+00 0. -1.
</event>
<event>
 7    1  0.3276565E-015  0.9000778E+02  0.7816164E-02  0.1186339E+00
        -11   -1    0    0    0    0  0.00000000000E+00  0.00000000000E+00  0.45593999997E+02  0.45594000000E+02  0.51100000000E-03 0.  1.
         11   -1    0    0    0    0 -0.00000000000E+00 -0.00000000000E+00 -0.45593999997E+02  0.45594000000E+02  0.51100000000E-03 0. -1.
    9900012    2    1    2    0    0 -0.27457652873E+00 -0.37888025466E+00  0.10835023540E+01  0.90007779737E+02  0.90000041630E+02 0.  0.
         12    1    1    2    0    0  0.27457652873E+00  0.37888025466E+00 -0.10835023540E+01  0.11802202628E+01  0.00000000000E+00 0. -1.
         11    1    3    3    0    0 -0.29222865830E+02  0.88243003438E+01 -0.85472633482E+01  0.31700155755E+02  0.51100000000E-03 0. -1.
        -11    1    3    3    0    0  0.56189541271E+01 -0.76854339653E+01 -0.19055464701E+02  0.21301391409E+02  0.51100000000E-03 0.  1.
        -12    1    3    3    0    0  0.23329335174E+02 -0.15177466331E+01  0.28686230403E+02  0.37006232573E+02  0.00000000000E+00 0.  1.
</event>
<event>
 7    1  0.3276565E-015  0.9000771E+02  0.7816164E-02  0.1186339E+00
        -11   -1    0    0    0    0  0.00000000000E+00  0.00000000000E+00  0.45593999997E+02  0.45594000000E+02  0.51100000000E-03 0. -1.
         11   -1    0    0    0    0 -0.00000000000E+00 -0.00000000000E+00 -0.45593999997E+02  0.45594000000E+02  0.51100000000E-03 0.  1.
    9900012    2    1    2    0    0 -0.79087504541E+00  0.75677664219E+00 -0.44145664219E+00  0.90007712666E+02  0.89999973673E+02 0.  0.
         12    1    1    2    0    0  0.79087504541E+00 -0.75677664219E+00  0.44145664219E+00  0.11802873339E+01  0.00000000000E+00 0. -1.
         11    1    3    3    0    0 -0.23053157175E+02  0.14551608314E+02 -0.28208834887E+02  0.39229271294E+02  0.51100000000E-03 0. -1.
        -11    1    3    3    0    0  0.20486530777E+01  0.25975838703E+01 -0.67690212841E+01  0.75341934407E+01  0.51100000000E-03 0.  1.
        -12    1    3    3    0    0  0.20213629052E+02 -0.16392415542E+02  0.34536399529E+02  0.43244247932E+02  0.00000000000E+00 0.  1.
</event>
<event>
 7    1  0.3276565E-015  0.9000770E+02  0.7816164E-02  0.1186339E+00
        -11   -1    0    0    0    0  0.00000000000E+00  0.00000000000E+00  0.45593999997E+02  0.45594000000E+02  0.51100000000E-03 0.  1.
         11   -1    0    0    0    0 -0.00000000000E+00 -0.00000000000E+00 -0.45593999997E+02  0.45594000000E+02  0.51100000000E-03 0. -1.
    9900012    2    1    2    0    0  0.53385658923E+00 -0.73498698320E+00  0.75358361172E+00  0.90007704705E+02  0.89999965607E+02 0.  0.
         12    1    1    2    0    0 -0.53385658923E+00  0.73498698320E+00 -0.75358361172E+00  0.11802952949E+01  0.00000000000E+00 0. -1.
         11    1    3    3    0    0 -0.10017680874E+02  0.15699384449E+01  0.28718752755E+01  0.10538799963E+02  0.51100000000E-03 0. -1.
        -11    1    3    3    0    0  0.24313419961E+02 -0.14815757059E+02  0.30622862622E+02  0.41813978080E+02  0.51100000000E-03 0.  1.
         12    1    3    3    0    0 -0.13761882498E+02  0.12510831631E+02 -0.32741154285E+02  0.37654926662E+02  0.00000000000E+00 0. -1.
</event>
<event>
 7    1  0.3276565E-015  0.9000757E+02  0.7816164E-02  0.1186339E+00
        -11   -1    0    0    0    0  0.00000000000E+00  0.00000000000E+00  0.45593999997E+02  0.45594000000E+02  0.51100000000E-03 0. -1.
         11   -1    0    0    0    0 -0.00000000000E+00 -0.00000000000E+00 -0.45593999997E+02  0.45594000000E+02  0.51100000000E-03 0.  1.
    9900012    2    1    2    0    0 -0.72201045044E-01  0.42199412551E+00 -0.11000579656E+01  0.90007568062E+02  0.89999827160E+02 0.  0.
         12    1    1    2    0    0  0.72201045044E-01 -0.42199412551E+00  0.11000579656E+01  0.11804319381E+01  0.00000000000E+00 0. -1.
         11    1    3    3    0    0  0.16489081117E+01  0.35141410553E+00  0.75335595404E+01  0.77199034608E+01  0.51100000000E-03 0. -1.
        -11    1    3    3    0    0 -0.26615019468E+02  0.24885284859E+02  0.15556529849E+02  0.39618711299E+02  0.51100000000E-03 0.  1.
         12    1    3    3    0    0  0.24893910311E+02 -0.24814704839E+02 -0.24190147355E+02  0.42668953302E+02  0.00000000000E+00 0. -1.
</event>
<event>
 7    1  0.3398320E-015  0.9000773E+02  0.7816164E-02  0.1186339E+00
        -11   -1    0    0    0    0  0.00000000000E+00  0.00000000000E+00  0.45593999997E+02  0.45594000000E+02  0.51100000000E-03 0. -1.
         11   -1    0    0    0    0 -0.00000000000E+00 -0.00000000000E+00 -0.45593999997E+02  0.45594000000E+02  0.51100000000E-03 0.  1.
    9900012    2    1    2    0    0  0.11273136839E+01 -0.13888002826E+00 -0.32080074172E+00  0.90007730150E+02  0.89999991387E+02 0.  0.
         12    1    1    2    0    0 -0.11273136839E+01  0.13888002826E+00  0.32080074172E+00  0.11802698505E+01  0.00000000000E+00 0. -1.
         11    1    3    3    0    0  0.36071096492E+01  0.67074778021E+01  0.51697463440E+01  0.92047691991E+01  0.51100000000E-03 0. -1.
        -11    1    3    3    0    0  0.38655856353E+01  0.27775186387E+02 -0.27510813035E+02  0.39284202490E+02  0.51100000000E-03 0.  1.
         12    1    3    3    0    0 -0.63453816005E+01 -0.34621544217E+02  0.22020265949E+02  0.41518758461E+02  0.00000000000E+00 0. -1.
</event>
<event>
 7    1  0.3276565E-015  0.9000786E+02  0.7816164E-02  0.1186339E+00
        -11   -1    0    0    0    0  0.00000000000E+00  0.00000000000E+00  0.45593999997E+02  0.45594000000E+02  0.51100000000E-03 0. -1.
         11   -1    0    0    0    0 -0.00000000000E+00 -0.00000000000E+00 -0.45593999997E+02  0.45594000000E+02  0.51100000000E-03 0.  1.
    9900012    2    1    2    0    0  0.27141797025E+00  0.19789912265E+00 -0.11313310560E+01  0.90007855206E+02  0.90000118094E+02 0.  0.
         12    1    1    2    0    0 -0.27141797025E+00 -0.19789912265E+00  0.11313310560E+01  0.11801447944E+01  0.00000000000E+00 0. -1.
         11    1    3    3    0    0  0.40193302126E+02 -0.97182083142E+01 -0.63464236628E+01  0.41835657067E+02  0.51100000000E-03 0. -1.
        -11    1    3    3    0    0 -0.14218952266E+01  0.92209095714E+01  0.19182696140E+01  0.95250573716E+01  0.51100000000E-03 0.  1.
        -12    1    3    3    0    0 -0.38499988929E+02  0.69519786540E+00  0.32968229928E+01  0.38647140767E+02  0.00000000000E+00 0.  1.
</event>
<event>
 7    1  0.3276565E-015  0.9000772E+02  0.7816164E-02  0.1186339E+00
        -11   -1    0    0    0    0  0.00000000000E+00  0.00000000000E+00  0.45593999997E+02  0.45594000000E+02  0.51100000000E-03 0.  1.
         11   -1    0    0    0    0 -0.00000000000E+00 -0.00000000000E+00 -0.45593999997E+02  0.45594000000E+02  0.51100000000E-03 0. -1.
    9900012    2    1    2    0    0  0.72937406964E+00  0.52689499969E+00  0.76384865697E+00  0.90007716286E+02  0.89999977341E+02 0.  0.
         12    1    1    2    0    0 -0.72937406964E+00 -0.52689499969E+00 -0.76384865697E+00  0.11802837137E+01  0.00000000000E+00 0. -1.
         11    1    3    3    0    0  0.17065029930E+02  0.14858774542E+02 -0.37227502399E+02  0.43564726127E+02  0.51100000000E-03 0. -1.
        -11    1    3    3    0    0 -0.64096620459E+01 -0.50260015308E+01  0.26379055984E+01  0.85617174175E+01  0.51100000000E-03 0.  1.
        -12    1    3    3    0    0 -0.99259938142E+01 -0.93058780113E+01  0.35353445458E+02  0.37881272741E+02  0.00000000000E+00 0.  1.
</event>
<event>
 7    1  0.3276565E-015  0.9000800E+02  0.7816164E-02  0.1186339E+00
        -11   -1    0    0    0    0  0.00000000000E+00  0.00000000000E+00  0.45593999997E+02  0.45594000000E+02  0.51100000000E-03 0.  1.
         11   -1    0    0    0    0 -0.00000000000E+00 -0.00000000000E+00 -0.45593999997E+02  0.45594000000E+02  0.51100000000E-03 0. -1.
    9900012    2    1    2    0    0 -0.15523855928E+00 -0.33317206551E+00  0.11212973857E+01  0.90007995567E+02  0.90000260308E+02 0.  0.
         12    1    1    2    0    0  0.15523855928E+00  0.33317206551E+00 -0.11212973857E+01  0.11800044333E+01  0.00000000000E+00 0. -1.
         11    1    3    3    0    0  0.30313801739E+01  0.41190108394E+02  0.92697260214E+01  0.42328974899E+02  0.51100000000E-03 0. -1.
        -11    1    3    3    0    0  0.36868006839E+01 -0.11910353459E+02 -0.11667703691E+02  0.17075840491E+02  0.51100000000E-03 0.  1.
        -12    1    3    3    0    0 -0.68734194172E+01 -0.29612927000E+02  0.35192750550E+01  0.30603180176E+02  0.00000000000E+00 0.  1.
</event>
<event>
 7    1  0.3276565E-015  0.9000783E+02  0.7816164E-02  0.1186339E+00
        -11   -1    0    0    0    0  0.00000000000E+00  0.00000000000E+00  0.45593999997E+02  0.45594000000E+02  0.51100000000E-03 0. -1.
         11   -1    0    0    0    0 -0.00000000000E+00 -0.00000000000E+00 -0.45593999997E+02  0.45594000000E+02  0.51100000000E-03 0.  1.
    9900012    2    1    2    0    0  0.38369420555E+00  0.10628611727E+01 -0.34044306502E+00  0.90007831963E+02  0.90000094545E+02 0.  0.
         12    1    1    2    0    0 -0.38369420555E+00 -0.10628611727E+01  0.34044306502E+00  0.11801680373E+01  0.00000000000E+00 0. -1.
         11    1    3    3    0    0 -0.44639555701E+01 -0.35646544765E+01  0.35354792181E+01  0.67181302779E+01  0.51100000000E-03 0. -1.
        -11    1    3    3    0    0 -0.25590227551E+02  0.16819728661E+02  0.25051438204E+02  0.39564347267E+02  0.51100000000E-03 0.  1.
         12    1    3    3    0    0  0.30437877326E+02 -0.12192213011E+02 -0.28927360487E+02  0.43725354418E+02  0.00000000000E+00 0. -1.
</event>
<event>
 7    1  0.3276565E-015  0.9000789E+02  0.7816164E-02  0.1186339E+00
        -11   -1    0    0    0    0  0.00000000000E+00  0.00000000000E+00  0.45593999997E+02  0.45594000000E+02  0.51100000000E-03 0.  1.
         11   -1    0    0    0    0 -0.00000000000E+00 -0.00000000000E+00 -0.45593999997E+02  0.45594000000E+02  0.51100000000E-03 0. -1.
    9900012    2    1    2    0    0  0.38078474004E+00  0.58726432141E+00  0.95014386633E+00  0.90007894171E+02  0.90000157574E+02 0.  0.
         12    1    1    2    0    0 -0.38078474004E+00 -0.58726432141E+00 -0.95014386633E+00  0.11801058292E+01  0.00000000000E+00 0. -1.
         11    1    3    3    0    0 -0.40414540308E+01  0.65469475650E+01  0.37247127522E+01  0.85480616779E+01  0.51100000000E-03 0. -1.
        -11    1    3    3    0    0  0.23364353906E+02  0.24598092169E+02 -0.22250084585E+02  0.40571239026E+02  0.51100000000E-03 0.  1.
         12    1    3    3    0    0 -0.18942115135E+02 -0.30557775412E+02  0.19475515700E+02  0.40888593467E+02  0.00000000000E+00 0. -1.
</event>
<event>
 7    1  0.3276565E-015  0.9000782E+02  0.7816164E-02  0.1186339E+00
        -11   -1    0    0    0    0  0.00000000000E+00  0.00000000000E+00  0.45593999997E+02  0.45594000000E+02  0.51100000000E-03 0.  1.
         11   -1    0    0    0    0 -0.00000000000E+00 -0.00000000000E+00 -0.45593999997E+02  0.45594000000E+02  0.51100000000E-03 0. -1.
    9900012    2    1    2    0    0 -0.34293073394E+00 -0.85435388861E+00  0.73845064566E+00  0.90007817213E+02  0.90000079600E+02 0.  0.
         12    1    1    2    0    0  0.34293073394E+00  0.85435388861E+00 -0.73845064566E+00  0.11801827873E+01  0.00000000000E+00 0. -1.
         11    1    3    3    0    0  0.33557097372E-01  0.11347369319E+02 -0.12876682544E+01  0.11420245458E+02  0.51100000000E-03 0. -1.
        -11    1    3    3    0    0 -0.29357022792E+02  0.16972680538E+02  0.12520058101E+02  0.36147731976E+02  0.51100000000E-03 0.  1.
         12    1    3    3    0    0  0.28980534961E+02 -0.29174403745E+02 -0.10493939201E+02  0.42439839779E+02  0.00000000000E+00 0. -1.
</event>
<event>
 7    1  0.3276565E-015  0.9000773E+02  0.7816164E-02  0.1186339E+00
        -11   -1    0    0    0    0  0.00000000000E+00  0.00000000000E+00  0.45593999997E+02  0.45594000000E+02  0.51100000000E-03 0.  1.
         11   -1    0    0    0    0 -0.00000000000E+00 -0.00000000000E+00 -0.45593999997E+02  0.45594000000E+02  0.51100000000E-03 0. -1.
    9900012    2    1    2    0    0  0.61867628604E+00 -0.65713215268E+00  0.76055763957E+00  0.90007732684E+02  0.89999993956E+02 0.  0.
         12    1    1    2    0    0 -0.61867628604E+00  0.65713215268E+00 -0.76055763957E+00  0.11802673155E+01  0.00000000000E+00 0. -1.
         11    1    3    3    0    0 -0.32869224376E+02 -0.94684329813E+01 -0.18963472569E+02  0.39110745663E+02  0.51100000000E-03 0. -1.
        -11    1    3    3    0    0 -0.33074302763E+01  0.87212121227E+01  0.39991267529E+00  0.93358752311E+01  0.51100000000E-03 0.  1.
        -12    1    3    3    0    0  0.36795330938E+02  0.90088705911E-01  0.19324117534E+02  0.41561111790E+02  0.00000000000E+00 0.  1.
</event>
<event>
 7    1  0.3276565E-015  0.9000777E+02  0.7816164E-02  0.1186339E+00
        -11   -1    0    0    0    0  0.00000000000E+00  0.00000000000E+00  0.45593999997E+02  0.45594000000E+02  0.51100000000E-03 0.  1.
         11   -1    0    0    0    0 -0.00000000000E+00 -0.00000000000E+00 -0.45593999997E+02  0.45594000000E+02  0.51100000000E-03 0. -1.
    9900012    2    1    2    0    0  0.47452041400E+00 -0.77207107899E+00  0.75609170617E+00  0.90007772038E+02  0.90000033829E+02 0.  0.
         12    1    1    2    0    0 -0.47452041400E+00  0.77207107899E+00 -0.75609170617E+00  0.11802279621E+01  0.00000000000E+00 0. -1.
         11    1    3    3    0    0 -0.13483249146E+01 -0.80169763121E+01 -0.49800129809E+01  0.95336466693E+01  0.51100000000E-03 0. -1.
        -11    1    3    3    0    0  0.40641455045E+02  0.78913566043E+00  0.62024703416E+01  0.41119596811E+02  0.51100000000E-03 0.  1.
         12    1    3    3    0    0 -0.38818609716E+02  0.64557695727E+01 -0.46636565459E+00  0.39354528558E+02  0.00000000000E+00 0. -1.
</event>
<event>
 7    1  0.3276565E-015  0.9000762E+02  0.7816164E-02  0.1186339E+00
        -11   -1    0    0    0    0  0.00000000000E+00  0.00000000000E+00  0.45593999997E+02  0.45594000000E+02  0.51100000000E-03 0.  1.
         11   -1    0    0    0    0 -0.00000000000E+00 -0.00000000000E+00 -0.45593999997E+02  0.45594000000E+02  0.51100000000E-03 0. -1.
    9900012    2    1    2    0    0  0.27122882956E+00  0.95850114610E+00  0.63325005985E+00  0.90007620754E+02  0.89999880548E+02 0.  0.
         12    1    1    2    0    0 -0.27122882956E+00 -0.95850114610E+00 -0.63325005985E+00  0.11803792456E+01  0.00000000000E+00 0. -1.
         11    1    3    3    0    0  0.88226684007E+00 -0.39127917980E+02 -0.16869304567E+02  0.42618608578E+02  0.51100000000E-03 0. -1.
        -11    1    3    3    0    0  0.11656355115E+01  0.11859502231E+01  0.68051639798E+01  0.70053865797E+01  0.51100000000E-03 0.  1.
        -12    1    3    3    0    0 -0.17766735220E+01  0.38900468903E+02  0.10697390647E+02  0.40383625597E+02  0.00000000000E+00 0.  1.
</event>
<event>
 7    1  0.3276565E-015  0.9000842E+02  0.7816164E-02  0.1186338E+00
        -11   -1    0    0    0    0  0.00000000000E+00  0.00000000000E+00  0.45593999997E+02  0.45594000000E+02  0.51100000000E-03 0.  1.
         11   -1    0    0    0    0 -0.00000000000E+00 -0.00000000000E+00 -0.45593999997E+02  0.45594000000E+02  0.51100000000E-03 0. -1.
    9900012    2    1    2    0    0  0.24842164238E+00 -0.56620268524E+00  0.10045427276E+01  0.90008421734E+02  0.90000692099E+02 0.  0.
         12    1    1    2    0    0 -0.24842164238E+00  0.56620268524E+00 -0.10045427276E+01  0.11795782657E+01  0.00000000000E+00 0. -1.
         11    1    3    3    0    0 -0.17051022524E+02  0.11054688175E+02 -0.22585592282E+02  0.30381778729E+02  0.51100000000E-03 0. -1.
        -11    1    3    3    0    0 -0.71734979542E+01 -0.42816923649E+01 -0.12726159769E+02  0.15223242268E+02  0.51100000000E-03 0.  1.
        -12    1    3    3    0    0  0.24472942121E+02 -0.73391984956E+01  0.36316294779E+02  0.44403400737E+02  0.00000000000E+00 0.  1.
</event>
<event>
 7    1  0.3276565E-015  0.9000771E+02  0.7816164E-02  0.1186339E+00
        -11   -1    0    0    0    0  0.00000000000E+00  0.00000000000E+00  0.45593999997E+02  0.45594000000E+02  0.51100000000E-03 0. -1.
         11   -1    0    0    0    0 -0.00000000000E+00 -0.00000000000E+00 -0.45593999997E+02  0.45594000000E+02  0.51100000000E-03 0.  1.
    9900012    2    1    2    0    0 -0.43253302543E+00  0.10554936342E+01  0.30320694984E+00  0.90007709322E+02  0.89999970285E+02 0.  0.
         12    1    1    2    0    0  0.43253302543E+00 -0.10554936342E+01 -0.30320694984E+00  0.11802906780E+01  0.00000000000E+00 0. -1.
         11    1    3    3    0    0  0.78171073049E+01 -0.21251220441E+01  0.78823501961E+01  0.11302864911E+02  0.51100000000E-03 0. -1.
        -11    1    3    3    0    0  0.32113803662E+02  0.16024368282E+02 -0.15806763956E+01  0.35924577974E+02  0.51100000000E-03 0.  1.
         12    1    3    3    0    0 -0.40363443993E+02 -0.12843752603E+02 -0.59984668507E+01  0.42780266437E+02  0.00000000000E+00 0. -1.
</event>
<event>
 7    1  0.3276565E-015  0.9000779E+02  0.7816164E-02  0.1186339E+00
        -11   -1    0    0    0    0  0.00000000000E+00  0.00000000000E+00  0.45593999997E+02  0.45594000000E+02  0.51100000000E-03 0.  1.
         11   -1    0    0    0    0 -0.00000000000E+00 -0.00000000000E+00 -0.45593999997E+02  0.45594000000E+02  0.51100000000E-03 0. -1.
    9900012    2    1    2    0    0 -0.10914401778E+01 -0.44494031159E+00 -0.60724526385E-01  0.90007787726E+02  0.90000049724E+02 0.  0.
         12    1    1    2    0    0  0.10914401778E+01  0.44494031159E+00  0.60724526385E-01  0.11802122735E+01  0.00000000000E+00 0. -1.
         11    1    3    3    0    0  0.15894703883E+02  0.10268453999E+02  0.38760915589E+01  0.19315973832E+02  0.51100000000E-03 0. -1.
        -11    1    3    3    0    0 -0.25847222526E+00  0.52207126200E+01  0.29550230939E+02  0.30008978606E+02  0.51100000000E-03 0.  1.
         12    1    3    3    0    0 -0.16727671835E+02 -0.15934106931E+02 -0.33487047024E+02  0.40682835288E+02  0.00000000000E+00 0. -1.
</event>
<event>
 7    1  0.3276565E-015  0.9000774E+02  0.7816164E-02  0.1186339E+00
        -11   -1    0    0    0    0  0.00000000000E+00  0.00000000000E+00  0.45593999997E+02  0.45594000000E+02  0.51100000000E-03 0.  1.
         11   -1    0    0    0    0 -0.00000000000E+00 -0.00000000000E+00 -0.45593999997E+02  0.45594000000E+02  0.51100000000E-03 0. -1.
    9900012    2    1    2    0    0 -0.47155982613E+00  0.10432769954E+01  0.28675187164E+00  0.90007736388E+02  0.89999997708E+02 0.  0.
         12    1    1    2    0    0  0.47155982613E+00 -0.10432769954E+01 -0.28675187164E+00  0.11802636124E+01  0.00000000000E+00 0. -1.
         11    1    3    3    0    0  0.18108958634E+02  0.21175745866E+02 -0.19643836363E+02  0.34091449120E+02  0.51100000000E-03 0. -1.
        -11    1    3    3    0    0 -0.22225550456E+02  0.72662143555E+01  0.15160040028E+02  0.27867539863E+02  0.51100000000E-03 0.  1.
        -12    1    3    3    0    0  0.36450319952E+01 -0.27398683226E+02  0.47705482064E+01  0.28048747404E+02  0.00000000000E+00 0.  1.
</event>
<event>
 7    1  0.3276565E-015  0.9000775E+02  0.7816164E-02  0.1186339E+00
        -11   -1    0    0    0    0  0.00000000000E+00  0.00000000000E+00  0.45593999997E+02  0.45594000000E+02  0.51100000000E-03 0. -1.
         11   -1    0    0    0    0 -0.00000000000E+00 -0.00000000000E+00 -0.45593999997E+02  0.45594000000E+02  0.51100000000E-03 0.  1.
    9900012    2    1    2    0    0 -0.75104470086E+00  0.13768381562E+00 -0.89998225792E+00  0.90007748738E+02  0.90000010222E+02 0.  0.
         12    1    1    2    0    0  0.75104470086E+00 -0.13768381562E+00  0.89998225792E+00  0.11802512615E+01  0.00000000000E+00 0. -1.
         11    1    3    3    0    0 -0.31356270244E+01  0.10067916886E+02 -0.72266148682E+00  0.10569642716E+02  0.51100000000E-03 0. -1.
        -11    1    3    3    0    0 -0.12438998823E+02  0.96664910617E+01 -0.34093086366E+02  0.37556734142E+02  0.51100000000E-03 0.  1.
         12    1    3    3    0    0  0.14823581146E+02 -0.19596724132E+02  0.33915765595E+02  0.41881371881E+02  0.00000000000E+00 0. -1.
</event>
<event>
 7    1  0.3276565E-015  0.9000774E+02  0.7816164E-02  0.1186339E+00
        -11   -1    0    0    0    0  0.00000000000E+00  0.00000000000E+00  0.45593999997E+02  0.45594000000E+02  0.51100000000E-03 0.  1.
         11   -1    0    0    0    0 -0.00000000000E+00 -0.00000000000E+00 -0.45593999997E+02  0.45594000000E+02  0.51100000000E-03 0. -1.
    9900012    2    1    2    0    0 -0.90482501138E+00  0.33559514082E+00  0.67947765061E+00  0.90007736353E+02  0.89999997672E+02 0.  0.
         12    1    1    2    0    0  0.90482501138E+00 -0.33559514082E+00 -0.67947765061E+00  0.11802636474E+01  0.00000000000E+00 0. -1.
         11    1    3    3    0    0  0.20093364658E+01  0.19971382512E+02 -0.29683377982E+02  0.35832896634E+02  0.51100000000E-03 0. -1.
        -11    1    3    3    0    0  0.65976544435E+01  0.59547000217E+01 -0.44454125644E+01  0.99372626831E+01  0.51100000000E-03 0.  1.
        -12    1    3    3    0    0 -0.95118159207E+01 -0.25590487393E+02  0.34808268197E+02  0.44237577036E+02  0.00000000000E+00 0.  1.
</event>
<event>
 7    1  0.3276565E-015  0.9000811E+02  0.7816164E-02  0.1186338E+00
        -11   -1    0    0    0    0  0.00000000000E+00  0.00000000000E+00  0.45593999997E+02  0.45594000000E+02  0.51100000000E-03 0. -1.
         11   -1    0    0    0    0 -0.00000000000E+00 -0.00000000000E+00 -0.45593999997E+02  0.45594000000E+02  0.51100000000E-03 0.  1.
    9900012    2    1    2    0    0 -0.36124348900E+00 -0.11232124639E+01  0.62268708094E-02  0.90008109382E+02  0.90000375625E+02 0.  0.
         12    1    1    2    0    0  0.36124348900E+00  0.11232124639E+01 -0.62268708094E-02  0.11798906183E+01  0.00000000000E+00 0. -1.
         11    1    3    3    0    0 -0.20652128039E+02 -0.30793429806E+02  0.28312393793E+01  0.37185502934E+02  0.51100000000E-03 0. -1.
        -11    1    3    3    0    0 -0.60589843118E+01 -0.26304479416E+01  0.73822648341E+01  0.99059770647E+01  0.51100000000E-03 0.  1.
        -12    1    3    3    0    0  0.26349868862E+02  0.32300665284E+02 -0.10207277343E+02  0.42916629383E+02  0.00000000000E+00 0.  1.
</event>
<event>
 7    1  0.3276565E-015  0.9000772E+02  0.7816164E-02  0.1186339E+00
        -11   -1    0    0    0    0  0.00000000000E+00  0.00000000000E+00  0.45593999997E+02  0.45594000000E+02  0.51100000000E-03 0.  1.
         11   -1    0    0    0    0 -0.00000000000E+00 -0.00000000000E+00 -0.45593999997E+02  0.45594000000E+02  0.51100000000E-03 0. -1.
    9900012    2    1    2    0    0 -0.10222490593E+01 -0.22893074293E-01 -0.58953066638E+00  0.90007718831E+02  0.89999979919E+02 0.  0.
         12    1    1    2    0    0  0.10222490593E+01  0.22893074293E-01  0.58953066638E+00  0.11802811694E+01  0.00000000000E+00 0. -1.
         11    1    3    3    0    0 -0.31243932197E+02 -0.18090285261E+02 -0.15642428039E+02  0.39346248553E+02  0.51100000000E-03 0. -1.
        -11    1    3    3    0    0  0.21607894698E+01 -0.87199547696E+01 -0.17596722450E+00  0.89854096758E+01  0.51100000000E-03 0.  1.
        -12    1    3    3    0    0  0.28060893668E+02  0.26787346956E+02  0.15228864598E+02  0.41676060602E+02  0.00000000000E+00 0.  1.
</event>
<event>
 7    1  0.3276565E-015  0.9000786E+02  0.7816164E-02  0.1186339E+00
        -11   -1    0    0    0    0  0.00000000000E+00  0.00000000000E+00  0.45593999997E+02  0.45594000000E+02  0.51100000000E-03 0.  1.
         11   -1    0    0    0    0 -0.00000000000E+00 -0.00000000000E+00 -0.45593999997E+02  0.45594000000E+02  0.51100000000E-03 0. -1.
    9900012    2    1    2    0    0  0.74023615510E+00  0.88654950398E+00 -0.24249532218E+00  0.90007862902E+02  0.90000125892E+02 0.  0.
         12    1    1    2    0    0 -0.74023615510E+00 -0.88654950398E+00  0.24249532218E+00  0.11801370978E+01  0.00000000000E+00 0. -1.
         11    1    3    3    0    0  0.10659275872E+02  0.10388193937E+02  0.27437572348E+02  0.31214661811E+02  0.51100000000E-03 0. -1.
        -11    1    3    3    0    0 -0.16471378040E+02  0.28431410602E+01  0.93929260141E+01  0.19173335782E+02  0.51100000000E-03 0.  1.
         12    1    3    3    0    0  0.65523383238E+01 -0.12344785494E+02 -0.37072993684E+02  0.39619865309E+02  0.00000000000E+00 0. -1.
</event>
<event>
 7    1  0.3276565E-015  0.9000759E+02  0.7816164E-02  0.1186339E+00
        -11   -1    0    0    0    0  0.00000000000E+00  0.00000000000E+00  0.45593999997E+02  0.45594000000E+02  0.51100000000E-03 0.  1.
         11   -1    0    0    0    0 -0.00000000000E+00 -0.00000000000E+00 -0.45593999997E+02  0.45594000000E+02  0.51100000000E-03 0. -1.
    9900012    2    1    2    0    0 -0.29664021058E+00 -0.10144447507E+01  0.52561557253E+00  0.90007591047E+02  0.89999850449E+02 0.  0.
         12    1    1    2    0    0  0.29664021058E+00  0.10144447507E+01 -0.52561557253E+00  0.11804089532E+01  0.00000000000E+00 0. -1.
         11    1    3    3    0    0  0.59244378529E+00  0.10332826057E+02 -0.60466597130E+01  0.11986675015E+02  0.51100000000E-03 0. -1.
        -11    1    3    3    0    0  0.19274117903E+02  0.22570508714E+02 -0.14778865935E+02  0.33156211531E+02  0.51100000000E-03 0.  1.
         12    1    3    3    0    0 -0.20163201899E+02 -0.33917779522E+02  0.21351141220E+02  0.44864704500E+02  0.00000000000E+00 0. -1.
</event>
<event>
 7    1  0.3276565E-015  0.9000780E+02  0.7816164E-02  0.1186339E+00
        -11   -1    0    0    0    0  0.00000000000E+00  0.00000000000E+00  0.45593999997E+02  0.45594000000E+02  0.51100000000E-03 0. -1.
         11   -1    0    0    0    0 -0.00000000000E+00 -0.00000000000E+00 -0.45593999997E+02  0.45594000000E+02  0.51100000000E-03 0.  1.
    9900012    2    1    2    0    0  0.48864872566E+00  0.10332995769E+01 -0.29393347124E+00  0.90007795578E+02  0.90000057679E+02 0.  0.
         12    1    1    2    0    0 -0.48864872566E+00 -0.10332995769E+01  0.29393347124E+00  0.11802044223E+01  0.00000000000E+00 0. -1.
         11    1    3    3    0    0  0.11015569177E+02  0.18691309722E+02  0.31118815705E+02  0.37935320146E+02  0.51100000000E-03 0. -1.
        -11    1    3    3    0    0  0.74011917723E+01 -0.60095449062E+01  0.42925236621E+01  0.10455526256E+02  0.51100000000E-03 0.  1.
        -12    1    3    3    0    0 -0.17928112224E+02 -0.11648465239E+02 -0.35705272838E+02  0.41616949177E+02  0.00000000000E+00 0.  1.
</event>
<event>
 7    1  0.3276565E-015  0.9000777E+02  0.7816164E-02  0.1186339E+00
        -11   -1    0    0    0    0  0.00000000000E+00  0.00000000000E+00  0.45593999997E+02  0.45594000000E+02  0.51100000000E-03 0. -1.
         11   -1    0    0    0    0 -0.00000000000E+00 -0.00000000000E+00 -0.45593999997E+02  0.45594000000E+02  0.51100000000E-03 0.  1.
    9900012    2    1    2    0    0 -0.90387471534E+00 -0.57218975603E+00  0.49855239631E+00  0.90007769044E+02  0.90000030795E+02 0.  0.
         12    1    1    2    0    0  0.90387471534E+00  0.57218975603E+00 -0.49855239631E+00  0.11802309561E+01  0.00000000000E+00 0. -1.
         11    1    3    3    0    0 -0.25935550420E+01  0.41940447327E+01 -0.23499844029E+01  0.54625054628E+01  0.51100000000E-03 0. -1.
        -11    1    3    3    0    0  0.16068197281E+02  0.33864364577E+02  0.16735045304E+02  0.41049286153E+02  0.51100000000E-03 0.  1.
         12    1    3    3    0    0 -0.14378516954E+02 -0.38630599066E+02 -0.13886508505E+02  0.43495977428E+02  0.00000000000E+00 0. -1.
</event>
<event>
 7    1  0.3276565E-015  0.9000777E+02  0.7816164E-02  0.1186339E+00
        -11   -1    0    0    0    0  0.00000000000E+00  0.00000000000E+00  0.45593999997E+02  0.45594000000E+02  0.51100000000E-03 0.  1.
         11   -1    0    0    0    0 -0.00000000000E+00 -0.00000000000E+00 -0.45593999997E+02  0.45594000000E+02  0.51100000000E-03 0. -1.
    9900012    2    1    2    0    0 -0.42492174473E+00 -0.10785897014E+01  0.22140785861E+00  0.90007773042E+02  0.90000034846E+02 0.  0.
         12    1    1    2    0    0  0.42492174473E+00  0.10785897014E+01 -0.22140785861E+00  0.11802269582E+01  0.00000000000E+00 0. -1.
         11    1    3    3    0    0  0.53929732771E+01  0.38351839948E+01  0.45783838396E+01  0.80470116121E+01  0.51100000000E-03 0. -1.
        -11    1    3    3    0    0  0.26442785738E+02 -0.26831358187E+02  0.12189159915E+02  0.39594422833E+02  0.51100000000E-03 0.  1.
         12    1    3    3    0    0 -0.32260680760E+02  0.21917584491E+02 -0.16546135896E+02  0.42366338597E+02  0.00000000000E+00 0. -1.
</event>
<event>
 7    1  0.3276565E-015  0.9000773E+02  0.7816164E-02  0.1186339E+00
        -11   -1    0    0    0    0  0.00000000000E+00  0.00000000000E+00  0.45593999997E+02  0.45594000000E+02  0.51100000000E-03 0. -1.
         11   -1    0    0    0    0 -0.00000000000E+00 -0.00000000000E+00 -0.45593999997E+02  0.45594000000E+02  0.51100000000E-03 0.  1.
    9900012    2    1    2    0    0 -0.11237249583E+01  0.27630878533E+00 -0.23223734105E+00  0.90007729476E+02  0.89999990705E+02 0.  0.
         12    1    1    2    0    0  0.11237249583E+01 -0.27630878533E+00  0.23223734105E+00  0.11802705238E+01  0.00000000000E+00 0. -1.
         11    1    3    3    0    0  0.54621619170E+01  0.36803833474E+02 -0.19542338241E+01  0.37258239375E+02  0.51100000000E-03 0. -1.
        -11    1    3    3    0    0 -0.68319952454E+01  0.64234857457E+01  0.27924686921E+01  0.97844371231E+01  0.51100000000E-03 0.  1.
        -12    1    3    3    0    0  0.24610837006E+00 -0.42951010435E+02 -0.10704722091E+01  0.42965052978E+02  0.00000000000E+00 0.  1.
</event>
<event>
 7    1  0.3276565E-015  0.9000774E+02  0.7816164E-02  0.1186339E+00
        -11   -1    0    0    0    0  0.00000000000E+00  0.00000000000E+00  0.45593999997E+02  0.45594000000E+02  0.51100000000E-03 0. -1.
         11   -1    0    0    0    0 -0.00000000000E+00 -0.00000000000E+00 -0.45593999997E+02  0.45594000000E+02  0.51100000000E-03 0.  1.
    9900012    2    1    2    0    0 -0.98369747554E+00  0.54361407562E+00 -0.36031596964E+00  0.90007743848E+02  0.90000005267E+02 0.  0.
         12    1    1    2    0    0  0.98369747554E+00 -0.54361407562E+00  0.36031596964E+00  0.11802561521E+01  0.00000000000E+00 0. -1.
         11    1    3    3    0    0  0.14053828173E+02 -0.14611923700E+02 -0.77556981720E+01  0.21706433492E+02  0.51100000000E-03 0. -1.
        -11    1    3    3    0    0 -0.12773486034E+02 -0.20869114030E+02 -0.12079200106E+02  0.27287157077E+02  0.51100000000E-03 0.  1.
        -12    1    3    3    0    0 -0.22640396146E+01  0.36024651806E+02  0.19474582308E+02  0.41014153279E+02  0.00000000000E+00 0.  1.
</event>
<event>
 7    1  0.3276565E-015  0.9000775E+02  0.7816164E-02  0.1186339E+00
        -11   -1    0    0    0    0  0.00000000000E+00  0.00000000000E+00  0.45593999997E+02  0.45594000000E+02  0.51100000000E-03 0. -1.
         11   -1    0    0    0    0 -0.00000000000E+00 -0.00000000000E+00 -0.45593999997E+02  0.45594000000E+02  0.51100000000E-03 0.  1.
    9900012    2    1    2    0    0  0.23047559312E+00  0.55617758676E+00  0.10151562034E+01  0.90007748067E+02  0.90000009542E+02 0.  0.
         12    1    1    2    0    0 -0.23047559312E+00 -0.55617758676E+00 -0.10151562034E+01  0.11802519326E+01  0.00000000000E+00 0. -1.
         11    1    3    3    0    0  0.52747715510E+01 -0.28242319730E+01  0.70650109837E+01  0.92581791737E+01  0.51100000000E-03 0. -1.
        -11    1    3    3    0    0  0.29916893424E+02 -0.24729024995E+01 -0.26313121820E+02  0.39918869461E+02  0.51100000000E-03 0.  1.
         12    1    3    3    0    0 -0.34961189382E+02  0.58533120593E+01  0.20263267039E+02  0.40830699433E+02  0.00000000000E+00 0. -1.
</event>
<event>
 7    1  0.3276565E-015  0.9000779E+02  0.7816164E-02  0.1186339E+00
        -11   -1    0    0    0    0  0.00000000000E+00  0.00000000000E+00  0.45593999997E+02  0.45594000000E+02  0.51100000000E-03 0. -1.
         11   -1    0    0    0    0 -0.00000000000E+00 -0.00000000000E+00 -0.45593999997E+02  0.45594000000E+02  0.51100000000E-03 0.  1.
    9900012    2    1    2    0    0  0.66040541812E+00  0.54362370963E+00 -0.81316785703E+00  0.90007786453E+02  0.90000048434E+02 0.  0.
         12    1    1    2    0    0 -0.66040541812E+00 -0.54362370963E+00  0.81316785703E+00  0.11802135475E+01  0.00000000000E+00 0. -1.
         11    1    3    3    0    0  0.33689657342E+02  0.17867577783E+02  0.35506928814E+01  0.38299487828E+02  0.51100000000E-03 0. -1.
        -11    1    3    3    0    0  0.50312179787E+01 -0.40796095523E+01  0.72959377986E+01  0.97563864760E+01  0.51100000000E-03 0.  1.
        -12    1    3    3    0    0 -0.38060469903E+02 -0.13244344521E+02 -0.11659798537E+02  0.41951912149E+02  0.00000000000E+00 0.  1.
</event>
<event>
 7    1  0.3276565E-015  0.9000778E+02  0.7816164E-02  0.1186339E+00
        -11   -1    0    0    0    0  0.00000000000E+00  0.00000000000E+00  0.45593999997E+02  0.45594000000E+02  0.51100000000E-03 0.  1.
         11   -1    0    0    0    0 -0.00000000000E+00 -0.00000000000E+00 -0.45593999997E+02  0.45594000000E+02  0.51100000000E-03 0. -1.
    9900012    2    1    2    0    0 -0.18901904898E+00 -0.39257802630E+00  0.10968454408E+01  0.90007781534E+02  0.90000043450E+02 0.  0.
         12    1    1    2    0    0  0.18901904898E+00  0.39257802630E+00 -0.10968454408E+01  0.11802184665E+01  0.00000000000E+00 0. -1.
         11    1    3    3    0    0 -0.28643968269E+02 -0.19474959209E+02 -0.50502284745E+01  0.35003653556E+02  0.51100000000E-03 0. -1.
        -11    1    3    3    0    0 -0.79436415828E+01 -0.59541526804E+01 -0.18774242653E+01  0.10103370619E+02  0.51100000000E-03 0.  1.
        -12    1    3    3    0    0  0.36398590802E+02  0.25036533863E+02  0.80244981806E+01  0.44900757358E+02  0.00000000000E+00 0.  1.
</event>
<event>
 7    1  0.3276565E-015  0.9000775E+02  0.7816164E-02  0.1186339E+00
        -11   -1    0    0    0    0  0.00000000000E+00  0.00000000000E+00  0.45593999997E+02  0.45594000000E+02  0.51100000000E-03 0.  1.
         11   -1    0    0    0    0 -0.00000000000E+00 -0.00000000000E+00 -0.45593999997E+02  0.45594000000E+02  0.51100000000E-03 0. -1.
    9900012    2    1    2    0    0  0.68102684488E+00 -0.74056684863E+00  0.61704852957E+00  0.90007751844E+02  0.90000013369E+02 0.  0.
         12    1    1    2    0    0 -0.68102684488E+00  0.74056684863E+00 -0.61704852957E+00  0.11802481555E+01  0.00000000000E+00 0. -1.
         11    1    3    3    0    0  0.14710580524E+02 -0.29206314914E+02  0.21891645385E+02  0.39352943323E+02  0.51100000000E-03 0. -1.
        -11    1    3    3    0    0  0.10259383518E+02  0.42709126115E+01 -0.18952318951E+01  0.11273311355E+02  0.51100000000E-03 0.  1.
        -12    1    3    3    0    0 -0.24288937198E+02  0.24194835454E+02 -0.19379364960E+02  0.39381497167E+02  0.00000000000E+00 0.  1.
</event>
<event>
 7    1  0.3276565E-015  0.9000780E+02  0.7816164E-02  0.1186339E+00
        -11   -1    0    0    0    0  0.00000000000E+00  0.00000000000E+00  0.45593999997E+02  0.45594000000E+02  0.51100000000E-03 0.  1.
         11   -1    0    0    0    0 -0.00000000000E+00 -0.00000000000E+00 -0.45593999997E+02  0.45594000000E+02  0.51100000000E-03 0. -1.
    9900012    2    1    2    0    0  0.57041067855E+00 -0.45330186196E-01  0.10322068277E+01  0.90007799126E+02  0.90000061274E+02 0.  0.
         12    1    1    2    0    0 -0.57041067855E+00  0.45330186196E-01 -0.10322068277E+01  0.11802008741E+01  0.00000000000E+00 0. -1.
         11    1    3    3    0    0 -0.18582348818E+01 -0.11248766355E+01  0.10188744620E+02  0.10417720552E+02  0.51100000000E-03 0. -1.
        -11    1    3    3    0    0 -0.24565757409E+01  0.10953309238E+02  0.33606068153E+02  0.35431307690E+02  0.51100000000E-03 0.  1.
         12    1    3    3    0    0  0.48852213012E+01 -0.98737627882E+01 -0.42762605945E+02  0.44158770884E+02  0.00000000000E+00 0. -1.
</event>
<event>
 7    1  0.3276565E-015  0.9000779E+02  0.7816164E-02  0.1186339E+00
        -11   -1    0    0    0    0  0.00000000000E+00  0.00000000000E+00  0.45593999997E+02  0.45594000000E+02  0.51100000000E-03 0. -1.
         11   -1    0    0    0    0 -0.00000000000E+00 -0.00000000000E+00 -0.45593999997E+02  0.45594000000E+02  0.51100000000E-03 0.  1.
    9900012    2    1    2    0    0 -0.11411991223E+01 -0.93163470580E-01 -0.28614541005E+00  0.90007790669E+02  0.90000052706E+02 0.  0.
         12    1    1    2    0    0  0.11411991223E+01  0.93163470580E-01  0.28614541005E+00  0.11802093308E+01  0.00000000000E+00 0. -1.
         11    1    3    3    0    0 -0.64289781166E+01  0.35122283534E+02 -0.19488384681E+02  0.40678049338E+02  0.51100000000E-03 0. -1.
        -11    1    3    3    0    0  0.23359161461E+01  0.44682820111E+01 -0.22564552969E+00  0.50470748497E+01  0.51100000000E-03 0.  1.
        -12    1    3    3    0    0  0.29518628483E+01 -0.39683729015E+02  0.19427884800E+02  0.44282666481E+02  0.00000000000E+00 0.  1.
</event>
<event>
 7    1  0.3276565E-015  0.9000773E+02  0.7816164E-02  0.1186339E+00
        -11   -1    0    0    0    0  0.00000000000E+00  0.00000000000E+00  0.45593999997E+02  0.45594000000E+02  0.51100000000E-03 0.  1.
         11   -1    0    0    0    0 -0.00000000000E+00 -0.00000000000E+00 -0.45593999997E+02  0.45594000000E+02  0.51100000000E-03 0. -1.
    9900012    2    1    2    0    0 -0.74494420902E+00  0.42008571151E+00  0.81340309780E+00  0.90007729489E+02  0.89999990718E+02 0.  0.
         12    1    1    2    0    0  0.74494420902E+00 -0.42008571151E+00 -0.81340309780E+00  0.11802705110E+01  0.00000000000E+00 0. -1.
         11    1    3    3    0    0  0.27417476368E+01 -0.39351580967E+02  0.23287224933E+01  0.39515655801E+02  0.51100000000E-03 0. -1.
        -11    1    3    3    0    0 -0.11487584876E+02  0.23520229234E+01  0.25853896309E+01  0.12007533382E+02  0.51100000000E-03 0.  1.
        -12    1    3    3    0    0  0.80008930306E+01  0.37419643755E+02 -0.41007090264E+01  0.38484540306E+02  0.00000000000E+00 0.  1.
</event>
<event>
 7    1  0.3276565E-015  0.9000772E+02  0.7816164E-02  0.1186339E+00
        -11   -1    0    0    0    0  0.00000000000E+00  0.00000000000E+00  0.45593999997E+02  0.45594000000E+02  0.51100000000E-03 0. -1.
         11   -1    0    0    0    0 -0.00000000000E+00 -0.00000000000E+00 -0.45593999997E+02  0.45594000000E+02  0.51100000000E-03 0.  1.
    9900012    2    1    2    0    0  0.10639999740E+01 -0.31079157954E+00  0.40542837669E+00  0.90007720576E+02  0.89999981687E+02 0.  0.
         12    1    1    2    0    0 -0.10639999740E+01  0.31079157954E+00 -0.40542837669E+00  0.11802794242E+01  0.00000000000E+00 0. -1.
         11    1    3    3    0    0  0.64701015452E+01 -0.21804830456E+01 -0.55405622058E+01  0.87928692777E+01  0.51100000000E-03 0. -1.
        -11    1    3    3    0    0  0.96107881342E+01 -0.26553050843E+02 -0.24166620214E+02  0.37167960537E+02  0.51100000000E-03 0.  1.
         12    1    3    3    0    0 -0.15016889705E+02  0.28422742309E+02  0.30112610797E+02  0.44046890762E+02  0.00000000000E+00 0. -1.
</event>
<event>
 7    1  0.3276565E-015  0.9000777E+02  0.7816164E-02  0.1186339E+00
        -11   -1    0    0    0    0  0.00000000000E+00  0.00000000000E+00  0.45593999997E+02  0.45594000000E+02  0.51100000000E-03 0. -1.
         11   -1    0    0    0    0 -0.00000000000E+00 -0.00000000000E+00 -0.45593999997E+02  0.45594000000E+02  0.51100000000E-03 0.  1.
    9900012    2    1    2    0    0  0.61276690974E-02  0.53323187648E+00 -0.10528888978E+01  0.90007767475E+02  0.90000029205E+02 0.  0.
         12    1    1    2    0    0 -0.61276690974E-02 -0.53323187648E+00  0.10528888978E+01  0.11802325252E+01  0.00000000000E+00 0. -1.
         11    1    3    3    0    0  0.37236052630E+02 -0.88799953793E+01  0.70291874675E+01  0.38920269914E+02  0.51100000000E-03 0. -1.
        -11    1    3    3    0    0  0.79954768840E+00 -0.22793132341E+01  0.78624398899E+01  0.82251143827E+01  0.51100000000E-03 0.  1.
        -12    1    3    3    0    0 -0.38029472650E+02  0.11692540490E+02 -0.15944516255E+02  0.42862383178E+02  0.00000000000E+00 0.  1.
</event>
<event>
 7    1  0.3276565E-015  0.9000775E+02  0.7816164E-02  0.1186339E+00
        -11   -1    0    0    0    0  0.00000000000E+00  0.00000000000E+00  0.45593999997E+02  0.45594000000E+02  0.51100000000E-03 0.  1.
         11   -1    0    0    0    0 -0.00000000000E+00 -0.00000000000E+00 -0.45593999997E+02  0.45594000000E+02  0.51100000000E-03 0. -1.
    9900012    2    1    2    0    0 -0.27779907361E+00 -0.85164961402E+00  0.76845219609E+00  0.90007746566E+02  0.90000008021E+02 0.  0.
         12    1    1    2    0    0  0.27779907361E+00  0.85164961402E+00 -0.76845219609E+00  0.11802534338E+01  0.00000000000E+00 0. -1.
         11    1    3    3    0    0  0.26658339473E+01 -0.96421564579E+01  0.46213211887E+01  0.11019730559E+02  0.51100000000E-03 0. -1.
        -11    1    3    3    0    0  0.12729218666E+02  0.38066259656E+02  0.12409494994E+02  0.42012720672E+02  0.51100000000E-03 0.  1.
         12    1    3    3    0    0 -0.15672851687E+02 -0.29275752812E+02 -0.16262363987E+02  0.36975295335E+02  0.00000000000E+00 0. -1.
</event>
<event>
 7    1  0.3276565E-015  0.9000775E+02  0.7816164E-02  0.1186339E+00
        -11   -1    0    0    0    0  0.00000000000E+00  0.00000000000E+00  0.45593999997E+02  0.45594000000E+02  0.51100000000E-03 0.  1.
         11   -1    0    0    0    0 -0.00000000000E+00 -0.00000000000E+00 -0.45593999997E+02  0.45594000000E+02  0.51100000000E-03 0. -1.
    9900012    2    1    2    0    0 -0.23842122596E+00  0.82254501812E+00  0.81213604898E+00  0.90007750048E+02  0.90000011548E+02 0.  0.
         12    1    1    2    0    0  0.23842122596E+00 -0.82254501812E+00 -0.81213604898E+00  0.11802499523E+01  0.00000000000E+00 0. -1.
         11    1    3    3    0    0 -0.13348582156E+02  0.32821225638E+02  0.57377478859E+01  0.35893442981E+02  0.51100000000E-03 0. -1.
        -11    1    3    3    0    0  0.15641871450E+02  0.29972378005E+01 -0.97847686575E+01  0.18692064488E+02  0.51100000000E-03 0.  1.
        -12    1    3    3    0    0 -0.25317105197E+01 -0.34995918421E+02  0.48591568205E+01  0.35422242578E+02  0.00000000000E+00 0.  1.
</event>
<event>
 7    1  0.3276565E-015  0.9000779E+02  0.7816164E-02  0.1186339E+00
        -11   -1    0    0    0    0  0.00000000000E+00  0.00000000000E+00  0.45593999997E+02  0.45594000000E+02  0.51100000000E-03 0.  1.
         11   -1    0    0    0    0 -0.00000000000E+00 -0.00000000000E+00 -0.45593999997E+02  0.45594000000E+02  0.51100000000E-03 0. -1.
    9900012    2    1    2    0    0  0.19236515301E+00  0.30041359336E+00  0.11250099394E+01  0.90007788136E+02  0.90000050140E+02 0.  0.
         12    1    1    2    0    0 -0.19236515301E+00 -0.30041359336E+00 -0.11250099394E+01  0.11802118636E+01  0.00000000000E+00 0. -1.
         11    1    3    3    0    0 -0.35489558442E+02 -0.11407627818E+02 -0.11329641229E+02  0.38961564412E+02  0.51100000000E-03 0. -1.
        -11    1    3    3    0    0 -0.21468863135E+01 -0.20648448905E+01  0.10309346941E+02  0.10731045610E+02  0.51100000000E-03 0.  1.
        -12    1    3    3    0    0  0.37828809908E+02  0.13772886301E+02  0.21453042267E+01  0.40315178114E+02  0.00000000000E+00 0.  1.
</event>
<event>
 7    1  0.3276565E-015  0.9000752E+02  0.7816164E-02  0.1186339E+00
        -11   -1    0    0    0    0  0.00000000000E+00  0.00000000000E+00  0.45593999997E+02  0.45594000000E+02  0.51100000000E-03 0. -1.
         11   -1    0    0    0    0 -0.00000000000E+00 -0.00000000000E+00 -0.45593999997E+02  0.45594000000E+02  0.51100000000E-03 0.  1.
    9900012    2    1    2    0    0 -0.55468984756E+00 -0.10326121175E+01  0.13990033015E+00  0.90007516745E+02  0.89999775166E+02 0.  0.
         12    1    1    2    0    0  0.55468984756E+00  0.10326121175E+01 -0.13990033015E+00  0.11804832547E+01  0.00000000000E+00 0. -1.
         11    1    3    3    0    0  0.44737951532E+01  0.43609129475E+01 -0.11203351387E+02  0.12827606455E+02  0.51100000000E-03 0. -1.
        -11    1    3    3    0    0 -0.24297526495E+00 -0.14394450149E+02 -0.30705599271E+02  0.33913021966E+02  0.51100000000E-03 0.  1.
         12    1    3    3    0    0 -0.47855097358E+01  0.90009250835E+01  0.42048850988E+02  0.43266888324E+02  0.00000000000E+00 0. -1.
</event>
<event>
 7    1  0.3276565E-015  0.9000749E+02  0.7816164E-02  0.1186340E+00
        -11   -1    0    0    0    0  0.00000000000E+00  0.00000000000E+00  0.45593999997E+02  0.45594000000E+02  0.51100000000E-03 0. -1.
         11   -1    0    0    0    0 -0.00000000000E+00 -0.00000000000E+00 -0.45593999997E+02  0.45594000000E+02  0.51100000000E-03 0.  1.
    9900012    2    1    2    0    0  0.47913128398E+00 -0.81754822291E+00  0.70401805756E+00  0.90007494469E+02  0.89999752595E+02 0.  0.
         12    1    1    2    0    0 -0.47913128398E+00  0.81754822291E+00 -0.70401805756E+00  0.11805055313E+01  0.00000000000E+00 0. -1.
         11    1    3    3    0    0 -0.28752963719E+02  0.11836085309E+02 -0.17028590542E+02  0.35451357297E+02  0.51100000000E-03 0. -1.
        -11    1    3    3    0    0  0.26900678487E+01  0.80678889222E+01 -0.83840033679E+01  0.11942311729E+02  0.51100000000E-03 0.  1.
        -12    1    3    3    0    0  0.26542027154E+02 -0.20721522454E+02  0.26116611967E+02  0.42613825443E+02  0.00000000000E+00 0.  1.
</event>
<event>
 7    1  0.3276565E-015  0.9000753E+02  0.7816164E-02  0.1186339E+00
        -11   -1    0    0    0    0  0.00000000000E+00  0.00000000000E+00  0.45593999997E+02  0.45594000000E+02  0.51100000000E-03 0. -1.
         11   -1    0    0    0    0 -0.00000000000E+00 -0.00000000000E+00 -0.45593999997E+02  0.45594000000E+02  0.51100000000E-03 0.  1.
    9900012    2    1    2    0    0  0.92115771177E+00 -0.15812481884E+00  0.72108492864E+00  0.90007534642E+02  0.89999793299E+02 0.  0.
         12    1    1    2    0    0 -0.92115771177E+00  0.15812481884E+00 -0.72108492864E+00  0.11804653585E+01  0.00000000000E+00 0. -1.
         11    1    3    3    0    0 -0.48804627195E+01  0.75346836250E+01  0.37384652376E+00  0.89849950011E+01  0.51100000000E-03 0. -1.
        -11    1    3    3    0    0  0.11054962131E+02 -0.55190805085E+01 -0.39183270591E+02  0.41085290942E+02  0.51100000000E-03 0.  1.
         12    1    3    3    0    0 -0.52533416994E+01 -0.21737279353E+01  0.39530508995E+02  0.39937248698E+02  0.00000000000E+00 0. -1.
</event>
<event>
 7    1  0.3276565E-015  0.9000763E+02  0.7816164E-02  0.1186339E+00
        -11   -1    0    0    0    0  0.00000000000E+00  0.00000000000E+00  0.45593999997E+02  0.45594000000E+02  0.51100000000E-03 0. -1.
         11   -1    0    0    0    0 -0.00000000000E+00 -0.00000000000E+00 -0.45593999997E+02  0.45594000000E+02  0.51100000000E-03 0.  1.
    9900012    2    1    2    0    0  0.57360494584E+00 -0.27481654506E+00 -0.99434830531E+00  0.90007629160E+02  0.89999889065E+02 0.  0.
         12    1    1    2    0    0 -0.57360494584E+00  0.27481654506E+00  0.99434830531E+00  0.11803708399E+01  0.00000000000E+00 0. -1.
         11    1    3    3    0    0 -0.54746957217E+01  0.50100003968E+00 -0.75678283525E+01  0.93538933348E+01  0.51100000000E-03 0. -1.
        -11    1    3    3    0    0 -0.10216826814E+02  0.33027673292E+02  0.21013840710E+02  0.40457289267E+02  0.51100000000E-03 0.  1.
         12    1    3    3    0    0  0.16265127481E+02 -0.33803489876E+02 -0.14440360663E+02  0.40196446558E+02  0.00000000000E+00 0. -1.
</event>
<event>
 7    1  0.3276565E-015  0.9000771E+02  0.7816164E-02  0.1186339E+00
        -11   -1    0    0    0    0  0.00000000000E+00  0.00000000000E+00  0.45593999997E+02  0.45594000000E+02  0.51100000000E-03 0. -1.
         11   -1    0    0    0    0 -0.00000000000E+00 -0.00000000000E+00 -0.45593999997E+02  0.45594000000E+02  0.51100000000E-03 0.  1.
    9900012    2    1    2    0    0  0.22728359066E+00  0.11551710696E+01 -0.83744199334E-01  0.90007707188E+02  0.89999968123E+02 0.  0.
         12    1    1    2    0    0 -0.22728359066E+00 -0.11551710696E+01  0.83744199334E-01  0.11802928118E+01  0.00000000000E+00 0. -1.
         11    1    3    3    0    0  0.39037129823E+02  0.18460419572E+01  0.92930706375E+01  0.40170468479E+02  0.51100000000E-03 0. -1.
        -11    1    3    3    0    0 -0.34528346460E+01  0.88238231486E+01  0.47405973920E+01  0.10595054787E+02  0.51100000000E-03 0.  1.
        -12    1    3    3    0    0 -0.35357011586E+02 -0.95146940362E+01 -0.14117412229E+02  0.39242183922E+02  0.00000000000E+00 0.  1.
</event>
<event>
 7    1  0.3276565E-015  0.9000785E+02  0.7816164E-02  0.1186339E+00
        -11   -1    0    0    0    0  0.00000000000E+00  0.00000000000E+00  0.45593999997E+02  0.45594000000E+02  0.51100000000E-03 0.  1.
         11   -1    0    0    0    0 -0.00000000000E+00 -0.00000000000E+00 -0.45593999997E+02  0.45594000000E+02  0.51100000000E-03 0. -1.
    9900012    2    1    2    0    0 -0.60223402467E-01 -0.11670449596E+01  0.16471425849E+00  0.90007851034E+02  0.90000113867E+02 0.  0.
         12    1    1    2    0    0  0.60223402467E-01  0.11670449596E+01 -0.16471425849E+00  0.11801489664E+01  0.00000000000E+00 0. -1.
         11    1    3    3    0    0 -0.26820217843E+02  0.29382656834E+02  0.57828170239E+01  0.40200815673E+02  0.51100000000E-03 0. -1.
        -11    1    3    3    0    0 -0.12111639931E+01 -0.16161463966E+01 -0.91863064380E+01  0.94056936813E+01  0.51100000000E-03 0.  1.
        -12    1    3    3    0    0  0.27971158433E+02 -0.28933555397E+02  0.35682036726E+01  0.40401341679E+02  0.00000000000E+00 0.  1.
</event>
<event>
 7    1  0.3276565E-015  0.9000771E+02  0.7816164E-02  0.1186339E+00
        -11   -1    0    0    0    0  0.00000000000E+00  0.00000000000E+00  0.45593999997E+02  0.45594000000E+02  0.51100000000E-03 0.  1.
         11   -1    0    0    0    0 -0.00000000000E+00 -0.00000000000E+00 -0.45593999997E+02  0.45594000000E+02  0.51100000000E-03 0. -1.
    9900012    2    1    2    0    0  0.15132486909E+00 -0.82352302561E+00  0.83186367632E+00  0.90007709118E+02  0.89999970079E+02 0.  0.
         12    1    1    2    0    0 -0.15132486909E+00  0.82352302561E+00 -0.83186367632E+00  0.11802908818E+01  0.00000000000E+00 0. -1.
         11    1    3    3    0    0  0.16168312041E+01 -0.79417355157E+01 -0.36120638686E+02  0.37018722904E+02  0.51100000000E-03 0. -1.
        -11    1    3    3    0    0 -0.47883850295E+01 -0.14001064721E+01 -0.67200893579E+01  0.83695000187E+01  0.51100000000E-03 0.  1.
        -12    1    3    3    0    0  0.33228786945E+01  0.85183189622E+01  0.43672591720E+02  0.44619486195E+02  0.00000000000E+00 0.  1.
</event>
<event>
 7    1  0.3276565E-015  0.9000774E+02  0.7816164E-02  0.1186339E+00
        -11   -1    0    0    0    0  0.00000000000E+00  0.00000000000E+00  0.45593999997E+02  0.45594000000E+02  0.51100000000E-03 0.  1.
         11   -1    0    0    0    0 -0.00000000000E+00 -0.00000000000E+00 -0.45593999997E+02  0.45594000000E+02  0.51100000000E-03 0. -1.
    9900012    2    1    2    0    0  0.73939058075E+00 -0.18906711292E+00  0.90031137806E+00  0.90007743510E+02  0.90000004925E+02 0.  0.
         12    1    1    2    0    0 -0.73939058075E+00  0.18906711292E+00 -0.90031137806E+00  0.11802564897E+01  0.00000000000E+00 0. -1.
         11    1    3    3    0    0  0.75415579530E+01 -0.50200492452E+01  0.62293988149E+01  0.10994607798E+02  0.51100000000E-03 0. -1.
        -11    1    3    3    0    0  0.10435205540E+02 -0.31751601847E+02  0.11309172583E+02  0.35283921541E+02  0.51100000000E-03 0.  1.
         12    1    3    3    0    0 -0.17237372913E+02  0.36582583979E+02 -0.16638260020E+02  0.43729214171E+02  0.00000000000E+00 0. -1.
</event>
<event>
 7    1  0.3276565E-015  0.9000761E+02  0.7816164E-02  0.1186339E+00
        -11   -1    0    0    0    0  0.00000000000E+00  0.00000000000E+00  0.45593999997E+02  0.45594000000E+02  0.51100000000E-03 0.  1.
         11   -1    0    0    0    0 -0.00000000000E+00 -0.00000000000E+00 -0.45593999997E+02  0.45594000000E+02  0.51100000000E-03 0. -1.
    9900012    2    1    2    0    0  0.11781337723E+01 -0.62239054671E-01  0.38142617199E-01  0.90007606953E+02  0.89999866565E+02 0.  0.
         12    1    1    2    0    0 -0.11781337723E+01  0.62239054671E-01 -0.38142617199E-01  0.11803930466E+01  0.00000000000E+00 0. -1.
         11    1    3    3    0    0  0.61568882671E+01  0.54919920341E+01 -0.53660224569E+00  0.82678408226E+01  0.51100000000E-03 0. -1.
        -11    1    3    3    0    0 -0.31662505076E+01  0.29259556778E+02  0.25454521623E+02  0.38911174185E+02  0.51100000000E-03 0.  1.
         12    1    3    3    0    0 -0.18125039872E+01 -0.34813787867E+02 -0.24879776761E+02  0.42828591945E+02  0.00000000000E+00 0. -1.
</event>
<event>
 7    1  0.3276565E-015  0.9000770E+02  0.7816164E-02  0.1186339E+00
        -11   -1    0    0    0    0  0.00000000000E+00  0.00000000000E+00  0.45593999997E+02  0.45594000000E+02  0.51100000000E-03 0. -1.
         11   -1    0    0    0    0 -0.00000000000E+00 -0.00000000000E+00 -0.45593999997E+02  0.45594000000E+02  0.51100000000E-03 0.  1.
    9900012    2    1    2    0    0  0.11177428725E+01  0.35860119515E+00  0.12311155914E+00  0.90007703257E+02  0.89999964140E+02 0.  0.
         12    1    1    2    0    0 -0.11177428725E+01 -0.35860119515E+00 -0.12311155914E+00  0.11802967433E+01  0.00000000000E+00 0. -1.
         11    1    3    3    0    0  0.23341444094E+02 -0.29680019232E+02  0.18330355845E+02  0.41972949618E+02  0.51100000000E-03 0. -1.
        -11    1    3    3    0    0 -0.68126545929E+01 -0.31826716706E+01 -0.53221845462E+01  0.92123455303E+01  0.51100000000E-03 0.  1.
        -12    1    3    3    0    0 -0.15411046629E+02  0.33221292098E+02 -0.12885059740E+02  0.38822408108E+02  0.00000000000E+00 0.  1.
</event>
<event>
 7    1  0.3276565E-015  0.9000774E+02  0.7816164E-02  0.1186339E+00
        -11   -1    0    0    0    0  0.00000000000E+00  0.00000000000E+00  0.45593999997E+02  0.45594000000E+02  0.51100000000E-03 0.  1.
         11   -1    0    0    0    0 -0.00000000000E+00 -0.00000000000E+00 -0.45593999997E+02  0.45594000000E+02  0.51100000000E-03 0. -1.
    9900012    2    1    2    0    0 -0.59556560261E+00 -0.10116638952E+01 -0.12188659193E+00  0.90007737925E+02  0.89999999266E+02 0.  0.
         12    1    1    2    0    0  0.59556560261E+00  0.10116638952E+01  0.12188659193E+00  0.11802620747E+01  0.00000000000E+00 0. -1.
         11    1    3    3    0    0 -0.25507300502E+02 -0.27787880322E+02 -0.95162272122E+01  0.38901764129E+02  0.51100000000E-03 0. -1.
        -11    1    3    3    0    0  0.49265720510E+01 -0.75700678874E+00 -0.10550691568E+02  0.11668815890E+02  0.51100000000E-03 0.  1.
        -12    1    3    3    0    0  0.19985162849E+02  0.27533223216E+02  0.19945032188E+02  0.39437157906E+02  0.00000000000E+00 0.  1.
</event>
<event>
 7    1  0.3276565E-015  0.9000779E+02  0.7816164E-02  0.1186339E+00
        -11   -1    0    0    0    0  0.00000000000E+00  0.00000000000E+00  0.45593999997E+02  0.45594000000E+02  0.51100000000E-03 0. -1.
         11   -1    0    0    0    0 -0.00000000000E+00 -0.00000000000E+00 -0.45593999997E+02  0.45594000000E+02  0.51100000000E-03 0.  1.
    9900012    2    1    2    0    0  0.37315395033E+00  0.10465806684E+01  0.39789082429E+00  0.90007791512E+02  0.90000053560E+02 0.  0.
         12    1    1    2    0    0 -0.37315395033E+00 -0.10465806684E+01 -0.39789082429E+00  0.11802084876E+01  0.00000000000E+00 0. -1.
         11    1    3    3    0    0  0.34216863034E+00  0.85712164125E+01  0.27294838008E+01  0.90018282722E+01  0.51100000000E-03 0. -1.
        -11    1    3    3    0    0 -0.31175835264E+02  0.12031690093E+02 -0.21251591680E+02  0.39602075957E+02  0.51100000000E-03 0.  1.
         12    1    3    3    0    0  0.31206820584E+02 -0.19556325837E+02  0.18919998704E+02  0.41403887283E+02  0.00000000000E+00 0. -1.
</event>
<event>
 7    1  0.5399538E-015  0.9000754E+02  0.7816164E-02  0.1186339E+00
        -11   -1    0    0    0    0  0.00000000000E+00  0.00000000000E+00  0.45593999997E+02  0.45594000000E+02  0.51100000000E-03 0.  1.
         11   -1    0    0    0    0 -0.00000000000E+00 -0.00000000000E+00 -0.45593999997E+02  0.45594000000E+02  0.51100000000E-03 0. -1.
    9900012    2    1    2    0    0  0.80631782857E+00 -0.59720820951E+00  0.62184220537E+00  0.90007536610E+02  0.89999795293E+02 0.  0.
         12    1    1    2    0    0 -0.80631782857E+00  0.59720820951E+00 -0.62184220537E+00  0.11804633898E+01  0.00000000000E+00 0. -1.
         11    1    3    3    0    0 -0.11475299255E+01 -0.38830693508E+01  0.88507700833E+01  0.97329945978E+01  0.51100000000E-03 0. -1.
        -11    1    3    3    0    0 -0.20837976609E+01  0.78808991388E+01  0.35345257709E+02  0.36273103351E+02  0.51100000000E-03 0.  1.
         12    1    3    3    0    0  0.40376454150E+01 -0.45950379976E+01 -0.43574185587E+02  0.44001438661E+02  0.00000000000E+00 0. -1.
</event>
<event>
 7    1  0.3276565E-015  0.9000770E+02  0.7816164E-02  0.1186339E+00
        -11   -1    0    0    0    0  0.00000000000E+00  0.00000000000E+00  0.45593999997E+02  0.45594000000E+02  0.51100000000E-03 0. -1.
         11   -1    0    0    0    0 -0.00000000000E+00 -0.00000000000E+00 -0.45593999997E+02  0.45594000000E+02  0.51100000000E-03 0.  1.
    9900012    2    1    2    0    0 -0.50151205390E-01  0.11697013672E+01 -0.14963821765E+00  0.90007700026E+02  0.89999960867E+02 0.  0.
         12    1    1    2    0    0  0.50151205390E-01 -0.11697013672E+01  0.14963821765E+00  0.11802999738E+01  0.00000000000E+00 0. -1.
         11    1    3    3    0    0 -0.97309057146E+01 -0.10336249632E+01  0.42750695823E+02  0.43856366701E+02  0.51100000000E-03 0. -1.
        -11    1    3    3    0    0  0.12802890517E+01 -0.47746558080E+01 -0.66134366786E+01  0.82567562096E+01  0.51100000000E-03 0.  1.
        -12    1    3    3    0    0  0.84004654575E+01  0.69779821384E+01 -0.36286897362E+02  0.37894577116E+02  0.00000000000E+00 0.  1.
</event>
<event>
 7    1  0.3276565E-015  0.9000753E+02  0.7816164E-02  0.1186339E+00
        -11   -1    0    0    0    0  0.00000000000E+00  0.00000000000E+00  0.45593999997E+02  0.45594000000E+02  0.51100000000E-03 0. -1.
         11   -1    0    0    0    0 -0.00000000000E+00 -0.00000000000E+00 -0.45593999997E+02  0.45594000000E+02  0.51100000000E-03 0.  1.
    9900012    2    1    2    0    0  0.39547982246E+00  0.39049509240E+00 -0.10414482800E+01  0.90007531776E+02  0.89999790396E+02 0.  0.
         12    1    1    2    0    0 -0.39547982246E+00 -0.39049509240E+00  0.10414482800E+01  0.11804682236E+01  0.00000000000E+00 0. -1.
         11    1    3    3    0    0 -0.17446550589E+01 -0.12650205319E+01  0.70895202576E+01  0.74098175392E+01  0.51100000000E-03 0. -1.
        -11    1    3    3    0    0 -0.24107649211E+02  0.32125289291E+02  0.45687488141E+01  0.40423834906E+02  0.51100000000E-03 0.  1.
         12    1    3    3    0    0  0.26247784093E+02 -0.30469773666E+02 -0.12699717352E+02  0.42173879331E+02  0.00000000000E+00 0. -1.
</event>
<event>
 7    1  0.3276565E-015  0.9000779E+02  0.7816164E-02  0.1186339E+00
        -11   -1    0    0    0    0  0.00000000000E+00  0.00000000000E+00  0.45593999997E+02  0.45594000000E+02  0.51100000000E-03 0.  1.
         11   -1    0    0    0    0 -0.00000000000E+00 -0.00000000000E+00 -0.45593999997E+02  0.45594000000E+02  0.51100000000E-03 0. -1.
    9900012    2    1    2    0    0 -0.32631577738E+00 -0.10618608437E+01  0.39857687605E+00  0.90007790712E+02  0.90000052749E+02 0.  0.
         12    1    1    2    0    0  0.32631577738E+00  0.10618608437E+01 -0.39857687605E+00  0.11802092882E+01  0.00000000000E+00 0. -1.
         11    1    3    3    0    0 -0.77334624891E+01 -0.65864106908E+01  0.24769828281E+01  0.10455749234E+02  0.51100000000E-03 0. -1.
        -11    1    3    3    0    0  0.54598233378E+01 -0.36731995673E+02 -0.28379303205E+01  0.37243832050E+02  0.51100000000E-03 0.  1.
         12    1    3    3    0    0  0.19473233739E+01  0.42256545521E+02  0.75952436840E+00  0.42308209427E+02  0.00000000000E+00 0. -1.
</event>
<event>
 7    1  0.3276565E-015  0.9000776E+02  0.7816164E-02  0.1186339E+00
        -11   -1    0    0    0    0  0.00000000000E+00  0.00000000000E+00  0.45593999997E+02  0.45594000000E+02  0.51100000000E-03 0.  1.
         11   -1    0    0    0    0 -0.00000000000E+00 -0.00000000000E+00 -0.45593999997E+02  0.45594000000E+02  0.51100000000E-03 0. -1.
    9900012    2    1    2    0    0 -0.66162859002E+00  0.96633664076E+00  0.14627452224E+00  0.90007764799E+02  0.90000026494E+02 0.  0.
         12    1    1    2    0    0  0.66162859002E+00 -0.96633664076E+00 -0.14627452224E+00  0.11802352012E+01  0.00000000000E+00 0. -1.
         11    1    3    3    0    0  0.34194976298E+02 -0.10627006415E+02  0.22239743174E+02  0.42152530720E+02  0.51100000000E-03 0. -1.
        -11    1    3    3    0    0 -0.33685604519E+01 -0.48285721263E+01 -0.73149070504E+01  0.93898974283E+01  0.51100000000E-03 0.  1.
        -12    1    3    3    0    0 -0.31488044436E+02  0.16421915182E+02 -0.14778561601E+02  0.38465336651E+02  0.00000000000E+00 0.  1.
</event>
<event>
 7    1  0.3276565E-015  0.9000773E+02  0.7816164E-02  0.1186339E+00
        -11   -1    0    0    0    0  0.00000000000E+00  0.00000000000E+00  0.45593999997E+02  0.45594000000E+02  0.51100000000E-03 0. -1.
         11   -1    0    0    0    0 -0.00000000000E+00 -0.00000000000E+00 -0.45593999997E+02  0.45594000000E+02  0.51100000000E-03 0.  1.
    9900012    2    1    2    0    0 -0.76845295123E+00  0.60614105266E+00 -0.65962848765E+00  0.90007730261E+02  0.89999991501E+02 0.  0.
         12    1    1    2    0    0  0.76845295123E+00 -0.60614105266E+00  0.65962848765E+00  0.11802697385E+01  0.00000000000E+00 0. -1.
         11    1    3    3    0    0 -0.32384397858E+01 -0.17874676014E+01 -0.15825273953E+02  0.16251825393E+02  0.51100000000E-03 0. -1.
        -11    1    3    3    0    0 -0.81789659806E+01  0.34273553003E+02 -0.33276576208E+01  0.35392728426E+02  0.51100000000E-03 0.  1.
         12    1    3    3    0    0  0.10648952815E+02 -0.31879944349E+02  0.18493303086E+02  0.38363176442E+02  0.00000000000E+00 0. -1.
</event>
<event>
 7    1  0.3276565E-015  0.9000788E+02  0.7816164E-02  0.1186339E+00
        -11   -1    0    0    0    0  0.00000000000E+00  0.00000000000E+00  0.45593999997E+02  0.45594000000E+02  0.51100000000E-03 0.  1.
         11   -1    0    0    0    0 -0.00000000000E+00 -0.00000000000E+00 -0.45593999997E+02  0.45594000000E+02  0.51100000000E-03 0. -1.
    9900012    2    1    2    0    0 -0.10789982469E+01 -0.46358431969E+00 -0.11634796005E+00  0.90007879461E+02  0.90000142670E+02 0.  0.
         12    1    1    2    0    0  0.10789982469E+01  0.46358431969E+00  0.11634796005E+00  0.11801205388E+01  0.00000000000E+00 0. -1.
         11    1    3    3    0    0 -0.20551303534E+02  0.14467972345E+02 -0.29047696099E+02  0.38411547087E+02  0.51100000000E-03 0. -1.
        -11    1    3    3    0    0 -0.77065444277E+01  0.47186657228E+01  0.79502011345E+01  0.12035876850E+02  0.51100000000E-03 0.  1.
        -12    1    3    3    0    0  0.27178849714E+02 -0.19650222387E+02  0.20981147004E+02  0.39560455524E+02  0.00000000000E+00 0.  1.
</event>
<event>
 7    1  0.3276565E-015  0.9000777E+02  0.7816164E-02  0.1186339E+00
        -11   -1    0    0    0    0  0.00000000000E+00  0.00000000000E+00  0.45593999997E+02  0.45594000000E+02  0.51100000000E-03 0. -1.
         11   -1    0    0    0    0 -0.00000000000E+00 -0.00000000000E+00 -0.45593999997E+02  0.45594000000E+02  0.51100000000E-03 0.  1.
    9900012    2    1    2    0    0 -0.97521072148E+00 -0.58539959471E+00 -0.31497803788E+00  0.90007771293E+02  0.90000033074E+02 0.  0.
         12    1    1    2    0    0  0.97521072148E+00  0.58539959471E+00  0.31497803788E+00  0.11802287071E+01  0.00000000000E+00 0. -1.
         11    1    3    3    0    0 -0.14334553999E+02 -0.31490046429E+02  0.17071271236E+02  0.38581482143E+02  0.51100000000E-03 0. -1.
        -11    1    3    3    0    0  0.16630432240E+01 -0.15752750015E+01  0.81631184643E+01  0.84784259989E+01  0.51100000000E-03 0.  1.
        -12    1    3    3    0    0  0.11696300054E+02  0.32479921836E+02 -0.25549367739E+02  0.42947863151E+02  0.00000000000E+00 0.  1.
</event>
<event>
 7    1  0.3276565E-015  0.9000769E+02  0.7816164E-02  0.1186339E+00
        -11   -1    0    0    0    0  0.00000000000E+00  0.00000000000E+00  0.45593999997E+02  0.45594000000E+02  0.51100000000E-03 0. -1.
         11   -1    0    0    0    0 -0.00000000000E+00 -0.00000000000E+00 -0.45593999997E+02  0.45594000000E+02  0.51100000000E-03 0.  1.
    9900012    2    1    2    0    0 -0.21223179943E-01 -0.94679663593E+00 -0.70444721220E+00  0.90007694884E+02  0.89999955656E+02 0.  0.
         12    1    1    2    0    0  0.21223179943E-01  0.94679663593E+00  0.70444721220E+00  0.11803051165E+01  0.00000000000E+00 0. -1.
         11    1    3    3    0    0  0.17253774706E+01 -0.26965586348E+02  0.25864812952E+02  0.37404656445E+02  0.51100000000E-03 0. -1.
        -11    1    3    3    0    0 -0.22488439247E+01 -0.84720085757E+01  0.46396898453E+00  0.87776702937E+01  0.51100000000E-03 0.  1.
        -12    1    3    3    0    0  0.50224327410E+00  0.34490798288E+02 -0.27033229148E+02  0.43825368145E+02  0.00000000000E+00 0.  1.
</event>
<event>
 7    1  0.3276565E-015  0.9000775E+02  0.7816164E-02  0.1186339E+00
        -11   -1    0    0    0    0  0.00000000000E+00  0.00000000000E+00  0.45593999997E+02  0.45594000000E+02  0.51100000000E-03 0. -1.
         11   -1    0    0    0    0 -0.00000000000E+00 -0.00000000000E+00 -0.45593999997E+02  0.45594000000E+02  0.51100000000E-03 0.  1.
    9900012    2    1    2    0    0 -0.47259018213E-01  0.14374684999E+00 -0.11705118546E+01  0.90007748089E+02  0.90000009564E+02 0.  0.
         12    1    1    2    0    0  0.47259018213E-01 -0.14374684999E+00  0.11705118546E+01  0.11802519111E+01  0.00000000000E+00 0. -1.
         11    1    3    3    0    0 -0.27195423189E+02 -0.26135941412E+02 -0.67541011142E+00  0.37724456987E+02  0.51100000000E-03 0. -1.
        -11    1    3    3    0    0 -0.80670782674E+01 -0.33068186100E+00  0.89072692641E+00  0.81228379883E+01  0.51100000000E-03 0.  1.
        -12    1    3    3    0    0  0.35215242438E+02  0.26610370123E+02 -0.13858286696E+01  0.44160453113E+02  0.00000000000E+00 0.  1.
</event>
<event>
 7    1  0.3314040E-015  0.9000790E+02  0.7816164E-02  0.1186339E+00
        -11   -1    0    0    0    0  0.00000000000E+00  0.00000000000E+00  0.45593999997E+02  0.45594000000E+02  0.51100000000E-03 0.  1.
         11   -1    0    0    0    0 -0.00000000000E+00 -0.00000000000E+00 -0.45593999997E+02  0.45594000000E+02  0.51100000000E-03 0. -1.
    9900012    2    1    2    0    0  0.36425184444E+00  0.12548112080E-01  0.11224118577E+01  0.90007896090E+02  0.90000159518E+02 0.  0.
         12    1    1    2    0    0 -0.36425184444E+00 -0.12548112080E-01 -0.11224118577E+01  0.11801039105E+01  0.00000000000E+00 0. -1.
         11    1    3    3    0    0 -0.35103208680E+01 -0.74291201422E+01 -0.47987313915E+01  0.95153561107E+01  0.51100000000E-03 0. -1.
        -11    1    3    3    0    0 -0.12844379412E+02 -0.29919517521E+02  0.18781216840E+02  0.37588425311E+02  0.51100000000E-03 0.  1.
         12    1    3    3    0    0  0.16718952124E+02  0.37361185775E+02 -0.12860073590E+02  0.42904114667E+02  0.00000000000E+00 0. -1.
</event>
<event>
 7    1  0.3276565E-015  0.9000775E+02  0.7816164E-02  0.1186339E+00
        -11   -1    0    0    0    0  0.00000000000E+00  0.00000000000E+00  0.45593999997E+02  0.45594000000E+02  0.51100000000E-03 0.  1.
         11   -1    0    0    0    0 -0.00000000000E+00 -0.00000000000E+00 -0.45593999997E+02  0.45594000000E+02  0.51100000000E-03 0. -1.
    9900012    2    1    2    0    0 -0.26196826562E+00 -0.10167065738E+01 -0.53913732954E+00  0.90007750582E+02  0.90000012089E+02 0.  0.
         12    1    1    2    0    0  0.26196826562E+00  0.10167065738E+01  0.53913732954E+00  0.11802494184E+01  0.00000000000E+00 0. -1.
         11    1    3    3    0    0 -0.56492524024E+01 -0.71446728700E+01 -0.16734828803E+01  0.92607207245E+01  0.51100000000E-03 0. -1.
        -11    1    3    3    0    0 -0.12555148888E+02 -0.27561743853E+02  0.21824034651E+02  0.37330550177E+02  0.51100000000E-03 0.  1.
         12    1    3    3    0    0  0.17942433024E+02  0.33689710149E+02 -0.20689689100E+02  0.43416479680E+02  0.00000000000E+00 0. -1.
</event>
<event>
 7    1  0.3276565E-015  0.9000774E+02  0.7816164E-02  0.1186339E+00
        -11   -1    0    0    0    0  0.00000000000E+00  0.00000000000E+00  0.45593999997E+02  0.45594000000E+02  0.51100000000E-03 0.  1.
         11   -1    0    0    0    0 -0.00000000000E+00 -0.00000000000E+00 -0.45593999997E+02  0.45594000000E+02  0.51100000000E-03 0. -1.
    9900012    2    1    2    0    0  0.63112206671E+00 -0.66562350724E+00  0.74273526524E+00  0.90007735034E+02  0.89999996336E+02 0.  0.
         12    1    1    2    0    0 -0.63112206671E+00  0.66562350724E+00 -0.74273526524E+00  0.11802649663E+01  0.00000000000E+00 0. -1.
         11    1    3    3    0    0  0.22918618226E+02 -0.92389202095E+01 -0.29204637960E+02  0.38256131360E+02  0.51100000000E-03 0. -1.
        -11    1    3    3    0    0 -0.15363730637E+02 -0.45687667626E+01 -0.23519098864E+01  0.16200287936E+02  0.51100000000E-03 0.  1.
        -12    1    3    3    0    0 -0.69237655214E+01  0.13142063465E+02  0.32299283112E+02  0.35551315737E+02  0.00000000000E+00 0.  1.
</event>
<event>
 7    1  0.3276565E-015  0.9000775E+02  0.7816164E-02  0.1186339E+00
        -11   -1    0    0    0    0  0.00000000000E+00  0.00000000000E+00  0.45593999997E+02  0.45594000000E+02  0.51100000000E-03 0.  1.
         11   -1    0    0    0    0 -0.00000000000E+00 -0.00000000000E+00 -0.45593999997E+02  0.45594000000E+02  0.51100000000E-03 0. -1.
    9900012    2    1    2    0    0 -0.65523306893E+00 -0.37851463430E+00  0.90575304612E+00  0.90007749059E+02  0.90000010547E+02 0.  0.
         12    1    1    2    0    0  0.65523306893E+00  0.37851463430E+00 -0.90575304612E+00  0.11802509409E+01  0.00000000000E+00 0. -1.
         11    1    3    3    0    0  0.47092600436E+01  0.20448868522E+02 -0.94650196697E-01  0.20984334941E+02  0.51100000000E-03 0. -1.
        -11    1    3    3    0    0 -0.13157585326E+02  0.21720541810E+02 -0.30547042203E+01  0.25578021938E+02  0.51100000000E-03 0.  1.
        -12    1    3    3    0    0  0.77930922139E+01 -0.42547924966E+02  0.40551074631E+01  0.43445392180E+02  0.00000000000E+00 0.  1.
</event>
<event>
 7    1  0.3276565E-015  0.9000775E+02  0.7816164E-02  0.1186339E+00
        -11   -1    0    0    0    0  0.00000000000E+00  0.00000000000E+00  0.45593999997E+02  0.45594000000E+02  0.51100000000E-03 0.  1.
         11   -1    0    0    0    0 -0.00000000000E+00 -0.00000000000E+00 -0.45593999997E+02  0.45594000000E+02  0.51100000000E-03 0. -1.
    9900012    2    1    2    0    0 -0.10388032520E+01 -0.19785126123E+00 -0.52416007535E+00  0.90007745323E+02  0.90000006761E+02 0.  0.
         12    1    1    2    0    0  0.10388032520E+01  0.19785126123E+00  0.52416007535E+00  0.11802546770E+01  0.00000000000E+00 0. -1.
         11    1    3    3    0    0 -0.40366590644E+01  0.38407871245E+01 -0.87409405281E+01  0.10365823832E+02  0.51100000000E-03 0. -1.
        -11    1    3    3    0    0  0.34085700689E+02 -0.90208667770E+01 -0.17150968831E+02  0.39209268814E+02  0.51100000000E-03 0.  1.
         12    1    3    3    0    0 -0.31087844876E+02  0.49822283913E+01  0.25367749283E+02  0.40432652677E+02  0.00000000000E+00 0. -1.
</event>
<event>
 7    1  0.3276565E-015  0.9000777E+02  0.7816164E-02  0.1186339E+00
        -11   -1    0    0    0    0  0.00000000000E+00  0.00000000000E+00  0.45593999997E+02  0.45594000000E+02  0.51100000000E-03 0. -1.
         11   -1    0    0    0    0 -0.00000000000E+00 -0.00000000000E+00 -0.45593999997E+02  0.45594000000E+02  0.51100000000E-03 0.  1.
    9900012    2    1    2    0    0 -0.10164760580E+01 -0.56342647850E+00 -0.20560421872E+00  0.90007768638E+02  0.90000030384E+02 0.  0.
         12    1    1    2    0    0  0.10164760580E+01  0.56342647850E+00  0.20560421872E+00  0.11802313620E+01  0.00000000000E+00 0. -1.
         11    1    3    3    0    0 -0.48374392530E+01 -0.42773427744E+01  0.90305878659E+01  0.11101711454E+02  0.51100000000E-03 0. -1.
        -11    1    3    3    0    0 -0.70275189261E+01 -0.34067132512E+02  0.84602803789E+01  0.35798489971E+02  0.51100000000E-03 0.  1.
         12    1    3    3    0    0  0.10848482121E+02  0.37781048808E+02 -0.17696472464E+02  0.43107567213E+02  0.00000000000E+00 0. -1.
</event>
<event>
 7    1  0.3276565E-015  0.9000782E+02  0.7816164E-02  0.1186339E+00
        -11   -1    0    0    0    0  0.00000000000E+00  0.00000000000E+00  0.45593999997E+02  0.45594000000E+02  0.51100000000E-03 0. -1.
         11   -1    0    0    0    0 -0.00000000000E+00 -0.00000000000E+00 -0.45593999997E+02  0.45594000000E+02  0.51100000000E-03 0.  1.
    9900012    2    1    2    0    0 -0.88803238385E+00 -0.50454733666E+00 -0.59131074713E+00  0.90007822925E+02  0.90000085387E+02 0.  0.
         12    1    1    2    0    0  0.88803238385E+00  0.50454733666E+00  0.59131074713E+00  0.11801770754E+01  0.00000000000E+00 0. -1.
         11    1    3    3    0    0 -0.24676764159E+01  0.11948322323E+02 -0.34574440359E+01  0.12680920817E+02  0.51100000000E-03 0. -1.
        -11    1    3    3    0    0 -0.35320299957E+02  0.61394870605E+01  0.33375772778E+01  0.36004948448E+02  0.51100000000E-03 0.  1.
         12    1    3    3    0    0  0.36899943989E+02 -0.18592356721E+02 -0.47144398905E+00  0.41321953660E+02  0.00000000000E+00 0. -1.
</event>
<event>
 7    1  0.3276565E-015  0.9000751E+02  0.7816164E-02  0.1186339E+00
        -11   -1    0    0    0    0  0.00000000000E+00  0.00000000000E+00  0.45593999997E+02  0.45594000000E+02  0.51100000000E-03 0.  1.
         11   -1    0    0    0    0 -0.00000000000E+00 -0.00000000000E+00 -0.45593999997E+02  0.45594000000E+02  0.51100000000E-03 0. -1.
    9900012    2    1    2    0    0 -0.70754508211E+00  0.24993213488E+00  0.91129542982E+00  0.90007514729E+02  0.89999773123E+02 0.  0.
         12    1    1    2    0    0  0.70754508211E+00 -0.24993213488E+00 -0.91129542982E+00  0.11804852713E+01  0.00000000000E+00 0. -1.
         11    1    3    3    0    0  0.17578304923E+01  0.78737643743E+01  0.53385416792E+01  0.96739940554E+01  0.51100000000E-03 0. -1.
        -11    1    3    3    0    0  0.11555923141E+02  0.23260330345E+02  0.24537847018E+02  0.35730774746E+02  0.51100000000E-03 0.  1.
         12    1    3    3    0    0 -0.14021298715E+02 -0.30884162585E+02 -0.28965093268E+02  0.44602745927E+02  0.00000000000E+00 0. -1.
</event>
<event>
 7    1  0.3276565E-015  0.9000774E+02  0.7816164E-02  0.1186339E+00
        -11   -1    0    0    0    0  0.00000000000E+00  0.00000000000E+00  0.45593999997E+02  0.45594000000E+02  0.51100000000E-03 0. -1.
         11   -1    0    0    0    0 -0.00000000000E+00 -0.00000000000E+00 -0.45593999997E+02  0.45594000000E+02  0.51100000000E-03 0.  1.
    9900012    2    1    2    0    0  0.10449475960E+01  0.54100479027E+00 -0.91687079296E-01  0.90007742324E+02  0.90000003723E+02 0.  0.
         12    1    1    2    0    0 -0.10449475960E+01 -0.54100479027E+00  0.91687079296E-01  0.11802576761E+01  0.00000000000E+00 0. -1.
         11    1    3    3    0    0 -0.89414528044E+01 -0.14092100793E+01 -0.78288268832E+00  0.90856126302E+01  0.51100000000E-03 0. -1.
        -11    1    3    3    0    0 -0.12510625926E+02  0.36265558914E+02 -0.74768118617E+01  0.39084642000E+02  0.51100000000E-03 0.  1.
         12    1    3    3    0    0  0.22497026327E+02 -0.34315344045E+02  0.81680074707E+01  0.41837487693E+02  0.00000000000E+00 0. -1.
</event>
<event>
 7    1  0.3276565E-015  0.9000773E+02  0.7816164E-02  0.1186339E+00
        -11   -1    0    0    0    0  0.00000000000E+00  0.00000000000E+00  0.45593999997E+02  0.45594000000E+02  0.51100000000E-03 0.  1.
         11   -1    0    0    0    0 -0.00000000000E+00 -0.00000000000E+00 -0.45593999997E+02  0.45594000000E+02  0.51100000000E-03 0. -1.
    9900012    2    1    2    0    0  0.52546901718E+00  0.10454030734E+01  0.15505281202E+00  0.90007734501E+02  0.89999995796E+02 0.  0.
         12    1    1    2    0    0 -0.52546901718E+00 -0.10454030734E+01 -0.15505281202E+00  0.11802654992E+01  0.00000000000E+00 0. -1.
         11    1    3    3    0    0  0.21561517468E+01 -0.78537503389E+01 -0.17803324353E+01  0.83366641160E+01  0.51100000000E-03 0. -1.
        -11    1    3    3    0    0 -0.12330125848E+01 -0.29334230213E+02  0.23649214893E+02  0.37700169065E+02  0.51100000000E-03 0.  1.
         12    1    3    3    0    0 -0.39767014489E+00  0.38233383625E+02 -0.21713829646E+02  0.43970901320E+02  0.00000000000E+00 0. -1.
</event>
<event>
 7    1  0.3276565E-015  0.9000771E+02  0.7816164E-02  0.1186339E+00
        -11   -1    0    0    0    0  0.00000000000E+00  0.00000000000E+00  0.45593999997E+02  0.45594000000E+02  0.51100000000E-03 0.  1.
         11   -1    0    0    0    0 -0.00000000000E+00 -0.00000000000E+00 -0.45593999997E+02  0.45594000000E+02  0.51100000000E-03 0. -1.
    9900012    2    1    2    0    0  0.71994510733E+00  0.63473640068E+00  0.68692622275E+00  0.90007712369E+02  0.89999973372E+02 0.  0.
         12    1    1    2    0    0 -0.71994510733E+00 -0.63473640068E+00 -0.68692622275E+00  0.11802876308E+01  0.00000000000E+00 0. -1.
         11    1    3    3    0    0  0.98292625509E+01  0.22258166530E+01  0.59570956456E+01  0.11707076956E+02  0.51100000000E-03 0. -1.
        -11    1    3    3    0    0 -0.58893568231E+01 -0.24318166726E+01  0.36170064437E+02  0.36726990318E+02  0.51100000000E-03 0.  1.
         12    1    3    3    0    0 -0.32199606204E+01  0.84073642029E+00 -0.41440233860E+02  0.41573645095E+02  0.00000000000E+00 0. -1.
</event>
<event>
 7    1  0.3276565E-015  0.9000779E+02  0.7816164E-02  0.1186339E+00
        -11   -1    0    0    0    0  0.00000000000E+00  0.00000000000E+00  0.45593999997E+02  0.45594000000E+02  0.51100000000E-03 0. -1.
         11   -1    0    0    0    0 -0.00000000000E+00 -0.00000000000E+00 -0.45593999997E+02  0.45594000000E+02  0.51100000000E-03 0.  1.
    9900012    2    1    2    0    0 -0.30766195238E+00  0.11326530022E+01 -0.12380064837E+00  0.90007794382E+02  0.90000056468E+02 0.  0.
         12    1    1    2    0    0  0.30766195238E+00 -0.11326530022E+01  0.12380064837E+00  0.11802056180E+01  0.00000000000E+00 0. -1.
         11    1    3    3    0    0 -0.86676502244E+01  0.34712194637E+01  0.32200017460E+01  0.98765346394E+01  0.51100000000E-03 0. -1.
        -11    1    3    3    0    0  0.27207211528E+02  0.25614381176E+02  0.16678397757E+02  0.40920628467E+02  0.51100000000E-03 0.  1.
         12    1    3    3    0    0 -0.18847223255E+02 -0.27952947638E+02 -0.20022200152E+02  0.39210631275E+02  0.00000000000E+00 0. -1.
</event>
<event>
 7    1  0.3276565E-015  0.9000777E+02  0.7816164E-02  0.1186339E+00
        -11   -1    0    0    0    0  0.00000000000E+00  0.00000000000E+00  0.45593999997E+02  0.45594000000E+02  0.51100000000E-03 0.  1.
         11   -1    0    0    0    0 -0.00000000000E+00 -0.00000000000E+00 -0.45593999997E+02  0.45594000000E+02  0.51100000000E-03 0. -1.
    9900012    2    1    2    0    0  0.29325078681E+00 -0.49522461753E+00  0.10303910798E+01  0.90007767301E+02  0.90000029030E+02 0.  0.
         12    1    1    2    0    0 -0.29325078681E+00  0.49522461753E+00 -0.10303910798E+01  0.11802326987E+01  0.00000000000E+00 0. -1.
         11    1    3    3    0    0 -0.21449145515E+01  0.18693491441E+01  0.91163868405E+01  0.95500593685E+01  0.51100000000E-03 0. -1.
        -11    1    3    3    0    0 -0.14623589742E+02 -0.35995466176E+02  0.76438303699E+01  0.39597362351E+02  0.51100000000E-03 0.  1.
         12    1    3    3    0    0  0.17061755080E+02  0.33630892414E+02 -0.15729826131E+02  0.40860345582E+02  0.00000000000E+00 0. -1.
</event>
<event>
 7    1  0.3276565E-015  0.9000771E+02  0.7816164E-02  0.1186339E+00
        -11   -1    0    0    0    0  0.00000000000E+00  0.00000000000E+00  0.45593999997E+02  0.45594000000E+02  0.51100000000E-03 0.  1.
         11   -1    0    0    0    0 -0.00000000000E+00 -0.00000000000E+00 -0.45593999997E+02  0.45594000000E+02  0.51100000000E-03 0. -1.
    9900012    2    1    2    0    0  0.53518966787E+00  0.63138800740E+00 -0.84143047169E+00  0.90007710190E+02  0.89999971165E+02 0.  0.
         12    1    1    2    0    0 -0.53518966787E+00 -0.63138800740E+00  0.84143047169E+00  0.11802898098E+01  0.00000000000E+00 0. -1.
         11    1    3    3    0    0 -0.49024479726E+01  0.80128022465E+01  0.46885978054E+00  0.94052552183E+01  0.51100000000E-03 0. -1.
        -11    1    3    3    0    0  0.51039073190E+00 -0.34089362681E+02  0.25396364325E+02  0.42512591875E+02  0.51100000000E-03 0.  1.
         12    1    3    3    0    0  0.49272469086E+01  0.26707948442E+02 -0.26706654577E+02  0.38089863097E+02  0.00000000000E+00 0. -1.
</event>
<event>
 7    1  0.3276565E-015  0.9000773E+02  0.7816164E-02  0.1186339E+00
        -11   -1    0    0    0    0  0.00000000000E+00  0.00000000000E+00  0.45593999997E+02  0.45594000000E+02  0.51100000000E-03 0. -1.
         11   -1    0    0    0    0 -0.00000000000E+00 -0.00000000000E+00 -0.45593999997E+02  0.45594000000E+02  0.51100000000E-03 0.  1.
    9900012    2    1    2    0    0  0.86903705213E+00  0.74793327913E+00 -0.28002097546E+00  0.90007728279E+02  0.89999989493E+02 0.  0.
         12    1    1    2    0    0 -0.86903705213E+00 -0.74793327913E+00  0.28002097546E+00  0.11802717207E+01  0.00000000000E+00 0. -1.
         11    1    3    3    0    0 -0.23571769152E+02 -0.65368467589E+01  0.27087636936E+02  0.36497927908E+02  0.51100000000E-03 0. -1.
        -11    1    3    3    0    0 -0.75555613535E+01 -0.71786881407E+01 -0.32711044443E+01  0.10923378385E+02  0.51100000000E-03 0.  1.
        -12    1    3    3    0    0  0.31996367558E+02  0.14463468179E+02 -0.24096553467E+02  0.42586421987E+02  0.00000000000E+00 0.  1.
</event>
<event>
 7    1  0.3276565E-015  0.9000778E+02  0.7816164E-02  0.1186339E+00
        -11   -1    0    0    0    0  0.00000000000E+00  0.00000000000E+00  0.45593999997E+02  0.45594000000E+02  0.51100000000E-03 0. -1.
         11   -1    0    0    0    0 -0.00000000000E+00 -0.00000000000E+00 -0.45593999997E+02  0.45594000000E+02  0.51100000000E-03 0.  1.
    9900012    2    1    2    0    0 -0.16815680530E+00 -0.11672471773E+01 -0.46628183720E-01  0.90007781007E+02  0.90000042916E+02 0.  0.
         12    1    1    2    0    0  0.16815680530E+00  0.11672471773E+01  0.46628183720E-01  0.11802189931E+01  0.00000000000E+00 0. -1.
         11    1    3    3    0    0  0.19065707883E+02 -0.20221015440E+02  0.25672317478E+02  0.37834621281E+02  0.51100000000E-03 0. -1.
        -11    1    3    3    0    0  0.19543660834E+01  0.81857993700E+01  0.75188914412E+01  0.11285414785E+02  0.51100000000E-03 0.  1.
        -12    1    3    3    0    0 -0.21188230772E+02  0.10867968893E+02 -0.33237837103E+02  0.40887744941E+02  0.00000000000E+00 0.  1.
</event>
<event>
 7    1  0.3276565E-015  0.9000785E+02  0.7816164E-02  0.1186339E+00
        -11   -1    0    0    0    0  0.00000000000E+00  0.00000000000E+00  0.45593999997E+02  0.45594000000E+02  0.51100000000E-03 0.  1.
         11   -1    0    0    0    0 -0.00000000000E+00 -0.00000000000E+00 -0.45593999997E+02  0.45594000000E+02  0.51100000000E-03 0. -1.
    9900012    2    1    2    0    0 -0.76061452577E+00 -0.71320604013E+00  0.55277877789E+00  0.90007846752E+02  0.90000109529E+02 0.  0.
         12    1    1    2    0    0  0.76061452577E+00  0.71320604013E+00 -0.55277877789E+00  0.11801532484E+01  0.00000000000E+00 0. -1.
         11    1    3    3    0    0 -0.87518126698E+01  0.16304927519E+01  0.50598920999E+01  0.10239884762E+02  0.51100000000E-03 0. -1.
        -11    1    3    3    0    0 -0.24535230250E+02  0.25403910068E+02  0.57960478563E+01  0.35790087191E+02  0.51100000000E-03 0.  1.
         12    1    3    3    0    0  0.32526428394E+02 -0.27747608860E+02 -0.10303161178E+02  0.43977874798E+02  0.00000000000E+00 0. -1.
</event>
<event>
 7    1  0.3276565E-015  0.9000767E+02  0.7816164E-02  0.1186339E+00
        -11   -1    0    0    0    0  0.00000000000E+00  0.00000000000E+00  0.45593999997E+02  0.45594000000E+02  0.51100000000E-03 0. -1.
         11   -1    0    0    0    0 -0.00000000000E+00 -0.00000000000E+00 -0.45593999997E+02  0.45594000000E+02  0.51100000000E-03 0.  1.
    9900012    2    1    2    0    0  0.90511521193E+00 -0.15921855930E-01 -0.75742221878E+00  0.90007671457E+02  0.89999931920E+02 0.  0.
         12    1    1    2    0    0 -0.90511521193E+00  0.15921855930E-01  0.75742221878E+00  0.11803285432E+01  0.00000000000E+00 0. -1.
         11    1    3    3    0    0 -0.36474171234E+02 -0.12785597681E+02  0.29676657317E+01  0.38763948656E+02  0.51100000000E-03 0. -1.
        -11    1    3    3    0    0 -0.40853356690E+01 -0.22742557691E+01  0.43674233563E+01  0.63981711345E+01  0.51100000000E-03 0.  1.
        -12    1    3    3    0    0  0.41464622115E+02  0.15043931594E+02 -0.80925113068E+01  0.44845551666E+02  0.00000000000E+00 0.  1.
</event>
<event>
 7    1  0.3276565E-015  0.9000782E+02  0.7816164E-02  0.1186339E+00
        -11   -1    0    0    0    0  0.00000000000E+00  0.00000000000E+00  0.45593999997E+02  0.45594000000E+02  0.51100000000E-03 0.  1.
         11   -1    0    0    0    0 -0.00000000000E+00 -0.00000000000E+00 -0.45593999997E+02  0.45594000000E+02  0.51100000000E-03 0. -1.
    9900012    2    1    2    0    0 -0.43628297491E+00 -0.10395554521E+01  0.34899281874E+00  0.90007824437E+02  0.90000086919E+02 0.  0.
         12    1    1    2    0    0  0.43628297491E+00  0.10395554521E+01 -0.34899281874E+00  0.11801755631E+01  0.00000000000E+00 0. -1.
         11    1    3    3    0    0 -0.14457179921E+02  0.95310982102E+01  0.19135871493E+02  0.25807624114E+02  0.51100000000E-03 0. -1.
        -11    1    3    3    0    0  0.24185401406E+02  0.18588696693E+02 -0.97869581099E+01  0.32035259250E+02  0.51100000000E-03 0.  1.
         12    1    3    3    0    0 -0.10164504460E+02 -0.29159350355E+02 -0.89999205648E+01  0.32164941073E+02  0.00000000000E+00 0. -1.
</event>
<event>
 7    1  0.3276565E-015  0.9000784E+02  0.7816164E-02  0.1186339E+00
        -11   -1    0    0    0    0  0.00000000000E+00  0.00000000000E+00  0.45593999997E+02  0.45594000000E+02  0.51100000000E-03 0. -1.
         11   -1    0    0    0    0 -0.00000000000E+00 -0.00000000000E+00 -0.45593999997E+02  0.45594000000E+02  0.51100000000E-03 0.  1.
    9900012    2    1    2    0    0 -0.11219220871E+01 -0.21098629327E-01 -0.36554179312E+00  0.90007841060E+02  0.90000103762E+02 0.  0.
         12    1    1    2    0    0  0.11219220871E+01  0.21098629327E-01  0.36554179312E+00  0.11801589403E+01  0.00000000000E+00 0. -1.
         11    1    3    3    0    0 -0.68924129195E+01 -0.52697156408E+01  0.12783111214E+01  0.87697969402E+01  0.51100000000E-03 0. -1.
        -11    1    3    3    0    0 -0.31569793891E+02  0.71833885196E+01 -0.21536378245E+02  0.38885325576E+02  0.51100000000E-03 0.  1.
         12    1    3    3    0    0  0.37340284724E+02 -0.19347715081E+01  0.19892525330E+02  0.42352718544E+02  0.00000000000E+00 0. -1.
</event>
<event>
 7    1  0.3276565E-015  0.9000758E+02  0.7816164E-02  0.1186339E+00
        -11   -1    0    0    0    0  0.00000000000E+00  0.00000000000E+00  0.45593999997E+02  0.45594000000E+02  0.51100000000E-03 0. -1.
         11   -1    0    0    0    0 -0.00000000000E+00 -0.00000000000E+00 -0.45593999997E+02  0.45594000000E+02  0.51100000000E-03 0.  1.
    9900012    2    1    2    0    0  0.58058167997E+00  0.17540990033E+00 -0.10126943192E+01  0.90007579099E+02  0.89999838343E+02 0.  0.
         12    1    1    2    0    0 -0.58058167997E+00 -0.17540990033E+00  0.10126943192E+01  0.11804209013E+01  0.00000000000E+00 0. -1.
         11    1    3    3    0    0  0.95017758893E+01  0.25388881947E+01 -0.19742389022E+02  0.22056555100E+02  0.51100000000E-03 0. -1.
        -11    1    3    3    0    0  0.14013122775E+02 -0.27677865955E+02  0.67178374189E+01  0.31742104744E+02  0.51100000000E-03 0.  1.
         12    1    3    3    0    0 -0.22934316985E+02  0.25314387661E+02  0.12011857284E+02  0.36208919255E+02  0.00000000000E+00 0. -1.
</event>
<event>
 7    1  0.3276565E-015  0.9000772E+02  0.7816164E-02  0.1186339E+00
        -11   -1    0    0    0    0  0.00000000000E+00  0.00000000000E+00  0.45593999997E+02  0.45594000000E+02  0.51100000000E-03 0. -1.
         11   -1    0    0    0    0 -0.00000000000E+00 -0.00000000000E+00 -0.45593999997E+02  0.45594000000E+02  0.51100000000E-03 0.  1.
    9900012    2    1    2    0    0  0.62086595370E+00  0.51000158725E+00 -0.86457625889E+00  0.90007716873E+02  0.89999977936E+02 0.  0.
         12    1    1    2    0    0 -0.62086595370E+00 -0.51000158725E+00  0.86457625889E+00  0.11802831266E+01  0.00000000000E+00 0. -1.
         11    1    3    3    0    0  0.96161350454E+01  0.99937595581E+01  0.39363608814E+02  0.41735344523E+02  0.51100000000E-03 0. -1.
        -11    1    3    3    0    0 -0.96757771027E+01  0.18918924311E+01 -0.46252078276E+01  0.10890016860E+02  0.51100000000E-03 0.  1.
        -12    1    3    3    0    0  0.68050801092E+00 -0.11375650402E+02 -0.35602977246E+02  0.37382355490E+02  0.00000000000E+00 0.  1.
</event>
<event>
 7    1  0.3276565E-015  0.9000778E+02  0.7816164E-02  0.1186339E+00
        -11   -1    0    0    0    0  0.00000000000E+00  0.00000000000E+00  0.45593999997E+02  0.45594000000E+02  0.51100000000E-03 0. -1.
         11   -1    0    0    0    0 -0.00000000000E+00 -0.00000000000E+00 -0.45593999997E+02  0.45594000000E+02  0.51100000000E-03 0.  1.
    9900012    2    1    2    0    0  0.10610049320E+01 -0.16618177178E+00 -0.48946724121E+00  0.90007777128E+02  0.90000038986E+02 0.  0.
         12    1    1    2    0    0 -0.10610049320E+01  0.16618177178E+00  0.48946724121E+00  0.11802228718E+01  0.00000000000E+00 0. -1.
         11    1    3    3    0    0 -0.26369594000E+01 -0.86651207589E+01  0.74529687260E+01  0.11729646872E+02  0.51100000000E-03 0. -1.
        -11    1    3    3    0    0 -0.17218987605E+02 -0.10848911074E+02 -0.34026668681E+02  0.39648538276E+02  0.51100000000E-03 0.  1.
         12    1    3    3    0    0  0.20916951937E+02  0.19347850061E+02  0.26084232714E+02  0.38629591981E+02  0.00000000000E+00 0. -1.
</event>
<event>
 7    1  0.3276565E-015  0.9000767E+02  0.7816164E-02  0.1186339E+00
        -11   -1    0    0    0    0  0.00000000000E+00  0.00000000000E+00  0.45593999997E+02  0.45594000000E+02  0.51100000000E-03 0.  1.
         11   -1    0    0    0    0 -0.00000000000E+00 -0.00000000000E+00 -0.45593999997E+02  0.45594000000E+02  0.51100000000E-03 0. -1.
    9900012    2    1    2    0    0 -0.10327598392E+01  0.41742415047E+00  0.39030092332E+00  0.90007673512E+02  0.89999934003E+02 0.  0.
         12    1    1    2    0    0  0.10327598392E+01 -0.41742415047E+00 -0.39030092332E+00  0.11803264877E+01  0.00000000000E+00 0. -1.
         11    1    3    3    0    0 -0.13889418587E+02 -0.77552781939E+01 -0.36273516786E+02  0.39608437344E+02  0.51100000000E-03 0. -1.
        -11    1    3    3    0    0  0.14507636748E+01 -0.83573719208E+01 -0.12757445273E+00  0.84833163424E+01  0.51100000000E-03 0.  1.
        -12    1    3    3    0    0  0.11405895073E+02  0.16530074265E+02  0.36791392162E+02  0.41915919826E+02  0.00000000000E+00 0.  1.
</event>
<event>
 7    1  0.3276565E-015  0.9000757E+02  0.7816164E-02  0.1186339E+00
        -11   -1    0    0    0    0  0.00000000000E+00  0.00000000000E+00  0.45593999997E+02  0.45594000000E+02  0.51100000000E-03 0.  1.
         11   -1    0    0    0    0 -0.00000000000E+00 -0.00000000000E+00 -0.45593999997E+02  0.45594000000E+02  0.51100000000E-03 0. -1.
    9900012    2    1    2    0    0  0.98782412678E-02 -0.77474185562E+00  0.89056107288E+00  0.90007567220E+02  0.89999826308E+02 0.  0.
         12    1    1    2    0    0 -0.98782412678E-02  0.77474185562E+00 -0.89056107288E+00  0.11804327795E+01  0.00000000000E+00 0. -1.
         11    1    3    3    0    0 -0.81372796628E+01  0.26230354494E+00  0.62861511964E+01  0.10285903975E+02  0.51100000000E-03 0. -1.
        -11    1    3    3    0    0  0.35594146777E+02  0.23296595979E+02 -0.64471068862E+01  0.43026036960E+02  0.51100000000E-03 0.  1.
         12    1    3    3    0    0 -0.27446988873E+02 -0.24333641380E+02  0.10515167627E+01  0.36695626286E+02  0.00000000000E+00 0. -1.
</event>
<event>
 7    1  0.3276565E-015  0.9000805E+02  0.7816164E-02  0.1186338E+00
        -11   -1    0    0    0    0  0.00000000000E+00  0.00000000000E+00  0.45593999997E+02  0.45594000000E+02  0.51100000000E-03 0. -1.
         11   -1    0    0    0    0 -0.00000000000E+00 -0.00000000000E+00 -0.45593999997E+02  0.45594000000E+02  0.51100000000E-03 0.  1.
    9900012    2    1    2    0    0 -0.12981929471E+00  0.54553680455E+00 -0.10381841220E+01  0.90008046727E+02  0.90000312144E+02 0.  0.
         12    1    1    2    0    0  0.12981929471E+00 -0.54553680455E+00  0.10381841220E+01  0.11799532726E+01  0.00000000000E+00 0. -1.
         11    1    3    3    0    0  0.27984810639E+02  0.22589969377E+02 -0.23790573890E+02  0.43121314326E+02  0.51100000000E-03 0. -1.
        -11    1    3    3    0    0  0.13323804241E+01 -0.35197099637E+01  0.84912745270E+01  0.92879136073E+01  0.51100000000E-03 0.  1.
        -12    1    3    3    0    0 -0.29447010358E+02 -0.18524722609E+02  0.14261115241E+02  0.37598818794E+02  0.00000000000E+00 0.  1.
</event>
<event>
 7    1  0.3276565E-015  0.9000802E+02  0.7816164E-02  0.1186338E+00
        -11   -1    0    0    0    0  0.00000000000E+00  0.00000000000E+00  0.45593999997E+02  0.45594000000E+02  0.51100000000E-03 0.  1.
         11   -1    0    0    0    0 -0.00000000000E+00 -0.00000000000E+00 -0.45593999997E+02  0.45594000000E+02  0.51100000000E-03 0. -1.
    9900012    2    1    2    0    0  0.48384029909E+00 -0.16018298149E+00  0.10642346386E+01  0.90008018903E+02  0.90000283952E+02 0.  0.
         12    1    1    2    0    0 -0.48384029909E+00  0.16018298149E+00 -0.10642346386E+01  0.11799810967E+01  0.00000000000E+00 0. -1.
         11    1    3    3    0    0  0.71117323641E+01  0.75601782713E+01 -0.37363909835E+01  0.11031484513E+02  0.51100000000E-03 0. -1.
        -11    1    3    3    0    0  0.13146134638E+02 -0.37906769246E+02  0.12606428782E+02  0.42055511618E+02  0.51100000000E-03 0.  1.
         12    1    3    3    0    0 -0.19774026703E+02  0.30186407993E+02 -0.78058031598E+01  0.36921022772E+02  0.00000000000E+00 0. -1.
</event>
<event>
 7    1  0.3276565E-015  0.9000773E+02  0.7816164E-02  0.1186339E+00
        -11   -1    0    0    0    0  0.00000000000E+00  0.00000000000E+00  0.45593999997E+02  0.45594000000E+02  0.51100000000E-03 0.  1.
         11   -1    0    0    0    0 -0.00000000000E+00 -0.00000000000E+00 -0.45593999997E+02  0.45594000000E+02  0.51100000000E-03 0. -1.
    9900012    2    1    2    0    0 -0.53478549337E+00  0.98299058135E+00 -0.37518272257E+00  0.90007733893E+02  0.89999995181E+02 0.  0.
         12    1    1    2    0    0  0.53478549337E+00 -0.98299058135E+00  0.37518272257E+00  0.11802661065E+01  0.00000000000E+00 0. -1.
         11    1    3    3    0    0 -0.28396605300E+01  0.19942696749E+02 -0.90148235877E+01  0.22069025128E+02  0.51100000000E-03 0.  1.
        -11    1    3    3    0    0 -0.24958661693E+02 -0.41330492314E+01 -0.14561992129E+02  0.29190212478E+02  0.51100000000E-03 0. -1.
         12    1    3    3    0    0  0.27263536730E+02 -0.14826656936E+02  0.23201632994E+02  0.38748496287E+02  0.00000000000E+00 0. -1.
</event>
<event>
 7    1  0.3276565E-015  0.9000768E+02  0.7816164E-02  0.1186339E+00
        -11   -1    0    0    0    0  0.00000000000E+00  0.00000000000E+00  0.45593999997E+02  0.45594000000E+02  0.51100000000E-03 0.  1.
         11   -1    0    0    0    0 -0.00000000000E+00 -0.00000000000E+00 -0.45593999997E+02  0.45594000000E+02  0.51100000000E-03 0. -1.
    9900012    2    1    2    0    0 -0.81902346346E+00 -0.29305702696E+00  0.79779133061E+00  0.90007681034E+02  0.89999941623E+02 0.  0.
         12    1    1    2    0    0  0.81902346346E+00  0.29305702696E+00 -0.79779133061E+00  0.11803189662E+01  0.00000000000E+00 0. -1.
         11    1    3    3    0    0  0.41254844829E+01 -0.32895876797E+02 -0.28899814945E+02  0.43981332819E+02  0.51100000000E-03 0. -1.
        -11    1    3    3    0    0 -0.23599096153E+01  0.33903215571E-02  0.29582560909E+01  0.37842389257E+01  0.51100000000E-03 0.  1.
        -12    1    3    3    0    0 -0.25845983310E+01  0.32599429448E+02  0.26739350185E+02  0.42242109289E+02  0.00000000000E+00 0.  1.
</event>
<event>
 7    1  0.3276565E-015  0.9000774E+02  0.7816164E-02  0.1186339E+00
        -11   -1    0    0    0    0  0.00000000000E+00  0.00000000000E+00  0.45593999997E+02  0.45594000000E+02  0.51100000000E-03 0.  1.
         11   -1    0    0    0    0 -0.00000000000E+00 -0.00000000000E+00 -0.45593999997E+02  0.45594000000E+02  0.51100000000E-03 0. -1.
    9900012    2    1    2    0    0 -0.23490335935E-01  0.11163570106E+01 -0.38238683189E+00  0.90007735428E+02  0.89999996736E+02 0.  0.
         12    1    1    2    0    0  0.23490335935E-01 -0.11163570106E+01  0.38238683189E+00  0.11802645721E+01  0.00000000000E+00 0. -1.
         11    1    3    3    0    0  0.26834003638E+02 -0.13540568102E+02 -0.23579316006E+02  0.38202027162E+02  0.51100000000E-03 0. -1.
        -11    1    3    3    0    0  0.76214134665E+01  0.64894151675E+01  0.95519874374E+01  0.13836145298E+02  0.51100000000E-03 0.  1.
        -12    1    3    3    0    0 -0.34478907440E+02  0.81675099453E+01  0.13644941736E+02  0.37969562968E+02  0.00000000000E+00 0.  1.
</event>
<event>
 7    1  0.3276565E-015  0.9000777E+02  0.7816164E-02  0.1186339E+00
        -11   -1    0    0    0    0  0.00000000000E+00  0.00000000000E+00  0.45593999997E+02  0.45594000000E+02  0.51100000000E-03 0.  1.
         11   -1    0    0    0    0 -0.00000000000E+00 -0.00000000000E+00 -0.45593999997E+02  0.45594000000E+02  0.51100000000E-03 0. -1.
    9900012    2    1    2    0    0 -0.12412968268E+00 -0.83453471570E+00  0.82528676187E+00  0.90007765020E+02  0.90000026718E+02 0.  0.
         12    1    1    2    0    0  0.12412968268E+00  0.83453471570E+00 -0.82528676187E+00  0.11802349805E+01  0.00000000000E+00 0. -1.
         11    1    3    3    0    0 -0.65886039107E+01 -0.35051791304E+01 -0.40947773628E+02  0.41622303487E+02  0.51100000000E-03 0. -1.
        -11    1    3    3    0    0 -0.73770917389E+01  0.22371363380E+01  0.52544720147E+01  0.93292946107E+01  0.51100000000E-03 0.  1.
        -12    1    3    3    0    0  0.13841565967E+02  0.43350807666E+00  0.36518588375E+02  0.39056166921E+02  0.00000000000E+00 0.  1.
</event>
<event>
 7    1  0.3276565E-015  0.9000769E+02  0.7816164E-02  0.1186339E+00
        -11   -1    0    0    0    0  0.00000000000E+00  0.00000000000E+00  0.45593999997E+02  0.45594000000E+02  0.51100000000E-03 0.  1.
         11   -1    0    0    0    0 -0.00000000000E+00 -0.00000000000E+00 -0.45593999997E+02  0.45594000000E+02  0.51100000000E-03 0. -1.
    9900012    2    1    2    0    0 -0.60258348221E+00 -0.87141451629E+00  0.52024403420E+00  0.90007693274E+02  0.89999954025E+02 0.  0.
         12    1    1    2    0    0  0.60258348221E+00  0.87141451629E+00 -0.52024403420E+00  0.11803067260E+01  0.00000000000E+00 0. -1.
         11    1    3    3    0    0 -0.48753366547E+01  0.53407025631E+01  0.81719378069E+01  0.10912038267E+02  0.51100000000E-03 0. -1.
        -11    1    3    3    0    0  0.66174708458E+01  0.42573036770E+01  0.34610096413E+02  0.35493299776E+02  0.51100000000E-03 0.  1.
         12    1    3    3    0    0 -0.23447176733E+01 -0.10469420756E+02 -0.42261790186E+02  0.43602355231E+02  0.00000000000E+00 0. -1.
</event>
<event>
 7    1  0.3276565E-015  0.9000777E+02  0.7816164E-02  0.1186339E+00
        -11   -1    0    0    0    0  0.00000000000E+00  0.00000000000E+00  0.45593999997E+02  0.45594000000E+02  0.51100000000E-03 0. -1.
         11   -1    0    0    0    0 -0.00000000000E+00 -0.00000000000E+00 -0.45593999997E+02  0.45594000000E+02  0.51100000000E-03 0.  1.
    9900012    2    1    2    0    0 -0.34618569224E+00  0.41221337923E+00 -0.10503191167E+01  0.90007773475E+02  0.90000035285E+02 0.  0.
         12    1    1    2    0    0  0.34618569224E+00 -0.41221337923E+00  0.10503191167E+01  0.11802265250E+01  0.00000000000E+00 0. -1.
         11    1    3    3    0    0  0.94929791057E+01 -0.36218779245E+02 -0.56441309952E+01  0.37865192951E+02  0.51100000000E-03 0. -1.
        -11    1    3    3    0    0 -0.19391441985E+01 -0.45714726606E+01  0.86706823543E+01  0.99919655353E+01  0.51100000000E-03 0.  1.
        -12    1    3    3    0    0 -0.79000205994E+01  0.41202465285E+02 -0.40768704758E+01  0.42150614988E+02  0.00000000000E+00 0.  1.
</event>
<event>
 7    1  0.3276565E-015  0.9000772E+02  0.7816164E-02  0.1186339E+00
        -11   -1    0    0    0    0  0.00000000000E+00  0.00000000000E+00  0.45593999997E+02  0.45594000000E+02  0.51100000000E-03 0.  1.
         11   -1    0    0    0    0 -0.00000000000E+00 -0.00000000000E+00 -0.45593999997E+02  0.45594000000E+02  0.51100000000E-03 0. -1.
    9900012    2    1    2    0    0 -0.72549149924E+00  0.69496804046E+00  0.61946297802E+00  0.90007723391E+02  0.89999984540E+02 0.  0.
         12    1    1    2    0    0  0.72549149924E+00 -0.69496804046E+00 -0.61946297802E+00  0.11802766090E+01  0.00000000000E+00 0. -1.
         11    1    3    3    0    0  0.19292379517E+02  0.11651032392E+02 -0.30601570163E+02  0.38005243848E+02  0.51100000000E-03 0. -1.
        -11    1    3    3    0    0  0.50277691506E+01 -0.79998608537E+01 -0.26130962141E+01  0.98032906921E+01  0.51100000000E-03 0.  1.
        -12    1    3    3    0    0 -0.25045640167E+02 -0.29562034975E+01  0.33834129355E+02  0.42199188851E+02  0.00000000000E+00 0.  1.
</event>
<event>
 7    1  0.3276565E-015  0.9000781E+02  0.7816164E-02  0.1186339E+00
        -11   -1    0    0    0    0  0.00000000000E+00  0.00000000000E+00  0.45593999997E+02  0.45594000000E+02  0.51100000000E-03 0. -1.
         11   -1    0    0    0    0 -0.00000000000E+00 -0.00000000000E+00 -0.45593999997E+02  0.45594000000E+02  0.51100000000E-03 0.  1.
    9900012    2    1    2    0    0 -0.10279753513E+01  0.56968234224E+00 -0.10763799031E+00  0.90007806274E+02  0.90000068517E+02 0.  0.
         12    1    1    2    0    0  0.10279753513E+01 -0.56968234224E+00  0.10763799031E+00  0.11801937260E+01  0.00000000000E+00 0. -1.
         11    1    3    3    0    0  0.99153765464E+01  0.86225345203E+00 -0.41560230396E+00  0.99614707051E+01  0.51100000000E-03 0. -1.
        -11    1    3    3    0    0  0.69390788464E+01 -0.36228853101E+02 -0.10730529164E+02  0.38416466113E+02  0.51100000000E-03 0.  1.
         12    1    3    3    0    0 -0.17882430744E+02  0.35936281991E+02  0.11038493478E+02  0.41629869456E+02  0.00000000000E+00 0. -1.
</event>
<event>
 7    1  0.3276565E-015  0.9000772E+02  0.7816164E-02  0.1186339E+00
        -11   -1    0    0    0    0  0.00000000000E+00  0.00000000000E+00  0.45593999997E+02  0.45594000000E+02  0.51100000000E-03 0. -1.
         11   -1    0    0    0    0 -0.00000000000E+00 -0.00000000000E+00 -0.45593999997E+02  0.45594000000E+02  0.51100000000E-03 0.  1.
    9900012    2    1    2    0    0  0.14102978923E+00 -0.11664708387E+01  0.11186870707E+00  0.90007721123E+02  0.89999982242E+02 0.  0.
         12    1    1    2    0    0 -0.14102978923E+00  0.11664708387E+01 -0.11186870707E+00  0.11802788766E+01  0.00000000000E+00 0. -1.
         11    1    3    3    0    0 -0.77378024840E+01  0.36534352494E+01  0.87997914725E-01  0.85573898063E+01  0.51100000000E-03 0. -1.
        -11    1    3    3    0    0 -0.13152723302E+02  0.25768361976E+02 -0.23697294085E+02  0.37397384353E+02  0.51100000000E-03 0.  1.
         12    1    3    3    0    0  0.21031555575E+02 -0.30588268064E+02  0.23721164877E+02  0.44052946964E+02  0.00000000000E+00 0. -1.
</event>
<event>
 7    1  0.3276565E-015  0.9000785E+02  0.7816164E-02  0.1186339E+00
        -11   -1    0    0    0    0  0.00000000000E+00  0.00000000000E+00  0.45593999997E+02  0.45594000000E+02  0.51100000000E-03 0.  1.
         11   -1    0    0    0    0 -0.00000000000E+00 -0.00000000000E+00 -0.45593999997E+02  0.45594000000E+02  0.51100000000E-03 0. -1.
    9900012    2    1    2    0    0  0.60678943912E+00  0.10062147828E+01 -0.10996594131E+00  0.90007849958E+02  0.90000112778E+02 0.  0.
         12    1    1    2    0    0 -0.60678943912E+00 -0.10062147828E+01  0.10996594131E+00  0.11801500417E+01  0.00000000000E+00 0. -1.
         11    1    3    3    0    0  0.18866656847E+02  0.33158111349E+02 -0.22453143934E+02  0.44266858501E+02  0.51100000000E-03 0. -1.
        -11    1    3    3    0    0  0.19142299905E+01 -0.64714023792E+01  0.67761656576E+01  0.95634589187E+01  0.51100000000E-03 0.  1.
        -12    1    3    3    0    0 -0.20174097398E+02 -0.25680494187E+02  0.15567012335E+02  0.36177532538E+02  0.00000000000E+00 0.  1.
</event>
<event>
 7    1  0.3276565E-015  0.9000780E+02  0.7816164E-02  0.1186339E+00
        -11   -1    0    0    0    0  0.00000000000E+00  0.00000000000E+00  0.45593999997E+02  0.45594000000E+02  0.51100000000E-03 0.  1.
         11   -1    0    0    0    0 -0.00000000000E+00 -0.00000000000E+00 -0.45593999997E+02  0.45594000000E+02  0.51100000000E-03 0. -1.
    9900012    2    1    2    0    0  0.77675382144E+00 -0.54255360194E+00  0.70368417883E+00  0.90007795639E+02  0.90000057741E+02 0.  0.
         12    1    1    2    0    0 -0.77675382144E+00  0.54255360194E+00 -0.70368417883E+00  0.11802043610E+01  0.00000000000E+00 0. -1.
         11    1    3    3    0    0 -0.11277106426E+02  0.28242191978E+02  0.20204265666E+02  0.36510366862E+02  0.51100000000E-03 0. -1.
        -11    1    3    3    0    0 -0.87488619797E+01  0.41005045012E+01  0.63656537619E+00  0.96830748651E+01  0.51100000000E-03 0.  1.
        -12    1    3    3    0    0  0.20802722227E+02 -0.32885250081E+02 -0.20137146863E+02  0.43814353912E+02  0.00000000000E+00 0.  1.
</event>
<event>
 7    1  0.3276565E-015  0.9000780E+02  0.7816164E-02  0.1186339E+00
        -11   -1    0    0    0    0  0.00000000000E+00  0.00000000000E+00  0.45593999997E+02  0.45594000000E+02  0.51100000000E-03 0. -1.
         11   -1    0    0    0    0 -0.00000000000E+00 -0.00000000000E+00 -0.45593999997E+02  0.45594000000E+02  0.51100000000E-03 0.  1.
    9900012    2    1    2    0    0 -0.24846043459E+00 -0.93657204891E+00 -0.67377895808E+00  0.90007797528E+02  0.90000059655E+02 0.  0.
         12    1    1    2    0    0  0.24846043459E+00  0.93657204891E+00  0.67377895808E+00  0.11802024719E+01  0.00000000000E+00 0. -1.
         11    1    3    3    0    0 -0.87250578724E+01  0.22335252932E+02  0.24818424076E+02  0.34510061320E+02  0.51100000000E-03 0. -1.
        -11    1    3    3    0    0 -0.44415817359E+01  0.97145678514E+01  0.17297627756E+01  0.10820931401E+02  0.51100000000E-03 0.  1.
        -12    1    3    3    0    0  0.12918179174E+02 -0.32986392832E+02 -0.27221965810E+02  0.44676804808E+02  0.00000000000E+00 0.  1.
</event>
<event>
 7    1  0.3276565E-015  0.9000760E+02  0.7816164E-02  0.1186339E+00
        -11   -1    0    0    0    0  0.00000000000E+00  0.00000000000E+00  0.45593999997E+02  0.45594000000E+02  0.51100000000E-03 0. -1.
         11   -1    0    0    0    0 -0.00000000000E+00 -0.00000000000E+00 -0.45593999997E+02  0.45594000000E+02  0.51100000000E-03 0.  1.
    9900012    2    1    2    0    0 -0.11142377521E+01  0.17161962042E+00 -0.34980744931E+00  0.90007599935E+02  0.89999859454E+02 0.  0.
         12    1    1    2    0    0  0.11142377521E+01 -0.17161962042E+00  0.34980744931E+00  0.11804000652E+01  0.00000000000E+00 0. -1.
         11    1    3    3    0    0 -0.27371019614E+02 -0.29816672407E+02  0.15684083229E+02  0.43407339646E+02  0.51100000000E-03 0. -1.
        -11    1    3    3    0    0  0.78421056762E+01  0.79391219785E+01  0.36899963318E+01  0.11753482565E+02  0.51100000000E-03 0.  1.
        -12    1    3    3    0    0  0.18414676186E+02  0.22049170049E+02 -0.19723887010E+02  0.34846777723E+02  0.00000000000E+00 0.  1.
</event>
<event>
 7    1  0.3276565E-015  0.9000774E+02  0.7816164E-02  0.1186339E+00
        -11   -1    0    0    0    0  0.00000000000E+00  0.00000000000E+00  0.45593999997E+02  0.45594000000E+02  0.51100000000E-03 0.  1.
         11   -1    0    0    0    0 -0.00000000000E+00 -0.00000000000E+00 -0.45593999997E+02  0.45594000000E+02  0.51100000000E-03 0. -1.
    9900012    2    1    2    0    0  0.85572595958E+00 -0.35034070620E+00  0.73348976714E+00  0.90007740382E+02  0.90000001755E+02 0.  0.
         12    1    1    2    0    0 -0.85572595958E+00  0.35034070620E+00 -0.73348976714E+00  0.11802596184E+01  0.00000000000E+00 0. -1.
         11    1    3    3    0    0 -0.74391637603E+00  0.12328211302E+02 -0.33893799663E+02  0.36073922178E+02  0.51100000000E-03 0. -1.
        -11    1    3    3    0    0 -0.21732505161E+01  0.77324073522E+01 -0.48139676990E+01  0.93641564774E+01  0.51100000000E-03 0.  1.
        -12    1    3    3    0    0  0.37728928517E+01 -0.20410959360E+02  0.39441257129E+02  0.44569661726E+02  0.00000000000E+00 0.  1.
</event>
<event>
 7    1  0.3276565E-015  0.9000767E+02  0.7816164E-02  0.1186339E+00
        -11   -1    0    0    0    0  0.00000000000E+00  0.00000000000E+00  0.45593999997E+02  0.45594000000E+02  0.51100000000E-03 0.  1.
         11   -1    0    0    0    0 -0.00000000000E+00 -0.00000000000E+00 -0.45593999997E+02  0.45594000000E+02  0.51100000000E-03 0. -1.
    9900012    2    1    2    0    0 -0.61813436217E+00  0.62255730272E+00  0.78962897355E+00  0.90007668860E+02  0.89999929289E+02 0.  0.
         12    1    1    2    0    0  0.61813436217E+00 -0.62255730272E+00 -0.78962897355E+00  0.11803311403E+01  0.00000000000E+00 0. -1.
         11    1    3    3    0    0  0.48610803017E+01 -0.39740008622E+02 -0.49326158118E+01  0.40338927676E+02  0.51100000000E-03 0. -1.
        -11    1    3    3    0    0  0.90620829494E+01  0.42715110693E+01 -0.13882251013E+01  0.10114065621E+02  0.51100000000E-03 0.  1.
        -12    1    3    3    0    0 -0.14541297613E+02  0.36091054856E+02  0.71104698867E+01  0.39554675563E+02  0.00000000000E+00 0.  1.
</event>
<event>
 7    1  0.3276565E-015  0.9000774E+02  0.7816164E-02  0.1186339E+00
        -11   -1    0    0    0    0  0.00000000000E+00  0.00000000000E+00  0.45593999997E+02  0.45594000000E+02  0.51100000000E-03 0. -1.
         11   -1    0    0    0    0 -0.00000000000E+00 -0.00000000000E+00 -0.45593999997E+02  0.45594000000E+02  0.51100000000E-03 0.  1.
    9900012    2    1    2    0    0  0.15643105184E+00  0.73558357641E+00 -0.90965193859E+00  0.90007737097E+02  0.89999998426E+02 0.  0.
         12    1    1    2    0    0 -0.15643105184E+00 -0.73558357641E+00  0.90965193859E+00  0.11802629034E+01  0.00000000000E+00 0. -1.
         11    1    3    3    0    0  0.38483851422E+00 -0.57885788416E+01 -0.69549635798E+01  0.90568904347E+01  0.51100000000E-03 0. -1.
        -11    1    3    3    0    0  0.21310463531E+02  0.27666793174E+02 -0.20723514581E+02  0.40608513360E+02  0.51100000000E-03 0.  1.
         12    1    3    3    0    0 -0.21538870994E+02 -0.21142630756E+02  0.26768826222E+02  0.40342333302E+02  0.00000000000E+00 0. -1.
</event>
<event>
 7    1  0.3276565E-015  0.9000770E+02  0.7816164E-02  0.1186339E+00
        -11   -1    0    0    0    0  0.00000000000E+00  0.00000000000E+00  0.45593999997E+02  0.45594000000E+02  0.51100000000E-03 0.  1.
         11   -1    0    0    0    0 -0.00000000000E+00 -0.00000000000E+00 -0.45593999997E+02  0.45594000000E+02  0.51100000000E-03 0. -1.
    9900012    2    1    2    0    0  0.67718498047E-02  0.10890292019E+01  0.45506208644E+00  0.90007698359E+02  0.89999959178E+02 0.  0.
         12    1    1    2    0    0 -0.67718498047E-02 -0.10890292019E+01 -0.45506208644E+00  0.11803016407E+01  0.00000000000E+00 0. -1.
         11    1    3    3    0    0  0.81069097890E+01 -0.28557087038E+00  0.31026803278E+01  0.86850539737E+01  0.51100000000E-03 0. -1.
        -11    1    3    3    0    0  0.20187260376E+02  0.28936543972E+02 -0.17175161277E+02  0.39240734239E+02  0.51100000000E-03 0.  1.
         12    1    3    3    0    0 -0.28287398315E+02 -0.27561943899E+02  0.14527543035E+02  0.42081910146E+02  0.00000000000E+00 0. -1.
</event>
<event>
 7    1  0.3276565E-015  0.9000773E+02  0.7816164E-02  0.1186339E+00
        -11   -1    0    0    0    0  0.00000000000E+00  0.00000000000E+00  0.45593999997E+02  0.45594000000E+02  0.51100000000E-03 0.  1.
         11   -1    0    0    0    0 -0.00000000000E+00 -0.00000000000E+00 -0.45593999997E+02  0.45594000000E+02  0.51100000000E-03 0. -1.
    9900012    2    1    2    0    0 -0.10055878482E+01 -0.47738692952E+00  0.39234100225E+00  0.90007730258E+02  0.89999991498E+02 0.  0.
         12    1    1    2    0    0  0.10055878482E+01  0.47738692952E+00 -0.39234100225E+00  0.11802697416E+01  0.00000000000E+00 0. -1.
         11    1    3    3    0    0 -0.10900945022E+02  0.21820005672E+02 -0.26912998496E+02  0.36321518941E+02  0.51100000000E-03 0. -1.
        -11    1    3    3    0    0  0.45210877635E+01 -0.48856592887E+01 -0.10089684797E+02  0.12087664820E+02  0.51100000000E-03 0.  1.
        -12    1    3    3    0    0  0.53742694101E+01 -0.17411733313E+02  0.37395024295E+02  0.41598546497E+02  0.00000000000E+00 0.  1.
</event>
<event>
 7    1  0.3276565E-015  0.9000775E+02  0.7816164E-02  0.1186339E+00
        -11   -1    0    0    0    0  0.00000000000E+00  0.00000000000E+00  0.45593999997E+02  0.45594000000E+02  0.51100000000E-03 0.  1.
         11   -1    0    0    0    0 -0.00000000000E+00 -0.00000000000E+00 -0.45593999997E+02  0.45594000000E+02  0.51100000000E-03 0. -1.
    9900012    2    1    2    0    0 -0.59786576341E-01  0.11513682966E+01 -0.25252909021E+00  0.90007748192E+02  0.90000009668E+02 0.  0.
         12    1    1    2    0    0  0.59786576341E-01 -0.11513682966E+01  0.25252909021E+00  0.11802518081E+01  0.00000000000E+00 0. -1.
         11    1    3    3    0    0  0.12939563981E+01  0.22325023397E+01  0.93856187923E+01  0.97338702596E+01  0.51100000000E-03 0. -1.
        -11    1    3    3    0    0  0.76733231900E+01 -0.14451267102E+02  0.31824011905E+02  0.35783889443E+02  0.51100000000E-03 0.  1.
         12    1    3    3    0    0 -0.90270661645E+01  0.13370133059E+02 -0.41462159788E+02  0.44489988490E+02  0.00000000000E+00 0. -1.
</event>
<event>
 7    1  0.3276565E-015  0.9000769E+02  0.7816164E-02  0.1186339E+00
        -11   -1    0    0    0    0  0.00000000000E+00  0.00000000000E+00  0.45593999997E+02  0.45594000000E+02  0.51100000000E-03 0.  1.
         11   -1    0    0    0    0 -0.00000000000E+00 -0.00000000000E+00 -0.45593999997E+02  0.45594000000E+02  0.51100000000E-03 0. -1.
    9900012    2    1    2    0    0 -0.34587592047E+00  0.79166398684E+00 -0.80421861264E+00  0.90007690889E+02  0.89999951609E+02 0.  0.
         12    1    1    2    0    0  0.34587592047E+00 -0.79166398684E+00  0.80421861264E+00  0.11803091109E+01  0.00000000000E+00 0. -1.
         11    1    3    3    0    0  0.15627158168E+01  0.86543201234E+01  0.47130056691E+01  0.99775628397E+01  0.51100000000E-03 0. -1.
        -11    1    3    3    0    0  0.18456550013E+02  0.18597392821E+02  0.23949308807E+02  0.35497558377E+02  0.51100000000E-03 0.  1.
         12    1    3    3    0    0 -0.20365141751E+02 -0.26460048958E+02 -0.29466533089E+02  0.44532569672E+02  0.00000000000E+00 0. -1.
</event>
<event>
 7    1  0.3276565E-015  0.9000782E+02  0.7816164E-02  0.1186339E+00
        -11   -1    0    0    0    0  0.00000000000E+00  0.00000000000E+00  0.45593999997E+02  0.45594000000E+02  0.51100000000E-03 0. -1.
         11   -1    0    0    0    0 -0.00000000000E+00 -0.00000000000E+00 -0.45593999997E+02  0.45594000000E+02  0.51100000000E-03 0.  1.
    9900012    2    1    2    0    0 -0.37537310854E+00  0.64617929679E+00 -0.91344144472E+00  0.90007818689E+02  0.90000081096E+02 0.  0.
         12    1    1    2    0    0  0.37537310854E+00 -0.64617929679E+00  0.91344144472E+00  0.11801813111E+01  0.00000000000E+00 0. -1.
         11    1    3    3    0    0  0.10566173344E+02 -0.38343291144E+01  0.30689609312E+01  0.11651807600E+02  0.51100000000E-03 0. -1.
        -11    1    3    3    0    0  0.52816502769E+01 -0.21483857680E+02 -0.30618524457E+02  0.37774938923E+02  0.51100000000E-03 0.  1.
         12    1    3    3    0    0 -0.16223196729E+02  0.25964366091E+02  0.26636122081E+02  0.40581072166E+02  0.00000000000E+00 0. -1.
</event>
<event>
 7    1  0.3276565E-015  0.9000785E+02  0.7816164E-02  0.1186339E+00
        -11   -1    0    0    0    0  0.00000000000E+00  0.00000000000E+00  0.45593999997E+02  0.45594000000E+02  0.51100000000E-03 0.  1.
         11   -1    0    0    0    0 -0.00000000000E+00 -0.00000000000E+00 -0.45593999997E+02  0.45594000000E+02  0.51100000000E-03 0. -1.
    9900012    2    1    2    0    0 -0.10746833617E+01 -0.47297261138E+00  0.11874911860E+00  0.90007852224E+02  0.90000115074E+02 0.  0.
         12    1    1    2    0    0  0.10746833617E+01  0.47297261138E+00 -0.11874911860E+00  0.11801477756E+01  0.00000000000E+00 0. -1.
         11    1    3    3    0    0  0.76206519122E+01  0.21828400493E+02 -0.29577176481E+02  0.37541480692E+02  0.51100000000E-03 0. -1.
        -11    1    3    3    0    0  0.19195896809E+01 -0.58456626024E+01 -0.79375448162E+01  0.10042968375E+02  0.51100000000E-03 0.  1.
        -12    1    3    3    0    0 -0.10614924955E+02 -0.16455710502E+02  0.37633470416E+02  0.42423403158E+02  0.00000000000E+00 0.  1.
</event>
<event>
 7    1  0.3276565E-015  0.9000780E+02  0.7816164E-02  0.1186339E+00
        -11   -1    0    0    0    0  0.00000000000E+00  0.00000000000E+00  0.45593999997E+02  0.45594000000E+02  0.51100000000E-03 0.  1.
         11   -1    0    0    0    0 -0.00000000000E+00 -0.00000000000E+00 -0.45593999997E+02  0.45594000000E+02  0.51100000000E-03 0. -1.
    9900012    2    1    2    0    0 -0.77149352310E+00 -0.88984894154E+00 -0.76346168433E-01  0.90007804197E+02  0.90000066413E+02 0.  0.
         12    1    1    2    0    0  0.77149352310E+00  0.88984894154E+00  0.76346168433E-01  0.11801958026E+01  0.00000000000E+00 0. -1.
         11    1    3    3    0    0  0.56411328899E+01  0.14799381651E+01  0.75749792900E+01  0.95599638472E+01  0.51100000000E-03 0. -1.
        -11    1    3    3    0    0 -0.15595185784E+02  0.33010310767E+02 -0.20295013420E+02  0.41770539935E+02  0.51100000000E-03 0.  1.
         12    1    3    3    0    0  0.91825593706E+01 -0.35380097873E+02  0.12643687961E+02  0.38677300415E+02  0.00000000000E+00 0. -1.
</event>
<event>
 7    1  0.3276565E-015  0.9000787E+02  0.7816164E-02  0.1186339E+00
        -11   -1    0    0    0    0  0.00000000000E+00  0.00000000000E+00  0.45593999997E+02  0.45594000000E+02  0.51100000000E-03 0. -1.
         11   -1    0    0    0    0 -0.00000000000E+00 -0.00000000000E+00 -0.45593999997E+02  0.45594000000E+02  0.51100000000E-03 0.  1.
    9900012    2    1    2    0    0 -0.77621014426E+00 -0.12328859639E+00 -0.88034542048E+00  0.90007868514E+02  0.90000131578E+02 0.  0.
         12    1    1    2    0    0  0.77621014426E+00  0.12328859639E+00  0.88034542048E+00  0.11801314865E+01  0.00000000000E+00 0. -1.
         11    1    3    3    0    0 -0.45262541763E+01  0.21924217725E+01  0.78492553786E+01  0.93222583292E+01  0.51100000000E-03 0. -1.
        -11    1    3    3    0    0  0.39405976689E+02 -0.14607634355E+02 -0.24149576843E+00  0.42027042493E+02  0.51100000000E-03 0.  1.
         12    1    3    3    0    0 -0.35655932657E+02  0.12291923987E+02 -0.84881050307E+01  0.38658567691E+02  0.00000000000E+00 0. -1.
</event>
<event>
 7    1  0.3276565E-015  0.9000773E+02  0.7816164E-02  0.1186339E+00
        -11   -1    0    0    0    0  0.00000000000E+00  0.00000000000E+00  0.45593999997E+02  0.45594000000E+02  0.51100000000E-03 0. -1.
         11   -1    0    0    0    0 -0.00000000000E+00 -0.00000000000E+00 -0.45593999997E+02  0.45594000000E+02  0.51100000000E-03 0.  1.
    9900012    2    1    2    0    0  0.64888455818E+00 -0.98438228425E+00 -0.54599976984E-01  0.90007728502E+02  0.89999989718E+02 0.  0.
         12    1    1    2    0    0 -0.64888455818E+00  0.98438228425E+00  0.54599976984E-01  0.11802714979E+01  0.00000000000E+00 0. -1.
         11    1    3    3    0    0  0.36010745115E+02  0.23859536187E+01  0.44816586256E+01  0.36366905322E+02  0.51100000000E-03 0. -1.
        -11    1    3    3    0    0 -0.45220317977E+01  0.14925120976E+02 -0.81580775807E+01  0.17600063574E+02  0.51100000000E-03 0.  1.
        -12    1    3    3    0    0 -0.30839828759E+02 -0.18295456879E+02  0.36218189781E+01  0.36040759606E+02  0.00000000000E+00 0.  1.
</event>
<event>
 7    1  0.3276565E-015  0.9000772E+02  0.7816164E-02  0.1186339E+00
        -11   -1    0    0    0    0  0.00000000000E+00  0.00000000000E+00  0.45593999997E+02  0.45594000000E+02  0.51100000000E-03 0. -1.
         11   -1    0    0    0    0 -0.00000000000E+00 -0.00000000000E+00 -0.45593999997E+02  0.45594000000E+02  0.51100000000E-03 0.  1.
    9900012    2    1    2    0    0  0.34700929948E+00 -0.11240355685E+01 -0.95912035013E-01  0.90007715911E+02  0.89999976961E+02 0.  0.
         12    1    1    2    0    0 -0.34700929948E+00  0.11240355685E+01  0.95912035013E-01  0.11802840894E+01  0.00000000000E+00 0. -1.
         11    1    3    3    0    0 -0.96661321673E+01  0.66731966192E+01  0.33597815793E+00  0.11750682779E+02  0.51100000000E-03 0. -1.
        -11    1    3    3    0    0  0.43360295489E+02 -0.14749786467E+01  0.57265408509E+01  0.43761673383E+02  0.51100000000E-03 0.  1.
         12    1    3    3    0    0 -0.33347154022E+02 -0.63222535410E+01 -0.61584310439E+01  0.34495359748E+02  0.00000000000E+00 0. -1.
</event>
<event>
 7    1  0.3276565E-015  0.9000775E+02  0.7816164E-02  0.1186339E+00
        -11   -1    0    0    0    0  0.00000000000E+00  0.00000000000E+00  0.45593999997E+02  0.45594000000E+02  0.51100000000E-03 0.  1.
         11   -1    0    0    0    0 -0.00000000000E+00 -0.00000000000E+00 -0.45593999997E+02  0.45594000000E+02  0.51100000000E-03 0. -1.
    9900012    2    1    2    0    0  0.61731693910E+00  0.34771792398E+00  0.94392344253E+00  0.90007754507E+02  0.90000016067E+02 0.  0.
         12    1    1    2    0    0 -0.61731693910E+00 -0.34771792398E+00 -0.94392344253E+00  0.11802454928E+01  0.00000000000E+00 0. -1.
         11    1    3    3    0    0  0.61187497523E+01 -0.58510978481E+01  0.53361850982E+01  0.10007463026E+02  0.51100000000E-03 0. -1.
        -11    1    3    3    0    0  0.36922470989E+02  0.44612832152E+01 -0.50726769942E+01  0.37535369507E+02  0.51100000000E-03 0.  1.
         12    1    3    3    0    0 -0.42423903802E+02  0.17375325569E+01  0.68041533849E+00  0.42464921974E+02  0.00000000000E+00 0. -1.
</event>
<event>
 7    1  0.3276565E-015  0.9000773E+02  0.7816164E-02  0.1186339E+00
        -11   -1    0    0    0    0  0.00000000000E+00  0.00000000000E+00  0.45593999997E+02  0.45594000000E+02  0.51100000000E-03 0. -1.
         11   -1    0    0    0    0 -0.00000000000E+00 -0.00000000000E+00 -0.45593999997E+02  0.45594000000E+02  0.51100000000E-03 0.  1.
    9900012    2    1    2    0    0 -0.34467878363E+00 -0.11210415820E+01  0.13229215833E+00  0.90007729308E+02  0.89999990534E+02 0.  0.
         12    1    1    2    0    0  0.34467878363E+00  0.11210415820E+01 -0.13229215833E+00  0.11802706925E+01  0.00000000000E+00 0. -1.
         11    1    3    3    0    0 -0.30573955850E+02 -0.21981918870E+02 -0.16932780927E+02  0.41287898999E+02  0.51100000000E-03 0. -1.
        -11    1    3    3    0    0 -0.15956682609E+00 -0.31356832804E+01  0.85020643631E+01  0.90632814092E+01  0.51100000000E-03 0.  1.
        -12    1    3    3    0    0  0.30388843893E+02  0.23996560569E+02  0.85630087217E+01  0.39656548900E+02  0.00000000000E+00 0.  1.
</event>
<event>
 7    1  0.3276565E-015  0.9000772E+02  0.7816164E-02  0.1186339E+00
        -11   -1    0    0    0    0  0.00000000000E+00  0.00000000000E+00  0.45593999997E+02  0.45594000000E+02  0.51100000000E-03 0. -1.
         11   -1    0    0    0    0 -0.00000000000E+00 -0.00000000000E+00 -0.45593999997E+02  0.45594000000E+02  0.51100000000E-03 0.  1.
    9900012    2    1    2    0    0  0.95301860456E-01  0.67535422794E+00 -0.96326461509E+00  0.90007718467E+02  0.89999979551E+02 0.  0.
         12    1    1    2    0    0 -0.95301860456E-01 -0.67535422794E+00  0.96326461509E+00  0.11802815327E+01  0.00000000000E+00 0. -1.
         11    1    3    3    0    0  0.22810086224E+02  0.10961060942E+02  0.25643936985E+02  0.36028549719E+02  0.51100000000E-03 0. -1.
        -11    1    3    3    0    0  0.67407512157E+01  0.64718896688E+01  0.20861729787E+01  0.95747167476E+01  0.51100000000E-03 0.  1.
        -12    1    3    3    0    0 -0.29455535579E+02 -0.16757596383E+02 -0.28693374578E+02  0.44404452001E+02  0.00000000000E+00 0.  1.
</event>
<event>
 7    1  0.3276565E-015  0.9000797E+02  0.7816164E-02  0.1186339E+00
        -11   -1    0    0    0    0  0.00000000000E+00  0.00000000000E+00  0.45593999997E+02  0.45594000000E+02  0.51100000000E-03 0.  1.
         11   -1    0    0    0    0 -0.00000000000E+00 -0.00000000000E+00 -0.45593999997E+02  0.45594000000E+02  0.51100000000E-03 0. -1.
    9900012    2    1    2    0    0  0.23057291011E+00 -0.11266991294E+01  0.26432338455E+00  0.90007965404E+02  0.90000229748E+02 0.  0.
         12    1    1    2    0    0 -0.23057291011E+00  0.11266991294E+01 -0.26432338455E+00  0.11800345955E+01  0.00000000000E+00 0. -1.
         11    1    3    3    0    0 -0.51268260488E+01  0.10607042154E+02 -0.50876391980E+01  0.12832683330E+02  0.51100000000E-03 0. -1.
        -11    1    3    3    0    0  0.33418212321E+01  0.53165768239E+01  0.38945548847E+02  0.39448568207E+02  0.51100000000E-03 0.  1.
         12    1    3    3    0    0  0.20155777268E+01 -0.17050318107E+02 -0.33593586265E+02  0.37726713868E+02  0.00000000000E+00 0. -1.
</event>
<event>
 7    1  0.3276565E-015  0.9000805E+02  0.7816164E-02  0.1186338E+00
        -11   -1    0    0    0    0  0.00000000000E+00  0.00000000000E+00  0.45593999997E+02  0.45594000000E+02  0.51100000000E-03 0.  1.
         11   -1    0    0    0    0 -0.00000000000E+00 -0.00000000000E+00 -0.45593999997E+02  0.45594000000E+02  0.51100000000E-03 0. -1.
    9900012    2    1    2    0    0  0.65306998185E+00 -0.12666146571E+00  0.97454203837E+00  0.90008052665E+02  0.90000318160E+02 0.  0.
         12    1    1    2    0    0 -0.65306998185E+00  0.12666146571E+00 -0.97454203837E+00  0.11799473347E+01  0.00000000000E+00 0. -1.
         11    1    3    3    0    0 -0.85427651911E+01  0.15120556562E+01  0.25871514405E+01  0.90530935185E+01  0.51100000000E-03 0. -1.
        -11    1    3    3    0    0 -0.12552079195E+02  0.25834097508E+02  0.24100276286E+02  0.37493714187E+02  0.51100000000E-03 0.  1.
         12    1    3    3    0    0  0.21747914368E+02 -0.27472814630E+02 -0.25712885688E+02  0.43461244960E+02  0.00000000000E+00 0. -1.
</event>
<event>
 7    1  0.3276565E-015  0.9000775E+02  0.7816164E-02  0.1186339E+00
        -11   -1    0    0    0    0  0.00000000000E+00  0.00000000000E+00  0.45593999997E+02  0.45594000000E+02  0.51100000000E-03 0. -1.
         11   -1    0    0    0    0 -0.00000000000E+00 -0.00000000000E+00 -0.45593999997E+02  0.45594000000E+02  0.51100000000E-03 0.  1.
    9900012    2    1    2    0    0  0.46121115956E+00 -0.78052378994E+00 -0.75569017512E+00  0.90007745468E+02  0.90000006908E+02 0.  0.
         12    1    1    2    0    0 -0.46121115956E+00  0.78052378994E+00  0.75569017512E+00  0.11802545324E+01  0.00000000000E+00 0. -1.
         11    1    3    3    0    0  0.30211546194E+01  0.34277816313E+01  0.38750813129E+02  0.39019259098E+02  0.51100000000E-03 0. -1.
        -11    1    3    3    0    0 -0.46325838721E+01 -0.74443597121E+01  0.22526919946E+01  0.90528418929E+01  0.51100000000E-03 0.  1.
        -12    1    3    3    0    0  0.20726404122E+01  0.32360542909E+01 -0.41759195299E+02  0.41935644476E+02  0.00000000000E+00 0.  1.
</event>
<event>
 7    1  0.3276565E-015  0.9000714E+02  0.7816164E-02  0.1186340E+00
        -11   -1    0    0    0    0  0.00000000000E+00  0.00000000000E+00  0.45593999997E+02  0.45594000000E+02  0.51100000000E-03 0.  1.
         11   -1    0    0    0    0 -0.00000000000E+00 -0.00000000000E+00 -0.45593999997E+02  0.45594000000E+02  0.51100000000E-03 0. -1.
    9900012    2    1    2    0    0  0.10251024648E+01  0.21577561228E+00  0.54501141872E+00  0.90007139456E+02  0.89999392895E+02 0.  0.
         12    1    1    2    0    0 -0.10251024648E+01 -0.21577561228E+00 -0.54501141872E+00  0.11808605442E+01  0.00000000000E+00 0. -1.
         11    1    3    3    0    0  0.15648409711E+02  0.30206480105E+02 -0.79495448393E+01  0.34935646985E+02  0.51100000000E-03 0. -1.
        -11    1    3    3    0    0 -0.47860708541E+01  0.74843023015E+01 -0.89234940402E+01  0.12591663961E+02  0.51100000000E-03 0.  1.
        -12    1    3    3    0    0 -0.98372363922E+01 -0.37475006794E+02  0.17418050298E+02  0.42479828510E+02  0.00000000000E+00 0.  1.
</event>
<event>
 7    1  0.3938475E-015  0.9000759E+02  0.7816164E-02  0.1186339E+00
        -11   -1    0    0    0    0  0.00000000000E+00  0.00000000000E+00  0.45593999997E+02  0.45594000000E+02  0.51100000000E-03 0. -1.
         11   -1    0    0    0    0 -0.00000000000E+00 -0.00000000000E+00 -0.45593999997E+02  0.45594000000E+02  0.51100000000E-03 0.  1.
    9900012    2    1    2    0    0 -0.65937625606E+00 -0.49227060652E+00 -0.84632438045E+00  0.90007588057E+02  0.89999847420E+02 0.  0.
         12    1    1    2    0    0  0.65937625606E+00  0.49227060652E+00  0.84632438045E+00  0.11804119425E+01  0.00000000000E+00 0. -1.
         11    1    3    3    0    0 -0.26339979050E+01  0.11278352615E+01 -0.89909366088E+01  0.94364664311E+01  0.51100000000E-03 0. -1.
        -11    1    3    3    0    0  0.12040000885E+02  0.30081822485E+02 -0.19068026611E+02  0.37596107571E+02  0.51100000000E-03 0.  1.
         12    1    3    3    0    0 -0.10065379236E+02 -0.31701928353E+02  0.27212638840E+02  0.42975014056E+02  0.00000000000E+00 0. -1.
</event>
<event>
 7    1  0.3276565E-015  0.9000779E+02  0.7816164E-02  0.1186339E+00
        -11   -1    0    0    0    0  0.00000000000E+00  0.00000000000E+00  0.45593999997E+02  0.45594000000E+02  0.51100000000E-03 0.  1.
         11   -1    0    0    0    0 -0.00000000000E+00 -0.00000000000E+00 -0.45593999997E+02  0.45594000000E+02  0.51100000000E-03 0. -1.
    9900012    2    1    2    0    0  0.92733737875E+00  0.53015167924E+00  0.50186804388E+00  0.90007793683E+02  0.90000055760E+02 0.  0.
         12    1    1    2    0    0 -0.92733737875E+00 -0.53015167924E+00 -0.50186804388E+00  0.11802063169E+01  0.00000000000E+00 0. -1.
         11    1    3    3    0    0 -0.62416245329E+01 -0.41978113245E+01 -0.82933968700E+01  0.11196424815E+02  0.51100000000E-03 0. -1.
        -11    1    3    3    0    0  0.34391753974E+02  0.33578422853E+01 -0.19372093087E+02  0.39614969861E+02  0.51100000000E-03 0.  1.
         12    1    3    3    0    0 -0.27222792063E+02  0.13701207185E+01  0.28167358000E+02  0.39196399008E+02  0.00000000000E+00 0. -1.
</event>
<event>
 7    1  0.3276565E-015  0.9000770E+02  0.7816164E-02  0.1186339E+00
        -11   -1    0    0    0    0  0.00000000000E+00  0.00000000000E+00  0.45593999997E+02  0.45594000000E+02  0.51100000000E-03 0. -1.
         11   -1    0    0    0    0 -0.00000000000E+00 -0.00000000000E+00 -0.45593999997E+02  0.45594000000E+02  0.51100000000E-03 0.  1.
    9900012    2    1    2    0    0  0.46423225458E+00  0.75373837140E+00 -0.78069460947E+00  0.90007696144E+02  0.89999956933E+02 0.  0.
         12    1    1    2    0    0 -0.46423225458E+00 -0.75373837140E+00  0.78069460947E+00  0.11803038558E+01  0.00000000000E+00 0. -1.
         11    1    3    3    0    0  0.38480340318E+02  0.53473455450E+00  0.87607446740E+01  0.39468635389E+02  0.51100000000E-03 0. -1.
        -11    1    3    3    0    0 -0.49157361038E+00  0.89140819627E+00  0.87355804710E+01  0.87946926958E+01  0.51100000000E-03 0.  1.
        -12    1    3    3    0    0 -0.37524534453E+02 -0.67240437937E+00 -0.18277019754E+02  0.41744368059E+02  0.00000000000E+00 0.  1.
</event>
<event>
 7    1  0.3276565E-015  0.9000772E+02  0.7816164E-02  0.1186339E+00
        -11   -1    0    0    0    0  0.00000000000E+00  0.00000000000E+00  0.45593999997E+02  0.45594000000E+02  0.51100000000E-03 0.  1.
         11   -1    0    0    0    0 -0.00000000000E+00 -0.00000000000E+00 -0.45593999997E+02  0.45594000000E+02  0.51100000000E-03 0. -1.
    9900012    2    1    2    0    0  0.83584485767E+00  0.81455332666E-01  0.82933176997E+00  0.90007719194E+02  0.89999980287E+02 0.  0.
         12    1    1    2    0    0 -0.83584485767E+00 -0.81455332666E-01 -0.82933176997E+00  0.11802808064E+01  0.00000000000E+00 0. -1.
         11    1    3    3    0    0 -0.83885488130E+01  0.12078676068E+01 -0.41687135302E+02  0.42539910029E+02  0.51100000000E-03 0. -1.
        -11    1    3    3    0    0 -0.45181183698E+01  0.36763963470E+01  0.71496184599E+01  0.92220566083E+01  0.51100000000E-03 0.  1.
        -12    1    3    3    0    0  0.13742512040E+02 -0.48028086212E+01  0.35366848612E+02  0.38245752556E+02  0.00000000000E+00 0.  1.
</event>
<event>
 7    1  0.3276565E-015  0.9000781E+02  0.7816164E-02  0.1186339E+00
        -11   -1    0    0    0    0  0.00000000000E+00  0.00000000000E+00  0.45593999997E+02  0.45594000000E+02  0.51100000000E-03 0. -1.
         11   -1    0    0    0    0 -0.00000000000E+00 -0.00000000000E+00 -0.45593999997E+02  0.45594000000E+02  0.51100000000E-03 0.  1.
    9900012    2    1    2    0    0  0.63065920516E+00 -0.99617653595E+00 -0.52358933274E-01  0.90007813497E+02  0.90000075835E+02 0.  0.
         12    1    1    2    0    0 -0.63065920516E+00  0.99617653595E+00  0.52358933274E-01  0.11801865029E+01  0.00000000000E+00 0. -1.
         11    1    3    3    0    0  0.49080708466E+01 -0.36129128481E+02  0.96738603535E+01  0.37722495392E+02  0.51100000000E-03 0. -1.
        -11    1    3    3    0    0  0.66143632757E+01  0.12535334820E+01  0.96491889218E+01  0.11765542692E+02  0.51100000000E-03 0.  1.
        -12    1    3    3    0    0 -0.10891774917E+02  0.33879418463E+02 -0.19375408209E+02  0.40519775413E+02  0.00000000000E+00 0.  1.
</event>
<event>
 7    1  0.3276565E-015  0.9000769E+02  0.7816164E-02  0.1186339E+00
        -11   -1    0    0    0    0  0.00000000000E+00  0.00000000000E+00  0.45593999997E+02  0.45594000000E+02  0.51100000000E-03 0.  1.
         11   -1    0    0    0    0 -0.00000000000E+00 -0.00000000000E+00 -0.45593999997E+02  0.45594000000E+02  0.51100000000E-03 0. -1.
    9900012    2    1    2    0    0  0.10771222571E+01 -0.38172402506E+00  0.29533388247E+00  0.90007691697E+02  0.89999952427E+02 0.  0.
         12    1    1    2    0    0 -0.10771222571E+01  0.38172402506E+00 -0.29533388247E+00  0.11803083031E+01  0.00000000000E+00 0. -1.
         11    1    3    3    0    0 -0.85638156246E+01 -0.12942019460E+02 -0.32989293151E-01  0.15518888308E+02  0.51100000000E-03 0. -1.
        -11    1    3    3    0    0  0.14457758209E+01 -0.20930052156E+02  0.24594418411E+02  0.32327121248E+02  0.51100000000E-03 0.  1.
         12    1    3    3    0    0  0.81951620609E+01  0.33490347591E+02 -0.24266095235E+02  0.42161682141E+02  0.00000000000E+00 0. -1.
</event>
<event>
 7    1  0.3276565E-015  0.9000768E+02  0.7816164E-02  0.1186339E+00
        -11   -1    0    0    0    0  0.00000000000E+00  0.00000000000E+00  0.45593999997E+02  0.45594000000E+02  0.51100000000E-03 0. -1.
         11   -1    0    0    0    0 -0.00000000000E+00 -0.00000000000E+00 -0.45593999997E+02  0.45594000000E+02  0.51100000000E-03 0.  1.
    9900012    2    1    2    0    0 -0.83744642426E+00  0.79587371144E+00  0.24172227531E+00  0.90007677529E+02  0.89999938072E+02 0.  0.
         12    1    1    2    0    0  0.83744642426E+00 -0.79587371144E+00 -0.24172227531E+00  0.11803224714E+01  0.00000000000E+00 0. -1.
         11    1    3    3    0    0  0.49750569176E+01  0.72012932316E+01  0.13696252618E+00  0.87537748735E+01  0.51100000000E-03 0. -1.
        -11    1    3    3    0    0  0.25176942100E+02  0.19584159141E+02 -0.18348620607E+02  0.36797956210E+02  0.51100000000E-03 0.  1.
         12    1    3    3    0    0 -0.30989445442E+02 -0.25989578661E+02  0.18453380356E+02  0.44455946445E+02  0.00000000000E+00 0. -1.
</event>
<event>
 7    1  0.3276565E-015  0.9000777E+02  0.7816164E-02  0.1186339E+00
        -11   -1    0    0    0    0  0.00000000000E+00  0.00000000000E+00  0.45593999997E+02  0.45594000000E+02  0.51100000000E-03 0.  1.
         11   -1    0    0    0    0 -0.00000000000E+00 -0.00000000000E+00 -0.45593999997E+02  0.45594000000E+02  0.51100000000E-03 0. -1.
    9900012    2    1    2    0    0 -0.41314154059E+00 -0.98110095987E+00 -0.50960427805E+00  0.90007770554E+02  0.90000032325E+02 0.  0.
         12    1    1    2    0    0  0.41314154059E+00  0.98110095987E+00  0.50960427805E+00  0.11802294464E+01  0.00000000000E+00 0. -1.
         11    1    3    3    0    0 -0.53217358931E+01  0.82992824702E+01 -0.51569841549E+01  0.11126250414E+02  0.51100000000E-03 0. -1.
        -11    1    3    3    0    0  0.13661581566E+02 -0.17738956935E+02  0.37595073174E+02  0.43757272895E+02  0.51100000000E-03 0.  1.
         12    1    3    3    0    0 -0.87529872134E+01  0.84585735051E+01 -0.32947693297E+02  0.35124247244E+02  0.00000000000E+00 0. -1.
</event>
<event>
 7    1  0.3276565E-015  0.9000771E+02  0.7816164E-02  0.1186339E+00
        -11   -1    0    0    0    0  0.00000000000E+00  0.00000000000E+00  0.45593999997E+02  0.45594000000E+02  0.51100000000E-03 0.  1.
         11   -1    0    0    0    0 -0.00000000000E+00 -0.00000000000E+00 -0.45593999997E+02  0.45594000000E+02  0.51100000000E-03 0. -1.
    9900012    2    1    2    0    0 -0.35299018348E+00  0.66235159966E+00  0.91091437654E+00  0.90007713292E+02  0.89999974308E+02 0.  0.
         12    1    1    2    0    0  0.35299018348E+00 -0.66235159966E+00 -0.91091437654E+00  0.11802867078E+01  0.00000000000E+00 0. -1.
         11    1    3    3    0    0 -0.23767752204E+01 -0.77685002436E+01  0.93526468859E+01  0.12388327592E+02  0.51100000000E-03 0. -1.
        -11    1    3    3    0    0  0.29630464432E+02 -0.18401430728E+02 -0.16020036127E+02  0.38382530310E+02  0.51100000000E-03 0.  1.
         12    1    3    3    0    0 -0.27606679395E+02  0.26832282571E+02  0.75783036173E+01  0.39236855390E+02  0.00000000000E+00 0. -1.
</event>
<event>
 7    1  0.3276565E-015  0.9000788E+02  0.7816164E-02  0.1186339E+00
        -11   -1    0    0    0    0  0.00000000000E+00  0.00000000000E+00  0.45593999997E+02  0.45594000000E+02  0.51100000000E-03 0. -1.
         11   -1    0    0    0    0 -0.00000000000E+00 -0.00000000000E+00 -0.45593999997E+02  0.45594000000E+02  0.51100000000E-03 0.  1.
    9900012    2    1    2    0    0 -0.59625941653E+00 -0.32572577261E+00 -0.96491987645E+00  0.90007875880E+02  0.90000139041E+02 0.  0.
         12    1    1    2    0    0  0.59625941653E+00  0.32572577261E+00  0.96491987645E+00  0.11801241200E+01  0.00000000000E+00 0. -1.
         11    1    3    3    0    0 -0.38968260786E+01 -0.30443016736E+01  0.49565693828E+01  0.70014717363E+01  0.51100000000E-03 0. -1.
        -11    1    3    3    0    0  0.35513861643E+02 -0.80795185924E+01 -0.24872115811E+02  0.44103686180E+02  0.51100000000E-03 0.  1.
         12    1    3    3    0    0 -0.32213294981E+02  0.10798094493E+02  0.18950626552E+02  0.38902717963E+02  0.00000000000E+00 0. -1.
</event>
<event>
 7    1  0.3276565E-015  0.9000787E+02  0.7816164E-02  0.1186339E+00
        -11   -1    0    0    0    0  0.00000000000E+00  0.00000000000E+00  0.45593999997E+02  0.45594000000E+02  0.51100000000E-03 0. -1.
         11   -1    0    0    0    0 -0.00000000000E+00 -0.00000000000E+00 -0.45593999997E+02  0.45594000000E+02  0.51100000000E-03 0.  1.
    9900012    2    1    2    0    0 -0.69240962911E+00  0.12029905829E-01 -0.95557477022E+00  0.90007873331E+02  0.90000136459E+02 0.  0.
         12    1    1    2    0    0  0.69240962911E+00 -0.12029905829E-01  0.95557477022E+00  0.11801266689E+01  0.00000000000E+00 0. -1.
         11    1    3    3    0    0  0.70570433083E+01  0.12335769881E+01 -0.78013259730E+01  0.10591707116E+02  0.51100000000E-03 0. -1.
        -11    1    3    3    0    0 -0.30457648183E+02 -0.22874119250E+02 -0.15260776839E+02  0.41033949046E+02  0.51100000000E-03 0.  1.
         12    1    3    3    0    0  0.22708195245E+02  0.21652572168E+02  0.22106528042E+02  0.38382217169E+02  0.00000000000E+00 0. -1.
</event>
<event>
 7    1  0.3276565E-015  0.9000778E+02  0.7816164E-02  0.1186339E+00
        -11   -1    0    0    0    0  0.00000000000E+00  0.00000000000E+00  0.45593999997E+02  0.45594000000E+02  0.51100000000E-03 0.  1.
         11   -1    0    0    0    0 -0.00000000000E+00 -0.00000000000E+00 -0.45593999997E+02  0.45594000000E+02  0.51100000000E-03 0. -1.
    9900012    2    1    2    0    0  0.53391222138E+00  0.96828920470E+00  0.41262834486E+00  0.90007784598E+02  0.90000046555E+02 0.  0.
         12    1    1    2    0    0 -0.53391222138E+00 -0.96828920470E+00 -0.41262834486E+00  0.11802154020E+01  0.00000000000E+00 0. -1.
         11    1    3    3    0    0 -0.73526507196E+01  0.10425026908E+01 -0.97396109193E+01  0.12247787783E+02  0.51100000000E-03 0. -1.
        -11    1    3    3    0    0 -0.28487118268E+02  0.20590266779E+02  0.67172876499E+01  0.35785429254E+02  0.51100000000E-03 0.  1.
         12    1    3    3    0    0  0.36373681209E+02 -0.20664480265E+02  0.34349516143E+01  0.41974567561E+02  0.00000000000E+00 0. -1.
</event>
<event>
 7    1  0.3276565E-015  0.9000777E+02  0.7816164E-02  0.1186339E+00
        -11   -1    0    0    0    0  0.00000000000E+00  0.00000000000E+00  0.45593999997E+02  0.45594000000E+02  0.51100000000E-03 0.  1.
         11   -1    0    0    0    0 -0.00000000000E+00 -0.00000000000E+00 -0.45593999997E+02  0.45594000000E+02  0.51100000000E-03 0. -1.
    9900012    2    1    2    0    0 -0.59088714757E+00 -0.25715629416E+00  0.98877150532E+00  0.90007768637E+02  0.90000030383E+02 0.  0.
         12    1    1    2    0    0  0.59088714757E+00  0.25715629416E+00 -0.98877150532E+00  0.11802313631E+01  0.00000000000E+00 0. -1.
         11    1    3    3    0    0  0.28902342778E+01  0.40058611057E-02 -0.88873154969E+01  0.93454720175E+01  0.51100000000E-03 0. -1.
        -11    1    3    3    0    0 -0.29412795496E+02  0.25366765034E+02 -0.86119746364E+01  0.39783808447E+02  0.51100000000E-03 0.  1.
         12    1    3    3    0    0  0.25931674070E+02 -0.25627927189E+02  0.18488061639E+02  0.40878488172E+02  0.00000000000E+00 0. -1.
</event>
<event>
 7    1  0.3276565E-015  0.9000797E+02  0.7816164E-02  0.1186339E+00
        -11   -1    0    0    0    0  0.00000000000E+00  0.00000000000E+00  0.45593999997E+02  0.45594000000E+02  0.51100000000E-03 0. -1.
         11   -1    0    0    0    0 -0.00000000000E+00 -0.00000000000E+00 -0.45593999997E+02  0.45594000000E+02  0.51100000000E-03 0.  1.
    9900012    2    1    2    0    0 -0.49036352664E+00  0.36634154642E+00 -0.10088682157E+01  0.90007967122E+02  0.90000231488E+02 0.  0.
         12    1    1    2    0    0  0.49036352664E+00 -0.36634154642E+00  0.10088682157E+01  0.11800328782E+01  0.00000000000E+00 0. -1.
         11    1    3    3    0    0  0.33578262902E+02  0.15881869357E+02  0.60277286965E+00  0.37149654766E+02  0.51100000000E-03 0. -1.
        -11    1    3    3    0    0  0.58338155494E+01  0.30018082607E+01 -0.56838959174E+01  0.86804913317E+01  0.51100000000E-03 0.  1.
        -12    1    3    3    0    0 -0.39902441978E+02 -0.18517336072E+02  0.40722548321E+01  0.44177821024E+02  0.00000000000E+00 0.  1.
</event>
<event>
 7    1  0.3276565E-015  0.9000773E+02  0.7816164E-02  0.1186339E+00
        -11   -1    0    0    0    0  0.00000000000E+00  0.00000000000E+00  0.45593999997E+02  0.45594000000E+02  0.51100000000E-03 0.  1.
         11   -1    0    0    0    0 -0.00000000000E+00 -0.00000000000E+00 -0.45593999997E+02  0.45594000000E+02  0.51100000000E-03 0. -1.
    9900012    2    1    2    0    0  0.11061155363E+01  0.19777597491E-01  0.41128220542E+00  0.90007730630E+02  0.89999991874E+02 0.  0.
         12    1    1    2    0    0 -0.11061155363E+01 -0.19777597491E-01 -0.41128220542E+00  0.11802693699E+01  0.00000000000E+00 0. -1.
         11    1    3    3    0    0  0.13817568151E+02  0.34808225761E+02 -0.43538513050E+01  0.37702702710E+02  0.51100000000E-03 0. -1.
        -11    1    3    3    0    0 -0.35370187733E+01  0.42471099995E+01 -0.84389387296E+01  0.10087820988E+02  0.51100000000E-03 0.  1.
        -12    1    3    3    0    0 -0.91744338414E+01 -0.39035558163E+02  0.13204072240E+02  0.42217206931E+02  0.00000000000E+00 0.  1.
</event>
<event>
 7    1  0.3276565E-015  0.9000773E+02  0.7816164E-02  0.1186339E+00
        -11   -1    0    0    0    0  0.00000000000E+00  0.00000000000E+00  0.45593999997E+02  0.45594000000E+02  0.51100000000E-03 0. -1.
         11   -1    0    0    0    0 -0.00000000000E+00 -0.00000000000E+00 -0.45593999997E+02  0.45594000000E+02  0.51100000000E-03 0.  1.
    9900012    2    1    2    0    0 -0.59981670411E+00  0.63575404022E+00 -0.79314278902E+00  0.90007729369E+02  0.89999990597E+02 0.  0.
         12    1    1    2    0    0  0.59981670411E+00 -0.63575404022E+00  0.79314278902E+00  0.11802706308E+01  0.00000000000E+00 0. -1.
         11    1    3    3    0    0 -0.45724452062E+01  0.67881506154E+01  0.10354992052E+02  0.13198943314E+02  0.51100000000E-03 0. -1.
        -11    1    3    3    0    0 -0.15693659835E+02 -0.34579906040E+02 -0.17247346961E+02  0.41707695192E+02  0.51100000000E-03 0.  1.
         12    1    3    3    0    0  0.19666288337E+02  0.28427509465E+02  0.60992121194E+01  0.35101090864E+02  0.00000000000E+00 0. -1.
</event>
<event>
 7    1  0.3276565E-015  0.9000774E+02  0.7816164E-02  0.1186339E+00
        -11   -1    0    0    0    0  0.00000000000E+00  0.00000000000E+00  0.45593999997E+02  0.45594000000E+02  0.51100000000E-03 0. -1.
         11   -1    0    0    0    0 -0.00000000000E+00 -0.00000000000E+00 -0.45593999997E+02  0.45594000000E+02  0.51100000000E-03 0.  1.
    9900012    2    1    2    0    0  0.23082308745E+00  0.96065403312E+00  0.64566349831E+00  0.90007738664E+02  0.90000000014E+02 0.  0.
         12    1    1    2    0    0 -0.23082308745E+00 -0.96065403312E+00 -0.64566349831E+00  0.11802613364E+01  0.00000000000E+00 0. -1.
         11    1    3    3    0    0 -0.29314407156E+01  0.41811695120E+02  0.13087360232E+02  0.43910023816E+02  0.51100000000E-03 0. -1.
        -11    1    3    3    0    0 -0.15507664104E+00 -0.74840658741E+01  0.42855177442E+01  0.86255987253E+01  0.51100000000E-03 0.  1.
        -12    1    3    3    0    0  0.33173404441E+01 -0.33366975213E+02 -0.16727214478E+02  0.37472116122E+02  0.00000000000E+00 0.  1.
</event>
<event>
 7    1  0.3276565E-015  0.9000766E+02  0.7816164E-02  0.1186339E+00
        -11   -1    0    0    0    0  0.00000000000E+00  0.00000000000E+00  0.45593999997E+02  0.45594000000E+02  0.51100000000E-03 0.  1.
         11   -1    0    0    0    0 -0.00000000000E+00 -0.00000000000E+00 -0.45593999997E+02  0.45594000000E+02  0.51100000000E-03 0. -1.
    9900012    2    1    2    0    0 -0.25806343265E-01  0.11676348803E+01  0.17075061016E+00  0.90007664051E+02  0.89999924417E+02 0.  0.
         12    1    1    2    0    0  0.25806343265E-01 -0.11676348803E+01 -0.17075061016E+00  0.11803359487E+01  0.00000000000E+00 0. -1.
         11    1    3    3    0    0 -0.27342181443E+02 -0.82755017356E-01  0.81936005772E+01  0.28543595168E+02  0.51100000000E-03 0. -1.
        -11    1    3    3    0    0 -0.33370189892E+01  0.28087230935E+01 -0.25684558918E+02  0.26052277986E+02  0.51100000000E-03 0.  1.
        -12    1    3    3    0    0  0.30653394088E+02 -0.15583331959E+01  0.17661708951E+02  0.35411790898E+02  0.00000000000E+00 0.  1.
</event>
<event>
 7    1  0.3276565E-015  0.9000773E+02  0.7816164E-02  0.1186339E+00
        -11   -1    0    0    0    0  0.00000000000E+00  0.00000000000E+00  0.45593999997E+02  0.45594000000E+02  0.51100000000E-03 0. -1.
         11   -1    0    0    0    0 -0.00000000000E+00 -0.00000000000E+00 -0.45593999997E+02  0.45594000000E+02  0.51100000000E-03 0.  1.
    9900012    2    1    2    0    0 -0.85310243779E+00  0.27666350064E-01 -0.81516833639E+00  0.90007725196E+02  0.89999986369E+02 0.  0.
         12    1    1    2    0    0  0.85310243779E+00 -0.27666350064E-01  0.81516833639E+00  0.11802748040E+01  0.00000000000E+00 0. -1.
         11    1    3    3    0    0  0.42262075345E+01  0.84458894695E+01 -0.64444970643E+01  0.11433521843E+02  0.51100000000E-03 0. -1.
        -11    1    3    3    0    0  0.33407975831E+02 -0.11782246219E+02 -0.10137491678E+02  0.36846749014E+02  0.51100000000E-03 0.  1.
         12    1    3    3    0    0 -0.38487285804E+02  0.33640230992E+01  0.15766820406E+02  0.41727454339E+02  0.00000000000E+00 0. -1.
</event>
<event>
 7    1  0.3276565E-015  0.9000773E+02  0.7816164E-02  0.1186339E+00
        -11   -1    0    0    0    0  0.00000000000E+00  0.00000000000E+00  0.45593999997E+02  0.45594000000E+02  0.51100000000E-03 0.  1.
         11   -1    0    0    0    0 -0.00000000000E+00 -0.00000000000E+00 -0.45593999997E+02  0.45594000000E+02  0.51100000000E-03 0. -1.
    9900012    2    1    2    0    0 -0.22885396105E+00  0.89780015381E+00  0.73117948691E+00  0.90007727704E+02  0.89999988909E+02 0.  0.
         12    1    1    2    0    0  0.22885396105E+00 -0.89780015381E+00 -0.73117948691E+00  0.11802722964E+01  0.00000000000E+00 0. -1.
         11    1    3    3    0    0  0.36118636346E+02 -0.70724754550E+01 -0.11040634834E+02  0.38424880199E+02  0.51100000000E-03 0. -1.
        -11    1    3    3    0    0 -0.12014147203E+02  0.19180052990E+02  0.84174259165E+00  0.22647796726E+02  0.51100000000E-03 0.  1.
        -12    1    3    3    0    0 -0.24333343104E+02 -0.11209777381E+02  0.10930071729E+02  0.28935050778E+02  0.00000000000E+00 0.  1.
</event>
<event>
 7    1  0.3276565E-015  0.9000773E+02  0.7816164E-02  0.1186339E+00
        -11   -1    0    0    0    0  0.00000000000E+00  0.00000000000E+00  0.45593999997E+02  0.45594000000E+02  0.51100000000E-03 0.  1.
         11   -1    0    0    0    0 -0.00000000000E+00 -0.00000000000E+00 -0.45593999997E+02  0.45594000000E+02  0.51100000000E-03 0. -1.
    9900012    2    1    2    0    0  0.94984212950E+00  0.57104782372E+00  0.40588096765E+00  0.90007730943E+02  0.89999992191E+02 0.  0.
         12    1    1    2    0    0 -0.94984212950E+00 -0.57104782372E+00 -0.40588096765E+00  0.11802690574E+01  0.00000000000E+00 0. -1.
         11    1    3    3    0    0 -0.13175443557E+01  0.67580605643E+01 -0.13640474396E+00  0.68866473872E+01  0.51100000000E-03 0. -1.
        -11    1    3    3    0    0 -0.10241886324E+02 -0.35148792351E+02 -0.23458473065E+02  0.43481418997E+02  0.51100000000E-03 0.  1.
         12    1    3    3    0    0  0.12509272810E+02  0.28961779610E+02  0.24000758777E+02  0.39639664558E+02  0.00000000000E+00 0. -1.
</event>
<event>
 7    1  0.3276565E-015  0.9000774E+02  0.7816164E-02  0.1186339E+00
        -11   -1    0    0    0    0  0.00000000000E+00  0.00000000000E+00  0.45593999997E+02  0.45594000000E+02  0.51100000000E-03 0. -1.
         11   -1    0    0    0    0 -0.00000000000E+00 -0.00000000000E+00 -0.45593999997E+02  0.45594000000E+02  0.51100000000E-03 0.  1.
    9900012    2    1    2    0    0  0.45586610644E-01  0.41250007993E+00 -0.11048913368E+01  0.90007737605E+02  0.89999998941E+02 0.  0.
         12    1    1    2    0    0 -0.45586610644E-01 -0.41250007993E+00  0.11048913368E+01  0.11802623950E+01  0.00000000000E+00 0. -1.
         11    1    3    3    0    0  0.26185062275E+02  0.33864300219E+02 -0.80214548088E+01  0.43552176216E+02  0.51100000000E-03 0. -1.
        -11    1    3    3    0    0  0.95877862953E+00 -0.91949711990E+01 -0.79149304712E+00  0.92786428596E+01  0.51100000000E-03 0.  1.
        -12    1    3    3    0    0 -0.27098254294E+02 -0.24256828940E+02  0.77080565192E+01  0.37176918529E+02  0.00000000000E+00 0.  1.
</event>
<event>
 7    1  0.3276565E-015  0.9000771E+02  0.7816164E-02  0.1186339E+00
        -11   -1    0    0    0    0  0.00000000000E+00  0.00000000000E+00  0.45593999997E+02  0.45594000000E+02  0.51100000000E-03 0.  1.
         11   -1    0    0    0    0 -0.00000000000E+00 -0.00000000000E+00 -0.45593999997E+02  0.45594000000E+02  0.51100000000E-03 0. -1.
    9900012    2    1    2    0    0 -0.21498216107E+00  0.97755206022E+00 -0.62551375291E+00  0.90007706471E+02  0.89999967396E+02 0.  0.
         12    1    1    2    0    0  0.21498216107E+00 -0.97755206022E+00  0.62551375291E+00  0.11802935292E+01  0.00000000000E+00 0. -1.
         11    1    3    3    0    0 -0.65510813118E+01 -0.34227813088E+02  0.16368950750E+02  0.38501979223E+02  0.51100000000E-03 0. -1.
        -11    1    3    3    0    0 -0.54179040346E+01 -0.42811874432E+01 -0.52233872438E+01  0.86582922457E+01  0.51100000000E-03 0.  1.
        -12    1    3    3    0    0  0.11754003185E+02  0.39486552592E+02 -0.11771077259E+02  0.42847435002E+02  0.00000000000E+00 0.  1.
</event>
<event>
 7    1  0.3276565E-015  0.9000782E+02  0.7816164E-02  0.1186339E+00
        -11   -1    0    0    0    0  0.00000000000E+00  0.00000000000E+00  0.45593999997E+02  0.45594000000E+02  0.51100000000E-03 0.  1.
         11   -1    0    0    0    0 -0.00000000000E+00 -0.00000000000E+00 -0.45593999997E+02  0.45594000000E+02  0.51100000000E-03 0. -1.
    9900012    2    1    2    0    0 -0.58868510964E+00 -0.11373201966E+00  0.10165361173E+01  0.90007817468E+02  0.90000079859E+02 0.  0.
         12    1    1    2    0    0  0.58868510964E+00  0.11373201966E+00 -0.10165361173E+01  0.11801825318E+01  0.00000000000E+00 0. -1.
         11    1    3    3    0    0 -0.36200742501E+02  0.13204681217E+02  0.15395917793E+02  0.41495682289E+02  0.51100000000E-03 0. -1.
        -11    1    3    3    0    0 -0.12166058936E+00 -0.89959613985E+01  0.15869452532E+01  0.91356728423E+01  0.51100000000E-03 0.  1.
        -12    1    3    3    0    0  0.35733717980E+02 -0.43224518383E+01 -0.15966326929E+02  0.39376462337E+02  0.00000000000E+00 0.  1.
</event>
<event>
 7    1  0.3276565E-015  0.9000774E+02  0.7816164E-02  0.1186339E+00
        -11   -1    0    0    0    0  0.00000000000E+00  0.00000000000E+00  0.45593999997E+02  0.45594000000E+02  0.51100000000E-03 0. -1.
         11   -1    0    0    0    0 -0.00000000000E+00 -0.00000000000E+00 -0.45593999997E+02  0.45594000000E+02  0.51100000000E-03 0.  1.
    9900012    2    1    2    0    0  0.53318004567E+00  0.91053131734E+00 -0.52882381785E+00  0.90007744574E+02  0.90000006002E+02 0.  0.
         12    1    1    2    0    0 -0.53318004567E+00 -0.91053131734E+00  0.52882381785E+00  0.11802554263E+01  0.00000000000E+00 0. -1.
         11    1    3    3    0    0 -0.70117588762E+01 -0.41534135141E+01 -0.52901937995E+00  0.81667293406E+01  0.51100000000E-03 0. -1.
        -11    1    3    3    0    0  0.19914946080E+02 -0.22975010728E+02  0.27252031564E+02  0.40830496200E+02  0.51100000000E-03 0.  1.
         12    1    3    3    0    0 -0.12370007158E+02  0.28038955559E+02 -0.27251836002E+02  0.41010519033E+02  0.00000000000E+00 0. -1.
</event>
<event>
 7    1  0.3276565E-015  0.9000778E+02  0.7816164E-02  0.1186339E+00
        -11   -1    0    0    0    0  0.00000000000E+00  0.00000000000E+00  0.45593999997E+02  0.45594000000E+02  0.51100000000E-03 0.  1.
         11   -1    0    0    0    0 -0.00000000000E+00 -0.00000000000E+00 -0.45593999997E+02  0.45594000000E+02  0.51100000000E-03 0. -1.
    9900012    2    1    2    0    0 -0.97017320622E+00 -0.65184334063E+00 -0.16365583737E+00  0.90007780095E+02  0.90000041992E+02 0.  0.
         12    1    1    2    0    0  0.97017320622E+00  0.65184334063E+00  0.16365583737E+00  0.11802199049E+01  0.00000000000E+00 0. -1.
         11    1    3    3    0    0 -0.25999145084E+02 -0.26963252415E+02 -0.16484547510E+02  0.40923255403E+02  0.51100000000E-03 0. -1.
        -11    1    3    3    0    0 -0.51707957834E+01  0.78529158757E+01  0.88463183630E+01  0.12909793400E+02  0.51100000000E-03 0.  1.
        -12    1    3    3    0    0  0.30199767661E+02  0.18458493198E+02  0.74745733093E+01  0.36174731293E+02  0.00000000000E+00 0.  1.
</event>
<event>
 7    1  0.3276565E-015  0.9000755E+02  0.7816164E-02  0.1186339E+00
        -11   -1    0    0    0    0  0.00000000000E+00  0.00000000000E+00  0.45593999997E+02  0.45594000000E+02  0.51100000000E-03 0. -1.
         11   -1    0    0    0    0 -0.00000000000E+00 -0.00000000000E+00 -0.45593999997E+02  0.45594000000E+02  0.51100000000E-03 0.  1.
    9900012    2    1    2    0    0 -0.11126488053E+00  0.53512103324E+00 -0.10462912499E+01  0.90007551029E+02  0.89999809902E+02 0.  0.
         12    1    1    2    0    0  0.11126488053E+00 -0.53512103324E+00  0.10462912499E+01  0.11804489711E+01  0.00000000000E+00 0. -1.
         11    1    3    3    0    0  0.30968539282E+01 -0.29952370124E+02  0.21974300633E+02  0.37277404267E+02  0.51100000000E-03 0. -1.
        -11    1    3    3    0    0  0.30818739366E+00 -0.83691491178E+01 -0.50021477068E+01  0.97549535297E+01  0.51100000000E-03 0.  1.
        -12    1    3    3    0    0 -0.35163062024E+01  0.38856640275E+02 -0.18018444176E+02  0.42975193232E+02  0.00000000000E+00 0.  1.
</event>
<event>
 7    1  0.3276565E-015  0.9000767E+02  0.7816164E-02  0.1186339E+00
        -11   -1    0    0    0    0  0.00000000000E+00  0.00000000000E+00  0.45593999997E+02  0.45594000000E+02  0.51100000000E-03 0. -1.
         11   -1    0    0    0    0 -0.00000000000E+00 -0.00000000000E+00 -0.45593999997E+02  0.45594000000E+02  0.51100000000E-03 0.  1.
    9900012    2    1    2    0    0  0.74531554255E+00  0.85843419205E+00 -0.31743710131E+00  0.90007673421E+02  0.89999933910E+02 0.  0.
         12    1    1    2    0    0 -0.74531554255E+00 -0.85843419205E+00  0.31743710131E+00  0.11803265791E+01  0.00000000000E+00 0. -1.
         11    1    3    3    0    0  0.20283118086E+02  0.19055674848E+02 -0.29070140470E+02  0.40244213129E+02  0.51100000000E-03 0. -1.
        -11    1    3    3    0    0 -0.59186755500E-01 -0.17722212635E+01 -0.62345203461E+01  0.64817833569E+01  0.51100000000E-03 0.  1.
        -12    1    3    3    0    0 -0.19478615788E+02 -0.16425019393E+02  0.34987223714E+02  0.43281676935E+02  0.00000000000E+00 0.  1.
</event>
<event>
 7    1  0.3276565E-015  0.9000781E+02  0.7816164E-02  0.1186339E+00
        -11   -1    0    0    0    0  0.00000000000E+00  0.00000000000E+00  0.45593999997E+02  0.45594000000E+02  0.51100000000E-03 0.  1.
         11   -1    0    0    0    0 -0.00000000000E+00 -0.00000000000E+00 -0.45593999997E+02  0.45594000000E+02  0.51100000000E-03 0. -1.
    9900012    2    1    2    0    0  0.86799647066E+00 -0.36335062477E+00  0.71231810594E+00  0.90007814153E+02  0.90000076500E+02 0.  0.
         12    1    1    2    0    0 -0.86799647066E+00  0.36335062477E+00 -0.71231810594E+00  0.11801858471E+01  0.00000000000E+00 0. -1.
         11    1    3    3    0    0 -0.42117634173E+01 -0.82876719660E+01 -0.35174444895E+01  0.99396616490E+01  0.51100000000E-03 0. -1.
        -11    1    3    3    0    0  0.10617383474E+02 -0.28915544981E+02  0.22914246557E+02  0.38391408791E+02  0.51100000000E-03 0.  1.
         12    1    3    3    0    0 -0.55376235859E+01  0.36839866322E+02 -0.18684483962E+02  0.41676743713E+02  0.00000000000E+00 0. -1.
</event>
<event>
 7    1  0.3276565E-015  0.9000772E+02  0.7816164E-02  0.1186339E+00
        -11   -1    0    0    0    0  0.00000000000E+00  0.00000000000E+00  0.45593999997E+02  0.45594000000E+02  0.51100000000E-03 0.  1.
         11   -1    0    0    0    0 -0.00000000000E+00 -0.00000000000E+00 -0.45593999997E+02  0.45594000000E+02  0.51100000000E-03 0. -1.
    9900012    2    1    2    0    0  0.51000172409E+00  0.67026164445E+00  0.82686409024E+00  0.90007721789E+02  0.89999982917E+02 0.  0.
         12    1    1    2    0    0 -0.51000172409E+00 -0.67026164445E+00 -0.82686409024E+00  0.11802782106E+01  0.00000000000E+00 0. -1.
         11    1    3    3    0    0  0.94179245519E+01  0.34114947789E+02  0.42360655095E+01  0.35643670080E+02  0.51100000000E-03 0. -1.
        -11    1    3    3    0    0 -0.15544892410E+01  0.78474355485E+01 -0.90110876856E+01  0.12049829170E+02  0.51100000000E-03 0.  1.
        -12    1    3    3    0    0 -0.73534335868E+01 -0.41292121693E+02  0.56018862664E+01  0.42314222540E+02  0.00000000000E+00 0.  1.
</event>
<event>
 7    1  0.3276565E-015  0.9000753E+02  0.7816164E-02  0.1186339E+00
        -11   -1    0    0    0    0  0.00000000000E+00  0.00000000000E+00  0.45593999997E+02  0.45594000000E+02  0.51100000000E-03 0.  1.
         11   -1    0    0    0    0 -0.00000000000E+00 -0.00000000000E+00 -0.45593999997E+02  0.45594000000E+02  0.51100000000E-03 0. -1.
    9900012    2    1    2    0    0  0.45354957637E+00  0.73805479224E+00 -0.80192150720E+00  0.90007529671E+02  0.89999788262E+02 0.  0.
         12    1    1    2    0    0 -0.45354957637E+00 -0.73805479224E+00  0.80192150720E+00  0.11804703293E+01  0.00000000000E+00 0. -1.
         11    1    3    3    0    0  0.64033337559E+01  0.51966996073E+01 -0.63062163959E+01  0.10381557469E+02  0.51100000000E-03 0. -1.
        -11    1    3    3    0    0 -0.66230329137E+01  0.14825414500E+02  0.38285985401E+02  0.41586946972E+02  0.51100000000E-03 0.  1.
         12    1    3    3    0    0  0.67324873417E+00 -0.19284059315E+02 -0.32781690513E+02  0.38039025229E+02  0.00000000000E+00 0. -1.
</event>
<event>
 7    1  0.3276565E-015  0.9000776E+02  0.7816164E-02  0.1186339E+00
        -11   -1    0    0    0    0  0.00000000000E+00  0.00000000000E+00  0.45593999997E+02  0.45594000000E+02  0.51100000000E-03 0. -1.
         11   -1    0    0    0    0 -0.00000000000E+00 -0.00000000000E+00 -0.45593999997E+02  0.45594000000E+02  0.51100000000E-03 0.  1.
    9900012    2    1    2    0    0  0.83671344718E+00  0.65745177569E+00 -0.51052619589E+00  0.90007758827E+02  0.90000020443E+02 0.  0.
         12    1    1    2    0    0 -0.83671344718E+00 -0.65745177569E+00  0.51052619589E+00  0.11802411731E+01  0.00000000000E+00 0. -1.
         11    1    3    3    0    0 -0.37861181300E+02  0.13085308911E+02  0.57203416760E+01  0.40465005472E+02  0.51100000000E-03 0. -1.
        -11    1    3    3    0    0  0.30385870731E+01 -0.67333461754E+01  0.78537841053E+01  0.10782063214E+02  0.51100000000E-03 0.  1.
        -12    1    3    3    0    0  0.35659307674E+02 -0.56945109596E+01 -0.14084651977E+02  0.38760690141E+02  0.00000000000E+00 0.  1.
</event>
<event>
 7    1  0.3276565E-015  0.9000754E+02  0.7816164E-02  0.1186339E+00
        -11   -1    0    0    0    0  0.00000000000E+00  0.00000000000E+00  0.45593999997E+02  0.45594000000E+02  0.51100000000E-03 0.  1.
         11   -1    0    0    0    0 -0.00000000000E+00 -0.00000000000E+00 -0.45593999997E+02  0.45594000000E+02  0.51100000000E-03 0. -1.
    9900012    2    1    2    0    0 -0.13117493601E+00 -0.93126488064E+00  0.71345840451E+00  0.90007540752E+02  0.89999799489E+02 0.  0.
         12    1    1    2    0    0  0.13117493601E+00  0.93126488064E+00 -0.71345840451E+00  0.11804592482E+01  0.00000000000E+00 0. -1.
         11    1    3    3    0    0 -0.30926584813E+01 -0.74573479739E+01 -0.51687567315E+00  0.80897302803E+01  0.51100000000E-03 0. -1.
        -11    1    3    3    0    0 -0.29475598194E+02 -0.23507135158E+02  0.33660609455E+00  0.37702912303E+02  0.51100000000E-03 0.  1.
         12    1    3    3    0    0  0.32437081739E+02  0.30033218251E+02  0.89372798310E+00  0.44214898168E+02  0.00000000000E+00 0. -1.
</event>
<event>
 7    1  0.3276565E-015  0.9000771E+02  0.7816164E-02  0.1186339E+00
        -11   -1    0    0    0    0  0.00000000000E+00  0.00000000000E+00  0.45593999997E+02  0.45594000000E+02  0.51100000000E-03 0.  1.
         11   -1    0    0    0    0 -0.00000000000E+00 -0.00000000000E+00 -0.45593999997E+02  0.45594000000E+02  0.51100000000E-03 0. -1.
    9900012    2    1    2    0    0  0.12541711914E+00 -0.41196760795E+00  0.10989234146E+01  0.90007712139E+02  0.89999973139E+02 0.  0.
         12    1    1    2    0    0 -0.12541711914E+00  0.41196760795E+00 -0.10989234146E+01  0.11802878610E+01  0.00000000000E+00 0. -1.
         11    1    3    3    0    0  0.57118163269E+01 -0.49215459224E+00 -0.85619184220E+01  0.10304053048E+02  0.51100000000E-03 0. -1.
        -11    1    3    3    0    0  0.21955991023E+02 -0.29379231526E+02  0.13745579136E+02  0.39168172448E+02  0.51100000000E-03 0.  1.
         12    1    3    3    0    0 -0.27542390230E+02  0.29459418510E+02 -0.40847372998E+01  0.40535486643E+02  0.00000000000E+00 0. -1.
</event>
<event>
 7    1  0.3276565E-015  0.9000755E+02  0.7816164E-02  0.1186339E+00
        -11   -1    0    0    0    0  0.00000000000E+00  0.00000000000E+00  0.45593999997E+02  0.45594000000E+02  0.51100000000E-03 0. -1.
         11   -1    0    0    0    0 -0.00000000000E+00 -0.00000000000E+00 -0.45593999997E+02  0.45594000000E+02  0.51100000000E-03 0.  1.
    9900012    2    1    2    0    0 -0.43069911866E+00 -0.74516575512E+00  0.80788636136E+00  0.90007553429E+02  0.89999812334E+02 0.  0.
         12    1    1    2    0    0  0.43069911866E+00  0.74516575512E+00 -0.80788636136E+00  0.11804465707E+01  0.00000000000E+00 0. -1.
         11    1    3    3    0    0  0.34082910269E+02 -0.50627462136E+01 -0.17637010788E+02  0.38708401174E+02  0.51100000000E-03 0. -1.
        -11    1    3    3    0    0  0.19121405013E+01 -0.22206114316E+00 -0.65912470827E+01  0.68665952855E+01  0.51100000000E-03 0.  1.
        -12    1    3    3    0    0 -0.36425749889E+02  0.45396416016E+01  0.25036144232E+02  0.44432556970E+02  0.00000000000E+00 0.  1.
</event>
<event>
 7    1  0.3276565E-015  0.9000765E+02  0.7816164E-02  0.1186339E+00
        -11   -1    0    0    0    0  0.00000000000E+00  0.00000000000E+00  0.45593999997E+02  0.45594000000E+02  0.51100000000E-03 0. -1.
         11   -1    0    0    0    0 -0.00000000000E+00 -0.00000000000E+00 -0.45593999997E+02  0.45594000000E+02  0.51100000000E-03 0.  1.
    9900012    2    1    2    0    0 -0.67725383343E+00  0.66867232662E+00 -0.69815791160E+00  0.90007652634E+02  0.89999912849E+02 0.  0.
         12    1    1    2    0    0  0.67725383343E+00 -0.66867232662E+00  0.69815791160E+00  0.11803473662E+01  0.00000000000E+00 0. -1.
         11    1    3    3    0    0  0.61649909896E+01  0.15977890676E+01  0.35791394215E+01  0.73054967706E+01  0.51100000000E-03 0. -1.
        -11    1    3    3    0    0 -0.36206218333E+02 -0.24262998139E+02  0.55334791459E+01  0.43934072386E+02  0.51100000000E-03 0.  1.
         12    1    3    3    0    0  0.29363973510E+02  0.23333881398E+02 -0.98107764790E+01  0.38768083477E+02  0.00000000000E+00 0. -1.
</event>
<event>
 7    1  0.3276565E-015  0.9000773E+02  0.7816164E-02  0.1186339E+00
        -11   -1    0    0    0    0  0.00000000000E+00  0.00000000000E+00  0.45593999997E+02  0.45594000000E+02  0.51100000000E-03 0. -1.
         11   -1    0    0    0    0 -0.00000000000E+00 -0.00000000000E+00 -0.45593999997E+02  0.45594000000E+02  0.51100000000E-03 0.  1.
    9900012    2    1    2    0    0 -0.11455936794E+01 -0.11271550939E+00  0.26065761147E+00  0.90007732211E+02  0.89999993476E+02 0.  0.
         12    1    1    2    0    0  0.11455936794E+01  0.11271550939E+00 -0.26065761147E+00  0.11802677894E+01  0.00000000000E+00 0. -1.
         11    1    3    3    0    0  0.80447812628E+00 -0.20137885305E+01  0.11826931676E+02  0.12024094245E+02  0.51100000000E-03 0. -1.
        -11    1    3    3    0    0  0.34938468410E+02  0.14700875940E+02 -0.82828049709E+01  0.38799706013E+02  0.51100000000E-03 0.  1.
         12    1    3    3    0    0 -0.36888540215E+02 -0.12799802919E+02 -0.32834690933E+01  0.39183931953E+02  0.00000000000E+00 0. -1.
</event>
<event>
 7    1  0.3979696E-015  0.9000774E+02  0.7816164E-02  0.1186339E+00
        -11   -1    0    0    0    0  0.00000000000E+00  0.00000000000E+00  0.45593999997E+02  0.45594000000E+02  0.51100000000E-03 0.  1.
         11   -1    0    0    0    0 -0.00000000000E+00 -0.00000000000E+00 -0.45593999997E+02  0.45594000000E+02  0.51100000000E-03 0. -1.
    9900012    2    1    2    0    0 -0.10662850593E+01  0.39352103412E+00  0.31810588234E+00  0.90007739866E+02  0.90000001232E+02 0.  0.
         12    1    1    2    0    0  0.10662850593E+01 -0.39352103412E+00 -0.31810588234E+00  0.11802601342E+01  0.00000000000E+00 0. -1.
         11    1    3    3    0    0 -0.45814412276E+01  0.22363614828E+01 -0.79984053555E+01  0.94850094831E+01  0.51100000000E-03 0. -1.
        -11    1    3    3    0    0 -0.27753117115E+02  0.18347042454E+02  0.23069726085E+02  0.40485327444E+02  0.51100000000E-03 0.  1.
         12    1    3    3    0    0  0.31268273283E+02 -0.20189882902E+02 -0.14753214847E+02  0.40037402938E+02  0.00000000000E+00 0. -1.
</event>
<event>
 7    1  0.3276565E-015  0.9000766E+02  0.7816164E-02  0.1186339E+00
        -11   -1    0    0    0    0  0.00000000000E+00  0.00000000000E+00  0.45593999997E+02  0.45594000000E+02  0.51100000000E-03 0. -1.
         11   -1    0    0    0    0 -0.00000000000E+00 -0.00000000000E+00 -0.45593999997E+02  0.45594000000E+02  0.51100000000E-03 0.  1.
    9900012    2    1    2    0    0  0.10908815040E+01  0.19329511322E+00 -0.40719232824E+00  0.90007664857E+02  0.89999925234E+02 0.  0.
         12    1    1    2    0    0 -0.10908815040E+01 -0.19329511322E+00  0.40719232824E+00  0.11803351426E+01  0.00000000000E+00 0. -1.
         11    1    3    3    0    0 -0.21004041596E+01  0.88354092659E+01  0.47250011424E+01  0.10237274568E+02  0.51100000000E-03 0. -1.
        -11    1    3    3    0    0 -0.15854912070E+02  0.25381594673E+02 -0.22144490066E+02  0.37228779532E+02  0.51100000000E-03 0.  1.
         12    1    3    3    0    0  0.19046197734E+02 -0.34023708826E+02  0.17012296595E+02  0.42541610757E+02  0.00000000000E+00 0. -1.
</event>
<event>
 7    1  0.3276565E-015  0.9000778E+02  0.7816164E-02  0.1186339E+00
        -11   -1    0    0    0    0  0.00000000000E+00  0.00000000000E+00  0.45593999997E+02  0.45594000000E+02  0.51100000000E-03 0. -1.
         11   -1    0    0    0    0 -0.00000000000E+00 -0.00000000000E+00 -0.45593999997E+02  0.45594000000E+02  0.51100000000E-03 0.  1.
    9900012    2    1    2    0    0 -0.39226110236E+00 -0.49075176799E+00 -0.99910860665E+00  0.90007777954E+02  0.90000039823E+02 0.  0.
         12    1    1    2    0    0  0.39226110236E+00  0.49075176799E+00  0.99910860665E+00  0.11802220461E+01  0.00000000000E+00 0. -1.
         11    1    3    3    0    0 -0.41108607498E+01  0.65901314264E+01  0.84762541694E+00  0.78132885158E+01  0.51100000000E-03 0. -1.
        -11    1    3    3    0    0 -0.63074559961E+00  0.21697431802E+02 -0.33039385901E+02  0.39531979558E+02  0.51100000000E-03 0.  1.
         12    1    3    3    0    0  0.43493452471E+01 -0.28778314996E+02  0.31192651877E+02  0.42662509880E+02  0.00000000000E+00 0. -1.
</event>
<event>
 7    1  0.3276565E-015  0.9000772E+02  0.7816164E-02  0.1186339E+00
        -11   -1    0    0    0    0  0.00000000000E+00  0.00000000000E+00  0.45593999997E+02  0.45594000000E+02  0.51100000000E-03 0. -1.
         11   -1    0    0    0    0 -0.00000000000E+00 -0.00000000000E+00 -0.45593999997E+02  0.45594000000E+02  0.51100000000E-03 0.  1.
    9900012    2    1    2    0    0  0.68954313179E+00 -0.95723411367E+00 -0.36120767284E-01  0.90007715463E+02  0.89999976507E+02 0.  0.
         12    1    1    2    0    0 -0.68954313179E+00  0.95723411367E+00  0.36120767284E-01  0.11802845372E+01  0.00000000000E+00 0. -1.
         11    1    3    3    0    0  0.32892409829E+02 -0.19427917650E+01  0.68522825268E+01  0.33654700122E+02  0.51100000000E-03 0. -1.
        -11    1    3    3    0    0  0.67147024961E+01 -0.11592202738E+02  0.40875819046E+01  0.14006238610E+02  0.51100000000E-03 0.  1.
        -12    1    3    3    0    0 -0.38917569194E+02  0.12577760389E+02 -0.10975985199E+02  0.42346776730E+02  0.00000000000E+00 0.  1.
</event>
<event>
 7    1  0.3276565E-015  0.9000771E+02  0.7816164E-02  0.1186339E+00
        -11   -1    0    0    0    0  0.00000000000E+00  0.00000000000E+00  0.45593999997E+02  0.45594000000E+02  0.51100000000E-03 0. -1.
         11   -1    0    0    0    0 -0.00000000000E+00 -0.00000000000E+00 -0.45593999997E+02  0.45594000000E+02  0.51100000000E-03 0.  1.
    9900012    2    1    2    0    0  0.62451283676E+00 -0.43707457479E+00 -0.90112609105E+00  0.90007712451E+02  0.89999973455E+02 0.  0.
         12    1    1    2    0    0 -0.62451283676E+00  0.43707457479E+00  0.90112609105E+00  0.11802875494E+01  0.00000000000E+00 0. -1.
         11    1    3    3    0    0  0.64660004953E+01 -0.30444045784E+02  0.16898779814E+02  0.35414938170E+02  0.51100000000E-03 0. -1.
        -11    1    3    3    0    0  0.51132636774E+01 -0.48645046933E+01  0.73769414240E+01  0.10209218206E+02  0.51100000000E-03 0.  1.
        -12    1    3    3    0    0 -0.10954751336E+02  0.34871475902E+02 -0.25176847329E+02  0.44383556075E+02  0.00000000000E+00 0.  1.
</event>
<event>
 7    1  0.3276565E-015  0.9000771E+02  0.7816164E-02  0.1186339E+00
        -11   -1    0    0    0    0  0.00000000000E+00  0.00000000000E+00  0.45593999997E+02  0.45594000000E+02  0.51100000000E-03 0.  1.
         11   -1    0    0    0    0 -0.00000000000E+00 -0.00000000000E+00 -0.45593999997E+02  0.45594000000E+02  0.51100000000E-03 0. -1.
    9900012    2    1    2    0    0 -0.77305174216E+00  0.64207856474E+00 -0.61904581692E+00  0.90007706984E+02  0.89999967917E+02 0.  0.
         12    1    1    2    0    0  0.77305174216E+00 -0.64207856474E+00  0.61904581692E+00  0.11802930157E+01  0.00000000000E+00 0. -1.
         11    1    3    3    0    0  0.71923372974E+01 -0.33106612669E+01  0.39507927663E+01  0.88486698191E+01  0.51100000000E-03 0. -1.
        -11    1    3    3    0    0  0.77347755007E+01 -0.16799306857E+02  0.31592213309E+02  0.36607532079E+02  0.51100000000E-03 0.  1.
         12    1    3    3    0    0 -0.15700164540E+02  0.20752046689E+02 -0.36162051892E+02  0.44551505086E+02  0.00000000000E+00 0. -1.
</event>
<event>
 7    1  0.3649476E-015  0.9000795E+02  0.7816164E-02  0.1186339E+00
        -11   -1    0    0    0    0  0.00000000000E+00  0.00000000000E+00  0.45593999997E+02  0.45594000000E+02  0.51100000000E-03 0. -1.
         11   -1    0    0    0    0 -0.00000000000E+00 -0.00000000000E+00 -0.45593999997E+02  0.45594000000E+02  0.51100000000E-03 0.  1.
    9900012    2    1    2    0    0  0.13083238078E+00  0.47551529315E+00 -0.10720501287E+01  0.90007947720E+02  0.90000211829E+02 0.  0.
         12    1    1    2    0    0 -0.13083238078E+00 -0.47551529315E+00  0.10720501287E+01  0.11800522804E+01  0.00000000000E+00 0. -1.
         11    1    3    3    0    0  0.48368972775E+01  0.82172339987E+01  0.26090062685E+00  0.95386885503E+01  0.51100000000E-03 0. -1.
        -11    1    3    3    0    0 -0.22111973036E+02  0.30313340910E+02 -0.72227439013E+01  0.38210025104E+02  0.51100000000E-03 0.  1.
         12    1    3    3    0    0  0.17405908140E+02 -0.38055059616E+02  0.58897931457E+01  0.42259234066E+02  0.00000000000E+00 0. -1.
</event>
<event>
 7    1  0.3276565E-015  0.9000772E+02  0.7816164E-02  0.1186339E+00
        -11   -1    0    0    0    0  0.00000000000E+00  0.00000000000E+00  0.45593999997E+02  0.45594000000E+02  0.51100000000E-03 0. -1.
         11   -1    0    0    0    0 -0.00000000000E+00 -0.00000000000E+00 -0.45593999997E+02  0.45594000000E+02  0.51100000000E-03 0.  1.
    9900012    2    1    2    0    0 -0.53887142662E+00  0.66581756085E+00 -0.81201282322E+00  0.90007720260E+02  0.89999981368E+02 0.  0.
         12    1    1    2    0    0  0.53887142662E+00 -0.66581756085E+00  0.81201282322E+00  0.11802797396E+01  0.00000000000E+00 0. -1.
         11    1    3    3    0    0  0.13019002819E+01  0.98265760185E+01 -0.25885955765E+01  0.10244870322E+02  0.51100000000E-03 0. -1.
        -11    1    3    3    0    0 -0.14359546938E+02  0.29405262574E+02 -0.14854332092E+02  0.35937685477E+02  0.51100000000E-03 0.  1.
         12    1    3    3    0    0  0.12518775229E+02 -0.38566021032E+02  0.16630914845E+02  0.43825164461E+02  0.00000000000E+00 0. -1.
</event>
<event>
 7    1  0.3276565E-015  0.9000780E+02  0.7816164E-02  0.1186339E+00
        -11   -1    0    0    0    0  0.00000000000E+00  0.00000000000E+00  0.45593999997E+02  0.45594000000E+02  0.51100000000E-03 0. -1.
         11   -1    0    0    0    0 -0.00000000000E+00 -0.00000000000E+00 -0.45593999997E+02  0.45594000000E+02  0.51100000000E-03 0.  1.
    9900012    2    1    2    0    0  0.10633049351E+01 -0.48652368293E+00  0.15985167449E+00  0.90007798646E+02  0.90000060788E+02 0.  0.
         12    1    1    2    0    0 -0.10633049351E+01  0.48652368293E+00 -0.15985167449E+00  0.11802013544E+01  0.00000000000E+00 0. -1.
         11    1    3    3    0    0  0.39196233112E+01  0.46283788985E+01 -0.48895563794E+01  0.77905776408E+01  0.51100000000E-03 0. -1.
        -11    1    3    3    0    0 -0.74723895827E+01  0.12013944123E+02 -0.35359926042E+02  0.38085375532E+02  0.51100000000E-03 0.  1.
         12    1    3    3    0    0  0.46160712066E+01 -0.17128846705E+02  0.40409334095E+02  0.44131845473E+02  0.00000000000E+00 0. -1.
</event>
<event>
 7    1  0.3276565E-015  0.9000767E+02  0.7816164E-02  0.1186339E+00
        -11   -1    0    0    0    0  0.00000000000E+00  0.00000000000E+00  0.45593999997E+02  0.45594000000E+02  0.51100000000E-03 0.  1.
         11   -1    0    0    0    0 -0.00000000000E+00 -0.00000000000E+00 -0.45593999997E+02  0.45594000000E+02  0.51100000000E-03 0. -1.
    9900012    2    1    2    0    0  0.30157420279E+00 -0.81213939521E+00  0.80166688443E+00  0.90007666492E+02  0.89999926889E+02 0.  0.
         12    1    1    2    0    0 -0.30157420279E+00  0.81213939521E+00 -0.80166688443E+00  0.11803335082E+01  0.00000000000E+00 0. -1.
         11    1    3    3    0    0  0.15472528993E+02  0.22932234617E+02  0.28958486326E+02  0.40048476482E+02  0.51100000000E-03 0. -1.
        -11    1    3    3    0    0  0.86311106409E+01 -0.20295487078E+01 -0.42090070470E+01  0.98148295673E+01  0.51100000000E-03 0.  1.
        -12    1    3    3    0    0 -0.23802065432E+02 -0.21714825305E+02 -0.23947812395E+02  0.40144360442E+02  0.00000000000E+00 0.  1.
</event>
<event>
 7    1  0.3276565E-015  0.9000777E+02  0.7816164E-02  0.1186339E+00
        -11   -1    0    0    0    0  0.00000000000E+00  0.00000000000E+00  0.45593999997E+02  0.45594000000E+02  0.51100000000E-03 0. -1.
         11   -1    0    0    0    0 -0.00000000000E+00 -0.00000000000E+00 -0.45593999997E+02  0.45594000000E+02  0.51100000000E-03 0.  1.
    9900012    2    1    2    0    0 -0.64015032306E+00 -0.87772308789E+00 -0.46123861071E+00  0.90007774890E+02  0.90000036718E+02 0.  0.
         12    1    1    2    0    0  0.64015032306E+00  0.87772308789E+00  0.46123861071E+00  0.11802251104E+01  0.00000000000E+00 0. -1.
         11    1    3    3    0    0  0.15162819900E+02  0.26664876963E+02 -0.19649476000E+02  0.36428404826E+02  0.51100000000E-03 0. -1.
        -11    1    3    3    0    0 -0.16004323210E+01 -0.60388416157E+01 -0.11753905506E+02  0.13311021244E+02  0.51100000000E-03 0.  1.
        -12    1    3    3    0    0 -0.14202537902E+02 -0.21503758435E+02  0.30942142895E+02  0.40268348820E+02  0.00000000000E+00 0.  1.
</event>
<event>
 7    1  0.3276565E-015  0.9000795E+02  0.7816164E-02  0.1186339E+00
        -11   -1    0    0    0    0  0.00000000000E+00  0.00000000000E+00  0.45593999997E+02  0.45594000000E+02  0.51100000000E-03 0. -1.
         11   -1    0    0    0    0 -0.00000000000E+00 -0.00000000000E+00 -0.45593999997E+02  0.45594000000E+02  0.51100000000E-03 0.  1.
    9900012    2    1    2    0    0 -0.31670648603E+00  0.10827590479E+01 -0.34618260397E+00  0.90007952311E+02  0.90000216481E+02 0.  0.
         12    1    1    2    0    0  0.31670648603E+00 -0.10827590479E+01  0.34618260397E+00  0.11800476894E+01  0.00000000000E+00 0. -1.
         11    1    3    3    0    0 -0.18210698333E+02 -0.82762245269E+01  0.31832346510E+02  0.37595527803E+02  0.51100000000E-03 0. -1.
        -11    1    3    3    0    0 -0.38105928389E+01 -0.80415526031E+01  0.11801353394E+01  0.89766310903E+01  0.51100000000E-03 0.  1.
        -12    1    3    3    0    0  0.21704584686E+02  0.17400536178E+02 -0.33358664453E+02  0.43435793417E+02  0.00000000000E+00 0.  1.
</event>
<event>
 7    1  0.3276565E-015  0.9000773E+02  0.7816164E-02  0.1186339E+00
        -11   -1    0    0    0    0  0.00000000000E+00  0.00000000000E+00  0.45593999997E+02  0.45594000000E+02  0.51100000000E-03 0. -1.
         11   -1    0    0    0    0 -0.00000000000E+00 -0.00000000000E+00 -0.45593999997E+02  0.45594000000E+02  0.51100000000E-03 0.  1.
    9900012    2    1    2    0    0  0.11221823072E+01  0.36557454141E+00 -0.10021347839E-01  0.90007729563E+02  0.89999990794E+02 0.  0.
         12    1    1    2    0    0 -0.11221823072E+01 -0.36557454141E+00  0.10021347839E-01  0.11802704365E+01  0.00000000000E+00 0. -1.
         11    1    3    3    0    0 -0.10296812134E+02  0.33352729825E+02  0.25274478514E+02  0.43095570437E+02  0.51100000000E-03 0. -1.
        -11    1    3    3    0    0  0.67742550875E+01 -0.74146892408E+01  0.81792211438E+00  0.10076564165E+02  0.51100000000E-03 0.  1.
        -12    1    3    3    0    0  0.46447393541E+01 -0.25572466042E+02 -0.26102421976E+02  0.36835594961E+02  0.00000000000E+00 0.  1.
</event>
<event>
 7    1  0.3276565E-015  0.9000782E+02  0.7816164E-02  0.1186339E+00
        -11   -1    0    0    0    0  0.00000000000E+00  0.00000000000E+00  0.45593999997E+02  0.45594000000E+02  0.51100000000E-03 0. -1.
         11   -1    0    0    0    0 -0.00000000000E+00 -0.00000000000E+00 -0.45593999997E+02  0.45594000000E+02  0.51100000000E-03 0.  1.
    9900012    2    1    2    0    0 -0.11782031885E+01  0.49152784567E-01 -0.47465085910E-01  0.90007817097E+02  0.90000079483E+02 0.  0.
         12    1    1    2    0    0  0.11782031885E+01 -0.49152784567E-01  0.47465085910E-01  0.11801829028E+01  0.00000000000E+00 0. -1.
         11    1    3    3    0    0 -0.20702109523E+02 -0.16607026176E+02 -0.17181029844E+02  0.31615794215E+02  0.51100000000E-03 0. -1.
        -11    1    3    3    0    0 -0.14501208939E+02  0.12005653200E+02 -0.22463111963E+01  0.18959606633E+02  0.51100000000E-03 0.  1.
         12    1    3    3    0    0  0.34025115273E+02  0.46505257605E+01  0.19379875954E+02  0.39432416249E+02  0.00000000000E+00 0. -1.
</event>
<event>
 7    1  0.3276565E-015  0.9000772E+02  0.7816164E-02  0.1186339E+00
        -11   -1    0    0    0    0  0.00000000000E+00  0.00000000000E+00  0.45593999997E+02  0.45594000000E+02  0.51100000000E-03 0. -1.
         11   -1    0    0    0    0 -0.00000000000E+00 -0.00000000000E+00 -0.45593999997E+02  0.45594000000E+02  0.51100000000E-03 0.  1.
    9900012    2    1    2    0    0  0.67703801288E+00 -0.40693206136E+00 -0.87697092759E+00  0.90007723684E+02  0.89999984837E+02 0.  0.
         12    1    1    2    0    0 -0.67703801288E+00  0.40693206136E+00  0.87697092759E+00  0.11802763157E+01  0.00000000000E+00 0. -1.
         11    1    3    3    0    0  0.58875756929E+00 -0.34055492840E+01 -0.18421621958E+02  0.18743013557E+02  0.51100000000E-03 0. -1.
        -11    1    3    3    0    0  0.31407255735E+02  0.15384205351E+02  0.12856167194E+02  0.37260844358E+02  0.51100000000E-03 0.  1.
         12    1    3    3    0    0 -0.31318975291E+02 -0.12385588128E+02  0.46884838360E+01  0.34003865769E+02  0.00000000000E+00 0. -1.
</event>
<event>
 7    1  0.3276565E-015  0.9000772E+02  0.7816164E-02  0.1186339E+00
        -11   -1    0    0    0    0  0.00000000000E+00  0.00000000000E+00  0.45593999997E+02  0.45594000000E+02  0.51100000000E-03 0.  1.
         11   -1    0    0    0    0 -0.00000000000E+00 -0.00000000000E+00 -0.45593999997E+02  0.45594000000E+02  0.51100000000E-03 0. -1.
    9900012    2    1    2    0    0  0.10016928856E+01 -0.55493433285E+00  0.28586978201E+00  0.90007719405E+02  0.89999980501E+02 0.  0.
         12    1    1    2    0    0 -0.10016928856E+01  0.55493433285E+00 -0.28586978201E+00  0.11802805951E+01  0.00000000000E+00 0. -1.
         11    1    3    3    0    0  0.17685594293E+02 -0.31239119027E+02  0.11877962305E+02  0.37812019146E+02  0.51100000000E-03 0. -1.
        -11    1    3    3    0    0  0.87187055118E+01 -0.13063025447E+01  0.21898397550E+01  0.90839226413E+01  0.51100000000E-03 0.  1.
        -12    1    3    3    0    0 -0.25402606919E+02  0.31990487239E+02 -0.13781932278E+02  0.43111777618E+02  0.00000000000E+00 0.  1.
</event>
<event>
 7    1  0.3276565E-015  0.9000777E+02  0.7816164E-02  0.1186339E+00
        -11   -1    0    0    0    0  0.00000000000E+00  0.00000000000E+00  0.45593999997E+02  0.45594000000E+02  0.51100000000E-03 0.  1.
         11   -1    0    0    0    0 -0.00000000000E+00 -0.00000000000E+00 -0.45593999997E+02  0.45594000000E+02  0.51100000000E-03 0. -1.
    9900012    2    1    2    0    0 -0.11063364398E+01  0.39863701180E+00  0.10027542996E+00  0.90007768266E+02  0.90000030007E+02 0.  0.
         12    1    1    2    0    0  0.11063364398E+01 -0.39863701180E+00 -0.10027542996E+00  0.11802317345E+01  0.00000000000E+00 0. -1.
         11    1    3    3    0    0  0.70422060619E+01 -0.33451889067E+01 -0.58824882044E+01  0.97666075366E+01  0.51100000000E-03 0. -1.
        -11    1    3    3    0    0 -0.25460744330E+02 -0.15026799087E+02 -0.25961378380E+02  0.39345233006E+02  0.51100000000E-03 0.  1.
         12    1    3    3    0    0  0.17312201829E+02  0.18770625006E+02  0.31944142014E+02  0.40895927723E+02  0.00000000000E+00 0. -1.
</event>
<event>
 7    1  0.3276565E-015  0.9000761E+02  0.7816164E-02  0.1186339E+00
        -11   -1    0    0    0    0  0.00000000000E+00  0.00000000000E+00  0.45593999997E+02  0.45594000000E+02  0.51100000000E-03 0.  1.
         11   -1    0    0    0    0 -0.00000000000E+00 -0.00000000000E+00 -0.45593999997E+02  0.45594000000E+02  0.51100000000E-03 0. -1.
    9900012    2    1    2    0    0  0.23246320619E+00  0.11571838735E+01  0.14783417115E-01  0.90007605062E+02  0.89999864649E+02 0.  0.
         12    1    1    2    0    0 -0.23246320619E+00 -0.11571838735E+01 -0.14783417115E-01  0.11803949376E+01  0.00000000000E+00 0. -1.
         11    1    3    3    0    0  0.93052128495E+01 -0.26299524754E+02  0.14048609304E+02  0.31234842918E+02  0.51100000000E-03 0. -1.
        -11    1    3    3    0    0 -0.18413322162E+02  0.20166249099E+01  0.11280774984E+02  0.21688086444E+02  0.51100000000E-03 0.  1.
         12    1    3    3    0    0  0.93405725192E+01  0.25440083718E+02 -0.25314600871E+02  0.37084675701E+02  0.00000000000E+00 0. -1.
</event>
<event>
 7    1  0.3276565E-015  0.9000774E+02  0.7816164E-02  0.1186339E+00
        -11   -1    0    0    0    0  0.00000000000E+00  0.00000000000E+00  0.45593999997E+02  0.45594000000E+02  0.51100000000E-03 0.  1.
         11   -1    0    0    0    0 -0.00000000000E+00 -0.00000000000E+00 -0.45593999997E+02  0.45594000000E+02  0.51100000000E-03 0. -1.
    9900012    2    1    2    0    0 -0.58395414350E+00  0.98313316632E+00  0.29234247729E+00  0.90007738424E+02  0.89999999771E+02 0.  0.
         12    1    1    2    0    0  0.58395414350E+00 -0.98313316632E+00 -0.29234247729E+00  0.11802615763E+01  0.00000000000E+00 0. -1.
         11    1    3    3    0    0  0.15510566991E+02  0.32208268032E+02 -0.12505091928E+02  0.37872516980E+02  0.51100000000E-03 0. -1.
        -11    1    3    3    0    0  0.36687975815E+01 -0.79388286887E+00 -0.90378140553E+01  0.97863378678E+01  0.51100000000E-03 0.  1.
        -12    1    3    3    0    0 -0.19763318716E+02 -0.30431251997E+02  0.21835248461E+02  0.42348883576E+02  0.00000000000E+00 0.  1.
</event>
<event>
 7    1  0.3276565E-015  0.9000769E+02  0.7816164E-02  0.1186339E+00
        -11   -1    0    0    0    0  0.00000000000E+00  0.00000000000E+00  0.45593999997E+02  0.45594000000E+02  0.51100000000E-03 0.  1.
         11   -1    0    0    0    0 -0.00000000000E+00 -0.00000000000E+00 -0.45593999997E+02  0.45594000000E+02  0.51100000000E-03 0. -1.
    9900012    2    1    2    0    0 -0.98408886052E+00 -0.23252068815E+00 -0.60878997192E+00  0.90007694113E+02  0.89999954876E+02 0.  0.
         12    1    1    2    0    0  0.98408886052E+00  0.23252068815E+00  0.60878997192E+00  0.11803058865E+01  0.00000000000E+00 0. -1.
         11    1    3    3    0    0 -0.10687777144E+02 -0.31657712786E+01  0.14273474140E+01  0.11237793777E+02  0.51100000000E-03 0. -1.
        -11    1    3    3    0    0 -0.22272719534E+02 -0.25713494096E+02  0.73986628957E+01  0.34813762034E+02  0.51100000000E-03 0.  1.
         12    1    3    3    0    0  0.31976407818E+02  0.28646744687E+02 -0.94348002817E+01  0.43956138302E+02  0.00000000000E+00 0. -1.
</event>
<event>
 7    1  0.3276565E-015  0.9000766E+02  0.7816164E-02  0.1186339E+00
        -11   -1    0    0    0    0  0.00000000000E+00  0.00000000000E+00  0.45593999997E+02  0.45594000000E+02  0.51100000000E-03 0.  1.
         11   -1    0    0    0    0 -0.00000000000E+00 -0.00000000000E+00 -0.45593999997E+02  0.45594000000E+02  0.51100000000E-03 0. -1.
    9900012    2    1    2    0    0  0.11094521555E+01 -0.12600226472E+00 -0.38269216001E+00  0.90007655158E+02  0.89999915406E+02 0.  0.
         12    1    1    2    0    0 -0.11094521555E+01  0.12600226472E+00  0.38269216001E+00  0.11803448417E+01  0.00000000000E+00 0. -1.
         11    1    3    3    0    0 -0.54129850147E+01 -0.13793946118E+01  0.85975718798E+01  0.10252871732E+02  0.51100000000E-03 0. -1.
        -11    1    3    3    0    0 -0.26273807519E+02  0.19400579772E+02  0.14275844338E+02  0.35644006353E+02  0.51100000000E-03 0.  1.
         12    1    3    3    0    0  0.32796244689E+02 -0.18147187425E+02 -0.23256108378E+02  0.44110777074E+02  0.00000000000E+00 0. -1.
</event>
<event>
 7    1  0.3276565E-015  0.9000755E+02  0.7816164E-02  0.1186339E+00
        -11   -1    0    0    0    0  0.00000000000E+00  0.00000000000E+00  0.45593999997E+02  0.45594000000E+02  0.51100000000E-03 0. -1.
         11   -1    0    0    0    0 -0.00000000000E+00 -0.00000000000E+00 -0.45593999997E+02  0.45594000000E+02  0.51100000000E-03 0.  1.
    9900012    2    1    2    0    0 -0.34134549970E+00  0.58942378296E+00 -0.96411273204E+00  0.90007554954E+02  0.89999813879E+02 0.  0.
         12    1    1    2    0    0  0.34134549970E+00 -0.58942378296E+00  0.96411273204E+00  0.11804450458E+01  0.00000000000E+00 0. -1.
         11    1    3    3    0    0 -0.15996156626E+01 -0.32076375604E+02 -0.14552511765E+02  0.35259441871E+02  0.51100000000E-03 0. -1.
        -11    1    3    3    0    0  0.12334186725E+01 -0.96221486193E+01 -0.15666152308E+01  0.98265634490E+01  0.51100000000E-03 0.  1.
        -12    1    3    3    0    0  0.24851490381E-01  0.42287948006E+02  0.15155014263E+02  0.44921549634E+02  0.00000000000E+00 0.  1.
</event>
<event>
 7    1  0.3276565E-015  0.9000771E+02  0.7816164E-02  0.1186339E+00
        -11   -1    0    0    0    0  0.00000000000E+00  0.00000000000E+00  0.45593999997E+02  0.45594000000E+02  0.51100000000E-03 0. -1.
         11   -1    0    0    0    0 -0.00000000000E+00 -0.00000000000E+00 -0.45593999997E+02  0.45594000000E+02  0.51100000000E-03 0.  1.
    9900012    2    1    2    0    0 -0.81030276726E+00  0.30745323723E+00  0.80122325340E+00  0.90007713268E+02  0.89999974283E+02 0.  0.
         12    1    1    2    0    0  0.81030276726E+00 -0.30745323723E+00 -0.80122325340E+00  0.11802867319E+01  0.00000000000E+00 0. -1.
         11    1    3    3    0    0 -0.31636507857E+02  0.24788352567E+02  0.16105221295E+02  0.43297912255E+02  0.51100000000E-03 0. -1.
        -11    1    3    3    0    0 -0.54957936738E+00 -0.91590347945E+01 -0.23952517634E+01  0.94829946282E+01  0.51100000000E-03 0.  1.
        -12    1    3    3    0    0  0.31375784458E+02 -0.15321864536E+02 -0.12908746278E+02  0.37226806385E+02  0.00000000000E+00 0.  1.
</event>
<event>
 7    1  0.3276565E-015  0.9000777E+02  0.7816164E-02  0.1186339E+00
        -11   -1    0    0    0    0  0.00000000000E+00  0.00000000000E+00  0.45593999997E+02  0.45594000000E+02  0.51100000000E-03 0. -1.
         11   -1    0    0    0    0 -0.00000000000E+00 -0.00000000000E+00 -0.45593999997E+02  0.45594000000E+02  0.51100000000E-03 0.  1.
    9900012    2    1    2    0    0 -0.56639148042E+00 -0.36823872968E+00 -0.96774736028E+00  0.90007773740E+02  0.90000035554E+02 0.  0.
         12    1    1    2    0    0  0.56639148042E+00  0.36823872968E+00  0.96774736028E+00  0.11802262599E+01  0.00000000000E+00 0. -1.
         11    1    3    3    0    0 -0.19062581884E+01 -0.66975238380E+00  0.10715865946E+02  0.10904685771E+02  0.51100000000E-03 0. -1.
        -11    1    3    3    0    0  0.17385788653E+02  0.25136308855E+02 -0.31199930702E+02  0.43675340251E+02  0.51100000000E-03 0.  1.
         12    1    3    3    0    0 -0.16045921945E+02 -0.24834795201E+02  0.19516317396E+02  0.35427747719E+02  0.00000000000E+00 0. -1.
</event>
<event>
 7    1  0.3309054E-015  0.9000772E+02  0.7816164E-02  0.1186339E+00
        -11   -1    0    0    0    0  0.00000000000E+00  0.00000000000E+00  0.45593999997E+02  0.45594000000E+02  0.51100000000E-03 0.  1.
         11   -1    0    0    0    0 -0.00000000000E+00 -0.00000000000E+00 -0.45593999997E+02  0.45594000000E+02  0.51100000000E-03 0. -1.
    9900012    2    1    2    0    0 -0.84796412666E+00  0.70114808876E+00  0.42708316504E+00  0.90007723832E+02  0.89999984987E+02 0.  0.
         12    1    1    2    0    0  0.84796412666E+00 -0.70114808876E+00 -0.42708316504E+00  0.11802761678E+01  0.00000000000E+00 0. -1.
         11    1    3    3    0    0 -0.59992932490E+01  0.59189753940E+01 -0.51072917200E+01  0.98544516934E+01  0.51100000000E-03 0. -1.
        -11    1    3    3    0    0  0.16672543578E+02  0.26310498972E+02 -0.20828893757E+02  0.37470773690E+02  0.51100000000E-03 0.  1.
         12    1    3    3    0    0 -0.11521214456E+02 -0.31528326277E+02  0.26363268642E+02  0.42682498449E+02  0.00000000000E+00 0. -1.
</event>
<event>
 7    1  0.3276565E-015  0.9000773E+02  0.7816164E-02  0.1186339E+00
        -11   -1    0    0    0    0  0.00000000000E+00  0.00000000000E+00  0.45593999997E+02  0.45594000000E+02  0.51100000000E-03 0. -1.
         11   -1    0    0    0    0 -0.00000000000E+00 -0.00000000000E+00 -0.45593999997E+02  0.45594000000E+02  0.51100000000E-03 0.  1.
    9900012    2    1    2    0    0 -0.11451552175E+01 -0.14763079154E+00  0.24468505477E+00  0.90007726261E+02  0.89999987448E+02 0.  0.
         12    1    1    2    0    0  0.11451552175E+01  0.14763079154E+00 -0.24468505477E+00  0.11802737389E+01  0.00000000000E+00 0. -1.
         11    1    3    3    0    0 -0.49929091517E+01  0.86813837553E+01 -0.13934108291E+01  0.10111239276E+02  0.51100000000E-03 0. -1.
        -11    1    3    3    0    0  0.39285305992E+02  0.78437105501E+01 -0.42777738351E+01  0.40288440170E+02  0.51100000000E-03 0.  1.
         12    1    3    3    0    0 -0.35437552057E+02 -0.16672725097E+02  0.59158697190E+01  0.39608046815E+02  0.00000000000E+00 0. -1.
</event>
<event>
 7    1  0.3276565E-015  0.9000788E+02  0.7816164E-02  0.1186339E+00
        -11   -1    0    0    0    0  0.00000000000E+00  0.00000000000E+00  0.45593999997E+02  0.45594000000E+02  0.51100000000E-03 0.  1.
         11   -1    0    0    0    0 -0.00000000000E+00 -0.00000000000E+00 -0.45593999997E+02  0.45594000000E+02  0.51100000000E-03 0. -1.
    9900012    2    1    2    0    0 -0.82708885890E+00 -0.17811136940E+00  0.82272659297E+00  0.90007881918E+02  0.90000145159E+02 0.  0.
         12    1    1    2    0    0  0.82708885890E+00  0.17811136940E+00 -0.82272659297E+00  0.11801180819E+01  0.00000000000E+00 0. -1.
         11    1    3    3    0    0 -0.45945526646E+01 -0.18041032474E+01  0.89727142499E+01  0.10240815592E+02  0.51100000000E-03 0. -1.
        -11    1    3    3    0    0 -0.99419761379E+01 -0.25021802086E+02  0.23819138792E+02  0.35948363554E+02  0.51100000000E-03 0.  1.
         12    1    3    3    0    0  0.13709439944E+02  0.26647793964E+02 -0.31969126449E+02  0.43818702772E+02  0.00000000000E+00 0. -1.
</event>
<event>
 7    1  0.3276565E-015  0.9000778E+02  0.7816164E-02  0.1186339E+00
        -11   -1    0    0    0    0  0.00000000000E+00  0.00000000000E+00  0.45593999997E+02  0.45594000000E+02  0.51100000000E-03 0.  1.
         11   -1    0    0    0    0 -0.00000000000E+00 -0.00000000000E+00 -0.45593999997E+02  0.45594000000E+02  0.51100000000E-03 0. -1.
    9900012    2    1    2    0    0 -0.12567302036E-01 -0.50110471868E+00  0.10684833346E+01  0.90007779464E+02  0.90000041353E+02 0.  0.
         12    1    1    2    0    0  0.12567302036E-01  0.50110471868E+00 -0.10684833346E+01  0.11802205355E+01  0.00000000000E+00 0. -1.
         11    1    3    3    0    0  0.82223905163E+01 -0.27236296343E+01 -0.34335550893E+01  0.93174655889E+01  0.51100000000E-03 0. -1.
        -11    1    3    3    0    0 -0.47077568414E+01 -0.38495872179E+02 -0.38549762108E+01  0.38973785948E+02  0.51100000000E-03 0.  1.
         12    1    3    3    0    0 -0.35272009770E+01  0.40718397095E+02  0.83570146347E+01  0.41716527927E+02  0.00000000000E+00 0. -1.
</event>
<event>
 7    1  0.3276565E-015  0.9000786E+02  0.7816164E-02  0.1186339E+00
        -11   -1    0    0    0    0  0.00000000000E+00  0.00000000000E+00  0.45593999997E+02  0.45594000000E+02  0.51100000000E-03 0.  1.
         11   -1    0    0    0    0 -0.00000000000E+00 -0.00000000000E+00 -0.45593999997E+02  0.45594000000E+02  0.51100000000E-03 0. -1.
    9900012    2    1    2    0    0  0.14375175103E+00 -0.24232981545E+00  0.11460079999E+01  0.90007863296E+02  0.90000126291E+02 0.  0.
         12    1    1    2    0    0 -0.14375175103E+00  0.24232981545E+00 -0.11460079999E+01  0.11801367044E+01  0.00000000000E+00 0. -1.
         11    1    3    3    0    0 -0.40639289462E+01 -0.15454778337E+02  0.15325549722E+01  0.16053486130E+02  0.51100000000E-03 0. -1.
        -11    1    3    3    0    0 -0.13321851701E+02 -0.22401071912E+02  0.14551285621E+02  0.29849952580E+02  0.51100000000E-03 0.  1.
         12    1    3    3    0    0  0.17529532398E+02  0.37613520433E+02 -0.14937832593E+02  0.44104424586E+02  0.00000000000E+00 0. -1.
</event>
<event>
 7    1  0.3276565E-015  0.9000776E+02  0.7816164E-02  0.1186339E+00
        -11   -1    0    0    0    0  0.00000000000E+00  0.00000000000E+00  0.45593999997E+02  0.45594000000E+02  0.51100000000E-03 0.  1.
         11   -1    0    0    0    0 -0.00000000000E+00 -0.00000000000E+00 -0.45593999997E+02  0.45594000000E+02  0.51100000000E-03 0. -1.
    9900012    2    1    2    0    0 -0.81888622233E+00 -0.76211883085E+00  0.37625666112E+00  0.90007758994E+02  0.90000020613E+02 0.  0.
         12    1    1    2    0    0  0.81888622233E+00  0.76211883085E+00 -0.37625666112E+00  0.11802410061E+01  0.00000000000E+00 0. -1.
         11    1    3    3    0    0  0.35541515904E+00  0.57156542140E+01 -0.38422005145E+01  0.68961966390E+01  0.51100000000E-03 0. -1.
        -11    1    3    3    0    0 -0.73004774368E+01 -0.42379570844E+02 -0.97652345703E+01  0.44098580501E+02  0.51100000000E-03 0.  1.
         12    1    3    3    0    0  0.61261760554E+01  0.35901797799E+02  0.13983691746E+02  0.39012981854E+02  0.00000000000E+00 0. -1.
</event>
<event>
 7    1  0.3276565E-015  0.9000787E+02  0.7816164E-02  0.1186339E+00
        -11   -1    0    0    0    0  0.00000000000E+00  0.00000000000E+00  0.45593999997E+02  0.45594000000E+02  0.51100000000E-03 0.  1.
         11   -1    0    0    0    0 -0.00000000000E+00 -0.00000000000E+00 -0.45593999997E+02  0.45594000000E+02  0.51100000000E-03 0. -1.
    9900012    2    1    2    0    0  0.68684259869E+00  0.25851064679E-01  0.95931035024E+00  0.90007873998E+02  0.90000137134E+02 0.  0.
         12    1    1    2    0    0 -0.68684259869E+00 -0.25851064679E-01 -0.95931035024E+00  0.11801260022E+01  0.00000000000E+00 0. -1.
         11    1    3    3    0    0 -0.97592328243E+01 -0.21408717993E+00  0.42973693613E+01  0.10665638393E+02  0.51100000000E-03 0. -1.
        -11    1    3    3    0    0  0.35739644495E+02 -0.20302866461E+02 -0.16375838515E+02  0.44245866050E+02  0.51100000000E-03 0.  1.
         12    1    3    3    0    0 -0.25293569072E+02  0.20542804706E+02  0.13037779504E+02  0.35096369555E+02  0.00000000000E+00 0. -1.
</event>
<event>
 7    1  0.3276565E-015  0.9000777E+02  0.7816164E-02  0.1186339E+00
        -11   -1    0    0    0    0  0.00000000000E+00  0.00000000000E+00  0.45593999997E+02  0.45594000000E+02  0.51100000000E-03 0. -1.
         11   -1    0    0    0    0 -0.00000000000E+00 -0.00000000000E+00 -0.45593999997E+02  0.45594000000E+02  0.51100000000E-03 0.  1.
    9900012    2    1    2    0    0  0.87501472074E+00 -0.19949356124E+00 -0.76648730027E+00  0.90007766454E+02  0.90000028171E+02 0.  0.
         12    1    1    2    0    0 -0.87501472074E+00  0.19949356124E+00  0.76648730027E+00  0.11802335464E+01  0.00000000000E+00 0. -1.
         11    1    3    3    0    0 -0.26793164141E+02 -0.65968282754E+01  0.22452955769E+02  0.35574246457E+02  0.51100000000E-03 0. -1.
        -11    1    3    3    0    0  0.51517912902E+01  0.88533677690E+01  0.99422572965E+01  0.14274857434E+02  0.51100000000E-03 0.  1.
        -12    1    3    3    0    0  0.22516387572E+02 -0.24560330548E+01 -0.33161700365E+02  0.40158662562E+02  0.00000000000E+00 0.  1.
</event>
<event>
 7    1  0.3276565E-015  0.9000754E+02  0.7816164E-02  0.1186339E+00
        -11   -1    0    0    0    0  0.00000000000E+00  0.00000000000E+00  0.45593999997E+02  0.45594000000E+02  0.51100000000E-03 0. -1.
         11   -1    0    0    0    0 -0.00000000000E+00 -0.00000000000E+00 -0.45593999997E+02  0.45594000000E+02  0.51100000000E-03 0.  1.
    9900012    2    1    2    0    0  0.85031860804E+00 -0.28431230416E+00 -0.76786778267E+00  0.90007535620E+02  0.89999794290E+02 0.  0.
         12    1    1    2    0    0 -0.85031860804E+00  0.28431230416E+00  0.76786778267E+00  0.11804643803E+01  0.00000000000E+00 0. -1.
         11    1    3    3    0    0 -0.79021597985E+00 -0.35075468616E+02  0.94291516648E+01  0.36329352339E+02  0.51100000000E-03 0. -1.
        -11    1    3    3    0    0  0.55533925393E+01 -0.44688145104E+01  0.75787663519E+01  0.10404238151E+02  0.51100000000E-03 0.  1.
        -12    1    3    3    0    0 -0.39128579514E+01  0.39259970823E+02 -0.17775785799E+02  0.43273945130E+02  0.00000000000E+00 0.  1.
</event>
<event>
 7    1  0.3276565E-015  0.9000779E+02  0.7816164E-02  0.1186339E+00
        -11   -1    0    0    0    0  0.00000000000E+00  0.00000000000E+00  0.45593999997E+02  0.45594000000E+02  0.51100000000E-03 0. -1.
         11   -1    0    0    0    0 -0.00000000000E+00 -0.00000000000E+00 -0.45593999997E+02  0.45594000000E+02  0.51100000000E-03 0.  1.
    9900012    2    1    2    0    0  0.10894955524E+01  0.45369810941E+00  0.73965306929E-02  0.90007789323E+02  0.90000051342E+02 0.  0.
         12    1    1    2    0    0 -0.10894955524E+01 -0.45369810941E+00 -0.73965306929E-02  0.11802106769E+01  0.00000000000E+00 0. -1.
         11    1    3    3    0    0 -0.94625961111E+01 -0.83386095188E+01  0.35650657047E+02  0.37815902502E+02  0.51100000000E-03 0. -1.
        -11    1    3    3    0    0 -0.65507779209E+01  0.92357287452E+00  0.43991042549E+01  0.79446709643E+01  0.51100000000E-03 0.  1.
        -12    1    3    3    0    0  0.17102869584E+02  0.78687347537E+01 -0.40042364771E+02  0.44247215857E+02  0.00000000000E+00 0.  1.
</event>
<event>
 7    1  0.3276565E-015  0.9000777E+02  0.7816164E-02  0.1186339E+00
        -11   -1    0    0    0    0  0.00000000000E+00  0.00000000000E+00  0.45593999997E+02  0.45594000000E+02  0.51100000000E-03 0.  1.
         11   -1    0    0    0    0 -0.00000000000E+00 -0.00000000000E+00 -0.45593999997E+02  0.45594000000E+02  0.51100000000E-03 0. -1.
    9900012    2    1    2    0    0 -0.86892389906E+00  0.79061740154E+00 -0.11335571077E+00  0.90007765220E+02  0.90000026921E+02 0.  0.
         12    1    1    2    0    0  0.86892389906E+00 -0.79061740154E+00  0.11335571077E+00  0.11802347797E+01  0.00000000000E+00 0. -1.
         11    1    3    3    0    0 -0.21292316478E+02 -0.18048490684E+02 -0.24655896900E+02  0.37242771234E+02  0.51100000000E-03 0. -1.
        -11    1    3    3    0    0 -0.89475773584E+00 -0.90541825110E+01 -0.12746937138E+01  0.91871462748E+01  0.51100000000E-03 0.  1.
        -12    1    3    3    0    0  0.21318150315E+02  0.27893290596E+02  0.25817234903E+02  0.43577847712E+02  0.00000000000E+00 0.  1.
</event>
<event>
 7    1  0.3276565E-015  0.9000773E+02  0.7816164E-02  0.1186339E+00
        -11   -1    0    0    0    0  0.00000000000E+00  0.00000000000E+00  0.45593999997E+02  0.45594000000E+02  0.51100000000E-03 0.  1.
         11   -1    0    0    0    0 -0.00000000000E+00 -0.00000000000E+00 -0.45593999997E+02  0.45594000000E+02  0.51100000000E-03 0. -1.
    9900012    2    1    2    0    0  0.63311954474E+00 -0.99564687166E+00  0.29856542353E-01  0.90007726954E+02  0.89999988149E+02 0.  0.
         12    1    1    2    0    0 -0.63311954474E+00  0.99564687166E+00 -0.29856542353E-01  0.11802730464E+01  0.00000000000E+00 0. -1.
         11    1    3    3    0    0 -0.20490785492E+01  0.17149694218E+02 -0.12642144098E+02  0.21404077703E+02  0.51100000000E-03 0. -1.
        -11    1    3    3    0    0 -0.24137955554E+02  0.11727987028E+02  0.12561247803E+01  0.26865673782E+02  0.51100000000E-03 0.  1.
         12    1    3    3    0    0  0.26820153648E+02 -0.29873328118E+02  0.11415875860E+02  0.41737975468E+02  0.00000000000E+00 0. -1.
</event>
<event>
 7    1  0.3276565E-015  0.9000785E+02  0.7816164E-02  0.1186339E+00
        -11   -1    0    0    0    0  0.00000000000E+00  0.00000000000E+00  0.45593999997E+02  0.45594000000E+02  0.51100000000E-03 0.  1.
         11   -1    0    0    0    0 -0.00000000000E+00 -0.00000000000E+00 -0.45593999997E+02  0.45594000000E+02  0.51100000000E-03 0. -1.
    9900012    2    1    2    0    0 -0.43998938530E+00  0.93332847166E+00  0.57276277983E+00  0.90007851748E+02  0.90000114591E+02 0.  0.
         12    1    1    2    0    0  0.43998938530E+00 -0.93332847166E+00 -0.57276277983E+00  0.11801482522E+01  0.00000000000E+00 0. -1.
         11    1    3    3    0    0 -0.19936798365E+02  0.22777306878E+02 -0.21085946923E+02  0.36890361825E+02  0.51100000000E-03 0. -1.
        -11    1    3    3    0    0  0.17337768226E+01  0.72017277520E+01 -0.57757053575E+01  0.93930632555E+01  0.51100000000E-03 0.  1.
        -12    1    3    3    0    0  0.17763032157E+02 -0.29045706159E+02  0.27434415061E+02  0.43724426667E+02  0.00000000000E+00 0.  1.
</event>
<event>
 7    1  0.3276565E-015  0.9000741E+02  0.7816164E-02  0.1186340E+00
        -11   -1    0    0    0    0  0.00000000000E+00  0.00000000000E+00  0.45593999997E+02  0.45594000000E+02  0.51100000000E-03 0.  1.
         11   -1    0    0    0    0 -0.00000000000E+00 -0.00000000000E+00 -0.45593999997E+02  0.45594000000E+02  0.51100000000E-03 0. -1.
    9900012    2    1    2    0    0  0.24963264838E+00  0.99746676424E+00  0.58012509971E+00  0.90007406278E+02  0.89999663240E+02 0.  0.
         12    1    1    2    0    0 -0.24963264838E+00 -0.99746676424E+00 -0.58012509971E+00  0.11805937219E+01  0.00000000000E+00 0. -1.
         11    1    3    3    0    0  0.76555635169E+01 -0.50252416349E+01 -0.66394443221E+00  0.91815863946E+01  0.51100000000E-03 0. -1.
        -11    1    3    3    0    0  0.27403299887E+02  0.19309846444E+02  0.20079196305E+02  0.39076657212E+02  0.51100000000E-03 0.  1.
         12    1    3    3    0    0 -0.34809230755E+02 -0.13287138045E+02 -0.18835126773E+02  0.41749162671E+02  0.00000000000E+00 0. -1.
</event>
<event>
 7    1  0.3276565E-015  0.9000790E+02  0.7816164E-02  0.1186339E+00
        -11   -1    0    0    0    0  0.00000000000E+00  0.00000000000E+00  0.45593999997E+02  0.45594000000E+02  0.51100000000E-03 0. -1.
         11   -1    0    0    0    0 -0.00000000000E+00 -0.00000000000E+00 -0.45593999997E+02  0.45594000000E+02  0.51100000000E-03 0.  1.
    9900012    2    1    2    0    0 -0.49140726858E+00  0.10663047830E+01  0.11891840661E+00  0.90007903148E+02  0.90000166669E+02 0.  0.
         12    1    1    2    0    0  0.49140726858E+00 -0.10663047830E+01 -0.11891840661E+00  0.11800968525E+01  0.00000000000E+00 0. -1.
         11    1    3    3    0    0  0.73333645301E+01 -0.16631176214E+02  0.33556801541E+02  0.38163243933E+02  0.51100000000E-03 0. -1.
        -11    1    3    3    0    0  0.95939898554E+01  0.22487907020E+01  0.13896798826E+01  0.99515280939E+01  0.51100000000E-03 0.  1.
        -12    1    3    3    0    0 -0.17418761654E+02  0.15448690295E+02 -0.34827563017E+02  0.41893131120E+02  0.00000000000E+00 0.  1.
</event>
<event>
 7    1  0.3276565E-015  0.9000766E+02  0.7816164E-02  0.1186339E+00
        -11   -1    0    0    0    0  0.00000000000E+00  0.00000000000E+00  0.45593999997E+02  0.45594000000E+02  0.51100000000E-03 0. -1.
         11   -1    0    0    0    0 -0.00000000000E+00 -0.00000000000E+00 -0.45593999997E+02  0.45594000000E+02  0.51100000000E-03 0.  1.
    9900012    2    1    2    0    0  0.48901890064E+00 -0.75131897436E+00 -0.76783794184E+00  0.90007663272E+02  0.89999923627E+02 0.  0.
         12    1    1    2    0    0 -0.48901890064E+00  0.75131897436E+00  0.76783794184E+00  0.11803367280E+01  0.00000000000E+00 0. -1.
         11    1    3    3    0    0 -0.25266925254E+02  0.82520916849E+01 -0.20612924423E+02  0.33636396693E+02  0.51100000000E-03 0. -1.
        -11    1    3    3    0    0 -0.12935130796E+02 -0.87905237934E+00  0.25233653515E+01  0.13208244196E+02  0.51100000000E-03 0.  1.
        -12    1    3    3    0    0  0.38691074950E+02 -0.81243582799E+01  0.17321721130E+02  0.43163022382E+02  0.00000000000E+00 0.  1.
</event>
<event>
 7    1  0.3276565E-015  0.9000776E+02  0.7816164E-02  0.1186339E+00
        -11   -1    0    0    0    0  0.00000000000E+00  0.00000000000E+00  0.45593999997E+02  0.45594000000E+02  0.51100000000E-03 0.  1.
         11   -1    0    0    0    0 -0.00000000000E+00 -0.00000000000E+00 -0.45593999997E+02  0.45594000000E+02  0.51100000000E-03 0. -1.
    9900012    2    1    2    0    0  0.55943535719E+00 -0.29967852888E+00  0.99508331955E+00  0.90007760214E+02  0.90000021849E+02 0.  0.
         12    1    1    2    0    0 -0.55943535719E+00  0.29967852888E+00 -0.99508331955E+00  0.11802397860E+01  0.00000000000E+00 0. -1.
         11    1    3    3    0    0  0.36777941804E+01  0.10281291526E+01  0.91529969853E+01  0.99176899358E+01  0.51100000000E-03 0. -1.
        -11    1    3    3    0    0  0.35219031228E+02  0.25271454739E+01 -0.18954321918E+02  0.40075340854E+02  0.51100000000E-03 0.  1.
         12    1    3    3    0    0 -0.38337390051E+02 -0.38549531553E+01  0.10796408252E+02  0.40014729425E+02  0.00000000000E+00 0. -1.
</event>
<event>
 7    1  0.3276565E-015  0.9000769E+02  0.7816164E-02  0.1186339E+00
        -11   -1    0    0    0    0  0.00000000000E+00  0.00000000000E+00  0.45593999997E+02  0.45594000000E+02  0.51100000000E-03 0. -1.
         11   -1    0    0    0    0 -0.00000000000E+00 -0.00000000000E+00 -0.45593999997E+02  0.45594000000E+02  0.51100000000E-03 0.  1.
    9900012    2    1    2    0    0  0.13201754738E+00  0.96737405485E+00 -0.66324224793E+00  0.90007690094E+02  0.89999950803E+02 0.  0.
         12    1    1    2    0    0 -0.13201754738E+00 -0.96737405485E+00  0.66324224793E+00  0.11803099060E+01  0.00000000000E+00 0. -1.
         11    1    3    3    0    0  0.37571635427E+02 -0.30761739911E+01 -0.10964418047E+02  0.39259509656E+02  0.51100000000E-03 0. -1.
        -11    1    3    3    0    0  0.56823209436E+00  0.55540255712E+01 -0.70056363732E+01  0.89581822382E+01  0.51100000000E-03 0.  1.
        -12    1    3    3    0    0 -0.38007849974E+02 -0.15104775252E+01  0.17306812172E+02  0.41789998200E+02  0.00000000000E+00 0.  1.
</event>
<event>
 7    1  0.3276565E-015  0.9000776E+02  0.7816164E-02  0.1186339E+00
        -11   -1    0    0    0    0  0.00000000000E+00  0.00000000000E+00  0.45593999997E+02  0.45594000000E+02  0.51100000000E-03 0.  1.
         11   -1    0    0    0    0 -0.00000000000E+00 -0.00000000000E+00 -0.45593999997E+02  0.45594000000E+02  0.51100000000E-03 0. -1.
    9900012    2    1    2    0    0 -0.81810868941E+00 -0.76160095250E+00  0.37899880121E+00  0.90007755140E+02  0.90000016708E+02 0.  0.
         12    1    1    2    0    0  0.81810868941E+00  0.76160095250E+00 -0.37899880121E+00  0.11802448601E+01  0.00000000000E+00 0. -1.
         11    1    3    3    0    0 -0.74157785401E+01  0.59682927379E+00 -0.94852233931E+01  0.12054851290E+02  0.51100000000E-03 0. -1.
        -11    1    3    3    0    0 -0.21612608946E+02  0.19804917387E+02 -0.16757966582E+02  0.33766389537E+02  0.51100000000E-03 0.  1.
         12    1    3    3    0    0  0.28210278797E+02 -0.21163347613E+02  0.26622188776E+02  0.44186514314E+02  0.00000000000E+00 0. -1.
</event>
<event>
 7    1  0.3276565E-015  0.9000775E+02  0.7816164E-02  0.1186339E+00
        -11   -1    0    0    0    0  0.00000000000E+00  0.00000000000E+00  0.45593999997E+02  0.45594000000E+02  0.51100000000E-03 0.  1.
         11   -1    0    0    0    0 -0.00000000000E+00 -0.00000000000E+00 -0.45593999997E+02  0.45594000000E+02  0.51100000000E-03 0. -1.
    9900012    2    1    2    0    0  0.50738495141E+00 -0.80156958849E+00 -0.70217317922E+00  0.90007745592E+02  0.90000007034E+02 0.  0.
         12    1    1    2    0    0 -0.50738495141E+00  0.80156958849E+00  0.70217317922E+00  0.11802544081E+01  0.00000000000E+00 0. -1.
         11    1    3    3    0    0 -0.11498758665E+02 -0.14115106406E+02 -0.33528732963E+02  0.38152766794E+02  0.51100000000E-03 0. -1.
        -11    1    3    3    0    0  0.88475045019E+01 -0.10438486170E+01 -0.57289578449E+01  0.10591926836E+02  0.51100000000E-03 0.  1.
        -12    1    3    3    0    0  0.31586391141E+01  0.14357385434E+02  0.38555517629E+02  0.41263051962E+02  0.00000000000E+00 0.  1.
</event>
<event>
 7    1  0.3276565E-015  0.9000798E+02  0.7816164E-02  0.1186339E+00
        -11   -1    0    0    0    0  0.00000000000E+00  0.00000000000E+00  0.45593999997E+02  0.45594000000E+02  0.51100000000E-03 0.  1.
         11   -1    0    0    0    0 -0.00000000000E+00 -0.00000000000E+00 -0.45593999997E+02  0.45594000000E+02  0.51100000000E-03 0. -1.
    9900012    2    1    2    0    0 -0.10449230427E+01  0.54581377927E+00  0.51645702149E-01  0.90007981303E+02  0.90000245856E+02 0.  0.
         12    1    1    2    0    0  0.10449230427E+01 -0.54581377927E+00 -0.51645702149E-01  0.11800186971E+01  0.00000000000E+00 0. -1.
         11    1    3    3    0    0 -0.24691244316E+02 -0.89714380573E+01 -0.29041543461E+02  0.39160637042E+02  0.51100000000E-03 0. -1.
        -11    1    3    3    0    0  0.39166012169E+01 -0.75462721239E+01 -0.34195020665E+01  0.91640047307E+01  0.51100000000E-03 0.  1.
        -12    1    3    3    0    0  0.19729720056E+02  0.17063523961E+02  0.32512691229E+02  0.41683339531E+02  0.00000000000E+00 0.  1.
</event>
<event>
 7    1  0.3276565E-015  0.9000787E+02  0.7816164E-02  0.1186339E+00
        -11   -1    0    0    0    0  0.00000000000E+00  0.00000000000E+00  0.45593999997E+02  0.45594000000E+02  0.51100000000E-03 0. -1.
         11   -1    0    0    0    0 -0.00000000000E+00 -0.00000000000E+00 -0.45593999997E+02  0.45594000000E+02  0.51100000000E-03 0.  1.
    9900012    2    1    2    0    0 -0.22042169814E+00 -0.11052923762E+01 -0.34993065654E+00  0.90007869318E+02  0.90000132393E+02 0.  0.
         12    1    1    2    0    0  0.22042169814E+00  0.11052923762E+01  0.34993065654E+00  0.11801306819E+01  0.00000000000E+00 0. -1.
         11    1    3    3    0    0 -0.31076481973E+00 -0.80951709697E+01 -0.63827661532E+01  0.10313489799E+02  0.51100000000E-03 0. -1.
        -11    1    3    3    0    0 -0.31861142827E+02  0.21464737520E+02 -0.12007519098E+02  0.40249818561E+02  0.51100000000E-03 0.  1.
         12    1    3    3    0    0  0.31951485949E+02 -0.14474858926E+02  0.18040354595E+02  0.39444560958E+02  0.00000000000E+00 0. -1.
</event>
<event>
 7    1  0.3276565E-015  0.9000775E+02  0.7816164E-02  0.1186339E+00
        -11   -1    0    0    0    0  0.00000000000E+00  0.00000000000E+00  0.45593999997E+02  0.45594000000E+02  0.51100000000E-03 0.  1.
         11   -1    0    0    0    0 -0.00000000000E+00 -0.00000000000E+00 -0.45593999997E+02  0.45594000000E+02  0.51100000000E-03 0. -1.
    9900012    2    1    2    0    0 -0.47732216753E+00  0.10180807956E+01  0.35868683313E+00  0.90007753754E+02  0.90000015303E+02 0.  0.
         12    1    1    2    0    0  0.47732216753E+00 -0.10180807956E+01 -0.35868683313E+00  0.11802462464E+01  0.00000000000E+00 0. -1.
         11    1    3    3    0    0 -0.24579003335E+01  0.11207209599E+02 -0.31424511927E+02  0.33453591304E+02  0.51100000000E-03 0. -1.
        -11    1    3    3    0    0 -0.17868396430E+01  0.25131165540E+01 -0.11178427995E+02  0.11595939091E+02  0.51100000000E-03 0.  1.
        -12    1    3    3    0    0  0.37674178090E+01 -0.12702245357E+02  0.42961626755E+02  0.44958223358E+02  0.00000000000E+00 0.  1.
</event>
<event>
 7    1  0.3276565E-015  0.9000771E+02  0.7816164E-02  0.1186339E+00
        -11   -1    0    0    0    0  0.00000000000E+00  0.00000000000E+00  0.45593999997E+02  0.45594000000E+02  0.51100000000E-03 0. -1.
         11   -1    0    0    0    0 -0.00000000000E+00 -0.00000000000E+00 -0.45593999997E+02  0.45594000000E+02  0.51100000000E-03 0.  1.
    9900012    2    1    2    0    0  0.11314788214E+01 -0.25345325004E+00  0.22046266087E+00  0.90007709079E+02  0.89999970039E+02 0.  0.
         12    1    1    2    0    0 -0.11314788214E+01  0.25345325004E+00 -0.22046266087E+00  0.11802909209E+01  0.00000000000E+00 0. -1.
         11    1    3    3    0    0 -0.26677989919E+02  0.13880865151E+02  0.19955324036E+02  0.36091668305E+02  0.51100000000E-03 0. -1.
        -11    1    3    3    0    0 -0.13435544706E+01  0.42048358451E+01  0.83699478642E+01  0.94626534657E+01  0.51100000000E-03 0.  1.
        -12    1    3    3    0    0  0.29153023211E+02 -0.18339154246E+02 -0.28104809239E+02  0.44453387308E+02  0.00000000000E+00 0.  1.
</event>
<event>
 7    1  0.3276565E-015  0.9000777E+02  0.7816164E-02  0.1186339E+00
        -11   -1    0    0    0    0  0.00000000000E+00  0.00000000000E+00  0.45593999997E+02  0.45594000000E+02  0.51100000000E-03 0. -1.
         11   -1    0    0    0    0 -0.00000000000E+00 -0.00000000000E+00 -0.45593999997E+02  0.45594000000E+02  0.51100000000E-03 0.  1.
    9900012    2    1    2    0    0  0.89092439922E+00  0.51513229391E+00  0.57779069403E+00  0.90007767120E+02  0.90000028846E+02 0.  0.
         12    1    1    2    0    0 -0.89092439922E+00 -0.51513229391E+00 -0.57779069403E+00  0.11802328802E+01  0.00000000000E+00 0. -1.
         11    1    3    3    0    0  0.66136401058E+01  0.22249608521E+01 -0.15225387558E+02  0.16748227154E+02  0.51100000000E-03 0. -1.
        -11    1    3    3    0    0 -0.22220554051E+02  0.28984163408E+02  0.10581241787E+02  0.38023643024E+02  0.51100000000E-03 0.  1.
         12    1    3    3    0    0  0.16497838345E+02 -0.30693991966E+02  0.52219364651E+01  0.35235896942E+02  0.00000000000E+00 0. -1.
</event>
<event>
 7    1  0.3276565E-015  0.9000774E+02  0.7816164E-02  0.1186339E+00
        -11   -1    0    0    0    0  0.00000000000E+00  0.00000000000E+00  0.45593999997E+02  0.45594000000E+02  0.51100000000E-03 0. -1.
         11   -1    0    0    0    0 -0.00000000000E+00 -0.00000000000E+00 -0.45593999997E+02  0.45594000000E+02  0.51100000000E-03 0.  1.
    9900012    2    1    2    0    0  0.47502261371E+00 -0.32506948397E+00 -0.10303912325E+01  0.90007736154E+02  0.89999997472E+02 0.  0.
         12    1    1    2    0    0 -0.47502261371E+00  0.32506948397E+00  0.10303912325E+01  0.11802638455E+01  0.00000000000E+00 0. -1.
         11    1    3    3    0    0  0.65110192154E+01 -0.51668644083E+01 -0.39525974171E+01  0.92039603237E+01  0.51100000000E-03 0. -1.
        -11    1    3    3    0    0 -0.30123988777E+02 -0.13040217060E+02 -0.23865980549E+02  0.40584319492E+02  0.51100000000E-03 0.  1.
         12    1    3    3    0    0  0.24087992176E+02  0.17882011985E+02  0.26788186734E+02  0.40219456338E+02  0.00000000000E+00 0. -1.
</event>
<event>
 7    1  0.3276565E-015  0.9000788E+02  0.7816164E-02  0.1186339E+00
        -11   -1    0    0    0    0  0.00000000000E+00  0.00000000000E+00  0.45593999997E+02  0.45594000000E+02  0.51100000000E-03 0. -1.
         11   -1    0    0    0    0 -0.00000000000E+00 -0.00000000000E+00 -0.45593999997E+02  0.45594000000E+02  0.51100000000E-03 0.  1.
    9900012    2    1    2    0    0  0.86450274861E-02  0.69234226055E+00 -0.95564754522E+00  0.90007883577E+02  0.90000146840E+02 0.  0.
         12    1    1    2    0    0 -0.86450274861E-02 -0.69234226055E+00  0.95564754522E+00  0.11801164235E+01  0.00000000000E+00 0. -1.
         11    1    3    3    0    0 -0.29795853649E+01  0.65163625542E+00  0.58392091955E+01  0.65877858986E+01  0.51100000000E-03 0. -1.
        -11    1    3    3    0    0  0.70929198224E+01 -0.35505929537E+02  0.17454078634E+02  0.40194843017E+02  0.51100000000E-03 0.  1.
         12    1    3    3    0    0 -0.41046894299E+01  0.35546635543E+02 -0.24248935375E+02  0.43225254661E+02  0.00000000000E+00 0. -1.
</event>
<event>
 7    1  0.3276565E-015  0.9000777E+02  0.7816164E-02  0.1186339E+00
        -11   -1    0    0    0    0  0.00000000000E+00  0.00000000000E+00  0.45593999997E+02  0.45594000000E+02  0.51100000000E-03 0.  1.
         11   -1    0    0    0    0 -0.00000000000E+00 -0.00000000000E+00 -0.45593999997E+02  0.45594000000E+02  0.51100000000E-03 0. -1.
    9900012    2    1    2    0    0 -0.71121475421E+00 -0.89798262840E+00 -0.28415473825E+00  0.90007769877E+02  0.90000031640E+02 0.  0.
         12    1    1    2    0    0  0.71121475421E+00  0.89798262840E+00  0.28415473825E+00  0.11802301228E+01  0.00000000000E+00 0. -1.
         11    1    3    3    0    0  0.21798324946E+00  0.57668232176E+01  0.42807149243E+01  0.71852826836E+01  0.51100000000E-03 0. -1.
        -11    1    3    3    0    0 -0.37768811653E+02 -0.23625420904E+01  0.15216287310E+02  0.40787254609E+02  0.51100000000E-03 0.  1.
         12    1    3    3    0    0  0.36839613649E+02 -0.43022637556E+01 -0.19781156973E+02  0.42035232584E+02  0.00000000000E+00 0. -1.
</event>
<event>
 7    1  0.3276565E-015  0.9000776E+02  0.7816164E-02  0.1186339E+00
        -11   -1    0    0    0    0  0.00000000000E+00  0.00000000000E+00  0.45593999997E+02  0.45594000000E+02  0.51100000000E-03 0.  1.
         11   -1    0    0    0    0 -0.00000000000E+00 -0.00000000000E+00 -0.45593999997E+02  0.45594000000E+02  0.51100000000E-03 0. -1.
    9900012    2    1    2    0    0 -0.82233363398E+00 -0.43673639713E+00  0.72525838270E+00  0.90007758072E+02  0.90000019679E+02 0.  0.
         12    1    1    2    0    0  0.82233363398E+00  0.43673639713E+00 -0.72525838270E+00  0.11802419277E+01  0.00000000000E+00 0. -1.
         11    1    3    3    0    0 -0.25934322001E+02 -0.24210634315E+02  0.26176805040E+00  0.35479746255E+02  0.51100000000E-03 0. -1.
        -11    1    3    3    0    0 -0.78124416783E+01 -0.62198229509E+01 -0.93036954136E-01  0.99864457468E+01  0.51100000000E-03 0.  1.
        -12    1    3    3    0    0  0.32924430045E+02  0.29993720869E+02  0.55652728643E+00  0.44541566070E+02  0.00000000000E+00 0.  1.
</event>
<event>
 7    1  0.3276565E-015  0.9000769E+02  0.7816164E-02  0.1186339E+00
        -11   -1    0    0    0    0  0.00000000000E+00  0.00000000000E+00  0.45593999997E+02  0.45594000000E+02  0.51100000000E-03 0.  1.
         11   -1    0    0    0    0 -0.00000000000E+00 -0.00000000000E+00 -0.45593999997E+02  0.45594000000E+02  0.51100000000E-03 0. -1.
    9900012    2    1    2    0    0 -0.34759352011E+00 -0.11233638736E+01  0.10179113170E+00  0.90007691107E+02  0.89999951830E+02 0.  0.
         12    1    1    2    0    0  0.34759352011E+00  0.11233638736E+01 -0.10179113170E+00  0.11803088927E+01  0.00000000000E+00 0. -1.
         11    1    3    3    0    0 -0.12541826346E+02  0.16544133034E+02 -0.24563872365E+01  0.20905491730E+02  0.51100000000E-03 0. -1.
        -11    1    3    3    0    0 -0.21225524519E+02 -0.15665319606E+02  0.18300027173E+02  0.32106325300E+02  0.51100000000E-03 0.  1.
         12    1    3    3    0    0  0.33419757345E+02 -0.20021773023E+01 -0.15741848805E+02  0.36995874077E+02  0.00000000000E+00 0. -1.
</event>
<event>
 7    1  0.3276565E-015  0.9000750E+02  0.7816164E-02  0.1186340E+00
        -11   -1    0    0    0    0  0.00000000000E+00  0.00000000000E+00  0.45593999997E+02  0.45594000000E+02  0.51100000000E-03 0.  1.
         11   -1    0    0    0    0 -0.00000000000E+00 -0.00000000000E+00 -0.45593999997E+02  0.45594000000E+02  0.51100000000E-03 0. -1.
    9900012    2    1    2    0    0  0.37628877893E+00 -0.98609608773E+00  0.52877583730E+00  0.90007498994E+02  0.89999757180E+02 0.  0.
         12    1    1    2    0    0 -0.37628877893E+00  0.98609608773E+00 -0.52877583730E+00  0.11805010061E+01  0.00000000000E+00 0. -1.
         11    1    3    3    0    0 -0.10802778482E+02  0.22283993672E+02 -0.29462268361E+02  0.38487681850E+02  0.51100000000E-03 0. -1.
        -11    1    3    3    0    0  0.76960400257E+01  0.60520774173E+01  0.52533773535E+00  0.98047260614E+01  0.51100000000E-03 0.  1.
        -12    1    3    3    0    0  0.34830272349E+01 -0.29322167177E+02  0.29465706463E+02  0.41715091083E+02  0.00000000000E+00 0.  1.
</event>
<event>
 7    1  0.3276565E-015  0.9000858E+02  0.7816164E-02  0.1186337E+00
        -11   -1    0    0    0    0  0.00000000000E+00  0.00000000000E+00  0.45593999997E+02  0.45594000000E+02  0.51100000000E-03 0.  1.
         11   -1    0    0    0    0 -0.00000000000E+00 -0.00000000000E+00 -0.45593999997E+02  0.45594000000E+02  0.51100000000E-03 0. -1.
    9900012    2    1    2    0    0 -0.98573539080E+00  0.59607006726E+00  0.25309545130E+00  0.90008580188E+02  0.90000852642E+02 0.  0.
         12    1    1    2    0    0  0.98573539080E+00 -0.59607006726E+00 -0.25309545130E+00  0.11794198121E+01  0.00000000000E+00 0. -1.
         11    1    3    3    0    0  0.31520689857E+02 -0.41056757003E+01 -0.10939305766E+02  0.33616645772E+02  0.51100000000E-03 0. -1.
        -11    1    3    3    0    0  0.87380973304E+01  0.18723126214E-01 -0.68773278946E+01  0.11119907137E+02  0.51100000000E-03 0.  1.
        -12    1    3    3    0    0 -0.41244522578E+02  0.46830226413E+01  0.18069729112E+02  0.45272027279E+02  0.00000000000E+00 0.  1.
</event>
<event>
 7    1  0.3276565E-015  0.9000793E+02  0.7816164E-02  0.1186339E+00
        -11   -1    0    0    0    0  0.00000000000E+00  0.00000000000E+00  0.45593999997E+02  0.45594000000E+02  0.51100000000E-03 0.  1.
         11   -1    0    0    0    0 -0.00000000000E+00 -0.00000000000E+00 -0.45593999997E+02  0.45594000000E+02  0.51100000000E-03 0. -1.
    9900012    2    1    2    0    0 -0.59101949118E+00  0.97822449931E+00 -0.29381786065E+00  0.90007933839E+02  0.90000197765E+02 0.  0.
         12    1    1    2    0    0  0.59101949118E+00 -0.97822449931E+00  0.29381786065E+00  0.11800661614E+01  0.00000000000E+00 0. -1.
         11    1    3    3    0    0 -0.40801234616E+01  0.30267354647E+02 -0.18836888870E+02  0.35882984092E+02  0.51100000000E-03 0. -1.
        -11    1    3    3    0    0  0.16204655782E+01  0.36223759769E+01 -0.98493748795E+01  0.10618742966E+02  0.51100000000E-03 0.  1.
        -12    1    3    3    0    0  0.18686383922E+01 -0.32911506125E+02  0.28392445889E+02  0.43506206780E+02  0.00000000000E+00 0.  1.
</event>
<event>
 7    1  0.3276565E-015  0.9000774E+02  0.7816164E-02  0.1186339E+00
        -11   -1    0    0    0    0  0.00000000000E+00  0.00000000000E+00  0.45593999997E+02  0.45594000000E+02  0.51100000000E-03 0.  1.
         11   -1    0    0    0    0 -0.00000000000E+00 -0.00000000000E+00 -0.45593999997E+02  0.45594000000E+02  0.51100000000E-03 0. -1.
    9900012    2    1    2    0    0 -0.31412429484E+00  0.10189343586E+01  0.50608156910E+00  0.90007737379E+02  0.89999998713E+02 0.  0.
         12    1    1    2    0    0  0.31412429484E+00 -0.10189343586E+01 -0.50608156910E+00  0.11802626209E+01  0.00000000000E+00 0. -1.
         11    1    3    3    0    0  0.91250527060E+01 -0.54919111415E+01  0.21795842038E+01  0.10870982588E+02  0.51100000000E-03 0. -1.
        -11    1    3    3    0    0  0.19024080783E+02  0.25811746988E+02 -0.22279880699E+02  0.39045550533E+02  0.51100000000E-03 0.  1.
         12    1    3    3    0    0 -0.28463257784E+02 -0.19300901488E+02  0.20606378064E+02  0.40091204258E+02  0.00000000000E+00 0. -1.
</event>
<event>
 7    1  0.3276565E-015  0.9000772E+02  0.7816164E-02  0.1186339E+00
        -11   -1    0    0    0    0  0.00000000000E+00  0.00000000000E+00  0.45593999997E+02  0.45594000000E+02  0.51100000000E-03 0.  1.
         11   -1    0    0    0    0 -0.00000000000E+00 -0.00000000000E+00 -0.45593999997E+02  0.45594000000E+02  0.51100000000E-03 0. -1.
    9900012    2    1    2    0    0 -0.80551025609E+00  0.76053048847E+00  0.40719436433E+00  0.90007720098E+02  0.89999981203E+02 0.  0.
         12    1    1    2    0    0  0.80551025609E+00 -0.76053048847E+00 -0.40719436433E+00  0.11802799019E+01  0.00000000000E+00 0. -1.
         11    1    3    3    0    0 -0.11092645167E+02 -0.12317715377E+02 -0.37494619167E+02  0.40995357733E+02  0.51100000000E-03 0. -1.
        -11    1    3    3    0    0  0.68976946587E+01  0.54591263129E+01 -0.13366462146E+01  0.88975769212E+01  0.51100000000E-03 0.  1.
        -12    1    3    3    0    0  0.33894402526E+01  0.76191195529E+01  0.39238459746E+02  0.40114785444E+02  0.00000000000E+00 0.  1.
</event>
<event>
 7    1  0.3276565E-015  0.9000749E+02  0.7816164E-02  0.1186340E+00
        -11   -1    0    0    0    0  0.00000000000E+00  0.00000000000E+00  0.45593999997E+02  0.45594000000E+02  0.51100000000E-03 0. -1.
         11   -1    0    0    0    0 -0.00000000000E+00 -0.00000000000E+00 -0.45593999997E+02  0.45594000000E+02  0.51100000000E-03 0.  1.
    9900012    2    1    2    0    0 -0.10818025689E+01 -0.21632094544E+00  0.42012743341E+00  0.90007492224E+02  0.89999750321E+02 0.  0.
         12    1    1    2    0    0  0.10818025689E+01  0.21632094544E+00 -0.42012743341E+00  0.11805077762E+01  0.00000000000E+00 0. -1.
         11    1    3    3    0    0  0.82526736458E+01  0.54384566175E+01  0.77808327132E+01  0.12578743604E+02  0.51100000000E-03 0. -1.
        -11    1    3    3    0    0 -0.29802264918E+01 -0.39895317966E+02  0.53370873807E+01  0.40360904940E+02  0.51100000000E-03 0.  1.
         12    1    3    3    0    0 -0.63542497228E+01  0.34240540403E+02 -0.12697792660E+02  0.37067843680E+02  0.00000000000E+00 0. -1.
</event>
<event>
 7    1  0.3276565E-015  0.9000776E+02  0.7816164E-02  0.1186339E+00
        -11   -1    0    0    0    0  0.00000000000E+00  0.00000000000E+00  0.45593999997E+02  0.45594000000E+02  0.51100000000E-03 0. -1.
         11   -1    0    0    0    0 -0.00000000000E+00 -0.00000000000E+00 -0.45593999997E+02  0.45594000000E+02  0.51100000000E-03 0.  1.
    9900012    2    1    2    0    0  0.85697275883E+00 -0.16794409317E+00 -0.79395548951E+00  0.90007757293E+02  0.90000018889E+02 0.  0.
         12    1    1    2    0    0 -0.85697275883E+00  0.16794409317E+00  0.79395548951E+00  0.11802427069E+01  0.00000000000E+00 0. -1.
         11    1    3    3    0    0 -0.31824865557E+01  0.62779479156E+01  0.27340805553E+01  0.75508971290E+01  0.51100000000E-03 0. -1.
        -11    1    3    3    0    0 -0.33473225157E+02  0.17498931921E+02  0.46995362995E+00  0.37774201215E+02  0.51100000000E-03 0.  1.
         12    1    3    3    0    0  0.37512684472E+02 -0.23944823930E+02 -0.39979896748E+01  0.44682658949E+02  0.00000000000E+00 0. -1.
</event>
<event>
 7    1  0.3276565E-015  0.9000783E+02  0.7816164E-02  0.1186339E+00
        -11   -1    0    0    0    0  0.00000000000E+00  0.00000000000E+00  0.45593999997E+02  0.45594000000E+02  0.51100000000E-03 0.  1.
         11   -1    0    0    0    0 -0.00000000000E+00 -0.00000000000E+00 -0.45593999997E+02  0.45594000000E+02  0.51100000000E-03 0. -1.
    9900012    2    1    2    0    0 -0.76175429105E+00  0.41335239580E+00  0.80104272731E+00  0.90007830837E+02  0.90000093404E+02 0.  0.
         12    1    1    2    0    0  0.76175429105E+00 -0.41335239580E+00 -0.80104272731E+00  0.11801691633E+01  0.00000000000E+00 0. -1.
         11    1    3    3    0    0 -0.29955875547E+02  0.40396413803E+01  0.30489361418E+01  0.30380408064E+02  0.51100000000E-03 0. -1.
        -11    1    3    3    0    0 -0.87331356462E+01  0.29447332220E+00 -0.16702517066E+02  0.18850157807E+02  0.51100000000E-03 0.  1.
        -12    1    3    3    0    0  0.37927256902E+02 -0.39207623067E+01  0.14454623652E+02  0.40777264966E+02  0.00000000000E+00 0.  1.
</event>
<event>
 7    1  0.3276565E-015  0.9000772E+02  0.7816164E-02  0.1186339E+00
        -11   -1    0    0    0    0  0.00000000000E+00  0.00000000000E+00  0.45593999997E+02  0.45594000000E+02  0.51100000000E-03 0.  1.
         11   -1    0    0    0    0 -0.00000000000E+00 -0.00000000000E+00 -0.45593999997E+02  0.45594000000E+02  0.51100000000E-03 0. -1.
    9900012    2    1    2    0    0  0.13200173690E+00 -0.72434094741E+00  0.92247403597E+00  0.90007723501E+02  0.89999984651E+02 0.  0.
         12    1    1    2    0    0 -0.13200173690E+00  0.72434094741E+00 -0.92247403597E+00  0.11802764988E+01  0.00000000000E+00 0. -1.
         11    1    3    3    0    0  0.37626438724E+01 -0.19244402632E+01  0.79084658232E+01  0.89668718724E+01  0.51100000000E-03 0. -1.
        -11    1    3    3    0    0  0.15168890517E+02  0.32697842493E+02  0.14130107891E+02  0.38715682771E+02  0.51100000000E-03 0.  1.
         12    1    3    3    0    0 -0.18799532652E+02 -0.31497743177E+02 -0.21116099678E+02  0.42325168857E+02  0.00000000000E+00 0. -1.
</event>
<event>
 7    1  0.3276565E-015  0.9000788E+02  0.7816164E-02  0.1186339E+00
        -11   -1    0    0    0    0  0.00000000000E+00  0.00000000000E+00  0.45593999997E+02  0.45594000000E+02  0.51100000000E-03 0.  1.
         11   -1    0    0    0    0 -0.00000000000E+00 -0.00000000000E+00 -0.45593999997E+02  0.45594000000E+02  0.51100000000E-03 0. -1.
    9900012    2    1    2    0    0  0.37387415203E+00  0.11128129001E+00 -0.11137897048E+01  0.90007875891E+02  0.90000139052E+02 0.  0.
         12    1    1    2    0    0 -0.37387415203E+00 -0.11128129001E+00  0.11137897048E+01  0.11801241094E+01  0.00000000000E+00 0. -1.
         11    1    3    3    0    0  0.15314529997E+02  0.20754616071E+02 -0.28599157576E+02  0.38512345184E+02  0.51100000000E-03 0. -1.
        -11    1    3    3    0    0 -0.10462587673E+02  0.14644802182E+01 -0.52057659177E+01  0.11777539733E+02  0.51100000000E-03 0.  1.
        -12    1    3    3    0    0 -0.44780681722E+01 -0.22107814999E+02  0.32691133789E+02  0.39717990973E+02  0.00000000000E+00 0.  1.
</event>
<event>
 7    1  0.3276565E-015  0.9000770E+02  0.7816164E-02  0.1186339E+00
        -11   -1    0    0    0    0  0.00000000000E+00  0.00000000000E+00  0.45593999997E+02  0.45594000000E+02  0.51100000000E-03 0.  1.
         11   -1    0    0    0    0 -0.00000000000E+00 -0.00000000000E+00 -0.45593999997E+02  0.45594000000E+02  0.51100000000E-03 0. -1.
    9900012    2    1    2    0    0  0.15181932749E+00 -0.10646756984E+01  0.48633982207E+00  0.90007699244E+02  0.89999960075E+02 0.  0.
         12    1    1    2    0    0 -0.15181932749E+00  0.10646756984E+01 -0.48633982207E+00  0.11803007555E+01  0.00000000000E+00 0. -1.
         11    1    3    3    0    0  0.66615392669E+01  0.36601171738E+01  0.29209997593E+01  0.81427761228E+01  0.51100000000E-03 0. -1.
        -11    1    3    3    0    0  0.90056352416E+00  0.15968255237E+02  0.34984956158E+02  0.38467432298E+02  0.51100000000E-03 0.  1.
         12    1    3    3    0    0 -0.74102834636E+01 -0.20693048110E+02 -0.37419616095E+02  0.43397490824E+02  0.00000000000E+00 0. -1.
</event>
<event>
 7    1  0.3276565E-015  0.9000768E+02  0.7816164E-02  0.1186339E+00
        -11   -1    0    0    0    0  0.00000000000E+00  0.00000000000E+00  0.45593999997E+02  0.45594000000E+02  0.51100000000E-03 0. -1.
         11   -1    0    0    0    0 -0.00000000000E+00 -0.00000000000E+00 -0.45593999997E+02  0.45594000000E+02  0.51100000000E-03 0.  1.
    9900012    2    1    2    0    0  0.35971982215E-01  0.11703567436E+01 -0.14876907654E+00  0.90007677532E+02  0.89999938075E+02 0.  0.
         12    1    1    2    0    0 -0.35971982215E-01 -0.11703567436E+01  0.14876907654E+00  0.11803224682E+01  0.00000000000E+00 0. -1.
         11    1    3    3    0    0 -0.93608204839E+01  0.35537966738E+01 -0.10850155436E+02  0.14764156060E+02  0.51100000000E-03 0. -1.
        -11    1    3    3    0    0  0.39744761436E+02  0.33131096929E+01  0.17617539944E+02  0.43600464119E+02  0.51100000000E-03 0.  1.
         12    1    3    3    0    0 -0.30347968970E+02 -0.56965496231E+01 -0.69161535843E+01  0.31643057352E+02  0.00000000000E+00 0. -1.
</event>
<event>
 7    1  0.3276565E-015  0.9000777E+02  0.7816164E-02  0.1186339E+00
        -11   -1    0    0    0    0  0.00000000000E+00  0.00000000000E+00  0.45593999997E+02  0.45594000000E+02  0.51100000000E-03 0.  1.
         11   -1    0    0    0    0 -0.00000000000E+00 -0.00000000000E+00 -0.45593999997E+02  0.45594000000E+02  0.51100000000E-03 0. -1.
    9900012    2    1    2    0    0 -0.14787510963E+00  0.11202498461E+01 -0.34074094618E+00  0.90007774954E+02  0.90000036784E+02 0.  0.
         12    1    1    2    0    0  0.14787510963E+00 -0.11202498461E+01  0.34074094618E+00  0.11802250455E+01  0.00000000000E+00 0. -1.
         11    1    3    3    0    0 -0.22412385909E+02 -0.65475554664E+01 -0.32403172446E+02  0.39939342878E+02  0.51100000000E-03 0. -1.
        -11    1    3    3    0    0  0.45528667300E+00 -0.93112301967E+01  0.26158466853E+01  0.96824040338E+01  0.51100000000E-03 0.  1.
        -12    1    3    3    0    0  0.21809224127E+02  0.16979035509E+02  0.29446584814E+02  0.40386028043E+02  0.00000000000E+00 0.  1.
</event>
<event>
 7    1  0.3276565E-015  0.9000771E+02  0.7816164E-02  0.1186339E+00
        -11   -1    0    0    0    0  0.00000000000E+00  0.00000000000E+00  0.45593999997E+02  0.45594000000E+02  0.51100000000E-03 0. -1.
         11   -1    0    0    0    0 -0.00000000000E+00 -0.00000000000E+00 -0.45593999997E+02  0.45594000000E+02  0.51100000000E-03 0.  1.
    9900012    2    1    2    0    0  0.10649087636E+01 -0.19381622926E+00  0.47061840842E+00  0.90007713132E+02  0.89999974145E+02 0.  0.
         12    1    1    2    0    0 -0.10649087636E+01  0.19381622926E+00 -0.47061840842E+00  0.11802868685E+01  0.00000000000E+00 0. -1.
         11    1    3    3    0    0  0.72250245213E+01  0.10130751904E+01 -0.64655482466E+01  0.97483647380E+01  0.51100000000E-03 0. -1.
        -11    1    3    3    0    0  0.10277345086E+02 -0.28151469063E+01 -0.34258337995E+02  0.35877327055E+02  0.51100000000E-03 0.  1.
         12    1    3    3    0    0 -0.16437460844E+02  0.16082554867E+01  0.41194504651E+02  0.44382021339E+02  0.00000000000E+00 0. -1.
</event>
<event>
 7    1  0.3276565E-015  0.9000779E+02  0.7816164E-02  0.1186339E+00
        -11   -1    0    0    0    0  0.00000000000E+00  0.00000000000E+00  0.45593999997E+02  0.45594000000E+02  0.51100000000E-03 0.  1.
         11   -1    0    0    0    0 -0.00000000000E+00 -0.00000000000E+00 -0.45593999997E+02  0.45594000000E+02  0.51100000000E-03 0. -1.
    9900012    2    1    2    0    0 -0.73239496968E+00 -0.78247095376E+00  0.49419516585E+00  0.90007791524E+02  0.90000053572E+02 0.  0.
         12    1    1    2    0    0  0.73239496968E+00  0.78247095376E+00 -0.49419516585E+00  0.11802084761E+01  0.00000000000E+00 0. -1.
         11    1    3    3    0    0 -0.97328086594E+01  0.74317883404E+01 -0.38033887169E+01  0.12822823727E+02  0.51100000000E-03 0. -1.
        -11    1    3    3    0    0 -0.11988526709E+02 -0.37570532962E+02  0.99110357237E+01  0.40663230923E+02  0.51100000000E-03 0.  1.
         12    1    3    3    0    0  0.20988940399E+02  0.29356273668E+02 -0.56134518409E+01  0.36521736874E+02  0.00000000000E+00 0. -1.
</event>
<event>
 7    1  0.3276565E-015  0.9000756E+02  0.7816164E-02  0.1186339E+00
        -11   -1    0    0    0    0  0.00000000000E+00  0.00000000000E+00  0.45593999997E+02  0.45594000000E+02  0.51100000000E-03 0. -1.
         11   -1    0    0    0    0 -0.00000000000E+00 -0.00000000000E+00 -0.45593999997E+02  0.45594000000E+02  0.51100000000E-03 0.  1.
    9900012    2    1    2    0    0 -0.92600689034E+00 -0.33230913970E+00 -0.65231193110E+00  0.90007564072E+02  0.89999823117E+02 0.  0.
         12    1    1    2    0    0  0.92600689034E+00  0.33230913970E+00  0.65231193110E+00  0.11804359283E+01  0.00000000000E+00 0. -1.
         11    1    3    3    0    0  0.32375688865E+02  0.66457255396E+01  0.49017959943E+01  0.33412250772E+02  0.51100000000E-03 0. -1.
        -11    1    3    3    0    0  0.75239162747E+01 -0.12985657174E+02 -0.25272465889E+01  0.15219184733E+02  0.51100000000E-03 0.  1.
        -12    1    3    3    0    0 -0.40825612030E+02  0.60076224947E+01 -0.30268613365E+01  0.41376128567E+02  0.00000000000E+00 0.  1.
</event>
<event>
 7    1  0.3276565E-015  0.9000783E+02  0.7816164E-02  0.1186339E+00
        -11   -1    0    0    0    0  0.00000000000E+00  0.00000000000E+00  0.45593999997E+02  0.45594000000E+02  0.51100000000E-03 0.  1.
         11   -1    0    0    0    0 -0.00000000000E+00 -0.00000000000E+00 -0.45593999997E+02  0.45594000000E+02  0.51100000000E-03 0. -1.
    9900012    2    1    2    0    0  0.50341392986E+00  0.90517290492E+00 -0.56572407270E+00  0.90007827428E+02  0.90000089950E+02 0.  0.
         12    1    1    2    0    0 -0.50341392986E+00 -0.90517290492E+00  0.56572407270E+00  0.11801725717E+01  0.00000000000E+00 0. -1.
         11    1    3    3    0    0 -0.87151547213E+01  0.35319325688E+00  0.30787721236E+01  0.92497300146E+01  0.51100000000E-03 0. -1.
        -11    1    3    3    0    0 -0.18944061534E+02  0.27474834089E+02  0.16129439420E+02  0.37066194732E+02  0.51100000000E-03 0.  1.
         12    1    3    3    0    0  0.28162630185E+02 -0.26922854441E+02 -0.19773935616E+02  0.43691902682E+02  0.00000000000E+00 0. -1.
</event>
<event>
 7    1  0.3276565E-015  0.9000775E+02  0.7816164E-02  0.1186339E+00
        -11   -1    0    0    0    0  0.00000000000E+00  0.00000000000E+00  0.45593999997E+02  0.45594000000E+02  0.51100000000E-03 0. -1.
         11   -1    0    0    0    0 -0.00000000000E+00 -0.00000000000E+00 -0.45593999997E+02  0.45594000000E+02  0.51100000000E-03 0.  1.
    9900012    2    1    2    0    0  0.50641439868E+00  0.98902768110E+00 -0.39795169389E+00  0.90007747125E+02  0.90000008588E+02 0.  0.
         12    1    1    2    0    0 -0.50641439868E+00 -0.98902768110E+00  0.39795169389E+00  0.11802528745E+01  0.00000000000E+00 0. -1.
         11    1    3    3    0    0  0.52892377037E+01 -0.34739948030E+02 -0.12502313583E+01  0.35162524131E+02  0.51100000000E-03 0. -1.
        -11    1    3    3    0    0  0.48549899226E+01 -0.76525657130E+01  0.47560092796E+01  0.10234857775E+02  0.51100000000E-03 0.  1.
        -12    1    3    3    0    0 -0.96378132276E+01  0.43381541424E+02 -0.39037296152E+01  0.44610365219E+02  0.00000000000E+00 0.  1.
</event>
<event>
 7    1  0.3276565E-015  0.9000779E+02  0.7816164E-02  0.1186339E+00
        -11   -1    0    0    0    0  0.00000000000E+00  0.00000000000E+00  0.45593999997E+02  0.45594000000E+02  0.51100000000E-03 0. -1.
         11   -1    0    0    0    0 -0.00000000000E+00 -0.00000000000E+00 -0.45593999997E+02  0.45594000000E+02  0.51100000000E-03 0.  1.
    9900012    2    1    2    0    0 -0.31708371325E+00  0.10097713402E+00 -0.11323273852E+01  0.90007786557E+02  0.90000048540E+02 0.  0.
         12    1    1    2    0    0  0.31708371325E+00 -0.10097713402E+00  0.11323273852E+01  0.11802134426E+01  0.00000000000E+00 0. -1.
         11    1    3    3    0    0  0.18287035213E+02 -0.17821311187E+02  0.25796367677E+02  0.36296933409E+02  0.51100000000E-03 0. -1.
        -11    1    3    3    0    0  0.26818077031E+01  0.89780295193E+01  0.76745974523E+01  0.12111835242E+02  0.51100000000E-03 0.  1.
        -12    1    3    3    0    0 -0.21285926629E+02  0.89442588022E+01 -0.34603292514E+02  0.41599017907E+02  0.00000000000E+00 0.  1.
</event>
<event>
 7    1  0.3276565E-015  0.9000772E+02  0.7816164E-02  0.1186339E+00
        -11   -1    0    0    0    0  0.00000000000E+00  0.00000000000E+00  0.45593999997E+02  0.45594000000E+02  0.51100000000E-03 0.  1.
         11   -1    0    0    0    0 -0.00000000000E+00 -0.00000000000E+00 -0.45593999997E+02  0.45594000000E+02  0.51100000000E-03 0. -1.
    9900012    2    1    2    0    0 -0.84171691237E+00 -0.38536443344E+00 -0.73217400821E+00  0.90007715337E+02  0.89999976380E+02 0.  0.
         12    1    1    2    0    0  0.84171691237E+00  0.38536443344E+00  0.73217400821E+00  0.11802846629E+01  0.00000000000E+00 0. -1.
         11    1    3    3    0    0  0.24382238767E+02 -0.10772285126E+02 -0.71673902397E+01  0.27602666125E+02  0.51100000000E-03 0. -1.
        -11    1    3    3    0    0  0.11946668745E+02 -0.13231881179E+02 -0.43608626372E+00  0.17832435199E+02  0.51100000000E-03 0.  1.
        -12    1    3    3    0    0 -0.37170624424E+02  0.23618801872E+02  0.68713024952E+01  0.44572614013E+02  0.00000000000E+00 0.  1.
</event>
<event>
 7    1  0.3276565E-015  0.9000768E+02  0.7816164E-02  0.1186339E+00
        -11   -1    0    0    0    0  0.00000000000E+00  0.00000000000E+00  0.45593999997E+02  0.45594000000E+02  0.51100000000E-03 0.  1.
         11   -1    0    0    0    0 -0.00000000000E+00 -0.00000000000E+00 -0.45593999997E+02  0.45594000000E+02  0.51100000000E-03 0. -1.
    9900012    2    1    2    0    0  0.10692030794E+01  0.34592682439E+00  0.36096090599E+00  0.90007680819E+02  0.89999941406E+02 0.  0.
         12    1    1    2    0    0 -0.10692030794E+01 -0.34592682439E+00 -0.36096090599E+00  0.11803191808E+01  0.00000000000E+00 0. -1.
         11    1    3    3    0    0  0.44554808134E+01 -0.44531048497E+01 -0.76724514523E+01  0.99271326993E+01  0.51100000000E-03 0. -1.
        -11    1    3    3    0    0 -0.29038808777E+02  0.31301390345E+02  0.62657060740E+01  0.43154241108E+02  0.51100000000E-03 0.  1.
         12    1    3    3    0    0  0.25652531043E+02 -0.26502358671E+02  0.17677062843E+01  0.36926307012E+02  0.00000000000E+00 0. -1.
</event>
<event>
 7    1  0.3276565E-015  0.9000822E+02  0.7816164E-02  0.1186338E+00
        -11   -1    0    0    0    0  0.00000000000E+00  0.00000000000E+00  0.45593999997E+02  0.45594000000E+02  0.51100000000E-03 0. -1.
         11   -1    0    0    0    0 -0.00000000000E+00 -0.00000000000E+00 -0.45593999997E+02  0.45594000000E+02  0.51100000000E-03 0.  1.
    9900012    2    1    2    0    0 -0.73853290717E+00  0.91974369033E+00 -0.22668885681E-01  0.90008223246E+02  0.90000490992E+02 0.  0.
         12    1    1    2    0    0  0.73853290717E+00 -0.91974369033E+00  0.22668885681E-01  0.11797767540E+01  0.00000000000E+00 0. -1.
         11    1    3    3    0    0  0.63492953495E+01  0.35376913270E+00  0.82275133763E+01  0.10398590320E+02  0.51100000000E-03 0. -1.
        -11    1    3    3    0    0  0.20225463942E+02 -0.24853849216E+02 -0.23046912327E+02  0.39470791487E+02  0.51100000000E-03 0.  1.
         12    1    3    3    0    0 -0.27313292199E+02  0.25419823774E+02  0.14796730065E+02  0.40138841439E+02  0.00000000000E+00 0. -1.
</event>
<event>
 7    1  0.3276565E-015  0.9000766E+02  0.7816164E-02  0.1186339E+00
        -11   -1    0    0    0    0  0.00000000000E+00  0.00000000000E+00  0.45593999997E+02  0.45594000000E+02  0.51100000000E-03 0.  1.
         11   -1    0    0    0    0 -0.00000000000E+00 -0.00000000000E+00 -0.45593999997E+02  0.45594000000E+02  0.51100000000E-03 0. -1.
    9900012    2    1    2    0    0  0.14842507449E+00  0.10467727650E+01 -0.52481806937E+00  0.90007662239E+02  0.89999922580E+02 0.  0.
         12    1    1    2    0    0 -0.14842507449E+00 -0.10467727650E+01  0.52481806937E+00  0.11803377611E+01  0.00000000000E+00 0. -1.
         11    1    3    3    0    0 -0.56271707994E+01  0.82134781309E+01 -0.12106981030E+02  0.15674988489E+02  0.51100000000E-03 0. -1.
        -11    1    3    3    0    0  0.72705214748E+01  0.32272369315E+02 -0.40945855934E+00  0.33083741631E+02  0.51100000000E-03 0.  1.
        -12    1    3    3    0    0 -0.14949256009E+01 -0.39439074681E+02  0.11991621520E+02  0.41248932119E+02  0.00000000000E+00 0.  1.
</event>
<event>
 7    1  0.3276565E-015  0.9000772E+02  0.7816164E-02  0.1186339E+00
        -11   -1    0    0    0    0  0.00000000000E+00  0.00000000000E+00  0.45593999997E+02  0.45594000000E+02  0.51100000000E-03 0.  1.
         11   -1    0    0    0    0 -0.00000000000E+00 -0.00000000000E+00 -0.45593999997E+02  0.45594000000E+02  0.51100000000E-03 0. -1.
    9900012    2    1    2    0    0 -0.10575993041E+01  0.50819414921E+00  0.12761805855E+00  0.90007718699E+02  0.89999979785E+02 0.  0.
         12    1    1    2    0    0  0.10575993041E+01 -0.50819414921E+00 -0.12761805855E+00  0.11802813013E+01  0.00000000000E+00 0. -1.
         11    1    3    3    0    0 -0.13208672087E+02 -0.35526385156E+02 -0.25685564718E+01  0.37989347759E+02  0.51100000000E-03 0. -1.
        -11    1    3    3    0    0 -0.80493217618E+01 -0.23697061937E+01  0.19715665244E+01  0.86194061913E+01  0.51100000000E-03 0.  1.
        -12    1    3    3    0    0  0.20200394545E+02  0.38404285499E+02  0.72460800592E+00  0.43398964748E+02  0.00000000000E+00 0.  1.
</event>
<event>
 7    1  0.3276565E-015  0.9000773E+02  0.7816164E-02  0.1186339E+00
        -11   -1    0    0    0    0  0.00000000000E+00  0.00000000000E+00  0.45593999997E+02  0.45594000000E+02  0.51100000000E-03 0.  1.
         11   -1    0    0    0    0 -0.00000000000E+00 -0.00000000000E+00 -0.45593999997E+02  0.45594000000E+02  0.51100000000E-03 0. -1.
    9900012    2    1    2    0    0 -0.81999801015E+00  0.26394558443E+00 -0.80682498664E+00  0.90007732841E+02  0.89999994114E+02 0.  0.
         12    1    1    2    0    0  0.81999801015E+00 -0.26394558443E+00  0.80682498664E+00  0.11802671593E+01  0.00000000000E+00 0. -1.
         11    1    3    3    0    0  0.41451074673E+00  0.34153455184E+02 -0.91295069736E+01  0.35355031014E+02  0.51100000000E-03 0. -1.
        -11    1    3    3    0    0  0.25815136906E+01  0.71495163164E+01 -0.73345033392E+01  0.10562894300E+02  0.51100000000E-03 0.  1.
        -12    1    3    3    0    0 -0.38160224475E+01 -0.41039025916E+02  0.15657185326E+02  0.44089807527E+02  0.00000000000E+00 0.  1.
</event>
<event>
 7    1  0.3276565E-015  0.9000762E+02  0.7816164E-02  0.1186339E+00
        -11   -1    0    0    0    0  0.00000000000E+00  0.00000000000E+00  0.45593999997E+02  0.45594000000E+02  0.51100000000E-03 0.  1.
         11   -1    0    0    0    0 -0.00000000000E+00 -0.00000000000E+00 -0.45593999997E+02  0.45594000000E+02  0.51100000000E-03 0. -1.
    9900012    2    1    2    0    0  0.93940188227E+00  0.44679440346E+00  0.55785853539E+00  0.90007615622E+02  0.89999875348E+02 0.  0.
         12    1    1    2    0    0 -0.93940188227E+00 -0.44679440346E+00 -0.55785853539E+00  0.11803843784E+01  0.00000000000E+00 0. -1.
         11    1    3    3    0    0  0.27323718176E+02 -0.18088362534E+02 -0.18495301607E+02  0.37627790474E+02  0.51100000000E-03 0. -1.
        -11    1    3    3    0    0 -0.13842741617E+02 -0.98678611158E+01  0.11185719060E+02  0.20349852324E+02  0.51100000000E-03 0.  1.
        -12    1    3    3    0    0 -0.12541574677E+02  0.28403018053E+02  0.78674410821E+01  0.32029972824E+02  0.00000000000E+00 0.  1.
</event>
<event>
 7    1  0.3276565E-015  0.9000774E+02  0.7816164E-02  0.1186339E+00
        -11   -1    0    0    0    0  0.00000000000E+00  0.00000000000E+00  0.45593999997E+02  0.45594000000E+02  0.51100000000E-03 0.  1.
         11   -1    0    0    0    0 -0.00000000000E+00 -0.00000000000E+00 -0.45593999997E+02  0.45594000000E+02  0.51100000000E-03 0. -1.
    9900012    2    1    2    0    0  0.37595438392E+00 -0.41672206559E+00  0.10382785835E+01  0.90007736726E+02  0.89999998051E+02 0.  0.
         12    1    1    2    0    0 -0.37595438392E+00  0.41672206559E+00 -0.10382785835E+01  0.11802632739E+01  0.00000000000E+00 0. -1.
         11    1    3    3    0    0 -0.49958842664E+01 -0.37377898418E+00 -0.82319325420E+01  0.96365597580E+01  0.51100000000E-03 0. -1.
        -11    1    3    3    0    0  0.55436394659E+01  0.39702957966E+02  0.47784301565E+01  0.40371898702E+02  0.51100000000E-03 0.  1.
         12    1    3    3    0    0 -0.17180081561E+00 -0.39745901047E+02  0.44917809690E+01  0.39999278266E+02  0.00000000000E+00 0. -1.
</event>
<event>
 7    1  0.3276565E-015  0.9000775E+02  0.7816164E-02  0.1186339E+00
        -11   -1    0    0    0    0  0.00000000000E+00  0.00000000000E+00  0.45593999997E+02  0.45594000000E+02  0.51100000000E-03 0. -1.
         11   -1    0    0    0    0 -0.00000000000E+00 -0.00000000000E+00 -0.45593999997E+02  0.45594000000E+02  0.51100000000E-03 0.  1.
    9900012    2    1    2    0    0  0.34985437482E+00  0.19888698977E+00 -0.11095168042E+01  0.90007753561E+02  0.90000015108E+02 0.  0.
         12    1    1    2    0    0 -0.34985437482E+00 -0.19888698977E+00  0.11095168042E+01  0.11802464392E+01  0.00000000000E+00 0. -1.
         11    1    3    3    0    0 -0.22781163752E+00  0.79724193342E+01  0.86285811166E+01  0.11750054491E+02  0.51100000000E-03 0. -1.
        -11    1    3    3    0    0 -0.22426008732E+02  0.20548065117E+02  0.15259267363E+02  0.34029312194E+02  0.51100000000E-03 0.  1.
         12    1    3    3    0    0  0.23003674745E+02 -0.28321597461E+02 -0.24997365283E+02  0.44228386876E+02  0.00000000000E+00 0. -1.
</event>
<event>
 7    1  0.3276565E-015  0.9000777E+02  0.7816164E-02  0.1186339E+00
        -11   -1    0    0    0    0  0.00000000000E+00  0.00000000000E+00  0.45593999997E+02  0.45594000000E+02  0.51100000000E-03 0. -1.
         11   -1    0    0    0    0 -0.00000000000E+00 -0.00000000000E+00 -0.45593999997E+02  0.45594000000E+02  0.51100000000E-03 0.  1.
    9900012    2    1    2    0    0 -0.53354116663E+00 -0.35720919227E+00 -0.99029182365E+00  0.90007770158E+02  0.90000031924E+02 0.  0.
         12    1    1    2    0    0  0.53354116663E+00  0.35720919227E+00  0.99029182365E+00  0.11802298418E+01  0.00000000000E+00 0. -1.
         11    1    3    3    0    0  0.15178089736E+01 -0.93295145065E+01  0.56172491400E+00  0.94688499908E+01  0.51100000000E-03 0. -1.
        -11    1    3    3    0    0 -0.99512227937E+01  0.39889528165E+02 -0.17717555138E+02  0.44767321258E+02  0.51100000000E-03 0.  1.
         12    1    3    3    0    0  0.78998726535E+01 -0.30917222851E+02  0.16165538400E+02  0.35771598909E+02  0.00000000000E+00 0. -1.
</event>
<event>
 7    1  0.3276565E-015  0.9000769E+02  0.7816164E-02  0.1186339E+00
        -11   -1    0    0    0    0  0.00000000000E+00  0.00000000000E+00  0.45593999997E+02  0.45594000000E+02  0.51100000000E-03 0.  1.
         11   -1    0    0    0    0 -0.00000000000E+00 -0.00000000000E+00 -0.45593999997E+02  0.45594000000E+02  0.51100000000E-03 0. -1.
    9900012    2    1    2    0    0 -0.11801244309E+01 -0.13492557668E-01 -0.16273211352E-01  0.90007686254E+02  0.89999946913E+02 0.  0.
         12    1    1    2    0    0  0.11801244309E+01  0.13492557668E-01  0.16273211352E-01  0.11803137460E+01  0.00000000000E+00 0. -1.
         11    1    3    3    0    0 -0.41177829061E+02  0.55326013987E+01 -0.43256687835E+01  0.41772415481E+02  0.51100000000E-03 0. -1.
        -11    1    3    3    0    0  0.29296685588E+01  0.79786604677E+01 -0.32497929328E+00  0.85057387995E+01  0.51100000000E-03 0.  1.
        -12    1    3    3    0    0  0.37068036072E+02 -0.13524754424E+02  0.46343748654E+01  0.39729531973E+02  0.00000000000E+00 0.  1.
</event>
<event>
 7    1  0.3276565E-015  0.9000763E+02  0.7816164E-02  0.1186339E+00
        -11   -1    0    0    0    0  0.00000000000E+00  0.00000000000E+00  0.45593999997E+02  0.45594000000E+02  0.51100000000E-03 0. -1.
         11   -1    0    0    0    0 -0.00000000000E+00 -0.00000000000E+00 -0.45593999997E+02  0.45594000000E+02  0.51100000000E-03 0.  1.
    9900012    2    1    2    0    0 -0.78051014196E+00  0.15578956229E+00 -0.87166903674E+00  0.90007629982E+02  0.89999889898E+02 0.  0.
         12    1    1    2    0    0  0.78051014196E+00 -0.15578956229E+00  0.87166903674E+00  0.11803700178E+01  0.00000000000E+00 0. -1.
         11    1    3    3    0    0 -0.22494576496E+02  0.17861817188E+02 -0.21241534830E+02  0.35724687363E+02  0.51100000000E-03 0. -1.
        -11    1    3    3    0    0  0.30012185495E+01  0.11497644690E+02 -0.32503229843E+01  0.12319405261E+02  0.51100000000E-03 0.  1.
        -12    1    3    3    0    0  0.18712847805E+02 -0.29203672317E+02  0.23620188778E+02  0.41963537358E+02  0.00000000000E+00 0.  1.
</event>
<event>
 7    1  0.3276565E-015  0.9000769E+02  0.7816164E-02  0.1186339E+00
        -11   -1    0    0    0    0  0.00000000000E+00  0.00000000000E+00  0.45593999997E+02  0.45594000000E+02  0.51100000000E-03 0. -1.
         11   -1    0    0    0    0 -0.00000000000E+00 -0.00000000000E+00 -0.45593999997E+02  0.45594000000E+02  0.51100000000E-03 0.  1.
    9900012    2    1    2    0    0 -0.35513712054E+00  0.52108861705E+00 -0.99773389545E+00  0.90007691292E+02  0.89999952017E+02 0.  0.
         12    1    1    2    0    0  0.35513712054E+00 -0.52108861705E+00  0.99773389545E+00  0.11803087085E+01  0.00000000000E+00 0. -1.
         11    1    3    3    0    0  0.40716620452E+01  0.22062898166E+02 -0.29035573507E+02  0.36693520360E+02  0.51100000000E-03 0. -1.
        -11    1    3    3    0    0 -0.39179230206E+01  0.86807033487E+01 -0.30044338521E+01  0.99865586894E+01  0.51100000000E-03 0.  1.
        -12    1    3    3    0    0 -0.50887614514E+00 -0.30222512897E+02  0.31042273464E+02  0.43327612242E+02  0.00000000000E+00 0.  1.
</event>
<event>
 7    1  0.3276565E-015  0.9000766E+02  0.7816164E-02  0.1186339E+00
        -11   -1    0    0    0    0  0.00000000000E+00  0.00000000000E+00  0.45593999997E+02  0.45594000000E+02  0.51100000000E-03 0. -1.
         11   -1    0    0    0    0 -0.00000000000E+00 -0.00000000000E+00 -0.45593999997E+02  0.45594000000E+02  0.51100000000E-03 0.  1.
    9900012    2    1    2    0    0 -0.91989769727E-01  0.55562551258E+00 -0.10373146150E+01  0.90007659609E+02  0.89999919916E+02 0.  0.
         12    1    1    2    0    0  0.91989769727E-01 -0.55562551258E+00  0.10373146150E+01  0.11803403909E+01  0.00000000000E+00 0. -1.
         11    1    3    3    0    0 -0.30718324584E+01  0.10945506804E+02  0.32439724905E+02  0.34374060366E+02  0.51100000000E-03 0. -1.
        -11    1    3    3    0    0  0.10128070155E+01 -0.81772607362E+01  0.94881345918E+01  0.12566545647E+02  0.51100000000E-03 0.  1.
        -12    1    3    3    0    0  0.19670356731E+01 -0.22126205553E+01 -0.42965174112E+02  0.43067053597E+02  0.00000000000E+00 0.  1.
</event>
<event>
 7    1  0.3276565E-015  0.9000768E+02  0.7816164E-02  0.1186339E+00
        -11   -1    0    0    0    0  0.00000000000E+00  0.00000000000E+00  0.45593999997E+02  0.45594000000E+02  0.51100000000E-03 0. -1.
         11   -1    0    0    0    0 -0.00000000000E+00 -0.00000000000E+00 -0.45593999997E+02  0.45594000000E+02  0.51100000000E-03 0.  1.
    9900012    2    1    2    0    0  0.11095021325E+01  0.26320352021E-01 -0.40183373724E+00  0.90007678817E+02  0.89999939377E+02 0.  0.
         12    1    1    2    0    0 -0.11095021325E+01 -0.26320352021E-01  0.40183373724E+00  0.11803211831E+01  0.00000000000E+00 0. -1.
         11    1    3    3    0    0 -0.42668000444E+01  0.25701824494E+01  0.71293170356E+01  0.86970444461E+01  0.51100000000E-03 0. -1.
        -11    1    3    3    0    0 -0.14519479902E+02 -0.37786265350E+02 -0.31057935180E+01  0.40598806625E+02  0.51100000000E-03 0.  1.
         12    1    3    3    0    0  0.19895782079E+02  0.35242403253E+02 -0.44253572549E+01  0.40711827746E+02  0.00000000000E+00 0. -1.
</event>
<event>
 7    1  0.3276565E-015  0.9000772E+02  0.7816164E-02  0.1186339E+00
        -11   -1    0    0    0    0  0.00000000000E+00  0.00000000000E+00  0.45593999997E+02  0.45594000000E+02  0.51100000000E-03 0.  1.
         11   -1    0    0    0    0 -0.00000000000E+00 -0.00000000000E+00 -0.45593999997E+02  0.45594000000E+02  0.51100000000E-03 0. -1.
    9900012    2    1    2    0    0 -0.80247001640E+00  0.90125403961E-01 -0.86079872440E+00  0.90007722423E+02  0.89999983559E+02 0.  0.
         12    1    1    2    0    0  0.80247001640E+00 -0.90125403961E-01  0.86079872440E+00  0.11802775773E+01  0.00000000000E+00 0. -1.
         11    1    3    3    0    0  0.36778624751E+02  0.73644865753E+01 -0.64225880620E+01  0.38054599443E+02  0.51100000000E-03 0. -1.
        -11    1    3    3    0    0 -0.12330063684E+02  0.33204108337E+01 -0.13504497496E+02  0.18585667904E+02  0.51100000000E-03 0.  1.
        -12    1    3    3    0    0 -0.25251031084E+02 -0.10594772005E+02  0.19066286833E+02  0.33367455076E+02  0.00000000000E+00 0.  1.
</event>
<event>
 7    1  0.3276565E-015  0.9000776E+02  0.7816164E-02  0.1186339E+00
        -11   -1    0    0    0    0  0.00000000000E+00  0.00000000000E+00  0.45593999997E+02  0.45594000000E+02  0.51100000000E-03 0.  1.
         11   -1    0    0    0    0 -0.00000000000E+00 -0.00000000000E+00 -0.45593999997E+02  0.45594000000E+02  0.51100000000E-03 0. -1.
    9900012    2    1    2    0    0  0.79892950550E+00  0.30997741833E+00 -0.81153365468E+00  0.90007762216E+02  0.90000023877E+02 0.  0.
         12    1    1    2    0    0 -0.79892950550E+00 -0.30997741833E+00  0.81153365468E+00  0.11802377842E+01  0.00000000000E+00 0. -1.
         11    1    3    3    0    0  0.41690821348E+01  0.15522242788E+02 -0.33185142305E+02  0.36872414310E+02  0.51100000000E-03 0. -1.
        -11    1    3    3    0    0 -0.13053830722E+01 -0.32108688899E+01 -0.91913645935E+01  0.98231811215E+01  0.51100000000E-03 0.  1.
        -12    1    3    3    0    0 -0.20647695571E+01 -0.12001396480E+02  0.41564973244E+02  0.43312166784E+02  0.00000000000E+00 0.  1.
</event>
<event>
 7    1  0.3276565E-015  0.9000770E+02  0.7816164E-02  0.1186339E+00
        -11   -1    0    0    0    0  0.00000000000E+00  0.00000000000E+00  0.45593999997E+02  0.45594000000E+02  0.51100000000E-03 0.  1.
         11   -1    0    0    0    0 -0.00000000000E+00 -0.00000000000E+00 -0.45593999997E+02  0.45594000000E+02  0.51100000000E-03 0. -1.
    9900012    2    1    2    0    0  0.90126385572E+00  0.43213582247E+00 -0.62775665624E+00  0.90007704983E+02  0.89999965889E+02 0.  0.
         12    1    1    2    0    0 -0.90126385572E+00 -0.43213582247E+00  0.62775665624E+00  0.11802950166E+01  0.00000000000E+00 0. -1.
         11    1    3    3    0    0  0.57090066405E+00  0.10982729604E+01  0.78269164188E+01  0.79241877787E+01  0.51100000000E-03 0. -1.
        -11    1    3    3    0    0 -0.25462287915E+02 -0.10117879148E+02  0.26167699325E+02  0.37887307539E+02  0.51100000000E-03 0.  1.
         12    1    3    3    0    0  0.25792651107E+02  0.94517420100E+01 -0.34622372400E+02  0.44196209665E+02  0.00000000000E+00 0. -1.
</event>
<event>
 7    1  0.3276565E-015  0.9000773E+02  0.7816164E-02  0.1186339E+00
        -11   -1    0    0    0    0  0.00000000000E+00  0.00000000000E+00  0.45593999997E+02  0.45594000000E+02  0.51100000000E-03 0. -1.
         11   -1    0    0    0    0 -0.00000000000E+00 -0.00000000000E+00 -0.45593999997E+02  0.45594000000E+02  0.51100000000E-03 0.  1.
    9900012    2    1    2    0    0 -0.11610680276E+00 -0.96464918162E+00 -0.67007881505E+00  0.90007731195E+02  0.89999992447E+02 0.  0.
         12    1    1    2    0    0  0.11610680276E+00  0.96464918162E+00  0.67007881505E+00  0.11802688048E+01  0.00000000000E+00 0. -1.
         11    1    3    3    0    0 -0.37081297309E+02  0.13194377632E+02 -0.73669664798E+01  0.40042307708E+02  0.51100000000E-03 0. -1.
        -11    1    3    3    0    0  0.20910529739E+01 -0.52564627740E+01 -0.90550608542E+01  0.10676939204E+02  0.51100000000E-03 0.  1.
        -12    1    3    3    0    0  0.34874137532E+02 -0.89025640395E+01  0.15751948519E+02  0.39288484283E+02  0.00000000000E+00 0.  1.
</event>
<event>
 7    1  0.3276565E-015  0.9000826E+02  0.7816164E-02  0.1186338E+00
        -11   -1    0    0    0    0  0.00000000000E+00  0.00000000000E+00  0.45593999997E+02  0.45594000000E+02  0.51100000000E-03 0.  1.
         11   -1    0    0    0    0 -0.00000000000E+00 -0.00000000000E+00 -0.45593999997E+02  0.45594000000E+02  0.51100000000E-03 0. -1.
    9900012    2    1    2    0    0  0.10690085165E+01 -0.40997310830E+00  0.28449958821E+00  0.90008255463E+02  0.90000523633E+02 0.  0.
         12    1    1    2    0    0 -0.10690085165E+01  0.40997310830E+00 -0.28449958821E+00  0.11797445374E+01  0.00000000000E+00 0. -1.
         11    1    3    3    0    0  0.89357698186E+01  0.37720691252E+01 -0.80768562607E+01  0.12621889520E+02  0.51100000000E-03 0. -1.
        -11    1    3    3    0    0 -0.18865717827E+02  0.21618248470E+02  0.30336299816E+02  0.41755898539E+02  0.51100000000E-03 0.  1.
         12    1    3    3    0    0  0.10998956525E+02 -0.25800290703E+02 -0.21974943967E+02  0.35630467403E+02  0.00000000000E+00 0. -1.
</event>
<event>
 7    1  0.3276565E-015  0.9000764E+02  0.7816164E-02  0.1186339E+00
        -11   -1    0    0    0    0  0.00000000000E+00  0.00000000000E+00  0.45593999997E+02  0.45594000000E+02  0.51100000000E-03 0. -1.
         11   -1    0    0    0    0 -0.00000000000E+00 -0.00000000000E+00 -0.45593999997E+02  0.45594000000E+02  0.51100000000E-03 0.  1.
    9900012    2    1    2    0    0 -0.91895503110E+00 -0.65249455749E+00 -0.35073147862E+00  0.90007644093E+02  0.89999904195E+02 0.  0.
         12    1    1    2    0    0  0.91895503110E+00  0.65249455749E+00  0.35073147862E+00  0.11803559069E+01  0.00000000000E+00 0. -1.
         11    1    3    3    0    0 -0.50143260573E+01 -0.54489477424E+00  0.52778415679E+01  0.73004101255E+01  0.51100000000E-03 0. -1.
        -11    1    3    3    0    0  0.35822262809E+00 -0.39498529525E+02  0.90164316764E+01  0.40516147380E+02  0.51100000000E-03 0.  1.
         12    1    3    3    0    0  0.37371483981E+01  0.39390929742E+02 -0.14645004723E+02  0.42191086587E+02  0.00000000000E+00 0. -1.
</event>
<event>
 7    1  0.3276565E-015  0.9000745E+02  0.7816164E-02  0.1186340E+00
        -11   -1    0    0    0    0  0.00000000000E+00  0.00000000000E+00  0.45593999997E+02  0.45594000000E+02  0.51100000000E-03 0.  1.
         11   -1    0    0    0    0 -0.00000000000E+00 -0.00000000000E+00 -0.45593999997E+02  0.45594000000E+02  0.51100000000E-03 0. -1.
    9900012    2    1    2    0    0 -0.10951182302E+01  0.36701972926E+00  0.24436415207E+00  0.90007448748E+02  0.89999706271E+02 0.  0.
         12    1    1    2    0    0  0.10951182302E+01 -0.36701972926E+00 -0.24436415207E+00  0.11805512520E+01  0.00000000000E+00 0. -1.
         11    1    3    3    0    0 -0.51925976343E+01  0.73118530772E+01 -0.44871534613E+01  0.10028001399E+02  0.51100000000E-03 0. -1.
        -11    1    3    3    0    0 -0.17750816155E+02  0.29191672330E+02  0.13700407494E+02  0.36809596213E+02  0.51100000000E-03 0.  1.
         12    1    3    3    0    0  0.21848295559E+02 -0.36136505678E+02 -0.89688898807E+01  0.43169851136E+02  0.00000000000E+00 0. -1.
</event>
<event>
 7    1  0.3276565E-015  0.9000768E+02  0.7816164E-02  0.1186339E+00
        -11   -1    0    0    0    0  0.00000000000E+00  0.00000000000E+00  0.45593999997E+02  0.45594000000E+02  0.51100000000E-03 0.  1.
         11   -1    0    0    0    0 -0.00000000000E+00 -0.00000000000E+00 -0.45593999997E+02  0.45594000000E+02  0.51100000000E-03 0. -1.
    9900012    2    1    2    0    0  0.11327158797E+01 -0.14103209889E+00  0.30037367785E+00  0.90007678153E+02  0.89999938704E+02 0.  0.
         12    1    1    2    0    0 -0.11327158797E+01  0.14103209889E+00 -0.30037367785E+00  0.11803218474E+01  0.00000000000E+00 0. -1.
         11    1    3    3    0    0  0.11847703838E+01 -0.35053057394E+02  0.18634106132E+02  0.39715871199E+02  0.51100000000E-03 0. -1.
        -11    1    3    3    0    0 -0.67139404132E+01 -0.34135477902E+01 -0.55105912771E+01  0.93325195350E+01  0.51100000000E-03 0.  1.
        -12    1    3    3    0    0  0.66618859091E+01  0.38325573085E+02 -0.12823141177E+02  0.40959287418E+02  0.00000000000E+00 0.  1.
</event>
<event>
 7    1  0.3276565E-015  0.9000779E+02  0.7816164E-02  0.1186339E+00
        -11   -1    0    0    0    0  0.00000000000E+00  0.00000000000E+00  0.45593999997E+02  0.45594000000E+02  0.51100000000E-03 0. -1.
         11   -1    0    0    0    0 -0.00000000000E+00 -0.00000000000E+00 -0.45593999997E+02  0.45594000000E+02  0.51100000000E-03 0.  1.
    9900012    2    1    2    0    0 -0.12705269315E+00 -0.36138370394E+00  0.11163180504E+01  0.90007785376E+02  0.90000047343E+02 0.  0.
         12    1    1    2    0    0  0.12705269315E+00  0.36138370394E+00 -0.11163180504E+01  0.11802146237E+01  0.00000000000E+00 0. -1.
         11    1    3    3    0    0  0.93376674857E+00 -0.52564491250E+00  0.37046556730E+02  0.37062050519E+02  0.51100000000E-03 0. -1.
        -11    1    3    3    0    0  0.26773494429E+01 -0.75287814611E+01  0.61007178437E+01  0.10053333218E+02  0.51100000000E-03 0.  1.
        -12    1    3    3    0    0 -0.37381688846E+01  0.76930426697E+01 -0.42030956523E+02  0.42892401639E+02  0.00000000000E+00 0.  1.
</event>
<event>
 7    1  0.3276565E-015  0.9000773E+02  0.7816164E-02  0.1186339E+00
        -11   -1    0    0    0    0  0.00000000000E+00  0.00000000000E+00  0.45593999997E+02  0.45594000000E+02  0.51100000000E-03 0. -1.
         11   -1    0    0    0    0 -0.00000000000E+00 -0.00000000000E+00 -0.45593999997E+02  0.45594000000E+02  0.51100000000E-03 0.  1.
    9900012    2    1    2    0    0  0.64650477467E+00  0.26465093648E+00 -0.95132951235E+00  0.90007730377E+02  0.89999991618E+02 0.  0.
         12    1    1    2    0    0 -0.64650477467E+00 -0.26465093648E+00  0.95132951235E+00  0.11802696230E+01  0.00000000000E+00 0. -1.
         11    1    3    3    0    0  0.13125982046E+02  0.34593713626E+01  0.31267524732E+02  0.34086900094E+02  0.51100000000E-03 0. -1.
        -11    1    3    3    0    0 -0.79523039467E+01  0.24972504453E+01  0.10035263706E+02  0.13045379096E+02  0.51100000000E-03 0.  1.
        -12    1    3    3    0    0 -0.45271733246E+01 -0.56919708714E+01 -0.42254117950E+02  0.42875451187E+02  0.00000000000E+00 0.  1.
</event>
