<event>
 7    1  0.1369731E-013  0.5052887E+02  0.7816164E-02  0.1300439E+00
        -11   -1    0    0    0    0  0.00000000000E+00  0.00000000000E+00  0.45593999997E+02  0.45594000000E+02  0.51100000000E-03 0. -1.
         11   -1    0    0    0    0 -0.00000000000E+00 -0.00000000000E+00 -0.45593999997E+02  0.45594000000E+02  0.51100000000E-03 0.  1.
    9900012    2    1    2    0    0 -0.79194240690E+01 -0.21332948652E+02  0.33694995958E+02  0.50528871525E+02  0.30000035487E+02 0.  0.
        -12    1    1    2    0    0  0.79194240690E+01  0.21332948652E+02 -0.33694995958E+02  0.40659128475E+02  0.00000000000E+00 0.  1.
         11    1    3    3    0    0  0.16778344328E+01 -0.20175508466E+02  0.34383559172E+02  0.39901070310E+02  0.51100000000E-03 0. -1.
        -11    1    3    3    0    0 -0.84323172062E+01  0.36699660549E+00  0.34728118686E+00  0.84474412966E+01  0.51100000000E-03 0.  1.
         12    1    3    3    0    0 -0.11649412956E+01 -0.15244367910E+01 -0.10358444013E+01  0.21803599188E+01  0.00000000000E+00 0. -1.
</event>
<event>
 7    1  0.1369731E-013  0.5052883E+02  0.7816164E-02  0.1300439E+00
        -11   -1    0    0    0    0  0.00000000000E+00  0.00000000000E+00  0.45593999997E+02  0.45594000000E+02  0.51100000000E-03 0.  1.
         11   -1    0    0    0    0 -0.00000000000E+00 -0.00000000000E+00 -0.45593999997E+02  0.45594000000E+02  0.51100000000E-03 0. -1.
    9900012    2    1    2    0    0  0.15510426772E+01  0.40496431030E+02  0.32865275337E+01  0.50528832242E+02  0.29999916083E+02 0.  0.
         12    1    1    2    0    0 -0.15510426772E+01 -0.40496431030E+02 -0.32865275337E+01  0.40659167758E+02  0.00000000000E+00 0. -1.
         11    1    3    3    0    0  0.63741939356E+01  0.30351639385E+02 -0.24413293431E+00  0.31014705590E+02  0.51100000000E-03 0. -1.
        -11    1    3    3    0    0 -0.72921488770E+01  0.64444969506E+01 -0.41965083670E+01  0.10598002591E+02  0.51100000000E-03 0.  1.
         12    1    3    3    0    0  0.24689976187E+01  0.37002946941E+01  0.77271688351E+01  0.89161240609E+01  0.00000000000E+00 0. -1.
</event>
<event>
 7    1  0.1369731E-013  0.5052885E+02  0.7816164E-02  0.1300439E+00
        -11   -1    0    0    0    0  0.00000000000E+00  0.00000000000E+00  0.45593999997E+02  0.45594000000E+02  0.51100000000E-03 0. -1.
         11   -1    0    0    0    0 -0.00000000000E+00 -0.00000000000E+00 -0.45593999997E+02  0.45594000000E+02  0.51100000000E-03 0.  1.
    9900012    2    1    2    0    0  0.25664924580E+02 -0.11283721995E+02 -0.29447514072E+02  0.50528845793E+02  0.29999957273E+02 0.  0.
         12    1    1    2    0    0 -0.25664924580E+02  0.11283721995E+02  0.29447514072E+02  0.40659154207E+02  0.00000000000E+00 0. -1.
         11    1    3    3    0    0  0.27156764518E+02 -0.83143046384E+01 -0.23893819765E+02  0.37115120152E+02  0.51100000000E-03 0. -1.
        -11    1    3    3    0    0 -0.26740592174E+01 -0.97095382080E+00 -0.88983699053E+01  0.93420731775E+01  0.51100000000E-03 0.  1.
         12    1    3    3    0    0  0.11822192799E+01 -0.19984635363E+01  0.33446755977E+01  0.40716524638E+01  0.00000000000E+00 0. -1.
</event>
<event>
 7    1  0.1369731E-013  0.5052885E+02  0.7816164E-02  0.1300439E+00
        -11   -1    0    0    0    0  0.00000000000E+00  0.00000000000E+00  0.45593999997E+02  0.45594000000E+02  0.51100000000E-03 0.  1.
         11   -1    0    0    0    0 -0.00000000000E+00 -0.00000000000E+00 -0.45593999997E+02  0.45594000000E+02  0.51100000000E-03 0. -1.
    9900012    2    1    2    0    0 -0.21285082951E+02  0.29152759392E+02  0.18714381975E+02  0.50528853069E+02  0.29999979390E+02 0.  0.
         12    1    1    2    0    0  0.21285082951E+02 -0.29152759392E+02 -0.18714381975E+02  0.40659146931E+02  0.00000000000E+00 0. -1.
         11    1    3    3    0    0  0.19235310280E+01  0.49440730500E+00  0.30940404436E+01  0.36766148461E+01  0.51100000000E-03 0. -1.
        -11    1    3    3    0    0 -0.87060014721E+01  0.21492926457E+02 -0.15766915836E+01  0.23242768895E+02  0.51100000000E-03 0.  1.
        -12    1    3    3    0    0 -0.14502612507E+02  0.71654256305E+01  0.17197033115E+02  0.23609469328E+02  0.00000000000E+00 0.  1.
</event>
<event>
 7    1  0.1369731E-013  0.5052886E+02  0.7816164E-02  0.1300439E+00
        -11   -1    0    0    0    0  0.00000000000E+00  0.00000000000E+00  0.45593999997E+02  0.45594000000E+02  0.51100000000E-03 0. -1.
         11   -1    0    0    0    0 -0.00000000000E+00 -0.00000000000E+00 -0.45593999997E+02  0.45594000000E+02  0.51100000000E-03 0.  1.
    9900012    2    1    2    0    0  0.28186913199E+02 -0.26209043763E+02  0.13105318964E+02  0.50528862825E+02  0.30000009042E+02 0.  0.
        -12    1    1    2    0    0 -0.28186913199E+02  0.26209043763E+02 -0.13105318964E+02  0.40659137175E+02  0.00000000000E+00 0.  1.
         11    1    3    3    0    0  0.12099015685E+02 -0.40788833793E+01  0.10208957692E+02  0.16347669179E+02  0.51100000000E-03 0. -1.
        -11    1    3    3    0    0  0.12674695119E+02 -0.19720108670E+02 -0.61337574094E+01  0.24231251774E+02  0.51100000000E-03 0.  1.
         12    1    3    3    0    0  0.34132023960E+01 -0.24100517139E+01  0.90301186817E+01  0.99499418725E+01  0.00000000000E+00 0. -1.
</event>
<event>
 7    1  0.1369731E-013  0.5052884E+02  0.7816164E-02  0.1300439E+00
        -11   -1    0    0    0    0  0.00000000000E+00  0.00000000000E+00  0.45593999997E+02  0.45594000000E+02  0.51100000000E-03 0. -1.
         11   -1    0    0    0    0 -0.00000000000E+00 -0.00000000000E+00 -0.45593999997E+02  0.45594000000E+02  0.51100000000E-03 0.  1.
    9900012    2    1    2    0    0  0.25557272742E+02 -0.28982859670E+02  0.12648604488E+02  0.50528836947E+02  0.29999930385E+02 0.  0.
        -12    1    1    2    0    0 -0.25557272742E+02  0.28982859670E+02 -0.12648604488E+02  0.40659163053E+02  0.00000000000E+00 0.  1.
         11    1    3    3    0    0  0.15668543753E+01 -0.20391128524E+02 -0.25369879421E+01  0.20607995128E+02  0.51100000000E-03 0.  1.
        -11    1    3    3    0    0  0.24138734152E+02 -0.85536160480E+01  0.15173890558E+02  0.29767260353E+02  0.51100000000E-03 0. -1.
         12    1    3    3    0    0 -0.14831578582E+00 -0.38115098048E-01  0.11701872222E-01  0.15358146644E+00  0.00000000000E+00 0. -1.
</event>
<event>
 7    1  0.1369731E-013  0.5052887E+02  0.7816164E-02  0.1300439E+00
        -11   -1    0    0    0    0  0.00000000000E+00  0.00000000000E+00  0.45593999997E+02  0.45594000000E+02  0.51100000000E-03 0. -1.
         11   -1    0    0    0    0 -0.00000000000E+00 -0.00000000000E+00 -0.45593999997E+02  0.45594000000E+02  0.51100000000E-03 0.  1.
    9900012    2    1    2    0    0  0.14707098258E+02  0.77736054740E+01 -0.37100363154E+02  0.50528872766E+02  0.30000039260E+02 0.  0.
         12    1    1    2    0    0 -0.14707098258E+02 -0.77736054740E+01  0.37100363154E+02  0.40659127234E+02  0.00000000000E+00 0. -1.
         11    1    3    3    0    0  0.21251280652E+02  0.51698925232E+01 -0.13200731850E+02  0.25546115941E+02  0.51100000000E-03 0. -1.
        -11    1    3    3    0    0 -0.36266906281E+01  0.24011146691E+01 -0.13977583492E+02  0.14638684268E+02  0.51100000000E-03 0.  1.
         12    1    3    3    0    0 -0.29174917661E+01  0.20259828172E+00 -0.99220478123E+01  0.10344072557E+02  0.00000000000E+00 0. -1.
</event>
<event>
 7    1  0.1369731E-013  0.5052886E+02  0.7816164E-02  0.1300439E+00
        -11   -1    0    0    0    0  0.00000000000E+00  0.00000000000E+00  0.45593999997E+02  0.45594000000E+02  0.51100000000E-03 0. -1.
         11   -1    0    0    0    0 -0.00000000000E+00 -0.00000000000E+00 -0.45593999997E+02  0.45594000000E+02  0.51100000000E-03 0.  1.
    9900012    2    1    2    0    0  0.29167569107E+02  0.23738627738E+02 -0.15456253725E+02  0.50528864327E+02  0.30000013607E+02 0.  0.
         12    1    1    2    0    0 -0.29167569107E+02 -0.23738627738E+02  0.15456253725E+02  0.40659135673E+02  0.00000000000E+00 0. -1.
         11    1    3    3    0    0  0.25890307821E+02  0.19499866649E+02 -0.22453929680E+01  0.32489915793E+02  0.51100000000E-03 0.  1.
        -11    1    3    3    0    0 -0.40025532655E+00  0.38920664017E+01 -0.13759167847E+02  0.14304652575E+02  0.51100000000E-03 0. -1.
         12    1    3    3    0    0  0.36775166123E+01  0.34669468760E+00  0.54830708986E+00  0.37342959584E+01  0.00000000000E+00 0. -1.
</event>
<event>
 7    1  0.1369731E-013  0.5052887E+02  0.7816164E-02  0.1300439E+00
        -11   -1    0    0    0    0  0.00000000000E+00  0.00000000000E+00  0.45593999997E+02  0.45594000000E+02  0.51100000000E-03 0. -1.
         11   -1    0    0    0    0 -0.00000000000E+00 -0.00000000000E+00 -0.45593999997E+02  0.45594000000E+02  0.51100000000E-03 0.  1.
    9900012    2    1    2    0    0  0.38188436550E+02 -0.13075489477E+02 -0.48826170557E+01  0.50528867440E+02  0.30000023071E+02 0.  0.
         12    1    1    2    0    0 -0.38188436550E+02  0.13075489477E+02  0.48826170557E+01  0.40659132560E+02  0.00000000000E+00 0. -1.
         11    1    3    3    0    0  0.16201873571E+02 -0.91119966181E+01  0.65464111200E+01  0.19707477982E+02  0.51100000000E-03 0. -1.
        -11    1    3    3    0    0  0.14385504908E+02  0.62821060635E+01 -0.79631211227E+01  0.17601673396E+02  0.51100000000E-03 0.  1.
         12    1    3    3    0    0  0.76010580707E+01 -0.10245598923E+02 -0.34659070530E+01  0.13219716063E+02  0.00000000000E+00 0. -1.
</event>
<event>
 7    1  0.1369731E-013  0.5052879E+02  0.7816164E-02  0.1300439E+00
        -11   -1    0    0    0    0  0.00000000000E+00  0.00000000000E+00  0.45593999997E+02  0.45594000000E+02  0.51100000000E-03 0. -1.
         11   -1    0    0    0    0 -0.00000000000E+00 -0.00000000000E+00 -0.45593999997E+02  0.45594000000E+02  0.51100000000E-03 0.  1.
    9900012    2    1    2    0    0 -0.19025960600E+00  0.33632200662E+01 -0.40519426935E+02  0.50528789394E+02  0.29999785842E+02 0.  0.
         12    1    1    2    0    0  0.19025960600E+00 -0.33632200662E+01  0.40519426935E+02  0.40659210606E+02  0.00000000000E+00 0. -1.
         11    1    3    3    0    0 -0.34623497103E+01  0.36310518283E+01  0.89606232007E+00  0.50965999292E+01  0.51100000000E-03 0. -1.
        -11    1    3    3    0    0  0.98280430267E+01 -0.35121129955E+01 -0.30961291717E+02  0.32673030965E+02  0.51100000000E-03 0.  1.
        -12    1    3    3    0    0 -0.65559529224E+01  0.32442812333E+01 -0.10454197539E+02  0.12759158500E+02  0.00000000000E+00 0.  1.
</event>
<event>
 7    1  0.1369731E-013  0.5052886E+02  0.7816164E-02  0.1300439E+00
        -11   -1    0    0    0    0  0.00000000000E+00  0.00000000000E+00  0.45593999997E+02  0.45594000000E+02  0.51100000000E-03 0. -1.
         11   -1    0    0    0    0 -0.00000000000E+00 -0.00000000000E+00 -0.45593999997E+02  0.45594000000E+02  0.51100000000E-03 0.  1.
    9900012    2    1    2    0    0  0.31500358976E+01  0.40380318591E+02 -0.35599259727E+01  0.50528856765E+02  0.29999990624E+02 0.  0.
         12    1    1    2    0    0 -0.31500358976E+01 -0.40380318591E+02  0.35599259727E+01  0.40659143235E+02  0.00000000000E+00 0. -1.
         11    1    3    3    0    0  0.24543537950E+01  0.10262737643E+02  0.11233909065E+02  0.15412603597E+02  0.51100000000E-03 0. -1.
        -11    1    3    3    0    0  0.15150037407E+01  0.13093468855E+02 -0.12038726041E+02  0.17851192900E+02  0.51100000000E-03 0.  1.
         12    1    3    3    0    0 -0.81932163801E+00  0.17024112093E+02 -0.27551089967E+01  0.17265060269E+02  0.00000000000E+00 0. -1.
</event>
<event>
 7    1  0.1369731E-013  0.5052886E+02  0.7816164E-02  0.1300439E+00
        -11   -1    0    0    0    0  0.00000000000E+00  0.00000000000E+00  0.45593999997E+02  0.45594000000E+02  0.51100000000E-03 0. -1.
         11   -1    0    0    0    0 -0.00000000000E+00 -0.00000000000E+00 -0.45593999997E+02  0.45594000000E+02  0.51100000000E-03 0.  1.
    9900012    2    1    2    0    0  0.21343087060E+02 -0.10772243536E+02 -0.32887641299E+02  0.50528861467E+02  0.30000004914E+02 0.  0.
         12    1    1    2    0    0 -0.21343087060E+02  0.10772243536E+02  0.32887641299E+02  0.40659138533E+02  0.00000000000E+00 0. -1.
         11    1    3    3    0    0  0.14989668208E+02 -0.90211145064E+01 -0.89963168303E+00  0.17517990677E+02  0.51100000000E-03 0. -1.
        -11    1    3    3    0    0  0.29561143491E+01 -0.10203289816E+01 -0.25118629388E+02  0.25312550758E+02  0.51100000000E-03 0.  1.
         12    1    3    3    0    0  0.33973045035E+01 -0.73080004754E+00 -0.68693802282E+01  0.76983200322E+01  0.00000000000E+00 0. -1.
</event>
<event>
 7    1  0.1369731E-013  0.5052886E+02  0.7816164E-02  0.1300439E+00
        -11   -1    0    0    0    0  0.00000000000E+00  0.00000000000E+00  0.45593999997E+02  0.45594000000E+02  0.51100000000E-03 0.  1.
         11   -1    0    0    0    0 -0.00000000000E+00 -0.00000000000E+00 -0.45593999997E+02  0.45594000000E+02  0.51100000000E-03 0. -1.
    9900012    2    1    2    0    0  0.29679306279E+02 -0.27542381198E+02 -0.37042369533E+01  0.50528863823E+02  0.30000012077E+02 0.  0.
         12    1    1    2    0    0 -0.29679306279E+02  0.27542381198E+02  0.37042369533E+01  0.40659136177E+02  0.00000000000E+00 0. -1.
         11    1    3    3    0    0  0.27025587470E+02 -0.20917249835E+02 -0.97566526255E+01  0.35540202440E+02  0.51100000000E-03 0. -1.
        -11    1    3    3    0    0  0.98873063375E+00 -0.87224098685E+01  0.78395037617E+01  0.11769275325E+02  0.51100000000E-03 0.  1.
        -12    1    3    3    0    0  0.16649881749E+01  0.20972785054E+01 -0.17870880895E+01  0.32193860582E+01  0.00000000000E+00 0.  1.
</event>
<event>
 7    1  0.1369731E-013  0.5052886E+02  0.7816164E-02  0.1300439E+00
        -11   -1    0    0    0    0  0.00000000000E+00  0.00000000000E+00  0.45593999997E+02  0.45594000000E+02  0.51100000000E-03 0. -1.
         11   -1    0    0    0    0 -0.00000000000E+00 -0.00000000000E+00 -0.45593999997E+02  0.45594000000E+02  0.51100000000E-03 0.  1.
    9900012    2    1    2    0    0  0.83490964953E+00  0.14134926016E+02 -0.38113938381E+02  0.50528861956E+02  0.30000006400E+02 0.  0.
         12    1    1    2    0    0 -0.83490964953E+00 -0.14134926016E+02  0.38113938381E+02  0.40659138044E+02  0.00000000000E+00 0. -1.
         11    1    3    3    0    0 -0.45818185585E+01  0.26097508794E+01  0.17992570105E+01  0.55714618375E+01  0.51100000000E-03 0. -1.
        -11    1    3    3    0    0  0.52940510749E-01  0.12863993557E+02 -0.16618559034E+02  0.21015747372E+02  0.51100000000E-03 0.  1.
         12    1    3    3    0    0  0.53637876973E+01 -0.13388184207E+01 -0.23294636357E+02  0.23941652747E+02  0.00000000000E+00 0. -1.
</event>
<event>
 7    1  0.1369731E-013  0.5052886E+02  0.7816164E-02  0.1300439E+00
        -11   -1    0    0    0    0  0.00000000000E+00  0.00000000000E+00  0.45593999997E+02  0.45594000000E+02  0.51100000000E-03 0. -1.
         11   -1    0    0    0    0 -0.00000000000E+00 -0.00000000000E+00 -0.45593999997E+02  0.45594000000E+02  0.51100000000E-03 0.  1.
    9900012    2    1    2    0    0 -0.34598257414E+02  0.13088408490E+02  0.16876597610E+02  0.50528863268E+02  0.30000010390E+02 0.  0.
        -12    1    1    2    0    0  0.34598257414E+02 -0.13088408490E+02 -0.16876597610E+02  0.40659136732E+02  0.00000000000E+00 0.  1.
         11    1    3    3    0    0 -0.37403750282E+02  0.15887438085E+02  0.10965943557E+02  0.42091604179E+02  0.51100000000E-03 0. -1.
        -11    1    3    3    0    0  0.25439043996E+01  0.65992014345E-01  0.97659894943E+00  0.27257201451E+01  0.51100000000E-03 0.  1.
         12    1    3    3    0    0  0.26158846803E+00 -0.28650216088E+01  0.49340551029E+01  0.57115389436E+01  0.00000000000E+00 0. -1.
</event>
<event>
 7    1  0.1369731E-013  0.5052887E+02  0.7816164E-02  0.1300439E+00
        -11   -1    0    0    0    0  0.00000000000E+00  0.00000000000E+00  0.45593999997E+02  0.45594000000E+02  0.51100000000E-03 0. -1.
         11   -1    0    0    0    0 -0.00000000000E+00 -0.00000000000E+00 -0.45593999997E+02  0.45594000000E+02  0.51100000000E-03 0.  1.
    9900012    2    1    2    0    0  0.35795728778E+01 -0.70441069184E+01  0.39883979256E+02  0.50528873281E+02  0.30000040824E+02 0.  0.
        -12    1    1    2    0    0 -0.35795728778E+01  0.70441069184E+01 -0.39883979256E+02  0.40659126719E+02  0.00000000000E+00 0.  1.
         11    1    3    3    0    0 -0.43207974778E+01 -0.50881112997E+01  0.17294863564E+02  0.18538351421E+02  0.51100000000E-03 0. -1.
        -11    1    3    3    0    0  0.13052077077E+02  0.41315528587E+01  0.95010980688E+01  0.16664252453E+02  0.51100000000E-03 0.  1.
        -12    1    3    3    0    0 -0.51517067217E+01 -0.60875484774E+01  0.13088017623E+02  0.15326269406E+02  0.00000000000E+00 0.  1.
</event>
<event>
 7    1  0.1369731E-013  0.5052886E+02  0.7816164E-02  0.1300439E+00
        -11   -1    0    0    0    0  0.00000000000E+00  0.00000000000E+00  0.45593999997E+02  0.45594000000E+02  0.51100000000E-03 0. -1.
         11   -1    0    0    0    0 -0.00000000000E+00 -0.00000000000E+00 -0.45593999997E+02  0.45594000000E+02  0.51100000000E-03 0.  1.
    9900012    2    1    2    0    0 -0.14590056086E+01  0.30129443737E+02  0.27262671787E+02  0.50528863877E+02  0.30000012242E+02 0.  0.
        -12    1    1    2    0    0  0.14590056086E+01 -0.30129443737E+02 -0.27262671787E+02  0.40659136123E+02  0.00000000000E+00 0.  1.
         11    1    3    3    0    0 -0.31928275114E+01  0.20339456827E+02  0.17692854028E+02  0.27146357683E+02  0.51100000000E-03 0. -1.
        -11    1    3    3    0    0  0.82966508722E+01  0.93748416477E+01  0.96968955546E+00  0.12556367696E+02  0.51100000000E-03 0.  1.
        -12    1    3    3    0    0 -0.65628289695E+01  0.41514526227E+00  0.86001282041E+01  0.10826138499E+02  0.00000000000E+00 0.  1.
</event>
<event>
 7    1  0.1369731E-013  0.5052886E+02  0.7816164E-02  0.1300439E+00
        -11   -1    0    0    0    0  0.00000000000E+00  0.00000000000E+00  0.45593999997E+02  0.45594000000E+02  0.51100000000E-03 0. -1.
         11   -1    0    0    0    0 -0.00000000000E+00 -0.00000000000E+00 -0.45593999997E+02  0.45594000000E+02  0.51100000000E-03 0.  1.
    9900012    2    1    2    0    0  0.59584021695E+01  0.26472049483E+02 -0.30280256407E+02  0.50528857260E+02  0.29999992127E+02 0.  0.
         12    1    1    2    0    0 -0.59584021695E+01 -0.26472049483E+02  0.30280256407E+02  0.40659142740E+02  0.00000000000E+00 0. -1.
         11    1    3    3    0    0 -0.53838111569E+01  0.83470944163E+01 -0.27665912911E+01  0.10310840674E+02  0.51100000000E-03 0. -1.
        -11    1    3    3    0    0  0.16037997905E+02  0.12324477161E+02 -0.13429687349E+02  0.24278933598E+02  0.51100000000E-03 0.  1.
        -12    1    3    3    0    0 -0.46957845788E+01  0.58004779064E+01 -0.14083977767E+02  0.15939082988E+02  0.00000000000E+00 0.  1.
</event>
<event>
 7    1  0.1369731E-013  0.5052887E+02  0.7816164E-02  0.1300439E+00
        -11   -1    0    0    0    0  0.00000000000E+00  0.00000000000E+00  0.45593999997E+02  0.45594000000E+02  0.51100000000E-03 0. -1.
         11   -1    0    0    0    0 -0.00000000000E+00 -0.00000000000E+00 -0.45593999997E+02  0.45594000000E+02  0.51100000000E-03 0.  1.
    9900012    2    1    2    0    0 -0.18763784098E+02  0.17605130503E+01  0.36027575934E+02  0.50528865386E+02  0.30000016826E+02 0.  0.
        -12    1    1    2    0    0  0.18763784098E+02 -0.17605130503E+01 -0.36027575934E+02  0.40659134614E+02  0.00000000000E+00 0.  1.
         11    1    3    3    0    0 -0.67765615191E+01 -0.92446179229E+00  0.17565218170E+02  0.18849756106E+02  0.51100000000E-03 0. -1.
        -11    1    3    3    0    0  0.57134153609E+01  0.50332520679E+01  0.34864028162E+01  0.83744699129E+01  0.51100000000E-03 0.  1.
        -12    1    3    3    0    0 -0.17700637940E+02 -0.23482772252E+01  0.14975954948E+02  0.23304639367E+02  0.00000000000E+00 0.  1.
</event>
<event>
 7    1  0.1369731E-013  0.5052888E+02  0.7816164E-02  0.1300439E+00
        -11   -1    0    0    0    0  0.00000000000E+00  0.00000000000E+00  0.45593999997E+02  0.45594000000E+02  0.51100000000E-03 0. -1.
         11   -1    0    0    0    0 -0.00000000000E+00 -0.00000000000E+00 -0.45593999997E+02  0.45594000000E+02  0.51100000000E-03 0.  1.
    9900012    2    1    2    0    0 -0.97132200115E+01  0.18295827103E+02 -0.34986861024E+02  0.50528875850E+02  0.30000048633E+02 0.  0.
         12    1    1    2    0    0  0.97132200115E+01 -0.18295827103E+02  0.34986861024E+02  0.40659124150E+02  0.00000000000E+00 0. -1.
         11    1    3    3    0    0 -0.53915181840E+01  0.32254201810E+01 -0.31036920348E+02  0.31666421153E+02  0.51100000000E-03 0.  1.
        -11    1    3    3    0    0 -0.58652980956E+01  0.36631890085E+01 -0.10819936637E+01  0.69993846881E+01  0.51100000000E-03 0. -1.
         12    1    3    3    0    0  0.15435962681E+01  0.11407217914E+02 -0.28679470114E+01  0.11863070009E+02  0.00000000000E+00 0. -1.
</event>
<event>
 7    1  0.1369731E-013  0.5052887E+02  0.7816164E-02  0.1300439E+00
        -11   -1    0    0    0    0  0.00000000000E+00  0.00000000000E+00  0.45593999997E+02  0.45594000000E+02  0.51100000000E-03 0. -1.
         11   -1    0    0    0    0 -0.00000000000E+00 -0.00000000000E+00 -0.45593999997E+02  0.45594000000E+02  0.51100000000E-03 0.  1.
    9900012    2    1    2    0    0 -0.27827418384E+02 -0.18633458730E+02  0.23056313570E+02  0.50528873183E+02  0.30000040526E+02 0.  0.
        -12    1    1    2    0    0  0.27827418384E+02  0.18633458730E+02 -0.23056313570E+02  0.40659126817E+02  0.00000000000E+00 0.  1.
         11    1    3    3    0    0 -0.42789351865E+01 -0.94380613864E+01 -0.53326964923E+01  0.11654352887E+02  0.51100000000E-03 0.  1.
        -11    1    3    3    0    0 -0.19058110356E+02 -0.10266765440E+02  0.25407426389E+02  0.33378965815E+02  0.51100000000E-03 0. -1.
        -12    1    3    3    0    0 -0.44903728414E+01  0.10713680966E+01  0.29815836732E+01  0.54955544810E+01  0.00000000000E+00 0.  1.
</event>
<event>
 7    1  0.1369731E-013  0.5052886E+02  0.7816164E-02  0.1300439E+00
        -11   -1    0    0    0    0  0.00000000000E+00  0.00000000000E+00  0.45593999997E+02  0.45594000000E+02  0.51100000000E-03 0. -1.
         11   -1    0    0    0    0 -0.00000000000E+00 -0.00000000000E+00 -0.45593999997E+02  0.45594000000E+02  0.51100000000E-03 0.  1.
    9900012    2    1    2    0    0 -0.28064757765E+02  0.24658310519E+02 -0.16046902901E+02  0.50528855902E+02  0.29999988000E+02 0.  0.
         12    1    1    2    0    0  0.28064757765E+02 -0.24658310519E+02  0.16046902901E+02  0.40659144098E+02  0.00000000000E+00 0. -1.
         11    1    3    3    0    0 -0.23364489177E+01  0.89788863106E+01  0.56389271807E+01  0.10857112550E+02  0.51100000000E-03 0. -1.
        -11    1    3    3    0    0 -0.12054224112E+02  0.22862678861E+01 -0.15041644429E+02  0.19410883730E+02  0.51100000000E-03 0.  1.
         12    1    3    3    0    0 -0.13674084735E+02  0.13393156322E+02 -0.66441856528E+01  0.20260859621E+02  0.00000000000E+00 0. -1.
</event>
<event>
 7    1  0.1369731E-013  0.5052888E+02  0.7816164E-02  0.1300439E+00
        -11   -1    0    0    0    0  0.00000000000E+00  0.00000000000E+00  0.45593999997E+02  0.45594000000E+02  0.51100000000E-03 0. -1.
         11   -1    0    0    0    0 -0.00000000000E+00 -0.00000000000E+00 -0.45593999997E+02  0.45594000000E+02  0.51100000000E-03 0.  1.
    9900012    2    1    2    0    0 -0.15109429374E+01 -0.23103666324E+02 -0.33423067429E+02  0.50528883156E+02  0.30000070841E+02 0.  0.
         12    1    1    2    0    0  0.15109429374E+01  0.23103666324E+02  0.33423067429E+02  0.40659116844E+02  0.00000000000E+00 0. -1.
         11    1    3    3    0    0  0.24723378167E+01 -0.24303259843E+02 -0.10668319305E+02  0.26656592625E+02  0.51100000000E-03 0. -1.
        -11    1    3    3    0    0 -0.32980457333E+01  0.33668005507E+01 -0.17927967548E+02  0.18537110677E+02  0.51100000000E-03 0.  1.
         12    1    3    3    0    0 -0.68523502081E+00 -0.21672070315E+01 -0.48267805754E+01  0.53351798540E+01  0.00000000000E+00 0. -1.
</event>
<event>
 7    1  0.1369731E-013  0.5052887E+02  0.7816164E-02  0.1300439E+00
        -11   -1    0    0    0    0  0.00000000000E+00  0.00000000000E+00  0.45593999997E+02  0.45594000000E+02  0.51100000000E-03 0. -1.
         11   -1    0    0    0    0 -0.00000000000E+00 -0.00000000000E+00 -0.45593999997E+02  0.45594000000E+02  0.51100000000E-03 0.  1.
    9900012    2    1    2    0    0 -0.40916224925E+01  0.35018266480E+02 -0.20252027857E+02  0.50528868255E+02  0.30000025549E+02 0.  0.
         12    1    1    2    0    0  0.40916224925E+01 -0.35018266480E+02  0.20252027857E+02  0.40659131745E+02  0.00000000000E+00 0. -1.
         11    1    3    3    0    0  0.39683178959E+01  0.16595330399E+02 -0.17643760361E+02  0.24544955041E+02  0.51100000000E-03 0.  1.
        -11    1    3    3    0    0 -0.20010754756E+01  0.25230375900E+01  0.60790472694E+01  0.68793050306E+01  0.51100000000E-03 0. -1.
         12    1    3    3    0    0 -0.60588649129E+01  0.15899898491E+02 -0.86873147648E+01  0.19104608184E+02  0.00000000000E+00 0. -1.
</event>
<event>
 7    1  0.1369731E-013  0.5052886E+02  0.7816164E-02  0.1300439E+00
        -11   -1    0    0    0    0  0.00000000000E+00  0.00000000000E+00  0.45593999997E+02  0.45594000000E+02  0.51100000000E-03 0. -1.
         11   -1    0    0    0    0 -0.00000000000E+00 -0.00000000000E+00 -0.45593999997E+02  0.45594000000E+02  0.51100000000E-03 0.  1.
    9900012    2    1    2    0    0 -0.79277446349E+01 -0.33478486014E+02 -0.21668115540E+02  0.50528863366E+02  0.30000010688E+02 0.  0.
         12    1    1    2    0    0  0.79277446349E+01  0.33478486014E+02  0.21668115540E+02  0.40659136634E+02  0.00000000000E+00 0. -1.
         11    1    3    3    0    0 -0.16628701888E+02 -0.16077373875E+02 -0.18377612966E+02  0.29542043528E+02  0.51100000000E-03 0. -1.
        -11    1    3    3    0    0  0.23324745171E+00 -0.70272543585E+01  0.55950227054E+00  0.70533503560E+01  0.51100000000E-03 0.  1.
         12    1    3    3    0    0  0.84677098015E+01 -0.10373857780E+02 -0.38500048444E+01  0.13933469483E+02  0.00000000000E+00 0. -1.
</event>
<event>
 7    1  0.1369731E-013  0.5052886E+02  0.7816164E-02  0.1300439E+00
        -11   -1    0    0    0    0  0.00000000000E+00  0.00000000000E+00  0.45593999997E+02  0.45594000000E+02  0.51100000000E-03 0. -1.
         11   -1    0    0    0    0 -0.00000000000E+00 -0.00000000000E+00 -0.45593999997E+02  0.45594000000E+02  0.51100000000E-03 0.  1.
    9900012    2    1    2    0    0  0.67749264479E+00 -0.16456110199E+02  0.37173955166E+02  0.50528862013E+02  0.30000006574E+02 0.  0.
        -12    1    1    2    0    0 -0.67749264479E+00  0.16456110199E+02 -0.37173955166E+02  0.40659137987E+02  0.00000000000E+00 0.  1.
         11    1    3    3    0    0 -0.26811423941E+01  0.29671718498E+01  0.37010855011E+01  0.54489143388E+01  0.51100000000E-03 0. -1.
        -11    1    3    3    0    0  0.65087755286E+01 -0.22831488669E+02  0.32645947604E+02  0.40365813865E+02  0.51100000000E-03 0.  1.
        -12    1    3    3    0    0 -0.31501404897E+01  0.34082066208E+01  0.82692206134E+00  0.47141338091E+01  0.00000000000E+00 0.  1.
</event>
<event>
 7    1  0.1369731E-013  0.5052888E+02  0.7816164E-02  0.1300439E+00
        -11   -1    0    0    0    0  0.00000000000E+00  0.00000000000E+00  0.45593999997E+02  0.45594000000E+02  0.51100000000E-03 0. -1.
         11   -1    0    0    0    0 -0.00000000000E+00 -0.00000000000E+00 -0.45593999997E+02  0.45594000000E+02  0.51100000000E-03 0.  1.
    9900012    2    1    2    0    0 -0.11895525529E+02  0.27423115176E+02 -0.27561451207E+02  0.50528875979E+02  0.30000049025E+02 0.  0.
         12    1    1    2    0    0  0.11895525529E+02 -0.27423115176E+02  0.27561451207E+02  0.40659124021E+02  0.00000000000E+00 0. -1.
         11    1    3    3    0    0  0.30388459830E+01  0.56632765482E+01  0.52797800205E+01  0.83176537254E+01  0.51100000000E-03 0. -1.
        -11    1    3    3    0    0 -0.70365106287E+01  0.83987690583E+01 -0.12441880323E+02  0.16578666706E+02  0.51100000000E-03 0.  1.
         12    1    3    3    0    0 -0.78978608829E+01  0.13361069569E+02 -0.20399350904E+02  0.25632555547E+02  0.00000000000E+00 0. -1.
</event>
<event>
 7    1  0.1369731E-013  0.5052889E+02  0.7816164E-02  0.1300439E+00
        -11   -1    0    0    0    0  0.00000000000E+00  0.00000000000E+00  0.45593999997E+02  0.45594000000E+02  0.51100000000E-03 0. -1.
         11   -1    0    0    0    0 -0.00000000000E+00 -0.00000000000E+00 -0.45593999997E+02  0.45594000000E+02  0.51100000000E-03 0.  1.
    9900012    2    1    2    0    0  0.37487110558E+02 -0.50717494810E+01  0.14904948545E+02  0.50528885500E+02  0.30000077966E+02 0.  0.
        -12    1    1    2    0    0 -0.37487110558E+02  0.50717494810E+01 -0.14904948545E+02  0.40659114500E+02  0.00000000000E+00 0.  1.
         11    1    3    3    0    0  0.34217374408E+02 -0.97050419425E+01  0.57092166283E+01  0.36022377840E+02  0.51100000000E-03 0. -1.
        -11    1    3    3    0    0 -0.28445484727E+00  0.67830046862E+01  0.40947480679E+01  0.79282424997E+01  0.51100000000E-03 0.  1.
        -12    1    3    3    0    0  0.35541909974E+01 -0.21497122247E+01  0.51009838490E+01  0.65782651605E+01  0.00000000000E+00 0.  1.
</event>
<event>
 7    1  0.1369731E-013  0.5052885E+02  0.7816164E-02  0.1300439E+00
        -11   -1    0    0    0    0  0.00000000000E+00  0.00000000000E+00  0.45593999997E+02  0.45594000000E+02  0.51100000000E-03 0. -1.
         11   -1    0    0    0    0 -0.00000000000E+00 -0.00000000000E+00 -0.45593999997E+02  0.45594000000E+02  0.51100000000E-03 0.  1.
    9900012    2    1    2    0    0  0.20582484726E+02 -0.16532063201E+02  0.30922792244E+02  0.50528845172E+02  0.29999955384E+02 0.  0.
        -12    1    1    2    0    0 -0.20582484726E+02  0.16532063201E+02 -0.30922792244E+02  0.40659154828E+02  0.00000000000E+00 0.  1.
         11    1    3    3    0    0  0.23735447429E+01 -0.60422788524E+01  0.22465732793E+02  0.23384866871E+02  0.51100000000E-03 0. -1.
        -11    1    3    3    0    0  0.20749100081E+02 -0.87742432096E+01  0.62886186324E+01  0.23389297181E+02  0.51100000000E-03 0.  1.
         12    1    3    3    0    0 -0.25401600983E+01 -0.17155411390E+01  0.21684408186E+01  0.37546811194E+01  0.00000000000E+00 0. -1.
</event>
<event>
 7    1  0.1369731E-013  0.5052882E+02  0.7816164E-02  0.1300439E+00
        -11   -1    0    0    0    0  0.00000000000E+00  0.00000000000E+00  0.45593999997E+02  0.45594000000E+02  0.51100000000E-03 0. -1.
         11   -1    0    0    0    0 -0.00000000000E+00 -0.00000000000E+00 -0.45593999997E+02  0.45594000000E+02  0.51100000000E-03 0.  1.
    9900012    2    1    2    0    0  0.80527313027E+01 -0.28879700683E+02 -0.27464259823E+02  0.50528817020E+02  0.29999869815E+02 0.  0.
         12    1    1    2    0    0 -0.80527313027E+01  0.28879700683E+02  0.27464259823E+02  0.40659182980E+02  0.00000000000E+00 0. -1.
         11    1    3    3    0    0  0.46538369715E+01 -0.18578786625E+02 -0.19230275280E-01  0.19152803478E+02  0.51100000000E-03 0. -1.
        -11    1    3    3    0    0 -0.19434007842E+01 -0.95224772249E+01 -0.19219703897E+02  0.21537209598E+02  0.51100000000E-03 0.  1.
         12    1    3    3    0    0  0.53422951154E+01 -0.77843683305E+00 -0.82253256508E+01  0.98388039448E+01  0.00000000000E+00 0. -1.
</event>
<event>
 7    1  0.1369731E-013  0.5052886E+02  0.7816164E-02  0.1300439E+00
        -11   -1    0    0    0    0  0.00000000000E+00  0.00000000000E+00  0.45593999997E+02  0.45594000000E+02  0.51100000000E-03 0. -1.
         11   -1    0    0    0    0 -0.00000000000E+00 -0.00000000000E+00 -0.45593999997E+02  0.45594000000E+02  0.51100000000E-03 0.  1.
    9900012    2    1    2    0    0 -0.16334299367E+02  0.37013243436E+02 -0.40467869573E+01  0.50528855762E+02  0.29999987574E+02 0.  0.
         12    1    1    2    0    0  0.16334299367E+02 -0.37013243436E+02  0.40467869573E+01  0.40659144238E+02  0.00000000000E+00 0. -1.
         11    1    3    3    0    0  0.81575839164E+01  0.46074593863E+01  0.11051968760E-02  0.93688237699E+01  0.51100000000E-03 0. -1.
        -11    1    3    3    0    0 -0.17307951302E+02  0.26425947753E+02 -0.37134042078E+01  0.31807000235E+02  0.51100000000E-03 0.  1.
         12    1    3    3    0    0 -0.71839319816E+01  0.59798362971E+01 -0.33448794640E+00  0.93530317568E+01  0.00000000000E+00 0. -1.
</event>
<event>
 7    1  0.1369731E-013  0.5052886E+02  0.7816164E-02  0.1300439E+00
        -11   -1    0    0    0    0  0.00000000000E+00  0.00000000000E+00  0.45593999997E+02  0.45594000000E+02  0.51100000000E-03 0.  1.
         11   -1    0    0    0    0 -0.00000000000E+00 -0.00000000000E+00 -0.45593999997E+02  0.45594000000E+02  0.51100000000E-03 0. -1.
    9900012    2    1    2    0    0  0.29403021170E+02  0.21737816850E+02  0.17779073256E+02  0.50528858578E+02  0.29999996134E+02 0.  0.
        -12    1    1    2    0    0 -0.29403021170E+02 -0.21737816850E+02 -0.17779073256E+02  0.40659141422E+02  0.00000000000E+00 0.  1.
         11    1    3    3    0    0  0.30875587714E+02  0.87998865458E+01  0.18838476341E+02  0.37224025992E+02  0.51100000000E-03 0. -1.
        -11    1    3    3    0    0 -0.13323431169E+01  0.84846523551E+01  0.45056814267E+00  0.86004346216E+01  0.51100000000E-03 0.  1.
         12    1    3    3    0    0 -0.14022342735E+00  0.44532779490E+01 -0.15099712281E+01  0.47043979647E+01  0.00000000000E+00 0. -1.
</event>
<event>
 7    1  0.1369731E-013  0.5052886E+02  0.7816164E-02  0.1300439E+00
        -11   -1    0    0    0    0  0.00000000000E+00  0.00000000000E+00  0.45593999997E+02  0.45594000000E+02  0.51100000000E-03 0. -1.
         11   -1    0    0    0    0 -0.00000000000E+00 -0.00000000000E+00 -0.45593999997E+02  0.45594000000E+02  0.51100000000E-03 0.  1.
    9900012    2    1    2    0    0 -0.33025265059E+02 -0.46420324662E+01  0.23258311563E+02  0.50528860137E+02  0.30000000872E+02 0.  0.
        -12    1    1    2    0    0  0.33025265059E+02  0.46420324662E+01 -0.23258311563E+02  0.40659139863E+02  0.00000000000E+00 0.  1.
         11    1    3    3    0    0 -0.14104412905E+02  0.71490385553E+00  0.23241031062E+02  0.27195423806E+02  0.51100000000E-03 0. -1.
        -11    1    3    3    0    0 -0.20297010572E+02 -0.56569654833E+01  0.16999755296E+01  0.21139058959E+02  0.51100000000E-03 0.  1.
         12    1    3    3    0    0  0.13761584177E+01  0.30002916154E+00 -0.16826950284E+01  0.21943773711E+01  0.00000000000E+00 0. -1.
</event>
<event>
 7    1  0.1369731E-013  0.5052885E+02  0.7816164E-02  0.1300439E+00
        -11   -1    0    0    0    0  0.00000000000E+00  0.00000000000E+00  0.45593999997E+02  0.45594000000E+02  0.51100000000E-03 0. -1.
         11   -1    0    0    0    0 -0.00000000000E+00 -0.00000000000E+00 -0.45593999997E+02  0.45594000000E+02  0.51100000000E-03 0.  1.
    9900012    2    1    2    0    0  0.14674509882E+02 -0.95231081706E+01  0.36703345635E+02  0.50528850842E+02  0.29999972618E+02 0.  0.
        -12    1    1    2    0    0 -0.14674509882E+02  0.95231081706E+01 -0.36703345635E+02  0.40659149158E+02  0.00000000000E+00 0.  1.
         11    1    3    3    0    0  0.50633849118E+01 -0.12587456788E+02  0.13060044007E+02  0.18832065338E+02  0.51100000000E-03 0. -1.
        -11    1    3    3    0    0 -0.12782575841E+01  0.87210411964E+01  0.10663301616E+02  0.13834612521E+02  0.51100000000E-03 0.  1.
         12    1    3    3    0    0  0.10889382555E+02 -0.56566925788E+01  0.12980000012E+02  0.17862172983E+02  0.00000000000E+00 0. -1.
</event>
<event>
 7    1  0.1369731E-013  0.5052886E+02  0.7816164E-02  0.1300439E+00
        -11   -1    0    0    0    0  0.00000000000E+00  0.00000000000E+00  0.45593999997E+02  0.45594000000E+02  0.51100000000E-03 0. -1.
         11   -1    0    0    0    0 -0.00000000000E+00 -0.00000000000E+00 -0.45593999997E+02  0.45594000000E+02  0.51100000000E-03 0.  1.
    9900012    2    1    2    0    0  0.93723636081E+01  0.28578222237E+02 -0.27360732057E+02  0.50528860259E+02  0.30000001242E+02 0.  0.
         12    1    1    2    0    0 -0.93723636081E+01 -0.28578222237E+02  0.27360732057E+02  0.40659139741E+02  0.00000000000E+00 0. -1.
         11    1    3    3    0    0 -0.44809014913E+01 -0.17633682625E+01 -0.64662502311E+01  0.80622787174E+01  0.51100000000E-03 0. -1.
        -11    1    3    3    0    0  0.16203548723E+02  0.17856311851E+02 -0.15497905870E+02  0.28663355539E+02  0.51100000000E-03 0.  1.
         12    1    3    3    0    0 -0.23502836233E+01  0.12485278648E+02 -0.53965759556E+01  0.13803226002E+02  0.00000000000E+00 0. -1.
</event>
<event>
 7    1  0.1369731E-013  0.5052889E+02  0.7816164E-02  0.1300439E+00
        -11   -1    0    0    0    0  0.00000000000E+00  0.00000000000E+00  0.45593999997E+02  0.45594000000E+02  0.51100000000E-03 0. -1.
         11   -1    0    0    0    0 -0.00000000000E+00 -0.00000000000E+00 -0.45593999997E+02  0.45594000000E+02  0.51100000000E-03 0.  1.
    9900012    2    1    2    0    0  0.36901200466E+02  0.56650705726E+01 -0.16105018466E+02  0.50528889825E+02  0.30000091113E+02 0.  0.
         12    1    1    2    0    0 -0.36901200466E+02 -0.56650705726E+01  0.16105018466E+02  0.40659110175E+02  0.00000000000E+00 0. -1.
         11    1    3    3    0    0  0.13789202823E+02 -0.94447393205E+01 -0.12664647043E+02  0.20969942782E+02  0.51100000000E-03 0. -1.
        -11    1    3    3    0    0  0.55447643357E+01  0.85579545640E+01  0.11330636563E+01  0.10259962542E+02  0.51100000000E-03 0.  1.
        -12    1    3    3    0    0  0.17567233308E+02  0.65518553291E+01 -0.45734350788E+01  0.19298984501E+02  0.00000000000E+00 0.  1.
</event>
<event>
 7    1  0.1369731E-013  0.5052886E+02  0.7816164E-02  0.1300439E+00
        -11   -1    0    0    0    0  0.00000000000E+00  0.00000000000E+00  0.45593999997E+02  0.45594000000E+02  0.51100000000E-03 0. -1.
         11   -1    0    0    0    0 -0.00000000000E+00 -0.00000000000E+00 -0.45593999997E+02  0.45594000000E+02  0.51100000000E-03 0.  1.
    9900012    2    1    2    0    0 -0.85814261674E+01 -0.14533892445E+02  0.36990414248E+02  0.50528860180E+02  0.30000001002E+02 0.  0.
        -12    1    1    2    0    0  0.85814261674E+01  0.14533892445E+02 -0.36990414248E+02  0.40659139820E+02  0.00000000000E+00 0.  1.
         11    1    3    3    0    0 -0.84585594806E+01 -0.13238208107E+02  0.29012952697E+02  0.32993163032E+02  0.51100000000E-03 0. -1.
        -11    1    3    3    0    0 -0.53502212634E+01  0.50153194285E+01  0.28422869802E+01  0.78649152618E+01  0.51100000000E-03 0.  1.
        -12    1    3    3    0    0  0.52273545766E+01 -0.63110037667E+01  0.51351745708E+01  0.96707818859E+01  0.00000000000E+00 0.  1.
</event>
<event>
 7    1  0.1369731E-013  0.5052887E+02  0.7816164E-02  0.1300439E+00
        -11   -1    0    0    0    0  0.00000000000E+00  0.00000000000E+00  0.45593999997E+02  0.45594000000E+02  0.51100000000E-03 0. -1.
         11   -1    0    0    0    0 -0.00000000000E+00 -0.00000000000E+00 -0.45593999997E+02  0.45594000000E+02  0.51100000000E-03 0.  1.
    9900012    2    1    2    0    0  0.14614748562E+02 -0.14774499145E+01  0.37912944015E+02  0.50528867475E+02  0.30000023177E+02 0.  0.
        -12    1    1    2    0    0 -0.14614748562E+02  0.14774499145E+01 -0.37912944015E+02  0.40659132525E+02  0.00000000000E+00 0.  1.
         11    1    3    3    0    0 -0.26247225935E+01 -0.83353960188E+01  0.42174222842E+01  0.97033317200E+01  0.51100000000E-03 0.  1.
        -11    1    3    3    0    0  0.17967692789E+02  0.86288481605E+01  0.25268557093E+02  0.32183768930E+02  0.51100000000E-03 0. -1.
         12    1    3    3    0    0 -0.72822163376E+00 -0.17709020562E+01  0.84269646382E+01  0.86417668248E+01  0.00000000000E+00 0. -1.
</event>
<event>
 7    1  0.1369731E-013  0.5052885E+02  0.7816164E-02  0.1300439E+00
        -11   -1    0    0    0    0  0.00000000000E+00  0.00000000000E+00  0.45593999997E+02  0.45594000000E+02  0.51100000000E-03 0. -1.
         11   -1    0    0    0    0 -0.00000000000E+00 -0.00000000000E+00 -0.45593999997E+02  0.45594000000E+02  0.51100000000E-03 0.  1.
    9900012    2    1    2    0    0  0.30635353987E+02  0.22422959987E+01 -0.26638571837E+02  0.50528852016E+02  0.29999976189E+02 0.  0.
         12    1    1    2    0    0 -0.30635353987E+02 -0.22422959987E+01  0.26638571837E+02  0.40659147984E+02  0.00000000000E+00 0. -1.
         11    1    3    3    0    0  0.28569822923E+02  0.64239151349E+01 -0.83551914577E+01  0.30451776501E+02  0.51100000000E-03 0.  1.
        -11    1    3    3    0    0  0.19891112185E+00 -0.55760281467E+01 -0.15339448436E+02  0.16322693837E+02  0.51100000000E-03 0. -1.
         12    1    3    3    0    0  0.18666199413E+01  0.13944090105E+01 -0.29439319439E+01  0.37543816780E+01  0.00000000000E+00 0. -1.
</event>
<event>
 7    1  0.1369731E-013  0.5052883E+02  0.7816164E-02  0.1300439E+00
        -11   -1    0    0    0    0  0.00000000000E+00  0.00000000000E+00  0.45593999997E+02  0.45594000000E+02  0.51100000000E-03 0. -1.
         11   -1    0    0    0    0 -0.00000000000E+00 -0.00000000000E+00 -0.45593999997E+02  0.45594000000E+02  0.51100000000E-03 0.  1.
    9900012    2    1    2    0    0 -0.18543935885E+02 -0.92641011290E+01  0.34978090661E+02  0.50528831856E+02  0.29999914910E+02 0.  0.
        -12    1    1    2    0    0  0.18543935885E+02  0.92641011290E+01 -0.34978090661E+02  0.40659168144E+02  0.00000000000E+00 0.  1.
         11    1    3    3    0    0 -0.22279341865E+02 -0.27235492525E+01  0.22481697721E+02  0.31768121240E+02  0.51100000000E-03 0. -1.
        -11    1    3    3    0    0  0.71342668486E+01 -0.46462132704E+01  0.39813645683E+01  0.93987406235E+01  0.51100000000E-03 0.  1.
         12    1    3    3    0    0 -0.33988608683E+01 -0.18943386061E+01  0.85150283722E+01  0.93619699923E+01  0.00000000000E+00 0. -1.
</event>
<event>
 7    1  0.1369731E-013  0.5052886E+02  0.7816164E-02  0.1300439E+00
        -11   -1    0    0    0    0  0.00000000000E+00  0.00000000000E+00  0.45593999997E+02  0.45594000000E+02  0.51100000000E-03 0. -1.
         11   -1    0    0    0    0 -0.00000000000E+00 -0.00000000000E+00 -0.45593999997E+02  0.45594000000E+02  0.51100000000E-03 0.  1.
    9900012    2    1    2    0    0  0.13364766691E+02  0.11556334772E+02  0.36619664394E+02  0.50528859793E+02  0.29999999827E+02 0.  0.
        -12    1    1    2    0    0 -0.13364766691E+02 -0.11556334772E+02 -0.36619664394E+02  0.40659140207E+02  0.00000000000E+00 0.  1.
         11    1    3    3    0    0  0.14855574716E+02 -0.38819465993E+00  0.26657877551E+02  0.30520177441E+02  0.51100000000E-03 0. -1.
        -11    1    3    3    0    0  0.40186110077E+01  0.10241087110E+02  0.88874835494E+01  0.14142717692E+02  0.51100000000E-03 0.  1.
         12    1    3    3    0    0 -0.55094190325E+01  0.17034423217E+01  0.10743032929E+01  0.58659646593E+01  0.00000000000E+00 0. -1.
</event>
<event>
 7    1  0.1386105E-013  0.5052886E+02  0.7816164E-02  0.1300439E+00
        -11   -1    0    0    0    0  0.00000000000E+00  0.00000000000E+00  0.45593999997E+02  0.45594000000E+02  0.51100000000E-03 0. -1.
         11   -1    0    0    0    0 -0.00000000000E+00 -0.00000000000E+00 -0.45593999997E+02  0.45594000000E+02  0.51100000000E-03 0.  1.
    9900012    2    1    2    0    0  0.17472570595E+02  0.10563799459E+02 -0.35160784068E+02  0.50528864268E+02  0.30000013430E+02 0.  0.
         12    1    1    2    0    0 -0.17472570595E+02 -0.10563799459E+02  0.35160784068E+02  0.40659135732E+02  0.00000000000E+00 0. -1.
         11    1    3    3    0    0 -0.24501642089E+01  0.20206121512E+01 -0.65612489088E+01  0.72894557835E+01  0.51100000000E-03 0. -1.
        -11    1    3    3    0    0  0.18646620773E+02  0.16093121027E+02 -0.20028665568E+02  0.31746377043E+02  0.51100000000E-03 0.  1.
        -12    1    3    3    0    0  0.12761140307E+01 -0.75499337192E+01 -0.85708695909E+01  0.11493031442E+02  0.00000000000E+00 0.  1.
</event>
<event>
 7    1  0.1369731E-013  0.5052886E+02  0.7816164E-02  0.1300439E+00
        -11   -1    0    0    0    0  0.00000000000E+00  0.00000000000E+00  0.45593999997E+02  0.45594000000E+02  0.51100000000E-03 0. -1.
         11   -1    0    0    0    0 -0.00000000000E+00 -0.00000000000E+00 -0.45593999997E+02  0.45594000000E+02  0.51100000000E-03 0.  1.
    9900012    2    1    2    0    0 -0.39690560874E+02  0.19260746518E+01 -0.86090312428E+01  0.50528858285E+02  0.29999995243E+02 0.  0.
         12    1    1    2    0    0  0.39690560874E+02 -0.19260746518E+01  0.86090312428E+01  0.40659141715E+02  0.00000000000E+00 0. -1.
         11    1    3    3    0    0 -0.13832440459E+02  0.29772925597E+01 -0.12437186197E+02  0.18838372562E+02  0.51100000000E-03 0. -1.
        -11    1    3    3    0    0 -0.29471386807E+01 -0.15665825934E+01  0.77522103678E+01  0.84401761399E+01  0.51100000000E-03 0.  1.
        -12    1    3    3    0    0 -0.22910981734E+02  0.51536468553E+00 -0.39240554134E+01  0.23250309582E+02  0.00000000000E+00 0.  1.
</event>
<event>
 7    1  0.1369731E-013  0.5052885E+02  0.7816164E-02  0.1300439E+00
        -11   -1    0    0    0    0  0.00000000000E+00  0.00000000000E+00  0.45593999997E+02  0.45594000000E+02  0.51100000000E-03 0. -1.
         11   -1    0    0    0    0 -0.00000000000E+00 -0.00000000000E+00 -0.45593999997E+02  0.45594000000E+02  0.51100000000E-03 0.  1.
    9900012    2    1    2    0    0 -0.23080000244E+02 -0.27003826549E+00 -0.33472479037E+02  0.50528853614E+02  0.29999981046E+02 0.  0.
         12    1    1    2    0    0  0.23080000244E+02  0.27003826549E+00  0.33472479037E+02  0.40659146386E+02  0.00000000000E+00 0. -1.
         11    1    3    3    0    0 -0.92985022091E+01 -0.59195384669E+00 -0.33892356743E+01  0.99146089890E+01  0.51100000000E-03 0. -1.
        -11    1    3    3    0    0 -0.76464976789E+01  0.76336598645E+01 -0.29073585444E+02  0.31016367623E+02  0.51100000000E-03 0.  1.
        -12    1    3    3    0    0 -0.61350003566E+01 -0.73117442833E+01 -0.10096579184E+01  0.95978770023E+01  0.00000000000E+00 0.  1.
</event>
<event>
 7    1  0.1369731E-013  0.5052885E+02  0.7816164E-02  0.1300439E+00
        -11   -1    0    0    0    0  0.00000000000E+00  0.00000000000E+00  0.45593999997E+02  0.45594000000E+02  0.51100000000E-03 0. -1.
         11   -1    0    0    0    0 -0.00000000000E+00 -0.00000000000E+00 -0.45593999997E+02  0.45594000000E+02  0.51100000000E-03 0.  1.
    9900012    2    1    2    0    0 -0.38854757996E+01 -0.95321102074E+01 -0.39334568682E+02  0.50528851699E+02  0.29999975224E+02 0.  0.
         12    1    1    2    0    0  0.38854757996E+01  0.95321102074E+01  0.39334568682E+02  0.40659148301E+02  0.00000000000E+00 0. -1.
         11    1    3    3    0    0  0.38973832708E+01 -0.15776883946E+02 -0.15341118080E+02  0.22348368343E+02  0.51100000000E-03 0. -1.
        -11    1    3    3    0    0  0.17058402968E+01  0.47760879644E+01 -0.67360147691E+01  0.84317733954E+01  0.51100000000E-03 0.  1.
         12    1    3    3    0    0 -0.94886993673E+01  0.14686857740E+01 -0.17257435832E+02  0.19748709960E+02  0.00000000000E+00 0. -1.
</event>
<event>
 7    1  0.1610911E-013  0.5052883E+02  0.7816164E-02  0.1300439E+00
        -11   -1    0    0    0    0  0.00000000000E+00  0.00000000000E+00  0.45593999997E+02  0.45594000000E+02  0.51100000000E-03 0. -1.
         11   -1    0    0    0    0 -0.00000000000E+00 -0.00000000000E+00 -0.45593999997E+02  0.45594000000E+02  0.51100000000E-03 0.  1.
    9900012    2    1    2    0    0  0.17007164029E+02  0.15992316348E+02 -0.33289192234E+02  0.50528829693E+02  0.29999908334E+02 0.  0.
         12    1    1    2    0    0 -0.17007164029E+02 -0.15992316348E+02  0.33289192234E+02  0.40659170307E+02  0.00000000000E+00 0. -1.
         11    1    3    3    0    0 -0.53733746212E+01  0.11675297816E+01 -0.52695473856E+01  0.76160626652E+01  0.51100000000E-03 0. -1.
        -11    1    3    3    0    0  0.16235539894E+02  0.27765614003E+01 -0.69537693850E+01  0.17878952927E+02  0.51100000000E-03 0.  1.
        -12    1    3    3    0    0  0.61449987557E+01  0.12048225166E+02 -0.21065875463E+02  0.25033814100E+02  0.00000000000E+00 0.  1.
</event>
<event>
 7    1  0.1369731E-013  0.5052886E+02  0.7816164E-02  0.1300439E+00
        -11   -1    0    0    0    0  0.00000000000E+00  0.00000000000E+00  0.45593999997E+02  0.45594000000E+02  0.51100000000E-03 0. -1.
         11   -1    0    0    0    0 -0.00000000000E+00 -0.00000000000E+00 -0.45593999997E+02  0.45594000000E+02  0.51100000000E-03 0.  1.
    9900012    2    1    2    0    0  0.12797811031E+02  0.19961858458E+02  0.33028865787E+02  0.50528859140E+02  0.29999997842E+02 0.  0.
        -12    1    1    2    0    0 -0.12797811031E+02 -0.19961858458E+02 -0.33028865787E+02  0.40659140860E+02  0.00000000000E+00 0.  1.
         11    1    3    3    0    0  0.19074273255E+02  0.18099879541E+02  0.14452035165E+02  0.30004913935E+02  0.51100000000E-03 0. -1.
        -11    1    3    3    0    0 -0.23725056620E+01  0.25417450389E+00  0.14359460740E+02  0.14556356028E+02  0.51100000000E-03 0.  1.
        -12    1    3    3    0    0 -0.39039565612E+01  0.16078044126E+01  0.42173698819E+01  0.59675891767E+01  0.00000000000E+00 0.  1.
</event>
<event>
 7    1  0.1369731E-013  0.5052886E+02  0.7816164E-02  0.1300439E+00
        -11   -1    0    0    0    0  0.00000000000E+00  0.00000000000E+00  0.45593999997E+02  0.45594000000E+02  0.51100000000E-03 0. -1.
         11   -1    0    0    0    0 -0.00000000000E+00 -0.00000000000E+00 -0.45593999997E+02  0.45594000000E+02  0.51100000000E-03 0.  1.
    9900012    2    1    2    0    0  0.17844859566E+02 -0.22643882517E+02  0.28670216529E+02  0.50528859033E+02  0.29999997515E+02 0.  0.
        -12    1    1    2    0    0 -0.17844859566E+02  0.22643882517E+02 -0.28670216529E+02  0.40659140967E+02  0.00000000000E+00 0.  1.
         11    1    3    3    0    0  0.15239369213E+02 -0.22774911786E+02  0.14862503444E+02  0.31174171837E+02  0.51100000000E-03 0. -1.
        -11    1    3    3    0    0 -0.41648431993E+01  0.23424556653E+01  0.12848867045E+01  0.49481260618E+01  0.51100000000E-03 0.  1.
        -12    1    3    3    0    0  0.67703335527E+01 -0.22114263960E+01  0.12522826381E+02  0.14406561134E+02  0.00000000000E+00 0.  1.
</event>
<event>
 7    1  0.1369731E-013  0.5052885E+02  0.7816164E-02  0.1300439E+00
        -11   -1    0    0    0    0  0.00000000000E+00  0.00000000000E+00  0.45593999997E+02  0.45594000000E+02  0.51100000000E-03 0. -1.
         11   -1    0    0    0    0 -0.00000000000E+00 -0.00000000000E+00 -0.45593999997E+02  0.45594000000E+02  0.51100000000E-03 0.  1.
    9900012    2    1    2    0    0 -0.31012251152E+02  0.14543455446E+02 -0.21906491300E+02  0.50528853687E+02  0.29999981267E+02 0.  0.
         12    1    1    2    0    0  0.31012251152E+02 -0.14543455446E+02  0.21906491300E+02  0.40659146313E+02  0.00000000000E+00 0. -1.
         11    1    3    3    0    0 -0.40794277463E+00  0.38102089032E+01  0.54683677468E+01  0.66773614002E+01  0.51100000000E-03 0. -1.
        -11    1    3    3    0    0 -0.24839806927E+02  0.12631855581E+02 -0.20004636795E+02  0.34304012552E+02  0.51100000000E-03 0.  1.
         12    1    3    3    0    0 -0.57645014508E+01 -0.18986090383E+01 -0.73702222517E+01  0.95474797353E+01  0.00000000000E+00 0. -1.
</event>
<event>
 7    1  0.1369731E-013  0.5052886E+02  0.7816164E-02  0.1300439E+00
        -11   -1    0    0    0    0  0.00000000000E+00  0.00000000000E+00  0.45593999997E+02  0.45594000000E+02  0.51100000000E-03 0.  1.
         11   -1    0    0    0    0 -0.00000000000E+00 -0.00000000000E+00 -0.45593999997E+02  0.45594000000E+02  0.51100000000E-03 0. -1.
    9900012    2    1    2    0    0  0.16918865985E+02  0.16112220232E+02  0.33276328046E+02  0.50528859881E+02  0.30000000095E+02 0.  0.
        -12    1    1    2    0    0 -0.16918865985E+02 -0.16112220232E+02 -0.33276328046E+02  0.40659140119E+02  0.00000000000E+00 0.  1.
         11    1    3    3    0    0  0.22466925913E+02  0.12512382545E+02  0.28972594505E+02  0.38739304454E+02  0.51100000000E-03 0. -1.
        -11    1    3    3    0    0 -0.30474969492E+01  0.74955276810E+00 -0.24921396291E+01  0.40074714222E+01  0.51100000000E-03 0.  1.
         12    1    3    3    0    0 -0.25005629791E+01  0.28502849181E+01  0.67958731693E+01  0.77820840049E+01  0.00000000000E+00 0. -1.
</event>
<event>
 7    1  0.1369731E-013  0.5052886E+02  0.7816164E-02  0.1300439E+00
        -11   -1    0    0    0    0  0.00000000000E+00  0.00000000000E+00  0.45593999997E+02  0.45594000000E+02  0.51100000000E-03 0. -1.
         11   -1    0    0    0    0 -0.00000000000E+00 -0.00000000000E+00 -0.45593999997E+02  0.45594000000E+02  0.51100000000E-03 0.  1.
    9900012    2    1    2    0    0  0.24572921178E+02  0.89767130140E+01  0.31124841198E+02  0.50528861158E+02  0.30000003976E+02 0.  0.
        -12    1    1    2    0    0 -0.24572921178E+02 -0.89767130140E+01 -0.31124841198E+02  0.40659138842E+02  0.00000000000E+00 0.  1.
         11    1    3    3    0    0  0.23777086223E+02  0.33112785418E+01  0.13828653630E+02  0.27704621569E+02  0.51100000000E-03 0. -1.
        -11    1    3    3    0    0 -0.20961872273E+01 -0.18329838422E+01  0.13768576653E+02  0.14047331916E+02  0.51100000000E-03 0.  1.
        -12    1    3    3    0    0  0.28920221828E+01  0.74984183144E+01  0.35276109150E+01  0.87769076725E+01  0.00000000000E+00 0.  1.
</event>
<event>
 7    1  0.1369731E-013  0.5052887E+02  0.7816164E-02  0.1300439E+00
        -11   -1    0    0    0    0  0.00000000000E+00  0.00000000000E+00  0.45593999997E+02  0.45594000000E+02  0.51100000000E-03 0. -1.
         11   -1    0    0    0    0 -0.00000000000E+00 -0.00000000000E+00 -0.45593999997E+02  0.45594000000E+02  0.51100000000E-03 0.  1.
    9900012    2    1    2    0    0 -0.31548307878E+02 -0.84145700114E+01  0.24229400508E+02  0.50528873504E+02  0.30000041502E+02 0.  0.
        -12    1    1    2    0    0  0.31548307878E+02  0.84145700114E+01 -0.24229400508E+02  0.40659126496E+02  0.00000000000E+00 0.  1.
         11    1    3    3    0    0 -0.10084639537E+02 -0.49941325989E+01 -0.31385783047E+01  0.11682978603E+02  0.51100000000E-03 0.  1.
        -11    1    3    3    0    0 -0.23171056394E+02 -0.51012298709E+01  0.27649297070E+02  0.36433556364E+02  0.51100000000E-03 0. -1.
        -12    1    3    3    0    0  0.17073880531E+01  0.16807924584E+01 -0.28131825745E+00  0.24123385364E+01  0.00000000000E+00 0.  1.
</event>
<event>
 7    1  0.1369731E-013  0.5052886E+02  0.7816164E-02  0.1300439E+00
        -11   -1    0    0    0    0  0.00000000000E+00  0.00000000000E+00  0.45593999997E+02  0.45594000000E+02  0.51100000000E-03 0. -1.
         11   -1    0    0    0    0 -0.00000000000E+00 -0.00000000000E+00 -0.45593999997E+02  0.45594000000E+02  0.51100000000E-03 0.  1.
    9900012    2    1    2    0    0  0.72574599405E+01 -0.31114073889E+02 -0.25147750869E+02  0.50528859668E+02  0.29999999448E+02 0.  0.
         12    1    1    2    0    0 -0.72574599405E+01  0.31114073889E+02  0.25147750869E+02  0.40659140332E+02  0.00000000000E+00 0. -1.
         11    1    3    3    0    0 -0.84130817798E+01 -0.70927639274E+01  0.15080161326E+00  0.11004998253E+02  0.51100000000E-03 0. -1.
        -11    1    3    3    0    0  0.15629121265E+02 -0.20584469138E+02 -0.25181781582E+02  0.36084788002E+02  0.51100000000E-03 0.  1.
        -12    1    3    3    0    0  0.41420455191E-01 -0.34368408233E+01 -0.11677089969E+00  0.34390734133E+01  0.00000000000E+00 0.  1.
</event>
<event>
 7    1  0.1369731E-013  0.5052885E+02  0.7816164E-02  0.1300439E+00
        -11   -1    0    0    0    0  0.00000000000E+00  0.00000000000E+00  0.45593999997E+02  0.45594000000E+02  0.51100000000E-03 0. -1.
         11   -1    0    0    0    0 -0.00000000000E+00 -0.00000000000E+00 -0.45593999997E+02  0.45594000000E+02  0.51100000000E-03 0.  1.
    9900012    2    1    2    0    0 -0.33894225004E+02  0.44993444393E+01 -0.22002352013E+02  0.50528854865E+02  0.29999984849E+02 0.  0.
         12    1    1    2    0    0  0.33894225004E+02 -0.44993444393E+01  0.22002352013E+02  0.40659145135E+02  0.00000000000E+00 0. -1.
         11    1    3    3    0    0 -0.83555367793E+01  0.99925505320E+00  0.59706610930E+01  0.10318056972E+02  0.51100000000E-03 0. -1.
        -11    1    3    3    0    0 -0.20073385504E+02  0.77604187013E+01 -0.23946478979E+02  0.32196253816E+02  0.51100000000E-03 0.  1.
         12    1    3    3    0    0 -0.54653027200E+01 -0.42603293152E+01 -0.40265341267E+01  0.80145440774E+01  0.00000000000E+00 0. -1.
</event>
<event>
 7    1  0.1369731E-013  0.5052886E+02  0.7816164E-02  0.1300439E+00
        -11   -1    0    0    0    0  0.00000000000E+00  0.00000000000E+00  0.45593999997E+02  0.45594000000E+02  0.51100000000E-03 0. -1.
         11   -1    0    0    0    0 -0.00000000000E+00 -0.00000000000E+00 -0.45593999997E+02  0.45594000000E+02  0.51100000000E-03 0.  1.
    9900012    2    1    2    0    0 -0.35910872839E+02  0.76733977488E+01  0.17455471697E+02  0.50528864333E+02  0.30000013627E+02 0.  0.
        -12    1    1    2    0    0  0.35910872839E+02 -0.76733977488E+01 -0.17455471697E+02  0.40659135667E+02  0.00000000000E+00 0.  1.
         11    1    3    3    0    0 -0.10744624896E+02  0.94937422046E+01  0.59456240485E+00  0.14350317415E+02  0.51100000000E-03 0. -1.
        -11    1    3    3    0    0 -0.85066152299E+01 -0.50019300665E+01  0.16485870480E+02  0.19213686081E+02  0.51100000000E-03 0.  1.
        -12    1    3    3    0    0 -0.16659632713E+02  0.31815856106E+01  0.37503881173E+00  0.16964860837E+02  0.00000000000E+00 0.  1.
</event>
<event>
 7    1  0.1369731E-013  0.5052886E+02  0.7816164E-02  0.1300439E+00
        -11   -1    0    0    0    0  0.00000000000E+00  0.00000000000E+00  0.45593999997E+02  0.45594000000E+02  0.51100000000E-03 0. -1.
         11   -1    0    0    0    0 -0.00000000000E+00 -0.00000000000E+00 -0.45593999997E+02  0.45594000000E+02  0.51100000000E-03 0.  1.
    9900012    2    1    2    0    0  0.12456308752E+02  0.23858585687E+02 -0.30475789968E+02  0.50528861877E+02  0.30000006162E+02 0.  0.
         12    1    1    2    0    0 -0.12456308752E+02 -0.23858585687E+02  0.30475789968E+02  0.40659138123E+02  0.00000000000E+00 0. -1.
         11    1    3    3    0    0 -0.32844179090E+01  0.13399554303E+02 -0.28156903663E+02  0.31355169920E+02  0.51100000000E-03 0. -1.
        -11    1    3    3    0    0  0.61301431018E+01  0.50233679787E+01 -0.18207029457E+00  0.79275488110E+01  0.51100000000E-03 0.  1.
         12    1    3    3    0    0  0.96105835596E+01  0.54356634056E+01 -0.21368160099E+01  0.11246143147E+02  0.00000000000E+00 0. -1.
</event>
<event>
 7    1  0.1369731E-013  0.5052887E+02  0.7816164E-02  0.1300439E+00
        -11   -1    0    0    0    0  0.00000000000E+00  0.00000000000E+00  0.45593999997E+02  0.45594000000E+02  0.51100000000E-03 0. -1.
         11   -1    0    0    0    0 -0.00000000000E+00 -0.00000000000E+00 -0.45593999997E+02  0.45594000000E+02  0.51100000000E-03 0.  1.
    9900012    2    1    2    0    0  0.22261123829E+02  0.23356549708E+02 -0.24740234512E+02  0.50528865084E+02  0.30000015909E+02 0.  0.
         12    1    1    2    0    0 -0.22261123829E+02 -0.23356549708E+02  0.24740234512E+02  0.40659134916E+02  0.00000000000E+00 0. -1.
         11    1    3    3    0    0  0.24774167209E+01  0.56307267940E+01  0.51600235825E+01  0.80292291953E+01  0.51100000000E-03 0. -1.
        -11    1    3    3    0    0  0.21714098440E+02  0.13901150518E+02 -0.24130724915E+02  0.35313396069E+02  0.51100000000E-03 0.  1.
         12    1    3    3    0    0 -0.19303913312E+01  0.38246723962E+01 -0.57695331796E+01  0.71862398193E+01  0.00000000000E+00 0. -1.
</event>
<event>
 7    1  0.1369731E-013  0.5052886E+02  0.7816164E-02  0.1300439E+00
        -11   -1    0    0    0    0  0.00000000000E+00  0.00000000000E+00  0.45593999997E+02  0.45594000000E+02  0.51100000000E-03 0.  1.
         11   -1    0    0    0    0 -0.00000000000E+00 -0.00000000000E+00 -0.45593999997E+02  0.45594000000E+02  0.51100000000E-03 0. -1.
    9900012    2    1    2    0    0 -0.25431663845E+02 -0.18562296981E+02 -0.25726202099E+02  0.50528857491E+02  0.29999992829E+02 0.  0.
         12    1    1    2    0    0  0.25431663845E+02  0.18562296981E+02  0.25726202099E+02  0.40659142509E+02  0.00000000000E+00 0. -1.
         11    1    3    3    0    0 -0.36937049273E+00 -0.31119018309E+01 -0.20325044064E+02  0.20565208096E+02  0.51100000000E-03 0. -1.
        -11    1    3    3    0    0 -0.12237106595E+02 -0.82896073769E+01 -0.29379249318E+01  0.15069697125E+02  0.51100000000E-03 0.  1.
         12    1    3    3    0    0 -0.12825186758E+02 -0.71607877729E+01 -0.24632331033E+01  0.14893952270E+02  0.00000000000E+00 0. -1.
</event>
<event>
 7    1  0.1369731E-013  0.5052885E+02  0.7816164E-02  0.1300439E+00
        -11   -1    0    0    0    0  0.00000000000E+00  0.00000000000E+00  0.45593999997E+02  0.45594000000E+02  0.51100000000E-03 0. -1.
         11   -1    0    0    0    0 -0.00000000000E+00 -0.00000000000E+00 -0.45593999997E+02  0.45594000000E+02  0.51100000000E-03 0.  1.
    9900012    2    1    2    0    0  0.90028824774E+01  0.52366599537E+01 -0.39302565194E+02  0.50528854274E+02  0.29999983051E+02 0.  0.
         12    1    1    2    0    0 -0.90028824774E+01 -0.52366599537E+01  0.39302565194E+02  0.40659145726E+02  0.00000000000E+00 0. -1.
         11    1    3    3    0    0 -0.52865670865E+01  0.33741894000E-01 -0.17747456170E+02  0.18518129788E+02  0.51100000000E-03 0. -1.
        -11    1    3    3    0    0  0.15405642840E+02  0.89192356311E+01 -0.11398047232E+02  0.21137693264E+02  0.51100000000E-03 0.  1.
        -12    1    3    3    0    0 -0.11161932762E+01 -0.37163175714E+01 -0.10157061791E+02  0.10873031222E+02  0.00000000000E+00 0.  1.
</event>
<event>
 7    1  0.1369731E-013  0.5052886E+02  0.7816164E-02  0.1300439E+00
        -11   -1    0    0    0    0  0.00000000000E+00  0.00000000000E+00  0.45593999997E+02  0.45594000000E+02  0.51100000000E-03 0. -1.
         11   -1    0    0    0    0 -0.00000000000E+00 -0.00000000000E+00 -0.45593999997E+02  0.45594000000E+02  0.51100000000E-03 0.  1.
    9900012    2    1    2    0    0  0.21557965456E+02 -0.32707551653E+01  0.34317955191E+02  0.50528858808E+02  0.29999996834E+02 0.  0.
        -12    1    1    2    0    0 -0.21557965456E+02  0.32707551653E+01 -0.34317955191E+02  0.40659141192E+02  0.00000000000E+00 0.  1.
         11    1    3    3    0    0  0.14287896100E+02  0.12338586922E+02  0.21893059373E+02  0.28908316297E+02  0.51100000000E-03 0. -1.
        -11    1    3    3    0    0  0.98304057603E+00 -0.66506686688E+01  0.53038731603E+01  0.85632256351E+01  0.51100000000E-03 0.  1.
         12    1    3    3    0    0  0.62870287798E+01 -0.89586734187E+01  0.71210226582E+01  0.13057316876E+02  0.00000000000E+00 0. -1.
</event>
<event>
 7    1  0.1369731E-013  0.5052886E+02  0.7816164E-02  0.1300439E+00
        -11   -1    0    0    0    0  0.00000000000E+00  0.00000000000E+00  0.45593999997E+02  0.45594000000E+02  0.51100000000E-03 0. -1.
         11   -1    0    0    0    0 -0.00000000000E+00 -0.00000000000E+00 -0.45593999997E+02  0.45594000000E+02  0.51100000000E-03 0.  1.
    9900012    2    1    2    0    0  0.28489316906E+02  0.21983245225E+02  0.18927786327E+02  0.50528863959E+02  0.30000012489E+02 0.  0.
        -12    1    1    2    0    0 -0.28489316906E+02 -0.21983245225E+02 -0.18927786327E+02  0.40659136041E+02  0.00000000000E+00 0.  1.
         11    1    3    3    0    0  0.25012428818E+02  0.22794588754E+02  0.13675965652E+02  0.36499957652E+02  0.51100000000E-03 0. -1.
        -11    1    3    3    0    0 -0.30714199792E+01  0.38566636630E+01  0.14882005731E+01  0.51499724761E+01  0.51100000000E-03 0.  1.
         12    1    3    3    0    0  0.65483080669E+01 -0.46680071922E+01  0.37636201021E+01  0.88789338301E+01  0.00000000000E+00 0. -1.
</event>
<event>
 7    1  0.1369731E-013  0.5052885E+02  0.7816164E-02  0.1300439E+00
        -11   -1    0    0    0    0  0.00000000000E+00  0.00000000000E+00  0.45593999997E+02  0.45594000000E+02  0.51100000000E-03 0. -1.
         11   -1    0    0    0    0 -0.00000000000E+00 -0.00000000000E+00 -0.45593999997E+02  0.45594000000E+02  0.51100000000E-03 0.  1.
    9900012    2    1    2    0    0  0.35163932146E+02  0.62417588659E+01 -0.19434621119E+02  0.50528853726E+02  0.29999981385E+02 0.  0.
         12    1    1    2    0    0 -0.35163932146E+02 -0.62417588659E+01  0.19434621119E+02  0.40659146274E+02  0.00000000000E+00 0. -1.
         11    1    3    3    0    0  0.17416292525E+01 -0.20668185246E+01  0.53457656576E+01  0.59901771254E+01  0.51100000000E-03 0. -1.
        -11    1    3    3    0    0  0.26769886538E+02  0.14064565094E+01 -0.21639764878E+02  0.34451188215E+02  0.51100000000E-03 0.  1.
        -12    1    3    3    0    0  0.66524163556E+01  0.69021208811E+01 -0.31406218983E+01  0.10087488386E+02  0.00000000000E+00 0.  1.
</event>
<event>
 7    1  0.1369731E-013  0.5052886E+02  0.7816164E-02  0.1300439E+00
        -11   -1    0    0    0    0  0.00000000000E+00  0.00000000000E+00  0.45593999997E+02  0.45594000000E+02  0.51100000000E-03 0. -1.
         11   -1    0    0    0    0 -0.00000000000E+00 -0.00000000000E+00 -0.45593999997E+02  0.45594000000E+02  0.51100000000E-03 0.  1.
    9900012    2    1    2    0    0  0.19833184849E+02  0.33552191073E+01  0.35334868752E+02  0.50528859992E+02  0.30000000432E+02 0.  0.
        -12    1    1    2    0    0 -0.19833184849E+02 -0.33552191073E+01 -0.35334868752E+02  0.40659140008E+02  0.00000000000E+00 0.  1.
         11    1    3    3    0    0 -0.30071342867E+01  0.50906066246E+01  0.15217235583E+02  0.16325482886E+02  0.51100000000E-03 0. -1.
        -11    1    3    3    0    0  0.19667143869E+02  0.39394577534E+01  0.10626581883E+02  0.22698901254E+02  0.51100000000E-03 0.  1.
         12    1    3    3    0    0  0.31731752664E+01 -0.56748452707E+01  0.94910512860E+01  0.11504475852E+02  0.00000000000E+00 0. -1.
</event>
<event>
 7    1  0.1369731E-013  0.5052885E+02  0.7816164E-02  0.1300439E+00
        -11   -1    0    0    0    0  0.00000000000E+00  0.00000000000E+00  0.45593999997E+02  0.45594000000E+02  0.51100000000E-03 0. -1.
         11   -1    0    0    0    0 -0.00000000000E+00 -0.00000000000E+00 -0.45593999997E+02  0.45594000000E+02  0.51100000000E-03 0.  1.
    9900012    2    1    2    0    0  0.30499045754E+02 -0.82237544121E+01  0.25599697401E+02  0.50528850531E+02  0.29999971674E+02 0.  0.
        -12    1    1    2    0    0 -0.30499045754E+02  0.82237544121E+01 -0.25599697401E+02  0.40659149469E+02  0.00000000000E+00 0.  1.
         11    1    3    3    0    0  0.10493784582E+02 -0.28974263603E+01  0.79242093095E+01  0.13465054319E+02  0.51100000000E-03 0. -1.
        -11    1    3    3    0    0 -0.46195696624E+01 -0.16777197066E+01  0.97843057552E+01  0.10949329050E+02  0.51100000000E-03 0.  1.
        -12    1    3    3    0    0  0.24624830835E+02 -0.36486083451E+01  0.78911823359E+01  0.26114467162E+02  0.00000000000E+00 0.  1.
</event>
<event>
 7    1  0.1369731E-013  0.5052886E+02  0.7816164E-02  0.1300439E+00
        -11   -1    0    0    0    0  0.00000000000E+00  0.00000000000E+00  0.45593999997E+02  0.45594000000E+02  0.51100000000E-03 0. -1.
         11   -1    0    0    0    0 -0.00000000000E+00 -0.00000000000E+00 -0.45593999997E+02  0.45594000000E+02  0.51100000000E-03 0.  1.
    9900012    2    1    2    0    0  0.11230511910E+02  0.13346469499E+02  0.36727555312E+02  0.50528856317E+02  0.29999989261E+02 0.  0.
        -12    1    1    2    0    0 -0.11230511910E+02 -0.13346469499E+02 -0.36727555312E+02  0.40659143683E+02  0.00000000000E+00 0.  1.
         11    1    3    3    0    0 -0.11411462291E+01  0.12030986163E+01  0.12279505407E+02  0.12390960992E+02  0.51100000000E-03 0. -1.
        -11    1    3    3    0    0  0.10439348307E+02  0.86698947297E+01  0.20547856306E+00  0.13571635473E+02  0.51100000000E-03 0.  1.
        -12    1    3    3    0    0  0.19323098317E+01  0.34734761526E+01  0.24242571342E+02  0.24566259853E+02  0.00000000000E+00 0.  1.
</event>
<event>
 7    1  0.1369731E-013  0.5052883E+02  0.7816164E-02  0.1300439E+00
        -11   -1    0    0    0    0  0.00000000000E+00  0.00000000000E+00  0.45593999997E+02  0.45594000000E+02  0.51100000000E-03 0. -1.
         11   -1    0    0    0    0 -0.00000000000E+00 -0.00000000000E+00 -0.45593999997E+02  0.45594000000E+02  0.51100000000E-03 0.  1.
    9900012    2    1    2    0    0  0.15767305414E+02  0.19056082882E+02  0.32271130103E+02  0.50528830641E+02  0.29999911216E+02 0.  0.
        -12    1    1    2    0    0 -0.15767305414E+02 -0.19056082882E+02 -0.32271130103E+02  0.40659169359E+02  0.00000000000E+00 0.  1.
         11    1    3    3    0    0  0.33412032520E+01  0.72210996629E+00  0.13164934098E+02  0.13601491537E+02  0.51100000000E-03 0. -1.
        -11    1    3    3    0    0  0.14810863065E+02  0.22413942860E+02  0.15926323203E+02  0.31231302731E+02  0.51100000000E-03 0.  1.
        -12    1    3    3    0    0 -0.23847609026E+01 -0.40799699447E+01  0.31798728027E+01  0.56960363722E+01  0.00000000000E+00 0.  1.
</event>
<event>
 7    1  0.1369731E-013  0.5052883E+02  0.7816164E-02  0.1300439E+00
        -11   -1    0    0    0    0  0.00000000000E+00  0.00000000000E+00  0.45593999997E+02  0.45594000000E+02  0.51100000000E-03 0.  1.
         11   -1    0    0    0    0 -0.00000000000E+00 -0.00000000000E+00 -0.45593999997E+02  0.45594000000E+02  0.51100000000E-03 0. -1.
    9900012    2    1    2    0    0  0.81399115503E+01 -0.35737129047E+02 -0.17600206190E+02  0.50528833622E+02  0.29999920279E+02 0.  0.
         12    1    1    2    0    0 -0.81399115503E+01  0.35737129047E+02  0.17600206190E+02  0.40659166378E+02  0.00000000000E+00 0. -1.
         11    1    3    3    0    0  0.41159790866E+01 -0.28729702019E+02 -0.23254873845E+02  0.37190404942E+02  0.51100000000E-03 0. -1.
        -11    1    3    3    0    0  0.24166925562E+01 -0.89862981547E+01  0.33156518910E+01  0.98786388313E+01  0.51100000000E-03 0.  1.
         12    1    3    3    0    0  0.16072399075E+01  0.19788711263E+01  0.23390157642E+01  0.34597898491E+01  0.00000000000E+00 0. -1.
</event>
<event>
 7    1  0.1369731E-013  0.5052882E+02  0.7816164E-02  0.1300439E+00
        -11   -1    0    0    0    0  0.00000000000E+00  0.00000000000E+00  0.45593999997E+02  0.45594000000E+02  0.51100000000E-03 0.  1.
         11   -1    0    0    0    0 -0.00000000000E+00 -0.00000000000E+00 -0.45593999997E+02  0.45594000000E+02  0.51100000000E-03 0. -1.
    9900012    2    1    2    0    0 -0.15323155996E+02 -0.37551670278E+02  0.28708115253E+01  0.50528823801E+02  0.29999890427E+02 0.  0.
         12    1    1    2    0    0  0.15323155996E+02  0.37551670278E+02 -0.28708115253E+01  0.40659176199E+02  0.00000000000E+00 0. -1.
         11    1    3    3    0    0  0.30533449440E+01 -0.66807565897E+00 -0.38249087869E+00  0.31488950390E+01  0.51100000000E-03 0. -1.
        -11    1    3    3    0    0 -0.20349144608E+02 -0.30593669659E+02  0.98640335466E+01  0.38044177840E+02  0.51100000000E-03 0.  1.
        -12    1    3    3    0    0  0.19726436676E+01 -0.62899249599E+01 -0.66107311427E+01  0.93357509222E+01  0.00000000000E+00 0.  1.
</event>
<event>
 7    1  0.1369731E-013  0.5052885E+02  0.7816164E-02  0.1300439E+00
        -11   -1    0    0    0    0  0.00000000000E+00  0.00000000000E+00  0.45593999997E+02  0.45594000000E+02  0.51100000000E-03 0. -1.
         11   -1    0    0    0    0 -0.00000000000E+00 -0.00000000000E+00 -0.45593999997E+02  0.45594000000E+02  0.51100000000E-03 0.  1.
    9900012    2    1    2    0    0  0.54817864420E+01 -0.29073406061E+02  0.27890020874E+02  0.50528853588E+02  0.29999980967E+02 0.  0.
        -12    1    1    2    0    0 -0.54817864420E+01  0.29073406061E+02 -0.27890020874E+02  0.40659146412E+02  0.00000000000E+00 0.  1.
         11    1    3    3    0    0 -0.71672370031E+01 -0.55883538816E+01  0.26960880072E+01  0.94798668856E+01  0.51100000000E-03 0. -1.
        -11    1    3    3    0    0  0.10465860986E+02 -0.18470452510E+01  0.74138565388E+01  0.12958051218E+02  0.51100000000E-03 0.  1.
         12    1    3    3    0    0  0.21831624592E+01 -0.21638006929E+02  0.17780076328E+02  0.28090935484E+02  0.00000000000E+00 0. -1.
</event>
<event>
 7    1  0.1369731E-013  0.5052885E+02  0.7816164E-02  0.1300439E+00
        -11   -1    0    0    0    0  0.00000000000E+00  0.00000000000E+00  0.45593999997E+02  0.45594000000E+02  0.51100000000E-03 0. -1.
         11   -1    0    0    0    0 -0.00000000000E+00 -0.00000000000E+00 -0.45593999997E+02  0.45594000000E+02  0.51100000000E-03 0.  1.
    9900012    2    1    2    0    0  0.14228429917E+02  0.32761751492E+02  0.19426428128E+02  0.50528847419E+02  0.29999962216E+02 0.  0.
        -12    1    1    2    0    0 -0.14228429917E+02 -0.32761751492E+02 -0.19426428128E+02  0.40659152581E+02  0.00000000000E+00 0.  1.
         11    1    3    3    0    0  0.19911356454E+02  0.22131045213E+02  0.20339147691E+02  0.36054489417E+02  0.51100000000E-03 0. -1.
        -11    1    3    3    0    0 -0.42647849131E+01  0.67681250079E+01  0.32375992167E+01  0.86300611485E+01  0.51100000000E-03 0.  1.
         12    1    3    3    0    0 -0.14181416240E+01  0.38625812716E+01 -0.41503187795E+01  0.58442968539E+01  0.00000000000E+00 0. -1.
</event>
<event>
 7    1  0.1369731E-013  0.5052886E+02  0.7816164E-02  0.1300439E+00
        -11   -1    0    0    0    0  0.00000000000E+00  0.00000000000E+00  0.45593999997E+02  0.45594000000E+02  0.51100000000E-03 0.  1.
         11   -1    0    0    0    0 -0.00000000000E+00 -0.00000000000E+00 -0.45593999997E+02  0.45594000000E+02  0.51100000000E-03 0. -1.
    9900012    2    1    2    0    0  0.14312396636E+02 -0.34027089252E+02  0.17043416620E+02  0.50528861415E+02  0.30000004757E+02 0.  0.
         12    1    1    2    0    0 -0.14312396636E+02  0.34027089252E+02 -0.17043416620E+02  0.40659138585E+02  0.00000000000E+00 0. -1.
         11    1    3    3    0    0  0.39443049315E+01 -0.14073533160E+01 -0.40015779348E+01  0.57923061882E+01  0.51100000000E-03 0. -1.
        -11    1    3    3    0    0 -0.49305444942E+01 -0.16264116161E+02  0.76162612275E+01  0.18623618844E+02  0.51100000000E-03 0.  1.
        -12    1    3    3    0    0  0.15298636199E+02 -0.16355619775E+02  0.13428733327E+02  0.26112936383E+02  0.00000000000E+00 0.  1.
</event>
<event>
 7    1  0.1369731E-013  0.5052888E+02  0.7816164E-02  0.1300439E+00
        -11   -1    0    0    0    0  0.00000000000E+00  0.00000000000E+00  0.45593999997E+02  0.45594000000E+02  0.51100000000E-03 0. -1.
         11   -1    0    0    0    0 -0.00000000000E+00 -0.00000000000E+00 -0.45593999997E+02  0.45594000000E+02  0.51100000000E-03 0.  1.
    9900012    2    1    2    0    0 -0.37201553241E+02 -0.20695444048E+01  0.16276525516E+02  0.50528882197E+02  0.30000067927E+02 0.  0.
        -12    1    1    2    0    0  0.37201553241E+02  0.20695444048E+01 -0.16276525516E+02  0.40659117803E+02  0.00000000000E+00 0.  1.
         11    1    3    3    0    0 -0.15501189623E+02  0.63982396969E+01 -0.28820964291E+01  0.17015605515E+02  0.51100000000E-03 0. -1.
        -11    1    3    3    0    0 -0.68496250969E+00 -0.57614290253E+01  0.69696806141E+01  0.90686099363E+01  0.51100000000E-03 0.  1.
         12    1    3    3    0    0 -0.21015401108E+02 -0.27063550764E+01  0.12188941331E+02  0.24444666746E+02  0.00000000000E+00 0. -1.
</event>
<event>
 7    1  0.1369731E-013  0.5052886E+02  0.7816164E-02  0.1300439E+00
        -11   -1    0    0    0    0  0.00000000000E+00  0.00000000000E+00  0.45593999997E+02  0.45594000000E+02  0.51100000000E-03 0. -1.
         11   -1    0    0    0    0 -0.00000000000E+00 -0.00000000000E+00 -0.45593999997E+02  0.45594000000E+02  0.51100000000E-03 0.  1.
    9900012    2    1    2    0    0 -0.16955009929E+02 -0.23788589390E+02 -0.28280677225E+02  0.50528855258E+02  0.29999986042E+02 0.  0.
         12    1    1    2    0    0  0.16955009929E+02  0.23788589390E+02  0.28280677225E+02  0.40659144742E+02  0.00000000000E+00 0. -1.
         11    1    3    3    0    0  0.50272151817E+01  0.22007532152E+01 -0.13197335919E+01  0.56442806638E+01  0.51100000000E-03 0. -1.
        -11    1    3    3    0    0 -0.21001527617E+02 -0.27126875249E+02 -0.25183180895E+02  0.42557303995E+02  0.51100000000E-03 0.  1.
        -12    1    3    3    0    0 -0.98069749409E+00  0.11375326444E+01 -0.17777627379E+01  0.23272705997E+01  0.00000000000E+00 0.  1.
</event>
<event>
 7    1  0.1369731E-013  0.5052886E+02  0.7816164E-02  0.1300439E+00
        -11   -1    0    0    0    0  0.00000000000E+00  0.00000000000E+00  0.45593999997E+02  0.45594000000E+02  0.51100000000E-03 0. -1.
         11   -1    0    0    0    0 -0.00000000000E+00 -0.00000000000E+00 -0.45593999997E+02  0.45594000000E+02  0.51100000000E-03 0.  1.
    9900012    2    1    2    0    0  0.22931657832E+02 -0.62294116263E+01  0.32992409189E+02  0.50528861246E+02  0.30000004244E+02 0.  0.
        -12    1    1    2    0    0 -0.22931657832E+02  0.62294116263E+01 -0.32992409189E+02  0.40659138754E+02  0.00000000000E+00 0.  1.
         11    1    3    3    0    0 -0.43135783845E+01  0.37045895016E+01  0.99490080880E+01  0.11459219173E+02  0.51100000000E-03 0. -1.
        -11    1    3    3    0    0  0.28125289894E+02 -0.80665055472E+01  0.22567013998E+02  0.36950921022E+02  0.51100000000E-03 0.  1.
        -12    1    3    3    0    0 -0.88005367754E+00 -0.18674955807E+01  0.47638710293E+00  0.21187210508E+01  0.00000000000E+00 0.  1.
</event>
<event>
 7    1  0.1369731E-013  0.5052885E+02  0.7816164E-02  0.1300439E+00
        -11   -1    0    0    0    0  0.00000000000E+00  0.00000000000E+00  0.45593999997E+02  0.45594000000E+02  0.51100000000E-03 0. -1.
         11   -1    0    0    0    0 -0.00000000000E+00 -0.00000000000E+00 -0.45593999997E+02  0.45594000000E+02  0.51100000000E-03 0.  1.
    9900012    2    1    2    0    0 -0.28868393160E+02 -0.86206934925E+00 -0.28618862038E+02  0.50528849105E+02  0.29999967338E+02 0.  0.
         12    1    1    2    0    0  0.28868393160E+02  0.86206934925E+00  0.28618862038E+02  0.40659150895E+02  0.00000000000E+00 0. -1.
         11    1    3    3    0    0 -0.44451282853E+01 -0.47805478818E+01 -0.15283685748E+01  0.67043802312E+01  0.51100000000E-03 0. -1.
        -11    1    3    3    0    0 -0.22149393813E+02  0.11839207468E+02 -0.24743163630E+02  0.35256015465E+02  0.51100000000E-03 0.  1.
        -12    1    3    3    0    0 -0.22738710614E+01 -0.79207289354E+01 -0.23473298330E+01  0.85684534086E+01  0.00000000000E+00 0.  1.
</event>
<event>
 7    1  0.1369731E-013  0.5052885E+02  0.7816164E-02  0.1300439E+00
        -11   -1    0    0    0    0  0.00000000000E+00  0.00000000000E+00  0.45593999997E+02  0.45594000000E+02  0.51100000000E-03 0. -1.
         11   -1    0    0    0    0 -0.00000000000E+00 -0.00000000000E+00 -0.45593999997E+02  0.45594000000E+02  0.51100000000E-03 0.  1.
    9900012    2    1    2    0    0  0.34854078582E+02  0.20786255581E+01  0.20833596378E+02  0.50528853230E+02  0.29999979879E+02 0.  0.
        -12    1    1    2    0    0 -0.34854078582E+02 -0.20786255581E+01 -0.20833596378E+02  0.40659146770E+02  0.00000000000E+00 0.  1.
         11    1    3    3    0    0  0.13310528780E+02  0.40882983557E+01 -0.66544748252E+01  0.15432640581E+02  0.51100000000E-03 0. -1.
        -11    1    3    3    0    0  0.17524001286E+02 -0.25381156505E+01  0.21306327808E+02  0.27703650609E+02  0.51100000000E-03 0.  1.
         12    1    3    3    0    0  0.40195485154E+01  0.52844285289E+00  0.61817433951E+01  0.73925620403E+01  0.00000000000E+00 0. -1.
</event>
<event>
 7    1  0.1369731E-013  0.5052885E+02  0.7816164E-02  0.1300439E+00
        -11   -1    0    0    0    0  0.00000000000E+00  0.00000000000E+00  0.45593999997E+02  0.45594000000E+02  0.51100000000E-03 0. -1.
         11   -1    0    0    0    0 -0.00000000000E+00 -0.00000000000E+00 -0.45593999997E+02  0.45594000000E+02  0.51100000000E-03 0.  1.
    9900012    2    1    2    0    0 -0.16819565814E+02  0.50025593623E+01  0.36677550590E+02  0.50528854515E+02  0.29999983783E+02 0.  0.
        -12    1    1    2    0    0  0.16819565814E+02 -0.50025593623E+01 -0.36677550590E+02  0.40659145485E+02  0.00000000000E+00 0.  1.
         11    1    3    3    0    0 -0.18607337621E+02 -0.31604628208E+01  0.24401526942E+02  0.30848923092E+02  0.51100000000E-03 0. -1.
        -11    1    3    3    0    0 -0.10529905651E+01  0.10191625768E+02  0.45674554272E+01  0.11217828412E+02  0.51100000000E-03 0.  1.
        -12    1    3    3    0    0  0.28407623720E+01 -0.20286035851E+01  0.77085682206E+01  0.84621030111E+01  0.00000000000E+00 0.  1.
</event>
<event>
 7    1  0.1369731E-013  0.5052887E+02  0.7816164E-02  0.1300439E+00
        -11   -1    0    0    0    0  0.00000000000E+00  0.00000000000E+00  0.45593999997E+02  0.45594000000E+02  0.51100000000E-03 0. -1.
         11   -1    0    0    0    0 -0.00000000000E+00 -0.00000000000E+00 -0.45593999997E+02  0.45594000000E+02  0.51100000000E-03 0.  1.
    9900012    2    1    2    0    0 -0.20149615996E+02  0.11501650542E+02  0.33389672745E+02  0.50528865282E+02  0.30000016513E+02 0.  0.
        -12    1    1    2    0    0  0.20149615996E+02 -0.11501650542E+02 -0.33389672745E+02  0.40659134718E+02  0.00000000000E+00 0.  1.
         11    1    3    3    0    0 -0.19647848277E+02  0.18949202314E+01  0.10984681508E+02  0.22589641270E+02  0.51100000000E-03 0. -1.
        -11    1    3    3    0    0 -0.16756739949E+01  0.12874946151E+02  0.19417637208E+02  0.23358440802E+02  0.51100000000E-03 0.  1.
         12    1    3    3    0    0  0.11739062759E+01 -0.32682158406E+01  0.29873540289E+01  0.45807832102E+01  0.00000000000E+00 0. -1.
</event>
<event>
 7    1  0.1369731E-013  0.5052886E+02  0.7816164E-02  0.1300439E+00
        -11   -1    0    0    0    0  0.00000000000E+00  0.00000000000E+00  0.45593999997E+02  0.45594000000E+02  0.51100000000E-03 0. -1.
         11   -1    0    0    0    0 -0.00000000000E+00 -0.00000000000E+00 -0.45593999997E+02  0.45594000000E+02  0.51100000000E-03 0.  1.
    9900012    2    1    2    0    0  0.21779515457E+02  0.26159479071E+01 -0.34234118074E+02  0.50528864283E+02  0.30000013473E+02 0.  0.
         12    1    1    2    0    0 -0.21779515457E+02 -0.26159479071E+01  0.34234118074E+02  0.40659135717E+02  0.00000000000E+00 0. -1.
         11    1    3    3    0    0  0.13530158108E+02  0.11944947715E+01 -0.35275929697E+02  0.37800571589E+02  0.51100000000E-03 0.  1.
        -11    1    3    3    0    0  0.51287650647E+01  0.89324447008E+00  0.52957541441E+01  0.74261112965E+01  0.51100000000E-03 0. -1.
         12    1    3    3    0    0  0.31205922841E+01  0.52820866553E+00 -0.42539425206E+01  0.53021813969E+01  0.00000000000E+00 0. -1.
</event>
<event>
 7    1  0.1369731E-013  0.5052888E+02  0.7816164E-02  0.1300439E+00
        -11   -1    0    0    0    0  0.00000000000E+00  0.00000000000E+00  0.45593999997E+02  0.45594000000E+02  0.51100000000E-03 0.  1.
         11   -1    0    0    0    0 -0.00000000000E+00 -0.00000000000E+00 -0.45593999997E+02  0.45594000000E+02  0.51100000000E-03 0. -1.
    9900012    2    1    2    0    0  0.35883476075E+02  0.11062070932E+02 -0.15593924203E+02  0.50528883672E+02  0.30000072409E+02 0.  0.
         12    1    1    2    0    0 -0.35883476075E+02 -0.11062070932E+02  0.15593924203E+02  0.40659116328E+02  0.00000000000E+00 0. -1.
         11    1    3    3    0    0  0.84946119881E+01 -0.20578563888E+01 -0.12152787532E+02  0.14969417184E+02  0.51100000000E-03 0. -1.
        -11    1    3    3    0    0  0.12230849790E+02  0.15482109145E+02  0.43940728916E+00  0.19735310213E+02  0.51100000000E-03 0.  1.
        -12    1    3    3    0    0  0.15158014297E+02 -0.23621818250E+01 -0.38805439597E+01  0.15824156276E+02  0.00000000000E+00 0.  1.
</event>
<event>
 7    1  0.1369731E-013  0.5052886E+02  0.7816164E-02  0.1300439E+00
        -11   -1    0    0    0    0  0.00000000000E+00  0.00000000000E+00  0.45593999997E+02  0.45594000000E+02  0.51100000000E-03 0. -1.
         11   -1    0    0    0    0 -0.00000000000E+00 -0.00000000000E+00 -0.45593999997E+02  0.45594000000E+02  0.51100000000E-03 0.  1.
    9900012    2    1    2    0    0  0.40876075395E+01  0.17073231947E+01 -0.40417103215E+02  0.50528859328E+02  0.29999998414E+02 0.  0.
         12    1    1    2    0    0 -0.40876075395E+01 -0.17073231947E+01  0.40417103215E+02  0.40659140672E+02  0.00000000000E+00 0. -1.
         11    1    3    3    0    0 -0.96678629425E+01 -0.60430022115E+01 -0.88224868219E+01  0.14416023154E+02  0.51100000000E-03 0. -1.
        -11    1    3    3    0    0  0.69741348829E+01  0.73384654479E+01 -0.23205883152E+02  0.25318069547E+02  0.51100000000E-03 0.  1.
         12    1    3    3    0    0  0.67813355992E+01  0.41185995830E+00 -0.83887332413E+01  0.10794766627E+02  0.00000000000E+00 0. -1.
</event>
<event>
 7    1  0.1369731E-013  0.5052891E+02  0.7816164E-02  0.1300439E+00
        -11   -1    0    0    0    0  0.00000000000E+00  0.00000000000E+00  0.45593999997E+02  0.45594000000E+02  0.51100000000E-03 0. -1.
         11   -1    0    0    0    0 -0.00000000000E+00 -0.00000000000E+00 -0.45593999997E+02  0.45594000000E+02  0.51100000000E-03 0.  1.
    9900012    2    1    2    0    0  0.12972616260E+02  0.19838020307E+02  0.33035214783E+02  0.50528914446E+02  0.30000165949E+02 0.  0.
        -12    1    1    2    0    0 -0.12972616260E+02 -0.19838020307E+02 -0.33035214783E+02  0.40659085554E+02  0.00000000000E+00 0.  1.
         11    1    3    3    0    0  0.32682699553E+01  0.15044120688E+01  0.22226808182E+02  0.22516124143E+02  0.51100000000E-03 0. -1.
        -11    1    3    3    0    0  0.13782970749E+01  0.15663824847E+02  0.24449814540E+01  0.15913297780E+02  0.51100000000E-03 0.  1.
         12    1    3    3    0    0  0.83260492299E+01  0.26697833920E+01  0.83634251468E+01  0.12099492524E+02  0.00000000000E+00 0. -1.
</event>
<event>
 7    1  0.1369731E-013  0.5052886E+02  0.7816164E-02  0.1300439E+00
        -11   -1    0    0    0    0  0.00000000000E+00  0.00000000000E+00  0.45593999997E+02  0.45594000000E+02  0.51100000000E-03 0.  1.
         11   -1    0    0    0    0 -0.00000000000E+00 -0.00000000000E+00 -0.45593999997E+02  0.45594000000E+02  0.51100000000E-03 0. -1.
    9900012    2    1    2    0    0  0.38750524749E+02  0.11941223815E+02 -0.29949224342E+01  0.50528861361E+02  0.30000004592E+02 0.  0.
         12    1    1    2    0    0 -0.38750524749E+02 -0.11941223815E+02  0.29949224342E+01  0.40659138639E+02  0.00000000000E+00 0. -1.
         11    1    3    3    0    0  0.97149542417E+00  0.33609828993E+01 -0.74869627747E+01  0.82640559812E+01  0.51100000000E-03 0. -1.
        -11    1    3    3    0    0  0.36977173748E+02  0.38798488434E+01  0.31614180987E+01  0.37314329287E+02  0.51100000000E-03 0.  1.
        -12    1    3    3    0    0  0.80185557622E+00  0.47003920720E+01  0.13306222419E+01  0.49504760929E+01  0.00000000000E+00 0.  1.
</event>
<event>
 7    1  0.1369731E-013  0.5052887E+02  0.7816164E-02  0.1300439E+00
        -11   -1    0    0    0    0  0.00000000000E+00  0.00000000000E+00  0.45593999997E+02  0.45594000000E+02  0.51100000000E-03 0. -1.
         11   -1    0    0    0    0 -0.00000000000E+00 -0.00000000000E+00 -0.45593999997E+02  0.45594000000E+02  0.51100000000E-03 0.  1.
    9900012    2    1    2    0    0 -0.23119530224E+02  0.15139308788E+02 -0.29823708393E+02  0.50528869037E+02  0.30000027924E+02 0.  0.
         12    1    1    2    0    0  0.23119530224E+02 -0.15139308788E+02  0.29823708393E+02  0.40659130963E+02  0.00000000000E+00 0. -1.
         11    1    3    3    0    0 -0.19433521485E+01 -0.15110616149E+01  0.52603942530E+01  0.58078974453E+01  0.51100000000E-03 0. -1.
        -11    1    3    3    0    0 -0.14443511478E+02  0.86029424768E+01 -0.25289105037E+02  0.30367161160E+02  0.51100000000E-03 0.  1.
         12    1    3    3    0    0 -0.67326665974E+01  0.80474279264E+01 -0.97949976091E+01  0.14353810432E+02  0.00000000000E+00 0. -1.
</event>
<event>
 7    1  0.1369731E-013  0.5052888E+02  0.7816164E-02  0.1300439E+00
        -11   -1    0    0    0    0  0.00000000000E+00  0.00000000000E+00  0.45593999997E+02  0.45594000000E+02  0.51100000000E-03 0. -1.
         11   -1    0    0    0    0 -0.00000000000E+00 -0.00000000000E+00 -0.45593999997E+02  0.45594000000E+02  0.51100000000E-03 0.  1.
    9900012    2    1    2    0    0  0.24830963558E+02 -0.14184776649E+02  0.28902932683E+02  0.50528878545E+02  0.30000056826E+02 0.  0.
        -12    1    1    2    0    0 -0.24830963558E+02  0.14184776649E+02 -0.28902932683E+02  0.40659121455E+02  0.00000000000E+00 0.  1.
         11    1    3    3    0    0  0.23532368167E+02 -0.61947488679E+01  0.19760970654E+02  0.31347140644E+02  0.51100000000E-03 0. -1.
        -11    1    3    3    0    0 -0.45510030926E+01 -0.35574267664E+01 -0.17608119170E+01  0.60388221712E+01  0.51100000000E-03 0.  1.
         12    1    3    3    0    0  0.58495984827E+01 -0.44326010147E+01  0.10902773946E+02  0.13142915730E+02  0.00000000000E+00 0. -1.
</event>
<event>
 7    1  0.1369731E-013  0.5052886E+02  0.7816164E-02  0.1300439E+00
        -11   -1    0    0    0    0  0.00000000000E+00  0.00000000000E+00  0.45593999997E+02  0.45594000000E+02  0.51100000000E-03 0.  1.
         11   -1    0    0    0    0 -0.00000000000E+00 -0.00000000000E+00 -0.45593999997E+02  0.45594000000E+02  0.51100000000E-03 0. -1.
    9900012    2    1    2    0    0  0.11325940467E+02 -0.24451488626E+02  0.30446891819E+02  0.50528862713E+02  0.30000008703E+02 0.  0.
        -12    1    1    2    0    0 -0.11325940467E+02  0.24451488626E+02 -0.30446891819E+02  0.40659137287E+02  0.00000000000E+00 0.  1.
         11    1    3    3    0    0 -0.79254551871E+01 -0.59521354426E+01  0.17965347003E+01  0.10073147147E+02  0.51100000000E-03 0. -1.
        -11    1    3    3    0    0  0.42014841689E+01 -0.98703722612E+01  0.14679468928E+02  0.18181406053E+02  0.51100000000E-03 0.  1.
         12    1    3    3    0    0  0.15049911485E+02 -0.86289809223E+01  0.13970888190E+02  0.22274309513E+02  0.00000000000E+00 0. -1.
</event>
<event>
 7    1  0.1369731E-013  0.5052886E+02  0.7816164E-02  0.1300439E+00
        -11   -1    0    0    0    0  0.00000000000E+00  0.00000000000E+00  0.45593999997E+02  0.45594000000E+02  0.51100000000E-03 0.  1.
         11   -1    0    0    0    0 -0.00000000000E+00 -0.00000000000E+00 -0.45593999997E+02  0.45594000000E+02  0.51100000000E-03 0. -1.
    9900012    2    1    2    0    0  0.21316144948E+02  0.92156500857E+01 -0.33374530598E+02  0.50528861610E+02  0.30000005351E+02 0.  0.
         12    1    1    2    0    0 -0.21316144948E+02 -0.92156500857E+01  0.33374530598E+02  0.40659138390E+02  0.00000000000E+00 0. -1.
         11    1    3    3    0    0  0.26796009549E+02  0.10105092623E+02 -0.27396157212E+02  0.39631912077E+02  0.51100000000E-03 0. -1.
        -11    1    3    3    0    0 -0.43393300096E+01  0.14203058999E+01 -0.19982256708E+00  0.45702279047E+01  0.51100000000E-03 0.  1.
         12    1    3    3    0    0 -0.11405345909E+01 -0.23097484374E+01 -0.57785508186E+01  0.63267216282E+01  0.00000000000E+00 0. -1.
</event>
<event>
 7    1  0.1369731E-013  0.5052886E+02  0.7816164E-02  0.1300439E+00
        -11   -1    0    0    0    0  0.00000000000E+00  0.00000000000E+00  0.45593999997E+02  0.45594000000E+02  0.51100000000E-03 0. -1.
         11   -1    0    0    0    0 -0.00000000000E+00 -0.00000000000E+00 -0.45593999997E+02  0.45594000000E+02  0.51100000000E-03 0.  1.
    9900012    2    1    2    0    0 -0.25217637771E+02 -0.13369183438E+02  0.28956890038E+02  0.50528858332E+02  0.29999995385E+02 0.  0.
        -12    1    1    2    0    0  0.25217637771E+02  0.13369183438E+02 -0.28956890038E+02  0.40659141668E+02  0.00000000000E+00 0.  1.
         11    1    3    3    0    0 -0.16944544954E+02 -0.13683821802E+02  0.26537726437E+02  0.34330970093E+02  0.51100000000E-03 0. -1.
        -11    1    3    3    0    0 -0.10574790319E+02  0.30238071668E+01 -0.12735620782E+01  0.11072107329E+02  0.51100000000E-03 0.  1.
         12    1    3    3    0    0  0.23016975026E+01 -0.27091688035E+01  0.36927256787E+01  0.51257809100E+01  0.00000000000E+00 0. -1.
</event>
<event>
 7    1  0.1369731E-013  0.5052886E+02  0.7816164E-02  0.1300439E+00
        -11   -1    0    0    0    0  0.00000000000E+00  0.00000000000E+00  0.45593999997E+02  0.45594000000E+02  0.51100000000E-03 0. -1.
         11   -1    0    0    0    0 -0.00000000000E+00 -0.00000000000E+00 -0.45593999997E+02  0.45594000000E+02  0.51100000000E-03 0.  1.
    9900012    2    1    2    0    0 -0.21040765279E+02 -0.22715726186E+02 -0.26352381088E+02  0.50528855780E+02  0.29999987629E+02 0.  0.
         12    1    1    2    0    0  0.21040765279E+02  0.22715726186E+02  0.26352381088E+02  0.40659144220E+02  0.00000000000E+00 0. -1.
         11    1    3    3    0    0 -0.23306150453E+02 -0.11702578793E+02 -0.22774683038E+02  0.34623881745E+02  0.51100000000E-03 0. -1.
        -11    1    3    3    0    0 -0.33792705257E+01 -0.83916619431E+01 -0.77599642311E+00  0.90797373400E+01  0.51100000000E-03 0.  1.
         12    1    3    3    0    0  0.56446556999E+01 -0.26214854508E+01 -0.28017016269E+01  0.68252366951E+01  0.00000000000E+00 0. -1.
</event>
<event>
 7    1  0.1369731E-013  0.5052887E+02  0.7816164E-02  0.1300439E+00
        -11   -1    0    0    0    0  0.00000000000E+00  0.00000000000E+00  0.45593999997E+02  0.45594000000E+02  0.51100000000E-03 0. -1.
         11   -1    0    0    0    0 -0.00000000000E+00 -0.00000000000E+00 -0.45593999997E+02  0.45594000000E+02  0.51100000000E-03 0.  1.
    9900012    2    1    2    0    0  0.20862069465E+02 -0.34042575743E+02  0.76838758245E+01  0.50528869989E+02  0.30000030818E+02 0.  0.
        -12    1    1    2    0    0 -0.20862069465E+02  0.34042575743E+02 -0.76838758245E+01  0.40659130011E+02  0.00000000000E+00 0.  1.
         11    1    3    3    0    0 -0.11482303432E+01 -0.23506807286E+02  0.77570102482E+01  0.24780226592E+02  0.51100000000E-03 0. -1.
        -11    1    3    3    0    0  0.83725834695E+01 -0.62735979484E+01 -0.35416836693E+01  0.11045438364E+02  0.51100000000E-03 0.  1.
         12    1    3    3    0    0  0.13637716339E+02 -0.42621705089E+01  0.34685492456E+01  0.14703205033E+02  0.00000000000E+00 0. -1.
</event>
<event>
 7    1  0.1369731E-013  0.5052893E+02  0.7816164E-02  0.1300439E+00
        -11   -1    0    0    0    0  0.00000000000E+00  0.00000000000E+00  0.45593999997E+02  0.45594000000E+02  0.51100000000E-03 0. -1.
         11   -1    0    0    0    0 -0.00000000000E+00 -0.00000000000E+00 -0.45593999997E+02  0.45594000000E+02  0.51100000000E-03 0.  1.
    9900012    2    1    2    0    0 -0.16850808519E+02 -0.21591656941E+02  0.30050138030E+02  0.50528927300E+02  0.30000205020E+02 0.  0.
        -12    1    1    2    0    0  0.16850808519E+02  0.21591656941E+02 -0.30050138030E+02  0.40659072700E+02  0.00000000000E+00 0.  1.
         11    1    3    3    0    0 -0.49761789588E+01 -0.25013621852E+02  0.12604363056E+02  0.28448437628E+02  0.51100000000E-03 0. -1.
        -11    1    3    3    0    0 -0.11518585994E+02  0.15578619917E+01  0.14640132741E+02  0.18693267349E+02  0.51100000000E-03 0.  1.
        -12    1    3    3    0    0 -0.35604356678E+00  0.18641029195E+01  0.28056422335E+01  0.33872223219E+01  0.00000000000E+00 0.  1.
</event>
<event>
 7    1  0.1369731E-013  0.5052885E+02  0.7816164E-02  0.1300439E+00
        -11   -1    0    0    0    0  0.00000000000E+00  0.00000000000E+00  0.45593999997E+02  0.45594000000E+02  0.51100000000E-03 0.  1.
         11   -1    0    0    0    0 -0.00000000000E+00 -0.00000000000E+00 -0.45593999997E+02  0.45594000000E+02  0.51100000000E-03 0. -1.
    9900012    2    1    2    0    0  0.39276141711E+02  0.92654205279E+01  0.49701970505E+01  0.50528853624E+02  0.29999981076E+02 0.  0.
        -12    1    1    2    0    0 -0.39276141711E+02 -0.92654205279E+01 -0.49701970505E+01  0.40659146376E+02  0.00000000000E+00 0.  1.
         11    1    3    3    0    0  0.19446029834E+02 -0.65946683451E+00 -0.90726723577E+01  0.21468496845E+02  0.51100000000E-03 0. -1.
        -11    1    3    3    0    0  0.16322196221E+02  0.39485838347E+01  0.14399698290E+02  0.22121408519E+02  0.51100000000E-03 0.  1.
         12    1    3    3    0    0  0.35079156571E+01  0.59763035277E+01 -0.35682888176E+00  0.69389482606E+01  0.00000000000E+00 0. -1.
</event>
<event>
 7    1  0.1369731E-013  0.5052886E+02  0.7816164E-02  0.1300439E+00
        -11   -1    0    0    0    0  0.00000000000E+00  0.00000000000E+00  0.45593999997E+02  0.45594000000E+02  0.51100000000E-03 0. -1.
         11   -1    0    0    0    0 -0.00000000000E+00 -0.00000000000E+00 -0.45593999997E+02  0.45594000000E+02  0.51100000000E-03 0.  1.
    9900012    2    1    2    0    0 -0.93541073904E+01  0.68902183869E+01  0.38963977789E+02  0.50528855892E+02  0.29999987969E+02 0.  0.
        -12    1    1    2    0    0  0.93541073904E+01 -0.68902183869E+01 -0.38963977789E+02  0.40659144108E+02  0.00000000000E+00 0.  1.
         11    1    3    3    0    0  0.14588727101E+01  0.10498354464E+02  0.22042811699E+02  0.24458726539E+02  0.51100000000E-03 0. -1.
        -11    1    3    3    0    0 -0.99571260963E+01  0.50113414934E+01  0.88904839784E+01  0.14258282130E+02  0.51100000000E-03 0.  1.
        -12    1    3    3    0    0 -0.85585400421E+00 -0.86194775703E+01  0.80306821109E+01  0.11811847223E+02  0.00000000000E+00 0.  1.
</event>
<event>
 7    1  0.1369731E-013  0.5052888E+02  0.7816164E-02  0.1300439E+00
        -11   -1    0    0    0    0  0.00000000000E+00  0.00000000000E+00  0.45593999997E+02  0.45594000000E+02  0.51100000000E-03 0. -1.
         11   -1    0    0    0    0 -0.00000000000E+00 -0.00000000000E+00 -0.45593999997E+02  0.45594000000E+02  0.51100000000E-03 0.  1.
    9900012    2    1    2    0    0  0.14597995300E+00  0.19400272025E+02  0.35731946760E+02  0.50528881907E+02  0.30000067045E+02 0.  0.
        -12    1    1    2    0    0 -0.14597995300E+00 -0.19400272025E+02 -0.35731946760E+02  0.40659118093E+02  0.00000000000E+00 0.  1.
         11    1    3    3    0    0 -0.37897443960E+01  0.17512982216E+02  0.37861789807E+02  0.41887728946E+02  0.51100000000E-03 0. -1.
        -11    1    3    3    0    0  0.41494417999E+01 -0.42069275541E+00  0.14163557293E+01  0.44046468029E+01  0.51100000000E-03 0.  1.
         12    1    3    3    0    0 -0.21371745093E+00  0.23079825651E+01 -0.35461987755E+01  0.42365061578E+01  0.00000000000E+00 0. -1.
</event>
<event>
 7    1  0.1369731E-013  0.5052892E+02  0.7816164E-02  0.1300439E+00
        -11   -1    0    0    0    0  0.00000000000E+00  0.00000000000E+00  0.45593999997E+02  0.45594000000E+02  0.51100000000E-03 0. -1.
         11   -1    0    0    0    0 -0.00000000000E+00 -0.00000000000E+00 -0.45593999997E+02  0.45594000000E+02  0.51100000000E-03 0.  1.
    9900012    2    1    2    0    0 -0.16567196479E+02  0.28168859248E+02  0.24190998246E+02  0.50528917047E+02  0.30000173855E+02 0.  0.
        -12    1    1    2    0    0  0.16567196479E+02 -0.28168859248E+02 -0.24190998246E+02  0.40659082953E+02  0.00000000000E+00 0.  1.
         11    1    3    3    0    0  0.70119358229E+01  0.95587699977E+00  0.19083265125E+01  0.73295740096E+01  0.51100000000E-03 0. -1.
        -11    1    3    3    0    0 -0.66633953515E+01  0.62602842825E+01  0.16864544923E+01  0.92971030932E+01  0.51100000000E-03 0.  1.
         12    1    3    3    0    0 -0.16915736950E+02  0.20952697965E+02  0.20596217241E+02  0.33902239944E+02  0.00000000000E+00 0. -1.
</event>
<event>
 7    1  0.1369731E-013  0.5052886E+02  0.7816164E-02  0.1300439E+00
        -11   -1    0    0    0    0  0.00000000000E+00  0.00000000000E+00  0.45593999997E+02  0.45594000000E+02  0.51100000000E-03 0. -1.
         11   -1    0    0    0    0 -0.00000000000E+00 -0.00000000000E+00 -0.45593999997E+02  0.45594000000E+02  0.51100000000E-03 0.  1.
    9900012    2    1    2    0    0 -0.24997351240E+02  0.10377414276E+02 -0.30341514960E+02  0.50528858025E+02  0.29999994452E+02 0.  0.
         12    1    1    2    0    0  0.24997351240E+02 -0.10377414276E+02  0.30341514960E+02  0.40659141975E+02  0.00000000000E+00 0. -1.
         11    1    3    3    0    0 -0.20545271022E+02 -0.12716505035E+01 -0.66316448175E+01  0.21626464566E+02  0.51100000000E-03 0. -1.
        -11    1    3    3    0    0 -0.39394315864E+01  0.17469250931E+01 -0.15317407721E+02  0.15912066116E+02  0.51100000000E-03 0.  1.
         12    1    3    3    0    0 -0.51264863173E+00  0.99021396866E+01 -0.83924624211E+01  0.12990327343E+02  0.00000000000E+00 0. -1.
</event>
<event>
 7    1  0.1369731E-013  0.5052886E+02  0.7816164E-02  0.1300439E+00
        -11   -1    0    0    0    0  0.00000000000E+00  0.00000000000E+00  0.45593999997E+02  0.45594000000E+02  0.51100000000E-03 0. -1.
         11   -1    0    0    0    0 -0.00000000000E+00 -0.00000000000E+00 -0.45593999997E+02  0.45594000000E+02  0.51100000000E-03 0.  1.
    9900012    2    1    2    0    0 -0.74521332815E+01  0.18720851658E+02 -0.35315163308E+02  0.50528864044E+02  0.30000012748E+02 0.  0.
         12    1    1    2    0    0  0.74521332815E+01 -0.18720851658E+02  0.35315163308E+02  0.40659135956E+02  0.00000000000E+00 0. -1.
         11    1    3    3    0    0 -0.82634290322E+00  0.17419098341E+02 -0.18739423998E+02  0.25598317164E+02  0.51100000000E-03 0. -1.
        -11    1    3    3    0    0  0.32779943152E+00 -0.74108032233E+01 -0.56812623733E+01  0.93436716176E+01  0.51100000000E-03 0.  1.
        -12    1    3    3    0    0 -0.69535898098E+01  0.87125565399E+01 -0.10894476937E+02  0.15586875262E+02  0.00000000000E+00 0.  1.
</event>
<event>
 7    1  0.1369731E-013  0.5052886E+02  0.7816164E-02  0.1300439E+00
        -11   -1    0    0    0    0  0.00000000000E+00  0.00000000000E+00  0.45593999997E+02  0.45594000000E+02  0.51100000000E-03 0. -1.
         11   -1    0    0    0    0 -0.00000000000E+00 -0.00000000000E+00 -0.45593999997E+02  0.45594000000E+02  0.51100000000E-03 0.  1.
    9900012    2    1    2    0    0 -0.72493077940E+01 -0.39025251806E+02 -0.88115247740E+01  0.50528859443E+02  0.29999998763E+02 0.  0.
         12    1    1    2    0    0  0.72493077940E+01  0.39025251806E+02  0.88115247740E+01  0.40659140557E+02  0.00000000000E+00 0. -1.
         11    1    3    3    0    0 -0.47987736956E+01 -0.31690668514E+00  0.55601525934E+01  0.73514594437E+01  0.51100000000E-03 0. -1.
        -11    1    3    3    0    0 -0.64675903639E+01 -0.30192686117E+02 -0.13569450501E+02  0.33727703853E+02  0.51100000000E-03 0.  1.
         12    1    3    3    0    0  0.40170562655E+01 -0.85156590034E+01 -0.80222686680E+00  0.94496961459E+01  0.00000000000E+00 0. -1.
</event>
<event>
 7    1  0.1369731E-013  0.5052886E+02  0.7816164E-02  0.1300439E+00
        -11   -1    0    0    0    0  0.00000000000E+00  0.00000000000E+00  0.45593999997E+02  0.45594000000E+02  0.51100000000E-03 0. -1.
         11   -1    0    0    0    0 -0.00000000000E+00 -0.00000000000E+00 -0.45593999997E+02  0.45594000000E+02  0.51100000000E-03 0.  1.
    9900012    2    1    2    0    0  0.77762129294E+01  0.23230449881E+02 -0.32450612964E+02  0.50528861163E+02  0.30000003992E+02 0.  0.
         12    1    1    2    0    0 -0.77762129294E+01 -0.23230449881E+02  0.32450612964E+02  0.40659138837E+02  0.00000000000E+00 0. -1.
         11    1    3    3    0    0  0.34384704394E+01 -0.88610411699E+00 -0.14900392360E+02  0.15317635333E+02  0.51100000000E-03 0. -1.
        -11    1    3    3    0    0  0.42029486573E+01  0.18748944753E+02 -0.21281976322E+02  0.28672464547E+02  0.51100000000E-03 0.  1.
         12    1    3    3    0    0  0.13479383275E+00  0.53676092445E+01  0.37317557174E+01  0.65387612828E+01  0.00000000000E+00 0. -1.
</event>
<event>
 7    1  0.1369731E-013  0.5052886E+02  0.7816164E-02  0.1300439E+00
        -11   -1    0    0    0    0  0.00000000000E+00  0.00000000000E+00  0.45593999997E+02  0.45594000000E+02  0.51100000000E-03 0.  1.
         11   -1    0    0    0    0 -0.00000000000E+00 -0.00000000000E+00 -0.45593999997E+02  0.45594000000E+02  0.51100000000E-03 0. -1.
    9900012    2    1    2    0    0 -0.51143285358E+01  0.38849963794E+02  0.10848467463E+02  0.50528864625E+02  0.30000014514E+02 0.  0.
        -12    1    1    2    0    0  0.51143285358E+01 -0.38849963794E+02 -0.10848467463E+02  0.40659135375E+02  0.00000000000E+00 0.  1.
         11    1    3    3    0    0 -0.36693018676E+01  0.20959191385E+02 -0.42427844008E+01  0.21696836162E+02  0.51100000000E-03 0. -1.
        -11    1    3    3    0    0 -0.82564832077E+01  0.73059024820E+01  0.11057057745E+02  0.15614232362E+02  0.51100000000E-03 0.  1.
        -12    1    3    3    0    0  0.68114565396E+01  0.10584869927E+02  0.40341941189E+01  0.13217796100E+02  0.00000000000E+00 0.  1.
</event>
<event>
 7    1  0.1369731E-013  0.5052886E+02  0.7816164E-02  0.1300439E+00
        -11   -1    0    0    0    0  0.00000000000E+00  0.00000000000E+00  0.45593999997E+02  0.45594000000E+02  0.51100000000E-03 0. -1.
         11   -1    0    0    0    0 -0.00000000000E+00 -0.00000000000E+00 -0.45593999997E+02  0.45594000000E+02  0.51100000000E-03 0.  1.
    9900012    2    1    2    0    0 -0.36739157029E+01 -0.16210911635E+02  0.37106261923E+02  0.50528856053E+02  0.29999988459E+02 0.  0.
        -12    1    1    2    0    0  0.36739157029E+01  0.16210911635E+02 -0.37106261923E+02  0.40659143947E+02  0.00000000000E+00 0.  1.
         11    1    3    3    0    0 -0.16381403432E+01  0.71881025029E+01  0.53289868518E+01  0.90967259223E+01  0.51100000000E-03 0.  1.
        -11    1    3    3    0    0 -0.50327625463E+01 -0.19497206735E+02  0.18779410832E+02  0.27534270297E+02  0.51100000000E-03 0. -1.
        -12    1    3    3    0    0  0.29969871866E+01 -0.39018074029E+01  0.12997864239E+02  0.13897859834E+02  0.00000000000E+00 0.  1.
</event>
<event>
 7    1  0.1672854E-013  0.5052886E+02  0.7816164E-02  0.1300439E+00
        -11   -1    0    0    0    0  0.00000000000E+00  0.00000000000E+00  0.45593999997E+02  0.45594000000E+02  0.51100000000E-03 0. -1.
         11   -1    0    0    0    0 -0.00000000000E+00 -0.00000000000E+00 -0.45593999997E+02  0.45594000000E+02  0.51100000000E-03 0.  1.
    9900012    2    1    2    0    0 -0.54407905935E+01 -0.19946277374E+02 -0.35010135976E+02  0.50528858292E+02  0.29999995264E+02 0.  0.
         12    1    1    2    0    0  0.54407905935E+01  0.19946277374E+02  0.35010135976E+02  0.40659141708E+02  0.00000000000E+00 0. -1.
         11    1    3    3    0    0 -0.81438762448E+01 -0.29150714635E+01 -0.48151378192E+00  0.86632683043E+01  0.51100000000E-03 0. -1.
        -11    1    3    3    0    0 -0.21024174979E+01 -0.11442864443E+02 -0.32039109291E+02  0.34086123722E+02  0.51100000000E-03 0.  1.
         12    1    3    3    0    0  0.48055031493E+01 -0.55883414676E+01 -0.24895129034E+01  0.77794662653E+01  0.00000000000E+00 0. -1.
</event>
<event>
 7    1  0.1369731E-013  0.5052887E+02  0.7816164E-02  0.1300439E+00
        -11   -1    0    0    0    0  0.00000000000E+00  0.00000000000E+00  0.45593999997E+02  0.45594000000E+02  0.51100000000E-03 0. -1.
         11   -1    0    0    0    0 -0.00000000000E+00 -0.00000000000E+00 -0.45593999997E+02  0.45594000000E+02  0.51100000000E-03 0.  1.
    9900012    2    1    2    0    0  0.35354306095E+02 -0.17064819088E+02 -0.10584422944E+02  0.50528867950E+02  0.30000024621E+02 0.  0.
         12    1    1    2    0    0 -0.35354306095E+02  0.17064819088E+02  0.10584422944E+02  0.40659132050E+02  0.00000000000E+00 0. -1.
         11    1    3    3    0    0  0.26453790944E+00  0.56525106501E+01  0.21443118183E+00  0.56627588637E+01  0.51100000000E-03 0. -1.
        -11    1    3    3    0    0  0.11489458556E+02 -0.14398259342E+02 -0.30589455064E+01  0.18672832615E+02  0.51100000000E-03 0.  1.
        -12    1    3    3    0    0  0.23600309630E+02 -0.83190703968E+01 -0.77399086193E+01  0.26193276472E+02  0.00000000000E+00 0.  1.
</event>
<event>
 7    1  0.1369731E-013  0.5052887E+02  0.7816164E-02  0.1300439E+00
        -11   -1    0    0    0    0  0.00000000000E+00  0.00000000000E+00  0.45593999997E+02  0.45594000000E+02  0.51100000000E-03 0. -1.
         11   -1    0    0    0    0 -0.00000000000E+00 -0.00000000000E+00 -0.45593999997E+02  0.45594000000E+02  0.51100000000E-03 0.  1.
    9900012    2    1    2    0    0 -0.61120054216E+01 -0.23984383458E+02 -0.32257673057E+02  0.50528871490E+02  0.30000035379E+02 0.  0.
         12    1    1    2    0    0  0.61120054216E+01  0.23984383458E+02  0.32257673057E+02  0.40659128510E+02  0.00000000000E+00 0. -1.
         11    1    3    3    0    0  0.84029253501E+01 -0.19543486847E+02 -0.26567647815E+02  0.34035230912E+02  0.51100000000E-03 0. -1.
        -11    1    3    3    0    0 -0.11785338752E+02 -0.45122846623E+01 -0.54704552727E+01  0.13754301274E+02  0.51100000000E-03 0.  1.
         12    1    3    3    0    0 -0.27295920197E+01  0.71388050845E-01 -0.21956996960E+00  0.27393393034E+01  0.00000000000E+00 0. -1.
</event>
<event>
 7    1  0.1369731E-013  0.5052886E+02  0.7816164E-02  0.1300439E+00
        -11   -1    0    0    0    0  0.00000000000E+00  0.00000000000E+00  0.45593999997E+02  0.45594000000E+02  0.51100000000E-03 0. -1.
         11   -1    0    0    0    0 -0.00000000000E+00 -0.00000000000E+00 -0.45593999997E+02  0.45594000000E+02  0.51100000000E-03 0.  1.
    9900012    2    1    2    0    0 -0.24546890644E+02 -0.29908583709E+02 -0.12493706036E+02  0.50528856990E+02  0.29999991307E+02 0.  0.
         12    1    1    2    0    0  0.24546890644E+02  0.29908583709E+02  0.12493706036E+02  0.40659143010E+02  0.00000000000E+00 0. -1.
         11    1    3    3    0    0  0.20344556404E+01  0.88102694778E+00  0.22886660209E+01  0.31864103082E+01  0.51100000000E-03 0. -1.
        -11    1    3    3    0    0 -0.23861687367E+02 -0.27423230392E+02 -0.19240537605E+02  0.41129210748E+02  0.51100000000E-03 0.  1.
        -12    1    3    3    0    0 -0.27196589174E+01 -0.33663802652E+01  0.44581655482E+01  0.62132359340E+01  0.00000000000E+00 0.  1.
</event>
<event>
 7    1  0.1369731E-013  0.5052887E+02  0.7816164E-02  0.1300439E+00
        -11   -1    0    0    0    0  0.00000000000E+00  0.00000000000E+00  0.45593999997E+02  0.45594000000E+02  0.51100000000E-03 0.  1.
         11   -1    0    0    0    0 -0.00000000000E+00 -0.00000000000E+00 -0.45593999997E+02  0.45594000000E+02  0.51100000000E-03 0. -1.
    9900012    2    1    2    0    0 -0.16775560293E+02 -0.26728408667E+02 -0.25638603113E+02  0.50528865447E+02  0.30000017014E+02 0.  0.
         12    1    1    2    0    0  0.16775560293E+02  0.26728408667E+02  0.25638603113E+02  0.40659134553E+02  0.00000000000E+00 0. -1.
         11    1    3    3    0    0  0.64217175147E+00 -0.54165230065E+01 -0.19224857360E+01  0.57833431253E+01  0.51100000000E-03 0. -1.
        -11    1    3    3    0    0 -0.14744413048E+02  0.15708833223E+01 -0.79044856133E+01  0.16803162905E+02  0.51100000000E-03 0.  1.
        -12    1    3    3    0    0 -0.26733189967E+01 -0.22882768982E+02 -0.15811631763E+02  0.27942359417E+02  0.00000000000E+00 0.  1.
</event>
<event>
 7    1  0.1369731E-013  0.5052885E+02  0.7816164E-02  0.1300439E+00
        -11   -1    0    0    0    0  0.00000000000E+00  0.00000000000E+00  0.45593999997E+02  0.45594000000E+02  0.51100000000E-03 0. -1.
         11   -1    0    0    0    0 -0.00000000000E+00 -0.00000000000E+00 -0.45593999997E+02  0.45594000000E+02  0.51100000000E-03 0.  1.
    9900012    2    1    2    0    0 -0.11446440205E+02  0.21573289104E+02 -0.32507521201E+02  0.50528846900E+02  0.29999960638E+02 0.  0.
         12    1    1    2    0    0  0.11446440205E+02 -0.21573289104E+02  0.32507521201E+02  0.40659153100E+02  0.00000000000E+00 0. -1.
         11    1    3    3    0    0 -0.24684933931E+01  0.60449823050E+01 -0.45698569510E+01  0.79698722395E+01  0.51100000000E-03 0. -1.
        -11    1    3    3    0    0 -0.10118611257E+01  0.86925127872E+01 -0.30519296751E+02  0.31749190792E+02  0.51100000000E-03 0.  1.
        -12    1    3    3    0    0 -0.79660856861E+01  0.68357940117E+01  0.25816325007E+01  0.10809783869E+02  0.00000000000E+00 0.  1.
</event>
<event>
 7    1  0.1369731E-013  0.5052886E+02  0.7816164E-02  0.1300439E+00
        -11   -1    0    0    0    0  0.00000000000E+00  0.00000000000E+00  0.45593999997E+02  0.45594000000E+02  0.51100000000E-03 0. -1.
         11   -1    0    0    0    0 -0.00000000000E+00 -0.00000000000E+00 -0.45593999997E+02  0.45594000000E+02  0.51100000000E-03 0.  1.
    9900012    2    1    2    0    0 -0.36017994900E+01  0.14423607841E+02 -0.37843788410E+02  0.50528859036E+02  0.29999997526E+02 0.  0.
         12    1    1    2    0    0  0.36017994900E+01 -0.14423607841E+02  0.37843788410E+02  0.40659140964E+02  0.00000000000E+00 0. -1.
         11    1    3    3    0    0  0.63539747687E+01  0.14889143406E+02 -0.14981009486E+02  0.22056523575E+02  0.51100000000E-03 0. -1.
        -11    1    3    3    0    0  0.23010271767E+00 -0.50908631233E+01 -0.37527659988E+01  0.63287508644E+01  0.51100000000E-03 0.  1.
         12    1    3    3    0    0 -0.10185876976E+02  0.46253275585E+01 -0.19110012925E+02  0.22143584597E+02  0.00000000000E+00 0. -1.
</event>
<event>
 7    1  0.1369731E-013  0.5052886E+02  0.7816164E-02  0.1300439E+00
        -11   -1    0    0    0    0  0.00000000000E+00  0.00000000000E+00  0.45593999997E+02  0.45594000000E+02  0.51100000000E-03 0. -1.
         11   -1    0    0    0    0 -0.00000000000E+00 -0.00000000000E+00 -0.45593999997E+02  0.45594000000E+02  0.51100000000E-03 0.  1.
    9900012    2    1    2    0    0 -0.79200259653E+00  0.26422827712E+02 -0.30892922343E+02  0.50528859044E+02  0.29999997549E+02 0.  0.
         12    1    1    2    0    0  0.79200259653E+00 -0.26422827712E+02  0.30892922343E+02  0.40659140956E+02  0.00000000000E+00 0. -1.
         11    1    3    3    0    0 -0.59281628851E+01  0.71163749910E+01 -0.50316698357E+01  0.10540569710E+02  0.51100000000E-03 0. -1.
        -11    1    3    3    0    0  0.13344512235E+02  0.16791730581E+02 -0.15141381096E+02  0.26254516649E+02  0.51100000000E-03 0.  1.
        -12    1    3    3    0    0 -0.82083519462E+01  0.25147221404E+01 -0.10719871411E+02  0.13733772685E+02  0.00000000000E+00 0.  1.
</event>
<event>
 7    1  0.1369731E-013  0.5052885E+02  0.7816164E-02  0.1300439E+00
        -11   -1    0    0    0    0  0.00000000000E+00  0.00000000000E+00  0.45593999997E+02  0.45594000000E+02  0.51100000000E-03 0. -1.
         11   -1    0    0    0    0 -0.00000000000E+00 -0.00000000000E+00 -0.45593999997E+02  0.45594000000E+02  0.51100000000E-03 0.  1.
    9900012    2    1    2    0    0  0.13762663236E+02 -0.24878046439E+01 -0.38178083340E+02  0.50528854426E+02  0.29999983512E+02 0.  0.
         12    1    1    2    0    0 -0.13762663236E+02  0.24878046439E+01  0.38178083340E+02  0.40659145574E+02  0.00000000000E+00 0. -1.
         11    1    3    3    0    0  0.40002210776E+01 -0.13971756509E+02 -0.80280041298E+01  0.16603029819E+02  0.51100000000E-03 0. -1.
        -11    1    3    3    0    0  0.76671749627E+01  0.10604978843E+02 -0.27352436590E+02  0.30321723827E+02  0.51100000000E-03 0.  1.
         12    1    3    3    0    0  0.20952671957E+01  0.87897302222E+00 -0.27976426203E+01  0.36041007791E+01  0.00000000000E+00 0. -1.
</event>
<event>
 7    1  0.1369731E-013  0.5052885E+02  0.7816164E-02  0.1300439E+00
        -11   -1    0    0    0    0  0.00000000000E+00  0.00000000000E+00  0.45593999997E+02  0.45594000000E+02  0.51100000000E-03 0. -1.
         11   -1    0    0    0    0 -0.00000000000E+00 -0.00000000000E+00 -0.45593999997E+02  0.45594000000E+02  0.51100000000E-03 0.  1.
    9900012    2    1    2    0    0 -0.48398253639E+01  0.88300054058E+01 -0.39392554028E+02  0.50528853208E+02  0.29999979812E+02 0.  0.
         12    1    1    2    0    0  0.48398253639E+01 -0.88300054058E+01  0.39392554028E+02  0.40659146792E+02  0.00000000000E+00 0. -1.
         11    1    3    3    0    0  0.34352371068E+01 -0.26156760735E+01 -0.22988800191E+02  0.23390757786E+02  0.51100000000E-03 0. -1.
        -11    1    3    3    0    0  0.39186212281E+01  0.63162484028E+01 -0.22531328284E+01  0.77670582603E+01  0.51100000000E-03 0.  1.
         12    1    3    3    0    0 -0.12193683699E+02  0.51294330764E+01 -0.14150621008E+02  0.19371037162E+02  0.00000000000E+00 0. -1.
</event>
<event>
 7    1  0.1369731E-013  0.5052887E+02  0.7816164E-02  0.1300439E+00
        -11   -1    0    0    0    0  0.00000000000E+00  0.00000000000E+00  0.45593999997E+02  0.45594000000E+02  0.51100000000E-03 0.  1.
         11   -1    0    0    0    0 -0.00000000000E+00 -0.00000000000E+00 -0.45593999997E+02  0.45594000000E+02  0.51100000000E-03 0. -1.
    9900012    2    1    2    0    0 -0.10526628329E+02  0.37933454973E+02  0.10168980793E+02  0.50528867194E+02  0.30000022323E+02 0.  0.
         12    1    1    2    0    0  0.10526628329E+02 -0.37933454973E+02 -0.10168980793E+02  0.40659132806E+02  0.00000000000E+00 0. -1.
         11    1    3    3    0    0  0.49603314272E+01  0.28017736231E+01 -0.10267951948E+00  0.56978387699E+01  0.51100000000E-03 0. -1.
        -11    1    3    3    0    0 -0.16201292765E+02  0.13047328854E+02  0.87534277004E+00  0.20820204195E+02  0.51100000000E-03 0.  1.
        -12    1    3    3    0    0  0.71433300885E+00  0.22084352496E+02  0.93963175422E+01  0.24010824230E+02  0.00000000000E+00 0.  1.
</event>
<event>
 7    1  0.1369731E-013  0.5052886E+02  0.7816164E-02  0.1300439E+00
        -11   -1    0    0    0    0  0.00000000000E+00  0.00000000000E+00  0.45593999997E+02  0.45594000000E+02  0.51100000000E-03 0. -1.
         11   -1    0    0    0    0 -0.00000000000E+00 -0.00000000000E+00 -0.45593999997E+02  0.45594000000E+02  0.51100000000E-03 0.  1.
    9900012    2    1    2    0    0  0.22515811367E+02  0.14167073156E+02 -0.30748952353E+02  0.50528858419E+02  0.29999995650E+02 0.  0.
         12    1    1    2    0    0 -0.22515811367E+02 -0.14167073156E+02  0.30748952353E+02  0.40659141581E+02  0.00000000000E+00 0. -1.
         11    1    3    3    0    0  0.12586964435E+02  0.33510003401E+01 -0.17266086201E+01  0.13139332348E+02  0.51100000000E-03 0. -1.
        -11    1    3    3    0    0  0.65353351284E+01  0.15560440693E+02 -0.16633859772E+02  0.23696480983E+02  0.51100000000E-03 0.  1.
         12    1    3    3    0    0  0.33935118037E+01 -0.47443678776E+01 -0.12388483961E+02  0.13693045088E+02  0.00000000000E+00 0. -1.
</event>
<event>
 7    1  0.1369731E-013  0.5052886E+02  0.7816164E-02  0.1300439E+00
        -11   -1    0    0    0    0  0.00000000000E+00  0.00000000000E+00  0.45593999997E+02  0.45594000000E+02  0.51100000000E-03 0. -1.
         11   -1    0    0    0    0 -0.00000000000E+00 -0.00000000000E+00 -0.45593999997E+02  0.45594000000E+02  0.51100000000E-03 0.  1.
    9900012    2    1    2    0    0  0.11374722651E+02  0.12289734849E+02 -0.37050555958E+02  0.50528860869E+02  0.30000003098E+02 0.  0.
         12    1    1    2    0    0 -0.11374722651E+02 -0.12289734849E+02  0.37050555958E+02  0.40659139131E+02  0.00000000000E+00 0. -1.
         11    1    3    3    0    0  0.35944180368E+01  0.82226141901E+01 -0.43753280165E+00  0.89845790306E+01  0.51100000000E-03 0. -1.
        -11    1    3    3    0    0  0.71626734861E+00 -0.45561849923E+01 -0.25095136277E+02  0.25515440925E+02  0.51100000000E-03 0.  1.
        -12    1    3    3    0    0  0.70640372651E+01  0.86233056516E+01 -0.11517886880E+02  0.16028840913E+02  0.00000000000E+00 0.  1.
</event>
<event>
 7    1  0.1427534E-013  0.5052886E+02  0.7816164E-02  0.1300439E+00
        -11   -1    0    0    0    0  0.00000000000E+00  0.00000000000E+00  0.45593999997E+02  0.45594000000E+02  0.51100000000E-03 0. -1.
         11   -1    0    0    0    0 -0.00000000000E+00 -0.00000000000E+00 -0.45593999997E+02  0.45594000000E+02  0.51100000000E-03 0.  1.
    9900012    2    1    2    0    0  0.24642759219E+02 -0.12792229887E+02 -0.29702842731E+02  0.50528860883E+02  0.30000003140E+02 0.  0.
         12    1    1    2    0    0 -0.24642759219E+02  0.12792229887E+02  0.29702842731E+02  0.40659139117E+02  0.00000000000E+00 0. -1.
         11    1    3    3    0    0 -0.34273856994E+01  0.90494696215E+00 -0.27079947925E+01  0.44608449642E+01  0.51100000000E-03 0. -1.
        -11    1    3    3    0    0  0.24553055779E+02 -0.44051051087E+01 -0.26082309976E+02  0.36090779890E+02  0.51100000000E-03 0.  1.
        -12    1    3    3    0    0  0.35170891391E+01 -0.92920717407E+01 -0.91253796334E+00  0.99772360291E+01  0.00000000000E+00 0.  1.
</event>
<event>
 7    1  0.1369731E-013  0.5052886E+02  0.7816164E-02  0.1300439E+00
        -11   -1    0    0    0    0  0.00000000000E+00  0.00000000000E+00  0.45593999997E+02  0.45594000000E+02  0.51100000000E-03 0. -1.
         11   -1    0    0    0    0 -0.00000000000E+00 -0.00000000000E+00 -0.45593999997E+02  0.45594000000E+02  0.51100000000E-03 0.  1.
    9900012    2    1    2    0    0 -0.13801876081E+02 -0.95736975168E+01  0.37027261120E+02  0.50528861623E+02  0.30000005388E+02 0.  0.
        -12    1    1    2    0    0  0.13801876081E+02  0.95736975168E+01 -0.37027261120E+02  0.40659138377E+02  0.00000000000E+00 0.  1.
         11    1    3    3    0    0 -0.13588245486E+02 -0.15959738037E+02  0.14130443947E+02  0.25278906226E+02  0.51100000000E-03 0. -1.
        -11    1    3    3    0    0  0.20737952981E+01  0.58325901318E+01  0.77373689977E+01  0.99089158767E+01  0.51100000000E-03 0.  1.
         12    1    3    3    0    0 -0.22874258937E+01  0.55345038874E+00  0.15159448176E+02  0.15341039520E+02  0.00000000000E+00 0. -1.
</event>
<event>
 7    1  0.1369731E-013  0.5052887E+02  0.7816164E-02  0.1300439E+00
        -11   -1    0    0    0    0  0.00000000000E+00  0.00000000000E+00  0.45593999997E+02  0.45594000000E+02  0.51100000000E-03 0. -1.
         11   -1    0    0    0    0 -0.00000000000E+00 -0.00000000000E+00 -0.45593999997E+02  0.45594000000E+02  0.51100000000E-03 0.  1.
    9900012    2    1    2    0    0 -0.41360172736E+01  0.34292760787E+02  0.21449124539E+02  0.50528867879E+02  0.30000024406E+02 0.  0.
        -12    1    1    2    0    0  0.41360172736E+01 -0.34292760787E+02 -0.21449124539E+02  0.40659132121E+02  0.00000000000E+00 0.  1.
         11    1    3    3    0    0 -0.11648719198E+01 -0.31852098426E+01  0.54381811416E+01  0.64090797094E+01  0.51100000000E-03 0. -1.
        -11    1    3    3    0    0 -0.76765529781E+01  0.34855728373E+02  0.14510401640E+02  0.38527951179E+02  0.51100000000E-03 0.  1.
        -12    1    3    3    0    0  0.47054076243E+01  0.26222422569E+01  0.15005417577E+01  0.55918369908E+01  0.00000000000E+00 0.  1.
</event>
<event>
 7    1  0.1369731E-013  0.5052886E+02  0.7816164E-02  0.1300439E+00
        -11   -1    0    0    0    0  0.00000000000E+00  0.00000000000E+00  0.45593999997E+02  0.45594000000E+02  0.51100000000E-03 0. -1.
         11   -1    0    0    0    0 -0.00000000000E+00 -0.00000000000E+00 -0.45593999997E+02  0.45594000000E+02  0.51100000000E-03 0.  1.
    9900012    2    1    2    0    0  0.83394524926E+01 -0.98428936804E+01  0.38558229218E+02  0.50528855096E+02  0.29999985550E+02 0.  0.
        -12    1    1    2    0    0 -0.83394524926E+01  0.98428936804E+01 -0.38558229218E+02  0.40659144904E+02  0.00000000000E+00 0.  1.
         11    1    3    3    0    0  0.14511443560E+02  0.15902550374E+01  0.18569465820E+02  0.23620668204E+02  0.51100000000E-03 0. -1.
        -11    1    3    3    0    0 -0.86797735536E+01 -0.92432285560E+01  0.19877030576E+02  0.23576939748E+02  0.51100000000E-03 0.  1.
         12    1    3    3    0    0  0.25077824863E+01 -0.21899201619E+01  0.11173282174E+00  0.33312471444E+01  0.00000000000E+00 0. -1.
</event>
<event>
 7    1  0.1369731E-013  0.5052887E+02  0.7816164E-02  0.1300439E+00
        -11   -1    0    0    0    0  0.00000000000E+00  0.00000000000E+00  0.45593999997E+02  0.45594000000E+02  0.51100000000E-03 0. -1.
         11   -1    0    0    0    0 -0.00000000000E+00 -0.00000000000E+00 -0.45593999997E+02  0.45594000000E+02  0.51100000000E-03 0.  1.
    9900012    2    1    2    0    0  0.25575261099E+02  0.22667599088E+02 -0.22028417760E+02  0.50528865507E+02  0.30000017196E+02 0.  0.
         12    1    1    2    0    0 -0.25575261099E+02 -0.22667599088E+02  0.22028417760E+02  0.40659134493E+02  0.00000000000E+00 0. -1.
         11    1    3    3    0    0  0.16944286329E+02  0.13840856362E+02 -0.17232118025E+02  0.27850027575E+02  0.51100000000E-03 0.  1.
        -11    1    3    3    0    0  0.28118384739E+01 -0.54642595326E+01 -0.37806566253E+01  0.72151183374E+01  0.51100000000E-03 0. -1.
        -12    1    3    3    0    0  0.58191362962E+01  0.14291002259E+02 -0.10156431094E+01  0.15463719595E+02  0.00000000000E+00 0.  1.
</event>
<event>
 7    1  0.1369731E-013  0.5052886E+02  0.7816164E-02  0.1300439E+00
        -11   -1    0    0    0    0  0.00000000000E+00  0.00000000000E+00  0.45593999997E+02  0.45594000000E+02  0.51100000000E-03 0. -1.
         11   -1    0    0    0    0 -0.00000000000E+00 -0.00000000000E+00 -0.45593999997E+02  0.45594000000E+02  0.51100000000E-03 0.  1.
    9900012    2    1    2    0    0  0.88276434716E+01  0.27227944188E+01  0.39595766754E+02  0.50528860270E+02  0.30000001278E+02 0.  0.
        -12    1    1    2    0    0 -0.88276434716E+01 -0.27227944188E+01 -0.39595766754E+02  0.40659139730E+02  0.00000000000E+00 0.  1.
         11    1    3    3    0    0 -0.28707937811E+01 -0.57121685982E+01 -0.16561443707E+01  0.66040246415E+01  0.51100000000E-03 0.  1.
        -11    1    3    3    0    0  0.65574289696E+01  0.40787033654E+01  0.28171317840E+02  0.29210594738E+02  0.51100000000E-03 0. -1.
        -12    1    3    3    0    0  0.51410082832E+01  0.43562596516E+01  0.13080593284E+02  0.14714240891E+02  0.00000000000E+00 0.  1.
</event>
<event>
 7    1  0.1369731E-013  0.5052886E+02  0.7816164E-02  0.1300439E+00
        -11   -1    0    0    0    0  0.00000000000E+00  0.00000000000E+00  0.45593999997E+02  0.45594000000E+02  0.51100000000E-03 0. -1.
         11   -1    0    0    0    0 -0.00000000000E+00 -0.00000000000E+00 -0.45593999997E+02  0.45594000000E+02  0.51100000000E-03 0.  1.
    9900012    2    1    2    0    0 -0.18973392533E+02  0.23205446742E+02  0.27471501961E+02  0.50528858313E+02  0.29999995328E+02 0.  0.
        -12    1    1    2    0    0  0.18973392533E+02 -0.23205446742E+02 -0.27471501961E+02  0.40659141687E+02  0.00000000000E+00 0.  1.
         11    1    3    3    0    0 -0.11147478924E+02  0.52635254680E+01  0.19986401536E+02  0.23482487801E+02  0.51100000000E-03 0. -1.
        -11    1    3    3    0    0 -0.12681808761E+02  0.13265673051E+02  0.22069938328E+01  0.18484511813E+02  0.51100000000E-03 0.  1.
        -12    1    3    3    0    0  0.48558951516E+01  0.46762482238E+01  0.52781065924E+01  0.85618586986E+01  0.00000000000E+00 0.  1.
</event>
<event>
 7    1  0.1369731E-013  0.5052886E+02  0.7816164E-02  0.1300439E+00
        -11   -1    0    0    0    0  0.00000000000E+00  0.00000000000E+00  0.45593999997E+02  0.45594000000E+02  0.51100000000E-03 0. -1.
         11   -1    0    0    0    0 -0.00000000000E+00 -0.00000000000E+00 -0.45593999997E+02  0.45594000000E+02  0.51100000000E-03 0.  1.
    9900012    2    1    2    0    0  0.37438138971E+00  0.19459425462E+02 -0.35698130260E+02  0.50528857058E+02  0.29999991514E+02 0.  0.
         12    1    1    2    0    0 -0.37438138971E+00 -0.19459425462E+02  0.35698130260E+02  0.40659142942E+02  0.00000000000E+00 0. -1.
         11    1    3    3    0    0 -0.19827795004E+01  0.14405335236E+02 -0.30869919596E+01  0.14865215015E+02  0.51100000000E-03 0. -1.
        -11    1    3    3    0    0  0.18757665241E+01 -0.44852586680E+01 -0.10061354806E+02  0.11174386165E+02  0.51100000000E-03 0.  1.
         12    1    3    3    0    0  0.48139436596E+00  0.95393488934E+01 -0.22549783494E+02  0.24489255878E+02  0.00000000000E+00 0. -1.
</event>
<event>
 7    1  0.1369731E-013  0.5052886E+02  0.7816164E-02  0.1300439E+00
        -11   -1    0    0    0    0  0.00000000000E+00  0.00000000000E+00  0.45593999997E+02  0.45594000000E+02  0.51100000000E-03 0.  1.
         11   -1    0    0    0    0 -0.00000000000E+00 -0.00000000000E+00 -0.45593999997E+02  0.45594000000E+02  0.51100000000E-03 0. -1.
    9900012    2    1    2    0    0 -0.29856558303E+02 -0.37777825956E+00 -0.27597255112E+02  0.50528864743E+02  0.30000014873E+02 0.  0.
         12    1    1    2    0    0  0.29856558303E+02  0.37777825956E+00  0.27597255112E+02  0.40659135257E+02  0.00000000000E+00 0. -1.
         11    1    3    3    0    0 -0.33583019139E+01 -0.29248946650E+01 -0.77511957146E+01  0.89394762606E+01  0.51100000000E-03 0. -1.
        -11    1    3    3    0    0 -0.27505726728E+02  0.98195062783E+01 -0.15979449340E+02  0.33291598157E+02  0.51100000000E-03 0.  1.
        -12    1    3    3    0    0  0.10074703388E+01 -0.72723898728E+01 -0.38666100578E+01  0.82977903255E+01  0.00000000000E+00 0.  1.
</event>
<event>
 7    1  0.1369731E-013  0.5052886E+02  0.7816164E-02  0.1300439E+00
        -11   -1    0    0    0    0  0.00000000000E+00  0.00000000000E+00  0.45593999997E+02  0.45594000000E+02  0.51100000000E-03 0. -1.
         11   -1    0    0    0    0 -0.00000000000E+00 -0.00000000000E+00 -0.45593999997E+02  0.45594000000E+02  0.51100000000E-03 0.  1.
    9900012    2    1    2    0    0  0.26125722558E+02 -0.11182798603E+02  0.29078471826E+02  0.50528857271E+02  0.29999992161E+02 0.  0.
        -12    1    1    2    0    0 -0.26125722558E+02  0.11182798603E+02 -0.29078471826E+02  0.40659142729E+02  0.00000000000E+00 0.  1.
         11    1    3    3    0    0  0.51109954432E+01  0.20277537373E+01  0.15486093676E+02  0.16433294169E+02  0.51100000000E-03 0. -1.
        -11    1    3    3    0    0  0.10332107329E+02 -0.35079078307E+01 -0.37466728004E+01  0.11536698685E+02  0.51100000000E-03 0.  1.
        -12    1    3    3    0    0  0.10682619785E+02 -0.97026445092E+01  0.17339050950E+02  0.22558864417E+02  0.00000000000E+00 0.  1.
</event>
<event>
 7    1  0.1369731E-013  0.5052886E+02  0.7816164E-02  0.1300439E+00
        -11   -1    0    0    0    0  0.00000000000E+00  0.00000000000E+00  0.45593999997E+02  0.45594000000E+02  0.51100000000E-03 0. -1.
         11   -1    0    0    0    0 -0.00000000000E+00 -0.00000000000E+00 -0.45593999997E+02  0.45594000000E+02  0.51100000000E-03 0.  1.
    9900012    2    1    2    0    0 -0.20019229876E+02 -0.28557952119E+02 -0.20900709995E+02  0.50528857456E+02  0.29999992725E+02 0.  0.
         12    1    1    2    0    0  0.20019229876E+02  0.28557952119E+02  0.20900709995E+02  0.40659142544E+02  0.00000000000E+00 0. -1.
         11    1    3    3    0    0 -0.22985743976E+02 -0.25237416579E+02 -0.86089725079E+01  0.35204914850E+02  0.51100000000E-03 0. -1.
        -11    1    3    3    0    0  0.32119508968E+01  0.14510264598E+01 -0.21905458732E+01  0.41497708171E+01  0.51100000000E-03 0.  1.
         12    1    3    3    0    0 -0.24543679660E+00 -0.47715619998E+01 -0.10101191614E+02  0.11174171789E+02  0.00000000000E+00 0. -1.
</event>
<event>
 7    1  0.1369731E-013  0.5052886E+02  0.7816164E-02  0.1300439E+00
        -11   -1    0    0    0    0  0.00000000000E+00  0.00000000000E+00  0.45593999997E+02  0.45594000000E+02  0.51100000000E-03 0. -1.
         11   -1    0    0    0    0 -0.00000000000E+00 -0.00000000000E+00 -0.45593999997E+02  0.45594000000E+02  0.51100000000E-03 0.  1.
    9900012    2    1    2    0    0  0.43385291745E+01  0.16486050769E+02 -0.36912774593E+02  0.50528860394E+02  0.30000001654E+02 0.  0.
         12    1    1    2    0    0 -0.43385291745E+01 -0.16486050769E+02  0.36912774593E+02  0.40659139606E+02  0.00000000000E+00 0. -1.
         11    1    3    3    0    0 -0.43226623985E+01 -0.19285249951E+01  0.23107474872E+01  0.52672737805E+01  0.51100000000E-03 0. -1.
        -11    1    3    3    0    0  0.10084552402E+02  0.17303807969E+02 -0.31484829126E+02  0.37315069781E+02  0.51100000000E-03 0.  1.
         12    1    3    3    0    0 -0.14233608289E+01  0.11107677960E+01 -0.77386929534E+01  0.79465168328E+01  0.00000000000E+00 0. -1.
</event>
<event>
 7    1  0.1369731E-013  0.5052887E+02  0.7816164E-02  0.1300439E+00
        -11   -1    0    0    0    0  0.00000000000E+00  0.00000000000E+00  0.45593999997E+02  0.45594000000E+02  0.51100000000E-03 0. -1.
         11   -1    0    0    0    0 -0.00000000000E+00 -0.00000000000E+00 -0.45593999997E+02  0.45594000000E+02  0.51100000000E-03 0.  1.
    9900012    2    1    2    0    0  0.63795687002E+01  0.12351509643E+02 -0.38208722243E+02  0.50528866430E+02  0.30000020000E+02 0.  0.
         12    1    1    2    0    0 -0.63795687002E+01 -0.12351509643E+02  0.38208722243E+02  0.40659133570E+02  0.00000000000E+00 0. -1.
         11    1    3    3    0    0 -0.47436830090E+01  0.11018145263E+02 -0.31439797471E+02  0.33650600571E+02  0.51100000000E-03 0. -1.
        -11    1    3    3    0    0  0.93123697237E+01 -0.20489244887E+01 -0.84018733087E+01  0.12708650471E+02  0.51100000000E-03 0.  1.
         12    1    3    3    0    0  0.18108819854E+01  0.33822888692E+01  0.16329485370E+01  0.41696153881E+01  0.00000000000E+00 0. -1.
</event>
<event>
 7    1  0.1369731E-013  0.5052886E+02  0.7816164E-02  0.1300439E+00
        -11   -1    0    0    0    0  0.00000000000E+00  0.00000000000E+00  0.45593999997E+02  0.45594000000E+02  0.51100000000E-03 0.  1.
         11   -1    0    0    0    0 -0.00000000000E+00 -0.00000000000E+00 -0.45593999997E+02  0.45594000000E+02  0.51100000000E-03 0. -1.
    9900012    2    1    2    0    0 -0.29098743967E+02 -0.28298959047E+02  0.23659628224E+01  0.50528858793E+02  0.29999996787E+02 0.  0.
        -12    1    1    2    0    0  0.29098743967E+02  0.28298959047E+02 -0.23659628224E+01  0.40659141207E+02  0.00000000000E+00 0.  1.
         11    1    3    3    0    0 -0.18687515313E+02 -0.12760251562E+02 -0.90144018703E+01  0.24357887631E+02  0.51100000000E-03 0. -1.
        -11    1    3    3    0    0 -0.24348792254E+00 -0.11813829402E+02  0.95408348497E+01  0.15187276958E+02  0.51100000000E-03 0.  1.
        -12    1    3    3    0    0 -0.10167740732E+02 -0.37248780835E+01  0.18395298430E+01  0.10983694204E+02  0.00000000000E+00 0.  1.
</event>
<event>
 7    1  0.1369731E-013  0.5052886E+02  0.7816164E-02  0.1300439E+00
        -11   -1    0    0    0    0  0.00000000000E+00  0.00000000000E+00  0.45593999997E+02  0.45594000000E+02  0.51100000000E-03 0. -1.
         11   -1    0    0    0    0 -0.00000000000E+00 -0.00000000000E+00 -0.45593999997E+02  0.45594000000E+02  0.51100000000E-03 0.  1.
    9900012    2    1    2    0    0 -0.20358159683E+02 -0.35135139493E+02  0.20574678778E+01  0.50528857524E+02  0.29999992929E+02 0.  0.
        -12    1    1    2    0    0  0.20358159683E+02  0.35135139493E+02 -0.20574678778E+01  0.40659142476E+02  0.00000000000E+00 0.  1.
         11    1    3    3    0    0  0.16276517737E+00 -0.19242417665E+02 -0.75596133679E+01  0.20674740255E+02  0.51100000000E-03 0.  1.
        -11    1    3    3    0    0 -0.17187758929E+02 -0.17513930788E+02  0.79979365869E+01  0.25809374626E+02  0.51100000000E-03 0. -1.
        -12    1    3    3    0    0 -0.33331659312E+01  0.16212089607E+01  0.16191446587E+01  0.40447426426E+01  0.00000000000E+00 0.  1.
</event>
<event>
 7    1  0.1369731E-013  0.5052886E+02  0.7816164E-02  0.1300439E+00
        -11   -1    0    0    0    0  0.00000000000E+00  0.00000000000E+00  0.45593999997E+02  0.45594000000E+02  0.51100000000E-03 0.  1.
         11   -1    0    0    0    0 -0.00000000000E+00 -0.00000000000E+00 -0.45593999997E+02  0.45594000000E+02  0.51100000000E-03 0. -1.
    9900012    2    1    2    0    0  0.12202676886E+02  0.38614877446E+02  0.36265499734E+01  0.50528856526E+02  0.29999989896E+02 0.  0.
        -12    1    1    2    0    0 -0.12202676886E+02 -0.38614877446E+02 -0.36265499734E+01  0.40659143474E+02  0.00000000000E+00 0.  1.
         11    1    3    3    0    0 -0.13115474272E+01  0.27337203172E+02  0.77792369166E+01  0.28452756654E+02  0.51100000000E-03 0. -1.
        -11    1    3    3    0    0  0.14461669732E+01 -0.23880863136E+01  0.12528041277E+01  0.30600447054E+01  0.51100000000E-03 0.  1.
         12    1    3    3    0    0  0.12068057340E+02  0.13665760587E+02 -0.54054910709E+01  0.19016055167E+02  0.00000000000E+00 0. -1.
</event>
<event>
 7    1  0.1369731E-013  0.5052887E+02  0.7816164E-02  0.1300439E+00
        -11   -1    0    0    0    0  0.00000000000E+00  0.00000000000E+00  0.45593999997E+02  0.45594000000E+02  0.51100000000E-03 0. -1.
         11   -1    0    0    0    0 -0.00000000000E+00 -0.00000000000E+00 -0.45593999997E+02  0.45594000000E+02  0.51100000000E-03 0.  1.
    9900012    2    1    2    0    0  0.47564891392E+01 -0.23719975167E+02  0.32678787496E+02  0.50528873558E+02  0.30000041666E+02 0.  0.
        -12    1    1    2    0    0 -0.47564891392E+01  0.23719975167E+02 -0.32678787496E+02  0.40659126442E+02  0.00000000000E+00 0.  1.
         11    1    3    3    0    0  0.45917258038E+01 -0.21392039471E+02  0.23136623959E+02  0.31843471342E+02  0.51100000000E-03 0. -1.
        -11    1    3    3    0    0  0.55009071745E+01  0.41706657288E+01  0.15300532754E+01  0.70707492991E+01  0.51100000000E-03 0.  1.
         12    1    3    3    0    0 -0.53361438392E+01 -0.64986014252E+01  0.80121102606E+01  0.11614652917E+02  0.00000000000E+00 0. -1.
</event>
<event>
 7    1  0.1369731E-013  0.5052885E+02  0.7816164E-02  0.1300439E+00
        -11   -1    0    0    0    0  0.00000000000E+00  0.00000000000E+00  0.45593999997E+02  0.45594000000E+02  0.51100000000E-03 0. -1.
         11   -1    0    0    0    0 -0.00000000000E+00 -0.00000000000E+00 -0.45593999997E+02  0.45594000000E+02  0.51100000000E-03 0.  1.
    9900012    2    1    2    0    0  0.28295333034E+01 -0.30692137672E+02 -0.26517030853E+02  0.50528849753E+02  0.29999969308E+02 0.  0.
         12    1    1    2    0    0 -0.28295333034E+01  0.30692137672E+02  0.26517030853E+02  0.40659150247E+02  0.00000000000E+00 0. -1.
         11    1    3    3    0    0  0.14396823753E+01 -0.68957534700E+01  0.64962522072E+01  0.95825567706E+01  0.51100000000E-03 0. -1.
        -11    1    3    3    0    0  0.12410240266E+01 -0.52829014398E+01 -0.10310811092E+02  0.11651695751E+02  0.51100000000E-03 0.  1.
         12    1    3    3    0    0  0.14882690149E+00 -0.18513482762E+02 -0.22702471969E+02  0.29294597231E+02  0.00000000000E+00 0. -1.
</event>
<event>
 7    1  0.1369731E-013  0.5052886E+02  0.7816164E-02  0.1300439E+00
        -11   -1    0    0    0    0  0.00000000000E+00  0.00000000000E+00  0.45593999997E+02  0.45594000000E+02  0.51100000000E-03 0. -1.
         11   -1    0    0    0    0 -0.00000000000E+00 -0.00000000000E+00 -0.45593999997E+02  0.45594000000E+02  0.51100000000E-03 0.  1.
    9900012    2    1    2    0    0  0.37193050779E+02 -0.48516342182E+01 -0.15694082461E+02  0.50528860743E+02  0.30000002716E+02 0.  0.
         12    1    1    2    0    0 -0.37193050779E+02  0.48516342182E+01  0.15694082461E+02  0.40659139257E+02  0.00000000000E+00 0. -1.
         11    1    3    3    0    0  0.71315486914E+01  0.70093422306E+01  0.16761161753E+01  0.10138995559E+02  0.51100000000E-03 0. -1.
        -11    1    3    3    0    0  0.20010909382E+02 -0.14797492309E+02 -0.16547457842E+02  0.29886796989E+02  0.51100000000E-03 0.  1.
         12    1    3    3    0    0  0.10050592705E+02  0.29365158603E+01 -0.82274079343E+00  0.10503068196E+02  0.00000000000E+00 0. -1.
</event>
<event>
 7    1  0.1369731E-013  0.5052887E+02  0.7816164E-02  0.1300439E+00
        -11   -1    0    0    0    0  0.00000000000E+00  0.00000000000E+00  0.45593999997E+02  0.45594000000E+02  0.51100000000E-03 0. -1.
         11   -1    0    0    0    0 -0.00000000000E+00 -0.00000000000E+00 -0.45593999997E+02  0.45594000000E+02  0.51100000000E-03 0.  1.
    9900012    2    1    2    0    0 -0.13278031129E+02  0.17429998640E+02 -0.34249878304E+02  0.50528866621E+02  0.30000020582E+02 0.  0.
         12    1    1    2    0    0  0.13278031129E+02 -0.17429998640E+02  0.34249878304E+02  0.40659133379E+02  0.00000000000E+00 0. -1.
         11    1    3    3    0    0 -0.12813929664E+01  0.28860806204E+01  0.75298804172E-01  0.31586546903E+01  0.51100000000E-03 0. -1.
        -11    1    3    3    0    0 -0.19506255112E+00  0.13609704094E+01 -0.28801570556E+02  0.28834367630E+02  0.51100000000E-03 0.  1.
        -12    1    3    3    0    0 -0.11801575611E+02  0.13182947611E+02 -0.55236065527E+01  0.18535844301E+02  0.00000000000E+00 0.  1.
</event>
<event>
 7    1  0.1369731E-013  0.5052886E+02  0.7816164E-02  0.1300439E+00
        -11   -1    0    0    0    0  0.00000000000E+00  0.00000000000E+00  0.45593999997E+02  0.45594000000E+02  0.51100000000E-03 0. -1.
         11   -1    0    0    0    0 -0.00000000000E+00 -0.00000000000E+00 -0.45593999997E+02  0.45594000000E+02  0.51100000000E-03 0.  1.
    9900012    2    1    2    0    0 -0.39760633824E+02  0.84438015944E+01 -0.97977461695E+00  0.50528859014E+02  0.29999997459E+02 0.  0.
         12    1    1    2    0    0  0.39760633824E+02 -0.84438015944E+01  0.97977461695E+00  0.40659140986E+02  0.00000000000E+00 0. -1.
         11    1    3    3    0    0 -0.31272502330E+02  0.88190557414E+01 -0.12664454048E+02  0.34873106296E+02  0.51100000000E-03 0. -1.
        -11    1    3    3    0    0 -0.75681374619E+01 -0.21185614251E+01  0.68154279713E+01  0.10402647060E+02  0.51100000000E-03 0.  1.
         12    1    3    3    0    0 -0.91999403199E+00  0.17433072782E+01  0.48692514593E+01  0.52531056585E+01  0.00000000000E+00 0. -1.
</event>
<event>
 7    1  0.1369731E-013  0.5052887E+02  0.7816164E-02  0.1300439E+00
        -11   -1    0    0    0    0  0.00000000000E+00  0.00000000000E+00  0.45593999997E+02  0.45594000000E+02  0.51100000000E-03 0.  1.
         11   -1    0    0    0    0 -0.00000000000E+00 -0.00000000000E+00 -0.45593999997E+02  0.45594000000E+02  0.51100000000E-03 0. -1.
    9900012    2    1    2    0    0 -0.18562001418E+02 -0.35244409559E+02  0.81515972195E+01  0.50528870164E+02  0.30000031350E+02 0.  0.
        -12    1    1    2    0    0  0.18562001418E+02  0.35244409559E+02 -0.81515972195E+01  0.40659129836E+02  0.00000000000E+00 0.  1.
         11    1    3    3    0    0 -0.92695927469E+01  0.98155490186E+00 -0.25609812404E+01  0.96668208266E+01  0.51100000000E-03 0. -1.
        -11    1    3    3    0    0 -0.58016221842E+01 -0.85297988911E+01  0.75177988505E+01  0.12764544211E+02  0.51100000000E-03 0.  1.
         12    1    3    3    0    0 -0.34907864869E+01 -0.27696165570E+02  0.31947796095E+01  0.28097505126E+02  0.00000000000E+00 0. -1.
</event>
<event>
 7    1  0.1369731E-013  0.5052886E+02  0.7816164E-02  0.1300439E+00
        -11   -1    0    0    0    0  0.00000000000E+00  0.00000000000E+00  0.45593999997E+02  0.45594000000E+02  0.51100000000E-03 0. -1.
         11   -1    0    0    0    0 -0.00000000000E+00 -0.00000000000E+00 -0.45593999997E+02  0.45594000000E+02  0.51100000000E-03 0.  1.
    9900012    2    1    2    0    0  0.15446309738E+02 -0.73325596372E+01 -0.36889169254E+02  0.50528859286E+02  0.29999998285E+02 0.  0.
         12    1    1    2    0    0 -0.15446309738E+02  0.73325596372E+01  0.36889169254E+02  0.40659140714E+02  0.00000000000E+00 0. -1.
         11    1    3    3    0    0 -0.84691086537E+01 -0.33506072043E+00 -0.50202171414E+01  0.98509211490E+01  0.51100000000E-03 0. -1.
        -11    1    3    3    0    0  0.34697445829E+01 -0.13409236353E+01 -0.74800213708E+01  0.83539166644E+01  0.51100000000E-03 0.  1.
         12    1    3    3    0    0  0.20445673809E+02 -0.56565752815E+01 -0.24388930742E+02  0.32324021472E+02  0.00000000000E+00 0. -1.
</event>
<event>
 7    1  0.1369731E-013  0.5052886E+02  0.7816164E-02  0.1300439E+00
        -11   -1    0    0    0    0  0.00000000000E+00  0.00000000000E+00  0.45593999997E+02  0.45594000000E+02  0.51100000000E-03 0.  1.
         11   -1    0    0    0    0 -0.00000000000E+00 -0.00000000000E+00 -0.45593999997E+02  0.45594000000E+02  0.51100000000E-03 0. -1.
    9900012    2    1    2    0    0  0.30113203952E+02 -0.13449219647E+01 -0.27286482633E+02  0.50528855864E+02  0.29999987885E+02 0.  0.
         12    1    1    2    0    0 -0.30113203952E+02  0.13449219647E+01  0.27286482633E+02  0.40659144136E+02  0.00000000000E+00 0. -1.
         11    1    3    3    0    0  0.74265849773E+01  0.11178911132E+01 -0.24878329706E+02  0.25987210974E+02  0.51100000000E-03 0. -1.
        -11    1    3    3    0    0  0.87642673911E+01 -0.16700143885E+01 -0.51903945895E+01  0.10321895524E+02  0.51100000000E-03 0.  1.
         12    1    3    3    0    0  0.13922351583E+02 -0.79279868938E+00  0.27822416622E+01  0.14219749366E+02  0.00000000000E+00 0. -1.
</event>
<event>
 7    1  0.1369731E-013  0.5052882E+02  0.7816164E-02  0.1300439E+00
        -11   -1    0    0    0    0  0.00000000000E+00  0.00000000000E+00  0.45593999997E+02  0.45594000000E+02  0.51100000000E-03 0.  1.
         11   -1    0    0    0    0 -0.00000000000E+00 -0.00000000000E+00 -0.45593999997E+02  0.45594000000E+02  0.51100000000E-03 0. -1.
    9900012    2    1    2    0    0 -0.29194134526E+02  0.24428088053E+02  0.14287761266E+02  0.50528817781E+02  0.29999872128E+02 0.  0.
        -12    1    1    2    0    0  0.29194134526E+02 -0.24428088053E+02 -0.14287761266E+02  0.40659182219E+02  0.00000000000E+00 0.  1.
         11    1    3    3    0    0 -0.69130969726E+01  0.11053530393E+02 -0.63532651018E+01  0.14502945274E+02  0.51100000000E-03 0. -1.
        -11    1    3    3    0    0 -0.20965598158E+02  0.90732669630E+01  0.10932211060E+02  0.25325752081E+02  0.51100000000E-03 0.  1.
         12    1    3    3    0    0 -0.13154393955E+01  0.43012906973E+01  0.97088153079E+01  0.10700120427E+02  0.00000000000E+00 0. -1.
</event>
<event>
 7    1  0.1369731E-013  0.5052886E+02  0.7816164E-02  0.1300439E+00
        -11   -1    0    0    0    0  0.00000000000E+00  0.00000000000E+00  0.45593999997E+02  0.45594000000E+02  0.51100000000E-03 0. -1.
         11   -1    0    0    0    0 -0.00000000000E+00 -0.00000000000E+00 -0.45593999997E+02  0.45594000000E+02  0.51100000000E-03 0.  1.
    9900012    2    1    2    0    0  0.73765638205E+01  0.30541173472E+02 -0.25806759450E+02  0.50528858295E+02  0.29999995275E+02 0.  0.
         12    1    1    2    0    0 -0.73765638205E+01 -0.30541173472E+02  0.25806759450E+02  0.40659141705E+02  0.00000000000E+00 0. -1.
         11    1    3    3    0    0 -0.65382757313E+01  0.80906994647E+01 -0.78278569875E-01  0.10402624436E+02  0.51100000000E-03 0. -1.
        -11    1    3    3    0    0  0.92085058252E+01  0.24083524675E+02 -0.20932336426E+02  0.33211074190E+02  0.51100000000E-03 0.  1.
        -12    1    3    3    0    0  0.47063337267E+01 -0.16330506678E+01 -0.47961444533E+01  0.69151596690E+01  0.00000000000E+00 0.  1.
</event>
<event>
 7    1  0.1369731E-013  0.5052874E+02  0.7816164E-02  0.1300439E+00
        -11   -1    0    0    0    0  0.00000000000E+00  0.00000000000E+00  0.45593999997E+02  0.45594000000E+02  0.51100000000E-03 0. -1.
         11   -1    0    0    0    0 -0.00000000000E+00 -0.00000000000E+00 -0.45593999997E+02  0.45594000000E+02  0.51100000000E-03 0.  1.
    9900012    2    1    2    0    0 -0.64160359200E+01 -0.10930252389E+02  0.38633403555E+02  0.50528735318E+02  0.29999621471E+02 0.  0.
        -12    1    1    2    0    0  0.64160359200E+01  0.10930252389E+02 -0.38633403555E+02  0.40659264682E+02  0.00000000000E+00 0.  1.
         11    1    3    3    0    0  0.53096175782E+01 -0.77592637884E+01  0.23592850767E+02  0.25397260107E+02  0.51100000000E-03 0. -1.
        -11    1    3    3    0    0 -0.12659286824E+01 -0.52094059082E+00 -0.34562383191E+01  0.37174639349E+01  0.51100000000E-03 0.  1.
         12    1    3    3    0    0 -0.10459724816E+02 -0.26500480098E+01  0.18496791107E+02  0.21414011276E+02  0.00000000000E+00 0. -1.
</event>
<event>
 7    1  0.1369731E-013  0.5052886E+02  0.7816164E-02  0.1300439E+00
        -11   -1    0    0    0    0  0.00000000000E+00  0.00000000000E+00  0.45593999997E+02  0.45594000000E+02  0.51100000000E-03 0. -1.
         11   -1    0    0    0    0 -0.00000000000E+00 -0.00000000000E+00 -0.45593999997E+02  0.45594000000E+02  0.51100000000E-03 0.  1.
    9900012    2    1    2    0    0 -0.12672993609E+02 -0.16702189084E+01  0.38597553857E+02  0.50528861273E+02  0.30000004327E+02 0.  0.
        -12    1    1    2    0    0  0.12672993609E+02  0.16702189084E+01 -0.38597553857E+02  0.40659138727E+02  0.00000000000E+00 0.  1.
         11    1    3    3    0    0  0.44384073474E+00  0.15509502493E+01  0.33276084793E+02  0.33315165626E+02  0.51100000000E-03 0. -1.
        -11    1    3    3    0    0 -0.37989749893E+01 -0.53821623309E+01  0.35581912419E+01  0.74873631875E+01  0.51100000000E-03 0.  1.
         12    1    3    3    0    0 -0.93178593543E+01  0.21609931732E+01  0.17632778223E+01  0.97263324599E+01  0.00000000000E+00 0. -1.
</event>
<event>
 7    1  0.1369731E-013  0.5052887E+02  0.7816164E-02  0.1300439E+00
        -11   -1    0    0    0    0  0.00000000000E+00  0.00000000000E+00  0.45593999997E+02  0.45594000000E+02  0.51100000000E-03 0.  1.
         11   -1    0    0    0    0 -0.00000000000E+00 -0.00000000000E+00 -0.45593999997E+02  0.45594000000E+02  0.51100000000E-03 0. -1.
    9900012    2    1    2    0    0 -0.34196287815E+02 -0.10233539798E+02  0.19469300340E+02  0.50528867043E+02  0.30000021863E+02 0.  0.
        -12    1    1    2    0    0  0.34196287815E+02  0.10233539798E+02 -0.19469300340E+02  0.40659132957E+02  0.00000000000E+00 0.  1.
         11    1    3    3    0    0 -0.21140849033E+02  0.71894766081E+01  0.24873727323E+01  0.22468001582E+02  0.51100000000E-03 0. -1.
        -11    1    3    3    0    0 -0.59545775901E+01 -0.11720395197E+02  0.88151392865E+01  0.15828181789E+02  0.51100000000E-03 0.  1.
         12    1    3    3    0    0 -0.71008611918E+01 -0.57026212089E+01  0.81667883215E+01  0.12232683671E+02  0.00000000000E+00 0. -1.
</event>
<event>
 7    1  0.1369731E-013  0.5052886E+02  0.7816164E-02  0.1300439E+00
        -11   -1    0    0    0    0  0.00000000000E+00  0.00000000000E+00  0.45593999997E+02  0.45594000000E+02  0.51100000000E-03 0. -1.
         11   -1    0    0    0    0 -0.00000000000E+00 -0.00000000000E+00 -0.45593999997E+02  0.45594000000E+02  0.51100000000E-03 0.  1.
    9900012    2    1    2    0    0  0.20296821387E+02  0.28302157796E+02  0.20980769787E+02  0.50528858406E+02  0.29999995611E+02 0.  0.
        -12    1    1    2    0    0 -0.20296821387E+02 -0.28302157796E+02 -0.20980769787E+02  0.40659141594E+02  0.00000000000E+00 0.  1.
         11    1    3    3    0    0 -0.26175297314E+01 -0.14014690436E+01  0.22537017940E+01  0.37275661513E+01  0.51100000000E-03 0.  1.
        -11    1    3    3    0    0  0.19928230461E+02  0.21064076419E+02  0.37272816236E+01  0.29235634306E+02  0.51100000000E-03 0. -1.
        -12    1    3    3    0    0  0.29861206575E+01  0.86395504198E+01  0.14999786369E+02  0.17565657948E+02  0.00000000000E+00 0.  1.
</event>
<event>
 7    1  0.1369731E-013  0.5052888E+02  0.7816164E-02  0.1300439E+00
        -11   -1    0    0    0    0  0.00000000000E+00  0.00000000000E+00  0.45593999997E+02  0.45594000000E+02  0.51100000000E-03 0. -1.
         11   -1    0    0    0    0 -0.00000000000E+00 -0.00000000000E+00 -0.45593999997E+02  0.45594000000E+02  0.51100000000E-03 0.  1.
    9900012    2    1    2    0    0 -0.16137723471E+01 -0.21922816252E+02  0.34204534733E+02  0.50528876425E+02  0.30000050381E+02 0.  0.
        -12    1    1    2    0    0  0.16137723471E+01  0.21922816252E+02 -0.34204534733E+02  0.40659123575E+02  0.00000000000E+00 0.  1.
         11    1    3    3    0    0 -0.63050269754E+01 -0.17576641668E+02  0.27120194785E+02  0.32927141736E+02  0.51100000000E-03 0. -1.
        -11    1    3    3    0    0 -0.39143355563E+00  0.30566904214E+01 -0.28590845250E+01  0.42036818556E+01  0.51100000000E-03 0.  1.
        -12    1    3    3    0    0  0.50826881839E+01 -0.74028650060E+01  0.99434244733E+01  0.13398052833E+02  0.00000000000E+00 0.  1.
</event>
<event>
 7    1  0.1369731E-013  0.5052885E+02  0.7816164E-02  0.1300439E+00
        -11   -1    0    0    0    0  0.00000000000E+00  0.00000000000E+00  0.45593999997E+02  0.45594000000E+02  0.51100000000E-03 0. -1.
         11   -1    0    0    0    0 -0.00000000000E+00 -0.00000000000E+00 -0.45593999997E+02  0.45594000000E+02  0.51100000000E-03 0.  1.
    9900012    2    1    2    0    0  0.29365345225E+02  0.11884889392E+02 -0.25487097130E+02  0.50528853229E+02  0.29999979875E+02 0.  0.
         12    1    1    2    0    0 -0.29365345225E+02 -0.11884889392E+02  0.25487097130E+02  0.40659146771E+02  0.00000000000E+00 0. -1.
         11    1    3    3    0    0  0.11685500603E+02  0.19335518203E+02 -0.82847077186E+01  0.24063448854E+02  0.51100000000E-03 0. -1.
        -11    1    3    3    0    0  0.81888916533E+01 -0.47362050735E+01 -0.47817126148E+01  0.10599733997E+02  0.51100000000E-03 0.  1.
         12    1    3    3    0    0  0.94909529680E+01 -0.27144237368E+01 -0.12420676796E+02  0.15865670378E+02  0.00000000000E+00 0. -1.
</event>
<event>
 7    1  0.1369731E-013  0.5052886E+02  0.7816164E-02  0.1300439E+00
        -11   -1    0    0    0    0  0.00000000000E+00  0.00000000000E+00  0.45593999997E+02  0.45594000000E+02  0.51100000000E-03 0. -1.
         11   -1    0    0    0    0 -0.00000000000E+00 -0.00000000000E+00 -0.45593999997E+02  0.45594000000E+02  0.51100000000E-03 0.  1.
    9900012    2    1    2    0    0  0.42609485113E+01  0.14263142036E+02 -0.37836128310E+02  0.50528861932E+02  0.30000006329E+02 0.  0.
         12    1    1    2    0    0 -0.42609485113E+01 -0.14263142036E+02  0.37836128310E+02  0.40659138068E+02  0.00000000000E+00 0. -1.
         11    1    3    3    0    0  0.52576152381E+01 -0.35462794195E+01  0.15109259987E+01  0.65193184727E+01  0.51100000000E-03 0. -1.
        -11    1    3    3    0    0  0.56916388142E+00  0.17095743146E+02 -0.30250945459E+02  0.34752094651E+02  0.51100000000E-03 0.  1.
        -12    1    3    3    0    0 -0.15658306082E+01  0.71367830887E+00 -0.90961088498E+01  0.92574488079E+01  0.00000000000E+00 0.  1.
</event>
<event>
 7    1  0.1369731E-013  0.5052888E+02  0.7816164E-02  0.1300439E+00
        -11   -1    0    0    0    0  0.00000000000E+00  0.00000000000E+00  0.45593999997E+02  0.45594000000E+02  0.51100000000E-03 0. -1.
         11   -1    0    0    0    0 -0.00000000000E+00 -0.00000000000E+00 -0.45593999997E+02  0.45594000000E+02  0.51100000000E-03 0.  1.
    9900012    2    1    2    0    0  0.35528864224E+02 -0.12559766571E+02  0.15268149389E+02  0.50528876607E+02  0.30000050934E+02 0.  0.
        -12    1    1    2    0    0 -0.35528864224E+02  0.12559766571E+02 -0.15268149389E+02  0.40659123393E+02  0.00000000000E+00 0.  1.
         11    1    3    3    0    0  0.33617193354E+02 -0.13843624317E+02  0.32993430405E+01  0.36505441895E+02  0.51100000000E-03 0. -1.
        -11    1    3    3    0    0 -0.22541262995E+01  0.15265664016E+01  0.25872912027E+01  0.37557377945E+01  0.51100000000E-03 0.  1.
         12    1    3    3    0    0  0.41657971696E+01 -0.24270865566E+00  0.93815151456E+01  0.10267696917E+02  0.00000000000E+00 0. -1.
</event>
<event>
 7    1  0.1369731E-013  0.5052885E+02  0.7816164E-02  0.1300439E+00
        -11   -1    0    0    0    0  0.00000000000E+00  0.00000000000E+00  0.45593999997E+02  0.45594000000E+02  0.51100000000E-03 0. -1.
         11   -1    0    0    0    0 -0.00000000000E+00 -0.00000000000E+00 -0.45593999997E+02  0.45594000000E+02  0.51100000000E-03 0.  1.
    9900012    2    1    2    0    0  0.18915539636E+02  0.66803269027E+01  0.35365829086E+02  0.50528852515E+02  0.29999977706E+02 0.  0.
        -12    1    1    2    0    0 -0.18915539636E+02 -0.66803269027E+01 -0.35365829086E+02  0.40659147485E+02  0.00000000000E+00 0.  1.
         11    1    3    3    0    0  0.11912889842E+02 -0.36490339197E+00  0.34064711959E+02  0.36089537265E+02  0.51100000000E-03 0. -1.
        -11    1    3    3    0    0  0.78071087578E+01  0.84715326968E+01 -0.10566493525E+01  0.11568678468E+02  0.51100000000E-03 0.  1.
         12    1    3    3    0    0 -0.80445896310E+00 -0.14263024021E+01  0.23577664791E+01  0.28706367822E+01  0.00000000000E+00 0. -1.
</event>
<event>
 7    1  0.2020890E-013  0.5052886E+02  0.7816164E-02  0.1300439E+00
        -11   -1    0    0    0    0  0.00000000000E+00  0.00000000000E+00  0.45593999997E+02  0.45594000000E+02  0.51100000000E-03 0. -1.
         11   -1    0    0    0    0 -0.00000000000E+00 -0.00000000000E+00 -0.45593999997E+02  0.45594000000E+02  0.51100000000E-03 0.  1.
    9900012    2    1    2    0    0  0.13325819018E+02  0.28968851225E+01 -0.38303994156E+02  0.50528863705E+02  0.30000011719E+02 0.  0.
         12    1    1    2    0    0 -0.13325819018E+02 -0.28968851225E+01  0.38303994156E+02  0.40659136295E+02  0.00000000000E+00 0. -1.
         11    1    3    3    0    0  0.15584982234E+01 -0.36938409327E+01  0.23476505465E+01  0.46459488695E+01  0.51100000000E-03 0. -1.
        -11    1    3    3    0    0  0.14904002225E+02  0.11061475601E+01 -0.29301763044E+02  0.32892950042E+02  0.51100000000E-03 0.  1.
        -12    1    3    3    0    0 -0.31366814306E+01  0.54845784952E+01 -0.11349881659E+02  0.12989964793E+02  0.00000000000E+00 0.  1.
</event>
<event>
 7    1  0.1369731E-013  0.5052887E+02  0.7816164E-02  0.1300439E+00
        -11   -1    0    0    0    0  0.00000000000E+00  0.00000000000E+00  0.45593999997E+02  0.45594000000E+02  0.51100000000E-03 0. -1.
         11   -1    0    0    0    0 -0.00000000000E+00 -0.00000000000E+00 -0.45593999997E+02  0.45594000000E+02  0.51100000000E-03 0.  1.
    9900012    2    1    2    0    0  0.15329986986E+02  0.11747403364E+02  0.35779257305E+02  0.50528865232E+02  0.30000016360E+02 0.  0.
        -12    1    1    2    0    0 -0.15329986986E+02 -0.11747403364E+02 -0.35779257305E+02  0.40659134768E+02  0.00000000000E+00 0.  1.
         11    1    3    3    0    0  0.84475906391E+00  0.16801320555E+02  0.29416938235E+02  0.33887375904E+02  0.51100000000E-03 0. -1.
        -11    1    3    3    0    0  0.58921932573E+01 -0.25714703466E+01  0.24746613391E+01  0.68887117903E+01  0.51100000000E-03 0.  1.
         12    1    3    3    0    0  0.85930346643E+01 -0.24824468447E+01  0.38876577309E+01  0.97527775383E+01  0.00000000000E+00 0. -1.
</event>
<event>
 7    1  0.1555232E-013  0.5052884E+02  0.7816164E-02  0.1300439E+00
        -11   -1    0    0    0    0  0.00000000000E+00  0.00000000000E+00  0.45593999997E+02  0.45594000000E+02  0.51100000000E-03 0. -1.
         11   -1    0    0    0    0 -0.00000000000E+00 -0.00000000000E+00 -0.45593999997E+02  0.45594000000E+02  0.51100000000E-03 0.  1.
    9900012    2    1    2    0    0 -0.77155989767E+01 -0.12397345255E+02  0.37946572975E+02  0.50528843129E+02  0.29999949174E+02 0.  0.
        -12    1    1    2    0    0  0.77155989767E+01  0.12397345255E+02 -0.37946572975E+02  0.40659156871E+02  0.00000000000E+00 0.  1.
         11    1    3    3    0    0 -0.11395718506E+02 -0.13713364952E+02  0.21117253462E+02  0.27637966144E+02  0.51100000000E-03 0. -1.
        -11    1    3    3    0    0  0.27997985758E+00  0.79000305518E+01  0.68418622765E+01  0.10454661693E+02  0.51100000000E-03 0.  1.
         12    1    3    3    0    0  0.34001396716E+01 -0.65840108556E+01  0.99874572364E+01  0.12436215292E+02  0.00000000000E+00 0. -1.
</event>
<event>
 7    1  0.1369731E-013  0.5052887E+02  0.7816164E-02  0.1300439E+00
        -11   -1    0    0    0    0  0.00000000000E+00  0.00000000000E+00  0.45593999997E+02  0.45594000000E+02  0.51100000000E-03 0.  1.
         11   -1    0    0    0    0 -0.00000000000E+00 -0.00000000000E+00 -0.45593999997E+02  0.45594000000E+02  0.51100000000E-03 0. -1.
    9900012    2    1    2    0    0 -0.13015532507E+02 -0.37917035630E+02 -0.67867000187E+01  0.50528868497E+02  0.30000026284E+02 0.  0.
         12    1    1    2    0    0  0.13015532507E+02  0.37917035630E+02  0.67867000187E+01  0.40659131503E+02  0.00000000000E+00 0. -1.
         11    1    3    3    0    0 -0.10743011752E+02 -0.16412318819E+01 -0.14674454394E+01  0.10966281957E+02  0.51100000000E-03 0. -1.
        -11    1    3    3    0    0 -0.59923926693E+01 -0.21314655207E+02 -0.86838756716E+01  0.23783040038E+02  0.51100000000E-03 0.  1.
         12    1    3    3    0    0  0.37198719136E+01 -0.14961148541E+02  0.33646210923E+01  0.15779546502E+02  0.00000000000E+00 0. -1.
</event>
<event>
 7    1  0.1369731E-013  0.5052886E+02  0.7816164E-02  0.1300439E+00
        -11   -1    0    0    0    0  0.00000000000E+00  0.00000000000E+00  0.45593999997E+02  0.45594000000E+02  0.51100000000E-03 0.  1.
         11   -1    0    0    0    0 -0.00000000000E+00 -0.00000000000E+00 -0.45593999997E+02  0.45594000000E+02  0.51100000000E-03 0. -1.
    9900012    2    1    2    0    0 -0.26146388738E+02 -0.27251192866E+02 -0.15063360986E+02  0.50528855876E+02  0.29999987922E+02 0.  0.
         12    1    1    2    0    0  0.26146388738E+02  0.27251192866E+02  0.15063360986E+02  0.40659144124E+02  0.00000000000E+00 0. -1.
         11    1    3    3    0    0 -0.27666842843E+01 -0.68512060055E+01 -0.56581337278E+00  0.74103785796E+01  0.51100000000E-03 0.  1.
        -11    1    3    3    0    0  0.35257229061E+00  0.40776908399E+01  0.27296130002E+01  0.49196196192E+01  0.51100000000E-03 0. -1.
        -12    1    3    3    0    0 -0.23732276745E+02 -0.24477677700E+02 -0.17227160613E+02  0.38198857678E+02  0.00000000000E+00 0.  1.
</event>
<event>
 7    1  0.1369731E-013  0.5052887E+02  0.7816164E-02  0.1300439E+00
        -11   -1    0    0    0    0  0.00000000000E+00  0.00000000000E+00  0.45593999997E+02  0.45594000000E+02  0.51100000000E-03 0. -1.
         11   -1    0    0    0    0 -0.00000000000E+00 -0.00000000000E+00 -0.45593999997E+02  0.45594000000E+02  0.51100000000E-03 0.  1.
    9900012    2    1    2    0    0 -0.36659150175E+01  0.52675336282E+01 -0.40149458730E+02  0.50528869663E+02  0.30000029829E+02 0.  0.
         12    1    1    2    0    0  0.36659150175E+01 -0.52675336282E+01  0.40149458730E+02  0.40659130337E+02  0.00000000000E+00 0. -1.
         11    1    3    3    0    0 -0.40344973003E+01  0.14021959354E+02 -0.74486679902E+01  0.16382160043E+02  0.51100000000E-03 0. -1.
        -11    1    3    3    0    0 -0.19417537926E+01 -0.26327547960E+01 -0.11861960750E+02  0.12304792509E+02  0.51100000000E-03 0.  1.
         12    1    3    3    0    0  0.23103360754E+01 -0.61216709294E+01 -0.20838829990E+02  0.21841917111E+02  0.00000000000E+00 0. -1.
</event>
<event>
 7    1  0.1369731E-013  0.5052886E+02  0.7816164E-02  0.1300439E+00
        -11   -1    0    0    0    0  0.00000000000E+00  0.00000000000E+00  0.45593999997E+02  0.45594000000E+02  0.51100000000E-03 0. -1.
         11   -1    0    0    0    0 -0.00000000000E+00 -0.00000000000E+00 -0.45593999997E+02  0.45594000000E+02  0.51100000000E-03 0.  1.
    9900012    2    1    2    0    0  0.27356653993E+01 -0.27880606893E+02 -0.29467836187E+02  0.50528862337E+02  0.30000007560E+02 0.  0.
         12    1    1    2    0    0 -0.27356653993E+01  0.27880606893E+02  0.29467836187E+02  0.40659137663E+02  0.00000000000E+00 0. -1.
         11    1    3    3    0    0 -0.18303511792E+01 -0.26969354005E+02 -0.13499607763E+02  0.30214825018E+02  0.51100000000E-03 0. -1.
        -11    1    3    3    0    0  0.83517997435E+01  0.30760191108E+00 -0.89368075688E+01  0.12235755296E+02  0.51100000000E-03 0.  1.
         12    1    3    3    0    0 -0.37857831650E+01 -0.12188548000E+01 -0.70314208551E+01  0.80782820226E+01  0.00000000000E+00 0. -1.
</event>
<event>
 7    1  0.1369731E-013  0.5052887E+02  0.7816164E-02  0.1300439E+00
        -11   -1    0    0    0    0  0.00000000000E+00  0.00000000000E+00  0.45593999997E+02  0.45594000000E+02  0.51100000000E-03 0. -1.
         11   -1    0    0    0    0 -0.00000000000E+00 -0.00000000000E+00 -0.45593999997E+02  0.45594000000E+02  0.51100000000E-03 0.  1.
    9900012    2    1    2    0    0  0.11198400581E+02 -0.22678132269E+02 -0.31834928809E+02  0.50528873705E+02  0.30000042113E+02 0.  0.
         12    1    1    2    0    0 -0.11198400581E+02  0.22678132269E+02  0.31834928809E+02  0.40659126295E+02  0.00000000000E+00 0. -1.
         11    1    3    3    0    0  0.24861724230E+00  0.36425098661E+01  0.21394716384E+01  0.42316696244E+01  0.51100000000E-03 0. -1.
        -11    1    3    3    0    0  0.70294169256E+01 -0.25124974187E+02 -0.33030170044E+02  0.42091200548E+02  0.51100000000E-03 0.  1.
        -12    1    3    3    0    0  0.39203664132E+01 -0.11956679481E+01 -0.94423040416E+00  0.42060035320E+01  0.00000000000E+00 0.  1.
</event>
<event>
 7    1  0.1369731E-013  0.5052885E+02  0.7816164E-02  0.1300439E+00
        -11   -1    0    0    0    0  0.00000000000E+00  0.00000000000E+00  0.45593999997E+02  0.45594000000E+02  0.51100000000E-03 0. -1.
         11   -1    0    0    0    0 -0.00000000000E+00 -0.00000000000E+00 -0.45593999997E+02  0.45594000000E+02  0.51100000000E-03 0.  1.
    9900012    2    1    2    0    0  0.18572773051E+02 -0.26090100958E+02  0.25050455601E+02  0.50528848600E+02  0.29999965804E+02 0.  0.
        -12    1    1    2    0    0 -0.18572773051E+02  0.26090100958E+02 -0.25050455601E+02  0.40659151400E+02  0.00000000000E+00 0.  1.
         11    1    3    3    0    0 -0.26174930387E+01  0.30195474915E+01  0.38548921979E+01  0.55523986690E+01  0.51100000000E-03 0. -1.
        -11    1    3    3    0    0  0.12164146611E+02 -0.23602585540E+02  0.73424138761E+01  0.27549220475E+02  0.51100000000E-03 0.  1.
         12    1    3    3    0    0  0.90261194777E+01 -0.55070629086E+01  0.13853149527E+02  0.17427229456E+02  0.00000000000E+00 0. -1.
</event>
<event>
 7    1  0.1369731E-013  0.5052887E+02  0.7816164E-02  0.1300439E+00
        -11   -1    0    0    0    0  0.00000000000E+00  0.00000000000E+00  0.45593999997E+02  0.45594000000E+02  0.51100000000E-03 0. -1.
         11   -1    0    0    0    0 -0.00000000000E+00 -0.00000000000E+00 -0.45593999997E+02  0.45594000000E+02  0.51100000000E-03 0.  1.
    9900012    2    1    2    0    0  0.10809697361E+02 -0.40974550075E+01 -0.38981100221E+02  0.50528869795E+02  0.30000030229E+02 0.  0.
         12    1    1    2    0    0 -0.10809697361E+02  0.40974550075E+01  0.38981100221E+02  0.40659130205E+02  0.00000000000E+00 0. -1.
         11    1    3    3    0    0 -0.40098776310E+01 -0.23347975224E+01  0.31476701450E+01  0.56069800864E+01  0.51100000000E-03 0. -1.
        -11    1    3    3    0    0  0.23915649956E+01 -0.38793615405E+00 -0.12984122745E+02  0.13208236874E+02  0.51100000000E-03 0.  1.
         12    1    3    3    0    0  0.12428009997E+02 -0.13747213310E+01 -0.29144647620E+02  0.31713652835E+02  0.00000000000E+00 0. -1.
</event>
<event>
 7    1  0.1369731E-013  0.5052887E+02  0.7816164E-02  0.1300439E+00
        -11   -1    0    0    0    0  0.00000000000E+00  0.00000000000E+00  0.45593999997E+02  0.45594000000E+02  0.51100000000E-03 0. -1.
         11   -1    0    0    0    0 -0.00000000000E+00 -0.00000000000E+00 -0.45593999997E+02  0.45594000000E+02  0.51100000000E-03 0.  1.
    9900012    2    1    2    0    0  0.35261148442E+02 -0.15517907525E+02 -0.13000413666E+02  0.50528870658E+02  0.30000032851E+02 0.  0.
         12    1    1    2    0    0 -0.35261148442E+02  0.15517907525E+02  0.13000413666E+02  0.40659129342E+02  0.00000000000E+00 0. -1.
         11    1    3    3    0    0  0.44001017379E+01 -0.49210175877E+01  0.41845982656E+01  0.78158922912E+01  0.51100000000E-03 0.  1.
        -11    1    3    3    0    0  0.11037805638E+02 -0.24835670599E+01 -0.18020159499E+02  0.21277391929E+02  0.51100000000E-03 0. -1.
        -12    1    3    3    0    0  0.19823241066E+02 -0.81133228774E+01  0.83514756788E+00  0.21435586438E+02  0.00000000000E+00 0.  1.
</event>
<event>
 7    1  0.1369731E-013  0.5052886E+02  0.7816164E-02  0.1300439E+00
        -11   -1    0    0    0    0  0.00000000000E+00  0.00000000000E+00  0.45593999997E+02  0.45594000000E+02  0.51100000000E-03 0. -1.
         11   -1    0    0    0    0 -0.00000000000E+00 -0.00000000000E+00 -0.45593999997E+02  0.45594000000E+02  0.51100000000E-03 0.  1.
    9900012    2    1    2    0    0  0.27359122960E+01  0.13600704383E+01  0.40544182058E+02  0.50528859497E+02  0.29999998926E+02 0.  0.
        -12    1    1    2    0    0 -0.27359122960E+01 -0.13600704383E+01 -0.40544182058E+02  0.40659140503E+02  0.00000000000E+00 0.  1.
         11    1    3    3    0    0  0.79251261865E+01  0.11612857781E+01  0.16724173168E+02  0.18543305481E+02  0.51100000000E-03 0. -1.
        -11    1    3    3    0    0 -0.40107330209E+01  0.41676529779E+01 -0.17809157604E+01  0.60520221345E+01  0.51100000000E-03 0.  1.
        -12    1    3    3    0    0 -0.11784808697E+01 -0.39688683177E+01  0.25600924651E+02  0.25933531882E+02  0.00000000000E+00 0.  1.
</event>
<event>
 7    1  0.1369731E-013  0.5052886E+02  0.7816164E-02  0.1300439E+00
        -11   -1    0    0    0    0  0.00000000000E+00  0.00000000000E+00  0.45593999997E+02  0.45594000000E+02  0.51100000000E-03 0.  1.
         11   -1    0    0    0    0 -0.00000000000E+00 -0.00000000000E+00 -0.45593999997E+02  0.45594000000E+02  0.51100000000E-03 0. -1.
    9900012    2    1    2    0    0 -0.38528279232E+02  0.67175407645E+01  0.11118093010E+02  0.50528860232E+02  0.30000001161E+02 0.  0.
        -12    1    1    2    0    0  0.38528279232E+02 -0.67175407645E+01 -0.11118093010E+02  0.40659139768E+02  0.00000000000E+00 0.  1.
         11    1    3    3    0    0 -0.26500945995E+02  0.61097937372E+01 -0.72830008980E+01  0.28154428080E+02  0.51100000000E-03 0. -1.
        -11    1    3    3    0    0 -0.76334910782E+01 -0.11918479055E+01  0.91461175817E+01  0.11972558396E+02  0.51100000000E-03 0.  1.
         12    1    3    3    0    0 -0.43938421589E+01  0.17995949327E+01  0.92549763262E+01  0.10401873756E+02  0.00000000000E+00 0. -1.
</event>
<event>
 7    1  0.1369731E-013  0.5052887E+02  0.7816164E-02  0.1300439E+00
        -11   -1    0    0    0    0  0.00000000000E+00  0.00000000000E+00  0.45593999997E+02  0.45594000000E+02  0.51100000000E-03 0. -1.
         11   -1    0    0    0    0 -0.00000000000E+00 -0.00000000000E+00 -0.45593999997E+02  0.45594000000E+02  0.51100000000E-03 0.  1.
    9900012    2    1    2    0    0 -0.20994715928E+02 -0.24966218647E+02  0.24270864594E+02  0.50528867710E+02  0.30000023892E+02 0.  0.
        -12    1    1    2    0    0  0.20994715928E+02  0.24966218647E+02 -0.24270864594E+02  0.40659132290E+02  0.00000000000E+00 0.  1.
         11    1    3    3    0    0 -0.48260540384E+01 -0.13787120638E+02  0.22586085659E+02  0.26898080948E+02  0.51100000000E-03 0. -1.
        -11    1    3    3    0    0 -0.18166467573E+01  0.27997766505E+01 -0.82920154291E+00  0.34389722583E+01  0.51100000000E-03 0.  1.
         12    1    3    3    0    0 -0.14352015132E+02 -0.13978874660E+02  0.25139804783E+01  0.20191814503E+02  0.00000000000E+00 0. -1.
</event>
<event>
 7    1  0.1369731E-013  0.5052887E+02  0.7816164E-02  0.1300439E+00
        -11   -1    0    0    0    0  0.00000000000E+00  0.00000000000E+00  0.45593999997E+02  0.45594000000E+02  0.51100000000E-03 0. -1.
         11   -1    0    0    0    0 -0.00000000000E+00 -0.00000000000E+00 -0.45593999997E+02  0.45594000000E+02  0.51100000000E-03 0.  1.
    9900012    2    1    2    0    0  0.18409340654E+01 -0.84120460125E+01  0.39736796226E+02  0.50528873956E+02  0.30000042876E+02 0.  0.
        -12    1    1    2    0    0 -0.18409340654E+01  0.84120460125E+01 -0.39736796226E+02  0.40659126044E+02  0.00000000000E+00 0.  1.
         11    1    3    3    0    0 -0.39253224350E+01 -0.35484213826E+01  0.11508075737E+02  0.12666304037E+02  0.51100000000E-03 0. -1.
        -11    1    3    3    0    0  0.17290770761E+01  0.32046350001E+01 -0.33941397819E+01  0.49779090127E+01  0.51100000000E-03 0.  1.
        -12    1    3    3    0    0  0.40371794243E+01 -0.80682596299E+01  0.31622860272E+02  0.32884660906E+02  0.00000000000E+00 0.  1.
</event>
<event>
 7    1  0.1369731E-013  0.5052886E+02  0.7816164E-02  0.1300439E+00
        -11   -1    0    0    0    0  0.00000000000E+00  0.00000000000E+00  0.45593999997E+02  0.45594000000E+02  0.51100000000E-03 0. -1.
         11   -1    0    0    0    0 -0.00000000000E+00 -0.00000000000E+00 -0.45593999997E+02  0.45594000000E+02  0.51100000000E-03 0.  1.
    9900012    2    1    2    0    0 -0.13549181430E+02 -0.33723250053E+02  0.18229848977E+02  0.50528864430E+02  0.30000013922E+02 0.  0.
        -12    1    1    2    0    0  0.13549181430E+02  0.33723250053E+02 -0.18229848977E+02  0.40659135570E+02  0.00000000000E+00 0.  1.
         11    1    3    3    0    0  0.27788006478E+01 -0.24297769758E+02  0.30737191740E+01  0.24648551642E+02  0.51100000000E-03 0. -1.
        -11    1    3    3    0    0 -0.15865803388E+02 -0.51623905950E+01  0.12294527797E+02  0.20725091262E+02  0.51100000000E-03 0.  1.
         12    1    3    3    0    0 -0.46217868894E+00 -0.42630897006E+01  0.28616020058E+01  0.51552215254E+01  0.00000000000E+00 0. -1.
</event>
<event>
 7    1  0.1369731E-013  0.5052886E+02  0.7816164E-02  0.1300439E+00
        -11   -1    0    0    0    0  0.00000000000E+00  0.00000000000E+00  0.45593999997E+02  0.45594000000E+02  0.51100000000E-03 0. -1.
         11   -1    0    0    0    0 -0.00000000000E+00 -0.00000000000E+00 -0.45593999997E+02  0.45594000000E+02  0.51100000000E-03 0.  1.
    9900012    2    1    2    0    0 -0.28482342754E+02 -0.21717266563E+02 -0.19242717468E+02  0.50528859683E+02  0.29999999494E+02 0.  0.
         12    1    1    2    0    0  0.28482342754E+02  0.21717266563E+02  0.19242717468E+02  0.40659140317E+02  0.00000000000E+00 0. -1.
         11    1    3    3    0    0 -0.30099573231E+01 -0.18382191140E+02 -0.15788000576E+02  0.24417734470E+02  0.51100000000E-03 0. -1.
        -11    1    3    3    0    0 -0.19646972716E+02 -0.35400613357E+01 -0.17602239735E+01  0.20040807366E+02  0.51100000000E-03 0.  1.
         12    1    3    3    0    0 -0.58254127146E+01  0.20498591281E+00 -0.16944929183E+01  0.60703178475E+01  0.00000000000E+00 0. -1.
</event>
<event>
 7    1  0.1369731E-013  0.5052888E+02  0.7816164E-02  0.1300439E+00
        -11   -1    0    0    0    0  0.00000000000E+00  0.00000000000E+00  0.45593999997E+02  0.45594000000E+02  0.51100000000E-03 0. -1.
         11   -1    0    0    0    0 -0.00000000000E+00 -0.00000000000E+00 -0.45593999997E+02  0.45594000000E+02  0.51100000000E-03 0.  1.
    9900012    2    1    2    0    0  0.31370432946E+02  0.23402695558E+02 -0.11016979696E+02  0.50528879692E+02  0.30000060312E+02 0.  0.
         12    1    1    2    0    0 -0.31370432946E+02 -0.23402695558E+02  0.11016979696E+02  0.40659120308E+02  0.00000000000E+00 0. -1.
         11    1    3    3    0    0  0.13527832037E+02  0.15694704010E+02 -0.16636587745E+02  0.26572580335E+02  0.51100000000E-03 0.  1.
        -11    1    3    3    0    0  0.15167784182E+02  0.10999551271E+02  0.30104959756E+01  0.18976693375E+02  0.51100000000E-03 0. -1.
        -12    1    3    3    0    0  0.26748167268E+01 -0.32915597226E+01  0.26091120737E+01  0.49796059827E+01  0.00000000000E+00 0.  1.
</event>
<event>
 7    1  0.1369731E-013  0.5052889E+02  0.7816164E-02  0.1300439E+00
        -11   -1    0    0    0    0  0.00000000000E+00  0.00000000000E+00  0.45593999997E+02  0.45594000000E+02  0.51100000000E-03 0. -1.
         11   -1    0    0    0    0 -0.00000000000E+00 -0.00000000000E+00 -0.45593999997E+02  0.45594000000E+02  0.51100000000E-03 0.  1.
    9900012    2    1    2    0    0 -0.83800168021E+01 -0.20304276285E+02 -0.34215126508E+02  0.50528890332E+02  0.30000092652E+02 0.  0.
         12    1    1    2    0    0  0.83800168021E+01  0.20304276285E+02  0.34215126508E+02  0.40659109668E+02  0.00000000000E+00 0. -1.
         11    1    3    3    0    0  0.55641617055E+01 -0.38338734094E+01 -0.87345961137E+01  0.11043172114E+02  0.51100000000E-03 0. -1.
        -11    1    3    3    0    0 -0.86764203030E+01 -0.20048919734E+02 -0.12861137372E+02  0.25350508999E+02  0.51100000000E-03 0.  1.
        -12    1    3    3    0    0 -0.52677582046E+01  0.35785168577E+01 -0.12619393022E+02  0.14135209218E+02  0.00000000000E+00 0.  1.
</event>
<event>
 7    1  0.1369731E-013  0.5052883E+02  0.7816164E-02  0.1300439E+00
        -11   -1    0    0    0    0  0.00000000000E+00  0.00000000000E+00  0.45593999997E+02  0.45594000000E+02  0.51100000000E-03 0. -1.
         11   -1    0    0    0    0 -0.00000000000E+00 -0.00000000000E+00 -0.45593999997E+02  0.45594000000E+02  0.51100000000E-03 0.  1.
    9900012    2    1    2    0    0 -0.39597620389E+01 -0.14068875074E+02 -0.37941466044E+02  0.50528833667E+02  0.29999920415E+02 0.  0.
         12    1    1    2    0    0  0.39597620389E+01  0.14068875074E+02  0.37941466044E+02  0.40659166333E+02  0.00000000000E+00 0. -1.
         11    1    3    3    0    0  0.59510416639E+01 -0.23153530124E+01  0.24351025925E+01  0.68341408644E+01  0.51100000000E-03 0. -1.
        -11    1    3    3    0    0 -0.16142441532E+01 -0.48492230651E+01 -0.73746463072E+01  0.89725223287E+01  0.51100000000E-03 0.  1.
         12    1    3    3    0    0 -0.82965595496E+01 -0.69042989968E+01 -0.33001922330E+02  0.34722170474E+02  0.00000000000E+00 0. -1.
</event>
<event>
 7    1  0.1395869E-013  0.5052886E+02  0.7816164E-02  0.1300439E+00
        -11   -1    0    0    0    0  0.00000000000E+00  0.00000000000E+00  0.45593999997E+02  0.45594000000E+02  0.51100000000E-03 0. -1.
         11   -1    0    0    0    0 -0.00000000000E+00 -0.00000000000E+00 -0.45593999997E+02  0.45594000000E+02  0.51100000000E-03 0.  1.
    9900012    2    1    2    0    0 -0.23839216649E+02  0.21464863854E+02 -0.24982338972E+02  0.50528857225E+02  0.29999992021E+02 0.  0.
         12    1    1    2    0    0  0.23839216649E+02 -0.21464863854E+02  0.24982338972E+02  0.40659142775E+02  0.00000000000E+00 0. -1.
         11    1    3    3    0    0 -0.16796725890E+01  0.17073810551E+02 -0.62461176607E+01  0.18257883033E+02  0.51100000000E-03 0. -1.
        -11    1    3    3    0    0 -0.87697297165E+01  0.30173687319E+01 -0.16062813325E+02  0.18547955293E+02  0.51100000000E-03 0.  1.
         12    1    3    3    0    0 -0.13389814344E+02  0.13736845703E+01 -0.26734079859E+01  0.13723018900E+02  0.00000000000E+00 0. -1.
</event>
<event>
 7    1  0.1369731E-013  0.5052886E+02  0.7816164E-02  0.1300439E+00
        -11   -1    0    0    0    0  0.00000000000E+00  0.00000000000E+00  0.45593999997E+02  0.45594000000E+02  0.51100000000E-03 0. -1.
         11   -1    0    0    0    0 -0.00000000000E+00 -0.00000000000E+00 -0.45593999997E+02  0.45594000000E+02  0.51100000000E-03 0.  1.
    9900012    2    1    2    0    0  0.72620985371E+01 -0.14196526616E+02  0.37401687307E+02  0.50528860111E+02  0.30000000793E+02 0.  0.
        -12    1    1    2    0    0 -0.72620985371E+01  0.14196526616E+02 -0.37401687307E+02  0.40659139889E+02  0.00000000000E+00 0.  1.
         11    1    3    3    0    0  0.14470121781E+02 -0.17942972235E+02  0.32475755597E+02  0.39824733255E+02  0.51100000000E-03 0. -1.
        -11    1    3    3    0    0 -0.68470700501E+01  0.39366877191E+01  0.25590378719E+01  0.83023221787E+01  0.51100000000E-03 0.  1.
        -12    1    3    3    0    0 -0.36095319391E+00 -0.19024209999E+00  0.23668938384E+01  0.24018046771E+01  0.00000000000E+00 0.  1.
</event>
<event>
 7    1  0.1369731E-013  0.5052887E+02  0.7816164E-02  0.1300439E+00
        -11   -1    0    0    0    0  0.00000000000E+00  0.00000000000E+00  0.45593999997E+02  0.45594000000E+02  0.51100000000E-03 0. -1.
         11   -1    0    0    0    0 -0.00000000000E+00 -0.00000000000E+00 -0.45593999997E+02  0.45594000000E+02  0.51100000000E-03 0.  1.
    9900012    2    1    2    0    0  0.13816740023E+01  0.11984721635E+02  0.38828112624E+02  0.50528869345E+02  0.30000028860E+02 0.  0.
        -12    1    1    2    0    0 -0.13816740023E+01 -0.11984721635E+02 -0.38828112624E+02  0.40659130655E+02  0.00000000000E+00 0.  1.
         11    1    3    3    0    0  0.14165528097E+02  0.17627889965E+01  0.16475885357E+02  0.21799642426E+02  0.51100000000E-03 0. -1.
        -11    1    3    3    0    0 -0.72802577229E+01  0.25452544807E+01  0.57201975386E+01  0.96021421061E+01  0.51100000000E-03 0.  1.
         12    1    3    3    0    0 -0.55035963718E+01  0.76766781581E+01  0.16632029728E+02  0.19127084813E+02  0.00000000000E+00 0. -1.
</event>
<event>
 7    1  0.1369731E-013  0.5052887E+02  0.7816164E-02  0.1300439E+00
        -11   -1    0    0    0    0  0.00000000000E+00  0.00000000000E+00  0.45593999997E+02  0.45594000000E+02  0.51100000000E-03 0. -1.
         11   -1    0    0    0    0 -0.00000000000E+00 -0.00000000000E+00 -0.45593999997E+02  0.45594000000E+02  0.51100000000E-03 0.  1.
    9900012    2    1    2    0    0 -0.13362546416E+02 -0.24865972282E+02  0.29262446619E+02  0.50528868106E+02  0.30000025095E+02 0.  0.
        -12    1    1    2    0    0  0.13362546416E+02  0.24865972282E+02 -0.29262446619E+02  0.40659131894E+02  0.00000000000E+00 0.  1.
         11    1    3    3    0    0 -0.50816586051E+01 -0.20990821223E+02  0.13577046147E+02  0.25510272679E+02  0.51100000000E-03 0. -1.
        -11    1    3    3    0    0 -0.13137012719E+02 -0.51370605971E+01  0.92906884015E+01  0.16890452510E+02  0.51100000000E-03 0.  1.
         12    1    3    3    0    0  0.48561249087E+01  0.12619095388E+01  0.63947120707E+01  0.81281429171E+01  0.00000000000E+00 0. -1.
</event>
<event>
 7    1  0.1369731E-013  0.5052879E+02  0.7816164E-02  0.1300439E+00
        -11   -1    0    0    0    0  0.00000000000E+00  0.00000000000E+00  0.45593999997E+02  0.45594000000E+02  0.51100000000E-03 0. -1.
         11   -1    0    0    0    0 -0.00000000000E+00 -0.00000000000E+00 -0.45593999997E+02  0.45594000000E+02  0.51100000000E-03 0.  1.
    9900012    2    1    2    0    0 -0.27986395264E+02 -0.53914317762E+01 -0.28997682289E+02  0.50528789056E+02  0.29999784813E+02 0.  0.
         12    1    1    2    0    0  0.27986395264E+02  0.53914317762E+01  0.28997682289E+02  0.40659210944E+02  0.00000000000E+00 0. -1.
         11    1    3    3    0    0  0.52837407869E+00 -0.64184345838E+00 -0.14035717917E+02  0.14060317205E+02  0.51100000000E-03 0. -1.
        -11    1    3    3    0    0 -0.29326236304E+02 -0.24381516204E+01 -0.10256618337E+02  0.31163615629E+02  0.51100000000E-03 0.  1.
        -12    1    3    3    0    0  0.81146696068E+00 -0.23114366975E+01 -0.47053460343E+01  0.53048562221E+01  0.00000000000E+00 0.  1.
</event>
<event>
 7    1  0.1369731E-013  0.5052886E+02  0.7816164E-02  0.1300439E+00
        -11   -1    0    0    0    0  0.00000000000E+00  0.00000000000E+00  0.45593999997E+02  0.45594000000E+02  0.51100000000E-03 0. -1.
         11   -1    0    0    0    0 -0.00000000000E+00 -0.00000000000E+00 -0.45593999997E+02  0.45594000000E+02  0.51100000000E-03 0.  1.
    9900012    2    1    2    0    0  0.36586519619E+02  0.12878559792E+01  0.17689927943E+02  0.50528861525E+02  0.30000005093E+02 0.  0.
        -12    1    1    2    0    0 -0.36586519619E+02 -0.12878559792E+01 -0.17689927943E+02  0.40659138475E+02  0.00000000000E+00 0.  1.
         11    1    3    3    0    0 -0.23647959727E+01  0.50680556883E+01  0.17385311293E+01  0.58566149951E+01  0.51100000000E-03 0. -1.
        -11    1    3    3    0    0  0.31225138734E+02 -0.88300665038E+01  0.13293921679E+02  0.35067188614E+02  0.51100000000E-03 0.  1.
        -12    1    3    3    0    0  0.77261768579E+01  0.50498667947E+01  0.26574751342E+01  0.96050579162E+01  0.00000000000E+00 0.  1.
</event>
<event>
 7    1  0.1369731E-013  0.5052886E+02  0.7816164E-02  0.1300439E+00
        -11   -1    0    0    0    0  0.00000000000E+00  0.00000000000E+00  0.45593999997E+02  0.45594000000E+02  0.51100000000E-03 0. -1.
         11   -1    0    0    0    0 -0.00000000000E+00 -0.00000000000E+00 -0.45593999997E+02  0.45594000000E+02  0.51100000000E-03 0.  1.
    9900012    2    1    2    0    0  0.15725294021E+02  0.22054801946E+02  0.30322709779E+02  0.50528857248E+02  0.29999992092E+02 0.  0.
        -12    1    1    2    0    0 -0.15725294021E+02 -0.22054801946E+02 -0.30322709779E+02  0.40659142752E+02  0.00000000000E+00 0.  1.
         11    1    3    3    0    0  0.19096717005E+01  0.74889878956E+01  0.25297635352E+02  0.26451883494E+02  0.51100000000E-03 0. -1.
        -11    1    3    3    0    0  0.13749552408E+02  0.14154639609E+02  0.78383208446E+01  0.21233070617E+02  0.51100000000E-03 0.  1.
         12    1    3    3    0    0  0.66069912497E-01  0.41117444104E+00 -0.28132464169E+01  0.28439031377E+01  0.00000000000E+00 0. -1.
</event>
<event>
 7    1  0.1369731E-013  0.5052884E+02  0.7816164E-02  0.1300439E+00
        -11   -1    0    0    0    0  0.00000000000E+00  0.00000000000E+00  0.45593999997E+02  0.45594000000E+02  0.51100000000E-03 0. -1.
         11   -1    0    0    0    0 -0.00000000000E+00 -0.00000000000E+00 -0.45593999997E+02  0.45594000000E+02  0.51100000000E-03 0.  1.
    9900012    2    1    2    0    0  0.33695839173E+02  0.75337967731E+01  0.21470895767E+02  0.50528843142E+02  0.29999949214E+02 0.  0.
        -12    1    1    2    0    0 -0.33695839173E+02 -0.75337967731E+01 -0.21470895767E+02  0.40659156858E+02  0.00000000000E+00 0.  1.
         11    1    3    3    0    0  0.15936059445E+02 -0.76279524555E+01  0.11099374145E+02  0.20864797051E+02  0.51100000000E-03 0. -1.
        -11    1    3    3    0    0  0.15813208096E+02  0.14284084350E+02  0.24383111964E+01  0.21448495932E+02  0.51100000000E-03 0.  1.
        -12    1    3    3    0    0  0.19465716323E+01  0.87766487837E+00  0.79332104252E+01  0.82155501586E+01  0.00000000000E+00 0.  1.
</event>
<event>
 7    1  0.1369731E-013  0.5052888E+02  0.7816164E-02  0.1300439E+00
        -11   -1    0    0    0    0  0.00000000000E+00  0.00000000000E+00  0.45593999997E+02  0.45594000000E+02  0.51100000000E-03 0. -1.
         11   -1    0    0    0    0 -0.00000000000E+00 -0.00000000000E+00 -0.45593999997E+02  0.45594000000E+02  0.51100000000E-03 0.  1.
    9900012    2    1    2    0    0  0.37276196429E+02 -0.33584934689E+01 -0.15886158251E+02  0.50528876515E+02  0.30000050654E+02 0.  0.
         12    1    1    2    0    0 -0.37276196429E+02  0.33584934689E+01  0.15886158251E+02  0.40659123485E+02  0.00000000000E+00 0. -1.
         11    1    3    3    0    0  0.28742995656E+01 -0.10704385345E+02 -0.59605491547E+01  0.12584657727E+02  0.51100000000E-03 0. -1.
        -11    1    3    3    0    0  0.42405668983E+01  0.20760330169E+01  0.19436375644E+01  0.51058836600E+01  0.51100000000E-03 0.  1.
         12    1    3    3    0    0  0.30161329965E+02  0.52698588594E+01 -0.11869246661E+02  0.32838335128E+02  0.00000000000E+00 0. -1.
</event>
<event>
 7    1  0.1369731E-013  0.5052886E+02  0.7816164E-02  0.1300439E+00
        -11   -1    0    0    0    0  0.00000000000E+00  0.00000000000E+00  0.45593999997E+02  0.45594000000E+02  0.51100000000E-03 0. -1.
         11   -1    0    0    0    0 -0.00000000000E+00 -0.00000000000E+00 -0.45593999997E+02  0.45594000000E+02  0.51100000000E-03 0.  1.
    9900012    2    1    2    0    0 -0.29157242746E+02 -0.22478097188E+02  0.17255609408E+02  0.50528859407E+02  0.29999998653E+02 0.  0.
        -12    1    1    2    0    0  0.29157242746E+02  0.22478097188E+02 -0.17255609408E+02  0.40659140593E+02  0.00000000000E+00 0.  1.
         11    1    3    3    0    0 -0.30619012907E+02 -0.17064168759E+02  0.13792694864E+02  0.37668929354E+02  0.51100000000E-03 0. -1.
        -11    1    3    3    0    0  0.30138166879E+01  0.47922999396E+00  0.56201912575E+01  0.63952562457E+01  0.51100000000E-03 0.  1.
        -12    1    3    3    0    0 -0.15520465273E+01 -0.58931584220E+01 -0.21572767134E+01  0.64646738068E+01  0.00000000000E+00 0.  1.
</event>
<event>
 7    1  0.1369731E-013  0.5052887E+02  0.7816164E-02  0.1300439E+00
        -11   -1    0    0    0    0  0.00000000000E+00  0.00000000000E+00  0.45593999997E+02  0.45594000000E+02  0.51100000000E-03 0. -1.
         11   -1    0    0    0    0 -0.00000000000E+00 -0.00000000000E+00 -0.45593999997E+02  0.45594000000E+02  0.51100000000E-03 0.  1.
    9900012    2    1    2    0    0  0.96368838939E+01  0.10758856889E+02  0.38007137848E+02  0.50528867445E+02  0.30000023087E+02 0.  0.
        -12    1    1    2    0    0 -0.96368838939E+01 -0.10758856889E+02 -0.38007137848E+02  0.40659132555E+02  0.00000000000E+00 0.  1.
         11    1    3    3    0    0 -0.20318091716E+01  0.72629491389E+01  0.34998984806E+02  0.35802340935E+02  0.51100000000E-03 0. -1.
        -11    1    3    3    0    0  0.46598722003E+01 -0.24107827447E+01  0.12543271757E+01  0.53944062964E+01  0.51100000000E-03 0.  1.
         12    1    3    3    0    0  0.70088208652E+01  0.59066904945E+01  0.17538258657E+01  0.93321202139E+01  0.00000000000E+00 0. -1.
</event>
<event>
 7    1  0.1369731E-013  0.5052886E+02  0.7816164E-02  0.1300439E+00
        -11   -1    0    0    0    0  0.00000000000E+00  0.00000000000E+00  0.45593999997E+02  0.45594000000E+02  0.51100000000E-03 0. -1.
         11   -1    0    0    0    0 -0.00000000000E+00 -0.00000000000E+00 -0.45593999997E+02  0.45594000000E+02  0.51100000000E-03 0.  1.
    9900012    2    1    2    0    0 -0.15546316378E+02  0.17779462448E+02  0.33096347833E+02  0.50528862309E+02  0.30000007475E+02 0.  0.
        -12    1    1    2    0    0  0.15546316378E+02 -0.17779462448E+02 -0.33096347833E+02  0.40659137691E+02  0.00000000000E+00 0.  1.
         11    1    3    3    0    0 -0.16104422563E+02  0.10789111361E+02  0.63104538577E+01  0.20385759201E+02  0.51100000000E-03 0. -1.
        -11    1    3    3    0    0  0.13804954361E+01  0.10303746427E+02  0.19544373422E+02  0.22137196995E+02  0.51100000000E-03 0.  1.
        -12    1    3    3    0    0 -0.82238925089E+00 -0.33133953399E+01  0.72415205537E+01  0.80059061129E+01  0.00000000000E+00 0.  1.
</event>
<event>
 7    1  0.1369731E-013  0.5052886E+02  0.7816164E-02  0.1300439E+00
        -11   -1    0    0    0    0  0.00000000000E+00  0.00000000000E+00  0.45593999997E+02  0.45594000000E+02  0.51100000000E-03 0. -1.
         11   -1    0    0    0    0 -0.00000000000E+00 -0.00000000000E+00 -0.45593999997E+02  0.45594000000E+02  0.51100000000E-03 0.  1.
    9900012    2    1    2    0    0  0.51902010655E+01  0.86115530592E+01 -0.39396305809E+02  0.50528856569E+02  0.29999990027E+02 0.  0.
         12    1    1    2    0    0 -0.51902010655E+01 -0.86115530592E+01  0.39396305809E+02  0.40659143431E+02  0.00000000000E+00 0. -1.
         11    1    3    3    0    0 -0.75689422128E+01  0.66565333565E+01 -0.17198448442E+02  0.19934516589E+02  0.51100000000E-03 0.  1.
        -11    1    3    3    0    0  0.13220795392E+02  0.65090290900E+01 -0.10677573325E+02  0.18198007113E+02  0.51100000000E-03 0. -1.
        -12    1    3    3    0    0 -0.46165211402E+00 -0.45540093872E+01 -0.11520284041E+02  0.12396332867E+02  0.00000000000E+00 0.  1.
</event>
<event>
 7    1  0.1369731E-013  0.5052885E+02  0.7816164E-02  0.1300439E+00
        -11   -1    0    0    0    0  0.00000000000E+00  0.00000000000E+00  0.45593999997E+02  0.45594000000E+02  0.51100000000E-03 0.  1.
         11   -1    0    0    0    0 -0.00000000000E+00 -0.00000000000E+00 -0.45593999997E+02  0.45594000000E+02  0.51100000000E-03 0. -1.
    9900012    2    1    2    0    0  0.14659359402E+02  0.37340578106E+02  0.66295358635E+01  0.50528851741E+02  0.29999975352E+02 0.  0.
        -12    1    1    2    0    0 -0.14659359402E+02 -0.37340578106E+02 -0.66295358635E+01  0.40659148259E+02  0.00000000000E+00 0.  1.
         11    1    3    3    0    0 -0.45922786485E+01  0.16780620695E+02 -0.48773122437E+00  0.17404486091E+02  0.51100000000E-03 0. -1.
        -11    1    3    3    0    0  0.11391970064E+02  0.15054916275E+02  0.11987334346E+02  0.22363444971E+02  0.51100000000E-03 0.  1.
        -12    1    3    3    0    0  0.78596679858E+01  0.55050411363E+01 -0.48700672580E+01  0.10760920679E+02  0.00000000000E+00 0.  1.
</event>
<event>
 7    1  0.1369731E-013  0.5052885E+02  0.7816164E-02  0.1300439E+00
        -11   -1    0    0    0    0  0.00000000000E+00  0.00000000000E+00  0.45593999997E+02  0.45594000000E+02  0.51100000000E-03 0.  1.
         11   -1    0    0    0    0 -0.00000000000E+00 -0.00000000000E+00 -0.45593999997E+02  0.45594000000E+02  0.51100000000E-03 0. -1.
    9900012    2    1    2    0    0  0.84929667354E+01 -0.38776986804E+02 -0.87966530069E+01  0.50528852276E+02  0.29999976977E+02 0.  0.
         12    1    1    2    0    0 -0.84929667354E+01  0.38776986804E+02  0.87966530069E+01  0.40659147724E+02  0.00000000000E+00 0. -1.
         11    1    3    3    0    0  0.11875223740E+02 -0.15241661482E+02 -0.60631816756E+00  0.19331239112E+02  0.51100000000E-03 0.  1.
        -11    1    3    3    0    0 -0.54461647392E+01 -0.42281850446E+01  0.42853268569E+01  0.81180222757E+01  0.51100000000E-03 0. -1.
        -12    1    3    3    0    0  0.20639077341E+01 -0.19307140277E+02 -0.12475661696E+02  0.23079590888E+02  0.00000000000E+00 0.  1.
</event>
<event>
 7    1  0.1369731E-013  0.5052885E+02  0.7816164E-02  0.1300439E+00
        -11   -1    0    0    0    0  0.00000000000E+00  0.00000000000E+00  0.45593999997E+02  0.45594000000E+02  0.51100000000E-03 0. -1.
         11   -1    0    0    0    0 -0.00000000000E+00 -0.00000000000E+00 -0.45593999997E+02  0.45594000000E+02  0.51100000000E-03 0.  1.
    9900012    2    1    2    0    0 -0.42878194933E+01  0.24534191034E+02  0.32138048511E+02  0.50528854807E+02  0.29999984672E+02 0.  0.
        -12    1    1    2    0    0  0.42878194933E+01 -0.24534191034E+02 -0.32138048511E+02  0.40659145193E+02  0.00000000000E+00 0.  1.
         11    1    3    3    0    0  0.63041161863E+01  0.26976927241E+02  0.24805668707E+02  0.37186256662E+02  0.51100000000E-03 0. -1.
        -11    1    3    3    0    0 -0.51358399280E+01 -0.94942212216E-01  0.41521761404E+01  0.66050308668E+01  0.51100000000E-03 0.  1.
         12    1    3    3    0    0 -0.54560957516E+01 -0.23477939948E+01  0.31802036635E+01  0.67375672786E+01  0.00000000000E+00 0. -1.
</event>
<event>
 7    1  0.1369731E-013  0.5052887E+02  0.7816164E-02  0.1300439E+00
        -11   -1    0    0    0    0  0.00000000000E+00  0.00000000000E+00  0.45593999997E+02  0.45594000000E+02  0.51100000000E-03 0. -1.
         11   -1    0    0    0    0 -0.00000000000E+00 -0.00000000000E+00 -0.45593999997E+02  0.45594000000E+02  0.51100000000E-03 0.  1.
    9900012    2    1    2    0    0  0.27961257930E+02  0.28489893341E+02 -0.77239196457E+01  0.50528869386E+02  0.30000028985E+02 0.  0.
         12    1    1    2    0    0 -0.27961257930E+02 -0.28489893341E+02  0.77239196457E+01  0.40659130614E+02  0.00000000000E+00 0. -1.
         11    1    3    3    0    0  0.19099287952E+02  0.14389320439E+01  0.23186373978E+00  0.19154818891E+02  0.51100000000E-03 0. -1.
        -11    1    3    3    0    0  0.90664208375E+01  0.11041700970E+02 -0.46598670073E+01  0.15027757913E+02  0.51100000000E-03 0.  1.
         12    1    3    3    0    0 -0.20445085947E+00  0.16009260328E+02 -0.32959163782E+01  0.16346292582E+02  0.00000000000E+00 0. -1.
</event>
<event>
 7    1  0.1369731E-013  0.5052887E+02  0.7816164E-02  0.1300439E+00
        -11   -1    0    0    0    0  0.00000000000E+00  0.00000000000E+00  0.45593999997E+02  0.45594000000E+02  0.51100000000E-03 0. -1.
         11   -1    0    0    0    0 -0.00000000000E+00 -0.00000000000E+00 -0.45593999997E+02  0.45594000000E+02  0.51100000000E-03 0.  1.
    9900012    2    1    2    0    0  0.19536622720E+02  0.24535287240E+02 -0.25874789949E+02  0.50528871846E+02  0.30000036464E+02 0.  0.
         12    1    1    2    0    0 -0.19536622720E+02 -0.24535287240E+02  0.25874789949E+02  0.40659128154E+02  0.00000000000E+00 0. -1.
         11    1    3    3    0    0  0.22013463005E+02  0.22599677732E+02 -0.28196327473E+02  0.42312774316E+02  0.51100000000E-03 0. -1.
        -11    1    3    3    0    0  0.52890845754E+00 -0.24739915651E+01  0.51294772263E+00  0.25813744494E+01  0.51100000000E-03 0.  1.
         12    1    3    3    0    0 -0.30057487423E+01  0.44096010737E+01  0.18085898014E+01  0.56347230811E+01  0.00000000000E+00 0. -1.
</event>
<event>
 7    1  0.1369731E-013  0.5052886E+02  0.7816164E-02  0.1300439E+00
        -11   -1    0    0    0    0  0.00000000000E+00  0.00000000000E+00  0.45593999997E+02  0.45594000000E+02  0.51100000000E-03 0. -1.
         11   -1    0    0    0    0 -0.00000000000E+00 -0.00000000000E+00 -0.45593999997E+02  0.45594000000E+02  0.51100000000E-03 0.  1.
    9900012    2    1    2    0    0  0.26624777332E+02  0.20449379110E+02 -0.22937089249E+02  0.50528856660E+02  0.29999990303E+02 0.  0.
         12    1    1    2    0    0 -0.26624777332E+02 -0.20449379110E+02  0.22937089249E+02  0.40659143340E+02  0.00000000000E+00 0. -1.
         11    1    3    3    0    0 -0.10215527600E+01 -0.27267704038E+01 -0.37248215472E+01  0.47279110288E+01  0.51100000000E-03 0. -1.
        -11    1    3    3    0    0  0.17545072062E+02  0.17608990272E+02 -0.18100309528E+01  0.24923529132E+02  0.51100000000E-03 0.  1.
        -12    1    3    3    0    0  0.10101258030E+02  0.55671592417E+01 -0.17402236749E+02  0.20877416499E+02  0.00000000000E+00 0.  1.
</event>
<event>
 7    1  0.1369731E-013  0.5052886E+02  0.7816164E-02  0.1300439E+00
        -11   -1    0    0    0    0  0.00000000000E+00  0.00000000000E+00  0.45593999997E+02  0.45594000000E+02  0.51100000000E-03 0. -1.
         11   -1    0    0    0    0 -0.00000000000E+00 -0.00000000000E+00 -0.45593999997E+02  0.45594000000E+02  0.51100000000E-03 0.  1.
    9900012    2    1    2    0    0 -0.23981057547E+02 -0.17802338277E+02  0.27588967992E+02  0.50528861740E+02  0.30000005746E+02 0.  0.
        -12    1    1    2    0    0  0.23981057547E+02  0.17802338277E+02 -0.27588967992E+02  0.40659138260E+02  0.00000000000E+00 0.  1.
         11    1    3    3    0    0 -0.10140462796E+02 -0.84175186263E+01  0.20143837493E+02  0.24071929602E+02  0.51100000000E-03 0. -1.
        -11    1    3    3    0    0 -0.33212801594E+00 -0.70636357431E-01 -0.55287296629E+01  0.55391470878E+01  0.51100000000E-03 0.  1.
        -12    1    3    3    0    0 -0.13508466734E+02 -0.93141832935E+01  0.12973860161E+02  0.20917785051E+02  0.00000000000E+00 0.  1.
</event>
<event>
 7    1  0.1369731E-013  0.5052886E+02  0.7816164E-02  0.1300439E+00
        -11   -1    0    0    0    0  0.00000000000E+00  0.00000000000E+00  0.45593999997E+02  0.45594000000E+02  0.51100000000E-03 0. -1.
         11   -1    0    0    0    0 -0.00000000000E+00 -0.00000000000E+00 -0.45593999997E+02  0.45594000000E+02  0.51100000000E-03 0.  1.
    9900012    2    1    2    0    0 -0.23059629123E+02 -0.51302403973E+01  0.33092295186E+02  0.50528857578E+02  0.29999993094E+02 0.  0.
        -12    1    1    2    0    0  0.23059629123E+02  0.51302403973E+01 -0.33092295186E+02  0.40659142422E+02  0.00000000000E+00 0.  1.
         11    1    3    3    0    0 -0.14304647046E+02  0.97088061782E+01  0.12598455797E+02  0.21391702439E+02  0.51100000000E-03 0. -1.
        -11    1    3    3    0    0 -0.77327189040E+01 -0.13435358017E+02  0.98807700198E+01  0.18382965026E+02  0.51100000000E-03 0.  1.
         12    1    3    3    0    0 -0.10222631731E+01 -0.14036885587E+01  0.10613069369E+02  0.10754190114E+02  0.00000000000E+00 0. -1.
</event>
<event>
 7    1  0.1369731E-013  0.5052886E+02  0.7816164E-02  0.1300439E+00
        -11   -1    0    0    0    0  0.00000000000E+00  0.00000000000E+00  0.45593999997E+02  0.45594000000E+02  0.51100000000E-03 0. -1.
         11   -1    0    0    0    0 -0.00000000000E+00 -0.00000000000E+00 -0.45593999997E+02  0.45594000000E+02  0.51100000000E-03 0.  1.
    9900012    2    1    2    0    0  0.33915871825E+02 -0.14796149520E+02  0.16850912075E+02  0.50528860314E+02  0.30000001411E+02 0.  0.
        -12    1    1    2    0    0 -0.33915871825E+02  0.14796149520E+02 -0.16850912075E+02  0.40659139686E+02  0.00000000000E+00 0.  1.
         11    1    3    3    0    0 -0.10713609404E+01 -0.95449548999E+01  0.20902120138E+01  0.98296981047E+01  0.51100000000E-03 0.  1.
        -11    1    3    3    0    0  0.34394331500E+02 -0.71568533741E+01  0.11667212117E+02  0.37017758285E+02  0.51100000000E-03 0. -1.
         12    1    3    3    0    0  0.59290126476E+00  0.19056587541E+01  0.30934879440E+01  0.36814039247E+01  0.00000000000E+00 0. -1.
</event>
<event>
 7    1  0.1369731E-013  0.5052886E+02  0.7816164E-02  0.1300439E+00
        -11   -1    0    0    0    0  0.00000000000E+00  0.00000000000E+00  0.45593999997E+02  0.45594000000E+02  0.51100000000E-03 0.  1.
         11   -1    0    0    0    0 -0.00000000000E+00 -0.00000000000E+00 -0.45593999997E+02  0.45594000000E+02  0.51100000000E-03 0. -1.
    9900012    2    1    2    0    0  0.37167588502E+02 -0.11044236033E+02  0.12237698995E+02  0.50528855133E+02  0.29999985661E+02 0.  0.
        -12    1    1    2    0    0 -0.37167588502E+02  0.11044236033E+02 -0.12237698995E+02  0.40659144867E+02  0.00000000000E+00 0.  1.
         11    1    3    3    0    0  0.25796621835E+02 -0.94538931598E+00  0.18272205567E+01  0.25878527668E+02  0.51100000000E-03 0. -1.
        -11    1    3    3    0    0 -0.14829758498E+01 -0.28836863312E+01 -0.32227789494E+01  0.45717795928E+01  0.51100000000E-03 0.  1.
         12    1    3    3    0    0  0.12853942518E+02 -0.72151603856E+01  0.13633257388E+02  0.20078547872E+02  0.00000000000E+00 0. -1.
</event>
<event>
 7    1  0.1369731E-013  0.5052886E+02  0.7816164E-02  0.1300439E+00
        -11   -1    0    0    0    0  0.00000000000E+00  0.00000000000E+00  0.45593999997E+02  0.45594000000E+02  0.51100000000E-03 0. -1.
         11   -1    0    0    0    0 -0.00000000000E+00 -0.00000000000E+00 -0.45593999997E+02  0.45594000000E+02  0.51100000000E-03 0.  1.
    9900012    2    1    2    0    0  0.13836507541E+01  0.12322094822E+02  0.38722311210E+02  0.50528857170E+02  0.29999991855E+02 0.  0.
        -12    1    1    2    0    0 -0.13836507541E+01 -0.12322094822E+02 -0.38722311210E+02  0.40659142830E+02  0.00000000000E+00 0.  1.
         11    1    3    3    0    0 -0.24225931704E+01 -0.70422884087E+01  0.17087984321E+02  0.18640332403E+02  0.51100000000E-03 0. -1.
        -11    1    3    3    0    0  0.52766058390E+01  0.11850420260E+02  0.20338426619E+02  0.24123155414E+02  0.51100000000E-03 0.  1.
         12    1    3    3    0    0 -0.14703619145E+01  0.75139629704E+01  0.12959002701E+01  0.77653693531E+01  0.00000000000E+00 0. -1.
</event>
<event>
 7    1  0.1369731E-013  0.5052880E+02  0.7816164E-02  0.1300439E+00
        -11   -1    0    0    0    0  0.00000000000E+00  0.00000000000E+00  0.45593999997E+02  0.45594000000E+02  0.51100000000E-03 0. -1.
         11   -1    0    0    0    0 -0.00000000000E+00 -0.00000000000E+00 -0.45593999997E+02  0.45594000000E+02  0.51100000000E-03 0.  1.
    9900012    2    1    2    0    0 -0.37573321767E+02  0.65725103032E+01  0.14078988320E+02  0.50528802856E+02  0.29999826759E+02 0.  0.
        -12    1    1    2    0    0  0.37573321767E+02 -0.65725103032E+01 -0.14078988320E+02  0.40659197144E+02  0.00000000000E+00 0.  1.
         11    1    3    3    0    0 -0.24541973656E+01  0.63325943483E+01  0.52946113644E+01  0.86114891657E+01  0.51100000000E-03 0. -1.
        -11    1    3    3    0    0 -0.24714509811E+02 -0.60898571564E+01 -0.21577118963E+01  0.25545040150E+02  0.51100000000E-03 0.  1.
        -12    1    3    3    0    0 -0.10404614591E+02  0.63297731113E+01  0.10942088852E+02  0.16372273540E+02  0.00000000000E+00 0.  1.
</event>
<event>
 7    1  0.1369731E-013  0.5052885E+02  0.7816164E-02  0.1300439E+00
        -11   -1    0    0    0    0  0.00000000000E+00  0.00000000000E+00  0.45593999997E+02  0.45594000000E+02  0.51100000000E-03 0. -1.
         11   -1    0    0    0    0 -0.00000000000E+00 -0.00000000000E+00 -0.45593999997E+02  0.45594000000E+02  0.51100000000E-03 0.  1.
    9900012    2    1    2    0    0  0.11365688645E+02  0.34903281696E+02 -0.17485662256E+02  0.50528851754E+02  0.29999975393E+02 0.  0.
         12    1    1    2    0    0 -0.11365688645E+02 -0.34903281696E+02  0.17485662256E+02  0.40659148246E+02  0.00000000000E+00 0. -1.
         11    1    3    3    0    0  0.12005773863E+02  0.18072414211E+01 -0.87856284883E+01  0.14986393689E+02  0.51100000000E-03 0. -1.
        -11    1    3    3    0    0  0.39773077031E+01  0.21294599533E+02 -0.40162023551E+01  0.22031995539E+02  0.51100000000E-03 0.  1.
         12    1    3    3    0    0 -0.46173929209E+01  0.11801440742E+02 -0.46838314130E+01  0.13510462526E+02  0.00000000000E+00 0. -1.
</event>
<event>
 7    1  0.1369731E-013  0.5052885E+02  0.7816164E-02  0.1300439E+00
        -11   -1    0    0    0    0  0.00000000000E+00  0.00000000000E+00  0.45593999997E+02  0.45594000000E+02  0.51100000000E-03 0. -1.
         11   -1    0    0    0    0 -0.00000000000E+00 -0.00000000000E+00 -0.45593999997E+02  0.45594000000E+02  0.51100000000E-03 0.  1.
    9900012    2    1    2    0    0 -0.32842189309E+02  0.11710423512E+02  0.20914654976E+02  0.50528853302E+02  0.29999980098E+02 0.  0.
        -12    1    1    2    0    0  0.32842189309E+02 -0.11710423512E+02 -0.20914654976E+02  0.40659146698E+02  0.00000000000E+00 0.  1.
         11    1    3    3    0    0 -0.34192999683E+02  0.92012543798E+01  0.15904932865E+02  0.38817408455E+02  0.51100000000E-03 0. -1.
        -11    1    3    3    0    0  0.55975444935E+01  0.12961570504E+01  0.11797520544E+01  0.58655215136E+01  0.51100000000E-03 0.  1.
        -12    1    3    3    0    0 -0.42467341192E+01  0.12130120818E+01  0.38299700563E+01  0.58459233335E+01  0.00000000000E+00 0.  1.
</event>
<event>
 7    1  0.1369731E-013  0.5052886E+02  0.7816164E-02  0.1300439E+00
        -11   -1    0    0    0    0  0.00000000000E+00  0.00000000000E+00  0.45593999997E+02  0.45594000000E+02  0.51100000000E-03 0. -1.
         11   -1    0    0    0    0 -0.00000000000E+00 -0.00000000000E+00 -0.45593999997E+02  0.45594000000E+02  0.51100000000E-03 0.  1.
    9900012    2    1    2    0    0  0.33467939053E+02  0.18804347386E+02 -0.13396233381E+02  0.50528862111E+02  0.30000006872E+02 0.  0.
         12    1    1    2    0    0 -0.33467939053E+02 -0.18804347386E+02  0.13396233381E+02  0.40659137889E+02  0.00000000000E+00 0. -1.
         11    1    3    3    0    0  0.68051863071E+01 -0.45268396653E+01  0.22792630813E+00  0.81764777681E+01  0.51100000000E-03 0. -1.
        -11    1    3    3    0    0  0.10653827578E+02  0.21480793178E+02 -0.85629020371E+01  0.25460789641E+02  0.51100000000E-03 0.  1.
        -12    1    3    3    0    0  0.16008925168E+02  0.18503938734E+01 -0.50612576524E+01  0.16891594701E+02  0.00000000000E+00 0.  1.
</event>
<event>
 7    1  0.1542957E-013  0.5052887E+02  0.7816164E-02  0.1300439E+00
        -11   -1    0    0    0    0  0.00000000000E+00  0.00000000000E+00  0.45593999997E+02  0.45594000000E+02  0.51100000000E-03 0. -1.
         11   -1    0    0    0    0 -0.00000000000E+00 -0.00000000000E+00 -0.45593999997E+02  0.45594000000E+02  0.51100000000E-03 0.  1.
    9900012    2    1    2    0    0  0.20110151738E+02 -0.43979541319E+01 -0.35062872713E+02  0.50528865155E+02  0.30000016125E+02 0.  0.
         12    1    1    2    0    0 -0.20110151738E+02  0.43979541319E+01  0.35062872713E+02  0.40659134845E+02  0.00000000000E+00 0. -1.
         11    1    3    3    0    0 -0.26580153739E+00 -0.36287098100E+01  0.13302115687E+01  0.38739706273E+01  0.51100000000E-03 0. -1.
        -11    1    3    3    0    0  0.10550638896E+02  0.47439589068E+01 -0.32876617610E+02  0.34852447733E+02  0.51100000000E-03 0.  1.
        -12    1    3    3    0    0  0.98253143795E+01 -0.55132032286E+01 -0.35164666712E+01  0.11802446795E+02  0.00000000000E+00 0.  1.
</event>
<event>
 7    1  0.1369731E-013  0.5052888E+02  0.7816164E-02  0.1300439E+00
        -11   -1    0    0    0    0  0.00000000000E+00  0.00000000000E+00  0.45593999997E+02  0.45594000000E+02  0.51100000000E-03 0. -1.
         11   -1    0    0    0    0 -0.00000000000E+00 -0.00000000000E+00 -0.45593999997E+02  0.45594000000E+02  0.51100000000E-03 0.  1.
    9900012    2    1    2    0    0 -0.70601632697E+01 -0.51526760832E+01  0.39708543463E+02  0.50528875560E+02  0.30000047753E+02 0.  0.
        -12    1    1    2    0    0  0.70601632697E+01  0.51526760832E+01 -0.39708543463E+02  0.40659124440E+02  0.00000000000E+00 0.  1.
         11    1    3    3    0    0 -0.17387085309E+00 -0.64960031786E+01  0.37170485010E+01  0.74863033728E+01  0.51100000000E-03 0. -1.
        -11    1    3    3    0    0 -0.65319421221E+01  0.11442284389E+02  0.23838300180E+02  0.27237046383E+02  0.51100000000E-03 0.  1.
        -12    1    3    3    0    0 -0.35435029447E+00 -0.10098957293E+02  0.12153194782E+02  0.15805525804E+02  0.00000000000E+00 0.  1.
</event>
<event>
 7    1  0.1369731E-013  0.5052886E+02  0.7816164E-02  0.1300439E+00
        -11   -1    0    0    0    0  0.00000000000E+00  0.00000000000E+00  0.45593999997E+02  0.45594000000E+02  0.51100000000E-03 0. -1.
         11   -1    0    0    0    0 -0.00000000000E+00 -0.00000000000E+00 -0.45593999997E+02  0.45594000000E+02  0.51100000000E-03 0.  1.
    9900012    2    1    2    0    0  0.30709206357E+01 -0.30550215686E+02 -0.26653697826E+02  0.50528857857E+02  0.29999993942E+02 0.  0.
         12    1    1    2    0    0 -0.30709206357E+01  0.30550215686E+02  0.26653697826E+02  0.40659142143E+02  0.00000000000E+00 0. -1.
         11    1    3    3    0    0 -0.25702101226E+01 -0.49649878119E+01 -0.22892699921E+02  0.23565500079E+02  0.51100000000E-03 0. -1.
        -11    1    3    3    0    0  0.60004017807E+01 -0.23526293377E+02 -0.45997152625E+01  0.24711306772E+02  0.51100000000E-03 0.  1.
        -12    1    3    3    0    0 -0.35927102240E+00 -0.20589344964E+01  0.83871735711E+00  0.22520510059E+01  0.00000000000E+00 0.  1.
</event>
<event>
 7    1  0.1369731E-013  0.5052886E+02  0.7816164E-02  0.1300439E+00
        -11   -1    0    0    0    0  0.00000000000E+00  0.00000000000E+00  0.45593999997E+02  0.45594000000E+02  0.51100000000E-03 0. -1.
         11   -1    0    0    0    0 -0.00000000000E+00 -0.00000000000E+00 -0.45593999997E+02  0.45594000000E+02  0.51100000000E-03 0.  1.
    9900012    2    1    2    0    0  0.74906966303E+01 -0.39394854257E+02  0.67157108231E+01  0.50528857734E+02  0.29999993570E+02 0.  0.
        -12    1    1    2    0    0 -0.74906966303E+01  0.39394854257E+02 -0.67157108231E+01  0.40659142266E+02  0.00000000000E+00 0.  1.
         11    1    3    3    0    0  0.64741122387E+01 -0.37196422825E+02  0.34172563622E+01  0.37909967576E+02  0.51100000000E-03 0. -1.
        -11    1    3    3    0    0 -0.42793889170E+01 -0.73989105255E+00  0.52281758197E+01  0.67966485076E+01  0.51100000000E-03 0.  1.
         12    1    3    3    0    0  0.52959733087E+01 -0.14585403787E+01 -0.19297213588E+01  0.58222416512E+01  0.00000000000E+00 0. -1.
</event>
<event>
 7    1  0.1369731E-013  0.5052886E+02  0.7816164E-02  0.1300439E+00
        -11   -1    0    0    0    0  0.00000000000E+00  0.00000000000E+00  0.45593999997E+02  0.45594000000E+02  0.51100000000E-03 0. -1.
         11   -1    0    0    0    0 -0.00000000000E+00 -0.00000000000E+00 -0.45593999997E+02  0.45594000000E+02  0.51100000000E-03 0.  1.
    9900012    2    1    2    0    0  0.15758392567E+02  0.20839182769E+01  0.37423201067E+02  0.50528860440E+02  0.30000001793E+02 0.  0.
        -12    1    1    2    0    0 -0.15758392567E+02 -0.20839182769E+01 -0.37423201067E+02  0.40659139560E+02  0.00000000000E+00 0.  1.
         11    1    3    3    0    0  0.13844932112E+02  0.17737689647E+00  0.13882735818E+02  0.19607242586E+02  0.51100000000E-03 0. -1.
        -11    1    3    3    0    0 -0.65658070399E+01  0.74404876733E+01  0.11483796970E+02  0.15177228733E+02  0.51100000000E-03 0.  1.
        -12    1    3    3    0    0  0.84792674948E+01 -0.55339462929E+01  0.12056668279E+02  0.15744389121E+02  0.00000000000E+00 0.  1.
</event>
<event>
 7    1  0.1369731E-013  0.5052886E+02  0.7816164E-02  0.1300439E+00
        -11   -1    0    0    0    0  0.00000000000E+00  0.00000000000E+00  0.45593999997E+02  0.45594000000E+02  0.51100000000E-03 0. -1.
         11   -1    0    0    0    0 -0.00000000000E+00 -0.00000000000E+00 -0.45593999997E+02  0.45594000000E+02  0.51100000000E-03 0.  1.
    9900012    2    1    2    0    0  0.16328325005E+01  0.34757884035E+02  0.21033042493E+02  0.50528861777E+02  0.30000005856E+02 0.  0.
        -12    1    1    2    0    0 -0.16328325005E+01 -0.34757884035E+02 -0.21033042493E+02  0.40659138223E+02  0.00000000000E+00 0.  1.
         11    1    3    3    0    0  0.51110934199E+01  0.36449316752E+02  0.21447424701E+02  0.42598920106E+02  0.51100000000E-03 0. -1.
        -11    1    3    3    0    0 -0.25541362747E+01 -0.18337800470E+01 -0.35004920058E+01  0.47052955183E+01  0.51100000000E-03 0.  1.
         12    1    3    3    0    0 -0.92412464465E+00  0.14234732981E+00  0.30861097983E+01  0.32246461524E+01  0.00000000000E+00 0. -1.
</event>
<event>
 7    1  0.1369731E-013  0.5052885E+02  0.7816164E-02  0.1300439E+00
        -11   -1    0    0    0    0  0.00000000000E+00  0.00000000000E+00  0.45593999997E+02  0.45594000000E+02  0.51100000000E-03 0.  1.
         11   -1    0    0    0    0 -0.00000000000E+00 -0.00000000000E+00 -0.45593999997E+02  0.45594000000E+02  0.51100000000E-03 0. -1.
    9900012    2    1    2    0    0  0.19237481994E+01 -0.36538017239E+02  0.17732418913E+02  0.50528853533E+02  0.29999980800E+02 0.  0.
        -12    1    1    2    0    0 -0.19237481994E+01  0.36538017239E+02 -0.17732418913E+02  0.40659146467E+02  0.00000000000E+00 0.  1.
         11    1    3    3    0    0 -0.39878343310E+01 -0.20665415924E+01  0.29786801925E+01  0.53894297245E+01  0.51100000000E-03 0. -1.
        -11    1    3    3    0    0  0.15102425618E+02 -0.26457615277E+02  0.10355094766E+02  0.32176336857E+02  0.51100000000E-03 0.  1.
        -12    1    3    3    0    0 -0.91908430872E+01 -0.80138603701E+01  0.43986439541E+01  0.12963086952E+02  0.00000000000E+00 0.  1.
</event>
<event>
 7    1  0.1369731E-013  0.5052886E+02  0.7816164E-02  0.1300439E+00
        -11   -1    0    0    0    0  0.00000000000E+00  0.00000000000E+00  0.45593999997E+02  0.45594000000E+02  0.51100000000E-03 0. -1.
         11   -1    0    0    0    0 -0.00000000000E+00 -0.00000000000E+00 -0.45593999997E+02  0.45594000000E+02  0.51100000000E-03 0.  1.
    9900012    2    1    2    0    0  0.14834920748E+02  0.17471515889E+02  0.33583281463E+02  0.50528861607E+02  0.30000005341E+02 0.  0.
        -12    1    1    2    0    0 -0.14834920748E+02 -0.17471515889E+02 -0.33583281463E+02  0.40659138393E+02  0.00000000000E+00 0.  1.
         11    1    3    3    0    0  0.15818568599E+02  0.90070170841E+00  0.14015903824E+02  0.21153816117E+02  0.51100000000E-03 0.  1.
        -11    1    3    3    0    0 -0.67979476523E+01  0.53916337907E+01  0.46365533987E+01  0.98376539326E+01  0.51100000000E-03 0. -1.
         12    1    3    3    0    0  0.58142998014E+01  0.11179180390E+02  0.14930824240E+02  0.19537391557E+02  0.00000000000E+00 0. -1.
</event>
<event>
 7    1  0.1369731E-013  0.5052885E+02  0.7816164E-02  0.1300439E+00
        -11   -1    0    0    0    0  0.00000000000E+00  0.00000000000E+00  0.45593999997E+02  0.45594000000E+02  0.51100000000E-03 0.  1.
         11   -1    0    0    0    0 -0.00000000000E+00 -0.00000000000E+00 -0.45593999997E+02  0.45594000000E+02  0.51100000000E-03 0. -1.
    9900012    2    1    2    0    0  0.37856881881E+01  0.39766990718E+02 -0.75777237263E+01  0.50528845032E+02  0.29999954960E+02 0.  0.
        -12    1    1    2    0    0 -0.37856881881E+01 -0.39766990718E+02  0.75777237263E+01  0.40659154968E+02  0.00000000000E+00 0.  1.
         11    1    3    3    0    0  0.10165561792E+02  0.21185987664E+02 -0.91614382820E+01  0.25221353483E+02  0.51100000000E-03 0.  1.
        -11    1    3    3    0    0 -0.53962317247E+01 -0.87328786965E+00  0.20084229679E+01  0.58237197399E+01  0.51100000000E-03 0. -1.
         12    1    3    3    0    0 -0.98364187903E+00  0.19454290924E+02 -0.42470841224E+00  0.19483771810E+02  0.00000000000E+00 0. -1.
</event>
<event>
 7    1  0.1369731E-013  0.5052887E+02  0.7816164E-02  0.1300439E+00
        -11   -1    0    0    0    0  0.00000000000E+00  0.00000000000E+00  0.45593999997E+02  0.45594000000E+02  0.51100000000E-03 0. -1.
         11   -1    0    0    0    0 -0.00000000000E+00 -0.00000000000E+00 -0.45593999997E+02  0.45594000000E+02  0.51100000000E-03 0.  1.
    9900012    2    1    2    0    0 -0.14669261039E+02  0.18732515731E+02  0.32970748925E+02  0.50528872492E+02  0.30000038426E+02 0.  0.
        -12    1    1    2    0    0  0.14669261039E+02 -0.18732515731E+02 -0.32970748925E+02  0.40659127508E+02  0.00000000000E+00 0.  1.
         11    1    3    3    0    0 -0.15161506629E+02  0.13485568495E+02  0.16015736294E+02  0.25850254355E+02  0.51100000000E-03 0. -1.
        -11    1    3    3    0    0  0.16345355145E+01 -0.26167291553E+01 -0.23001066579E+01  0.38483072538E+01  0.51100000000E-03 0.  1.
        -12    1    3    3    0    0 -0.11422899246E+01  0.78636763915E+01  0.19255119289E+02  0.20830310883E+02  0.00000000000E+00 0.  1.
</event>
<event>
 7    1  0.1369731E-013  0.5052886E+02  0.7816164E-02  0.1300439E+00
        -11   -1    0    0    0    0  0.00000000000E+00  0.00000000000E+00  0.45593999997E+02  0.45594000000E+02  0.51100000000E-03 0. -1.
         11   -1    0    0    0    0 -0.00000000000E+00 -0.00000000000E+00 -0.45593999997E+02  0.45594000000E+02  0.51100000000E-03 0.  1.
    9900012    2    1    2    0    0 -0.12615536912E+02  0.19939630762E+02 -0.33112313332E+02  0.50528856616E+02  0.29999990171E+02 0.  0.
         12    1    1    2    0    0  0.12615536912E+02 -0.19939630762E+02  0.33112313332E+02  0.40659143384E+02  0.00000000000E+00 0. -1.
         11    1    3    3    0    0 -0.10773564118E+02 -0.44936752407E+01 -0.13462612104E+02  0.17818662293E+02  0.51100000000E-03 0. -1.
        -11    1    3    3    0    0 -0.39032111170E+01  0.23609700609E+02 -0.17920184568E+02  0.29896254533E+02  0.51100000000E-03 0.  1.
         12    1    3    3    0    0  0.20612383231E+01  0.82360539325E+00 -0.17295166597E+01  0.28139397905E+01  0.00000000000E+00 0. -1.
</event>
<event>
 7    1  0.1369731E-013  0.5052887E+02  0.7816164E-02  0.1300439E+00
        -11   -1    0    0    0    0  0.00000000000E+00  0.00000000000E+00  0.45593999997E+02  0.45594000000E+02  0.51100000000E-03 0. -1.
         11   -1    0    0    0    0 -0.00000000000E+00 -0.00000000000E+00 -0.45593999997E+02  0.45594000000E+02  0.51100000000E-03 0.  1.
    9900012    2    1    2    0    0  0.25569094180E+01 -0.13515530516E+02  0.38261693083E+02  0.50528874228E+02  0.30000043705E+02 0.  0.
        -12    1    1    2    0    0 -0.25569094180E+01  0.13515530516E+02 -0.38261693083E+02  0.40659125772E+02  0.00000000000E+00 0.  1.
         11    1    3    3    0    0  0.78978876334E+01  0.44789092122E+01  0.99810746061E+01  0.13492928050E+02  0.51100000000E-03 0. -1.
        -11    1    3    3    0    0 -0.88782269210E+01 -0.18308057920E+02  0.24539252009E+02  0.31877622049E+02  0.51100000000E-03 0.  1.
        -12    1    3    3    0    0  0.35372487056E+01  0.31361819232E+00  0.37413664683E+01  0.51583241296E+01  0.00000000000E+00 0.  1.
</event>
<event>
 7    1  0.1369731E-013  0.5052886E+02  0.7816164E-02  0.1300439E+00
        -11   -1    0    0    0    0  0.00000000000E+00  0.00000000000E+00  0.45593999997E+02  0.45594000000E+02  0.51100000000E-03 0. -1.
         11   -1    0    0    0    0 -0.00000000000E+00 -0.00000000000E+00 -0.45593999997E+02  0.45594000000E+02  0.51100000000E-03 0.  1.
    9900012    2    1    2    0    0  0.48001599667E+01 -0.28788168276E+02  0.28308404597E+02  0.50528856634E+02  0.29999990226E+02 0.  0.
        -12    1    1    2    0    0 -0.48001599667E+01  0.28788168276E+02 -0.28308404597E+02  0.40659143366E+02  0.00000000000E+00 0.  1.
         11    1    3    3    0    0  0.10689867565E+00 -0.10646644731E+02  0.85364178930E+01  0.13646717629E+02  0.51100000000E-03 0. -1.
        -11    1    3    3    0    0  0.91571545881E+01 -0.69086002935E+01  0.21792421558E+02  0.24627055768E+02  0.51100000000E-03 0.  1.
        -12    1    3    3    0    0 -0.44638932971E+01 -0.11232923252E+02 -0.20204348540E+01  0.12255083237E+02  0.00000000000E+00 0.  1.
</event>
<event>
 7    1  0.1369731E-013  0.5052887E+02  0.7816164E-02  0.1300439E+00
        -11   -1    0    0    0    0  0.00000000000E+00  0.00000000000E+00  0.45593999997E+02  0.45594000000E+02  0.51100000000E-03 0. -1.
         11   -1    0    0    0    0 -0.00000000000E+00 -0.00000000000E+00 -0.45593999997E+02  0.45594000000E+02  0.51100000000E-03 0.  1.
    9900012    2    1    2    0    0  0.39038938765E+01 -0.42545032231E+01 -0.40247034970E+02  0.50528868074E+02  0.30000024998E+02 0.  0.
         12    1    1    2    0    0 -0.39038938765E+01  0.42545032231E+01  0.40247034970E+02  0.40659131926E+02  0.00000000000E+00 0. -1.
         11    1    3    3    0    0 -0.34033581415E+00 -0.70776645728E+01 -0.34820463905E+02  0.35534122630E+02  0.51100000000E-03 0.  1.
        -11    1    3    3    0    0  0.60697367105E+00  0.71372180928E+01  0.44318858984E-02  0.71629825523E+01  0.51100000000E-03 0. -1.
         12    1    3    3    0    0  0.36372560196E+01 -0.43140567431E+01 -0.54310029517E+01  0.78317628920E+01  0.00000000000E+00 0. -1.
</event>
<event>
 7    1  0.1369731E-013  0.5052887E+02  0.7816164E-02  0.1300439E+00
        -11   -1    0    0    0    0  0.00000000000E+00  0.00000000000E+00  0.45593999997E+02  0.45594000000E+02  0.51100000000E-03 0.  1.
         11   -1    0    0    0    0 -0.00000000000E+00 -0.00000000000E+00 -0.45593999997E+02  0.45594000000E+02  0.51100000000E-03 0. -1.
    9900012    2    1    2    0    0  0.27453756275E+01 -0.34669157552E+02  0.21063654374E+02  0.50528866853E+02  0.30000021287E+02 0.  0.
        -12    1    1    2    0    0 -0.27453756275E+01  0.34669157552E+02 -0.21063654374E+02  0.40659133147E+02  0.00000000000E+00 0.  1.
         11    1    3    3    0    0  0.11263580546E+02 -0.19818967342E+02  0.10769709393E+02  0.25212027961E+02  0.51100000000E-03 0. -1.
        -11    1    3    3    0    0 -0.78517728322E+01 -0.17589264659E+02  0.59903642458E+01  0.20172184609E+02  0.51100000000E-03 0.  1.
         12    1    3    3    0    0 -0.66643208587E+00  0.27390744488E+01  0.43035807343E+01  0.51446542836E+01  0.00000000000E+00 0. -1.
</event>
<event>
 7    1  0.1369731E-013  0.5052886E+02  0.7816164E-02  0.1300439E+00
        -11   -1    0    0    0    0  0.00000000000E+00  0.00000000000E+00  0.45593999997E+02  0.45594000000E+02  0.51100000000E-03 0. -1.
         11   -1    0    0    0    0 -0.00000000000E+00 -0.00000000000E+00 -0.45593999997E+02  0.45594000000E+02  0.51100000000E-03 0.  1.
    9900012    2    1    2    0    0 -0.19867136391E+02  0.30829950421E+02 -0.17549261026E+02  0.50528861864E+02  0.30000006123E+02 0.  0.
         12    1    1    2    0    0  0.19867136391E+02 -0.30829950421E+02  0.17549261026E+02  0.40659138136E+02  0.00000000000E+00 0. -1.
         11    1    3    3    0    0 -0.10749049404E+01  0.27201611520E+02 -0.87083719767E+01  0.28581791978E+02  0.51100000000E-03 0. -1.
        -11    1    3    3    0    0 -0.16006801965E+02  0.34001654212E+01 -0.97004909526E+01  0.19023100668E+02  0.51100000000E-03 0.  1.
         12    1    3    3    0    0 -0.27854294858E+01  0.22817347970E+00  0.85960190330E+00  0.29239692183E+01  0.00000000000E+00 0. -1.
</event>
<event>
 7    1  0.1369731E-013  0.5052885E+02  0.7816164E-02  0.1300439E+00
        -11   -1    0    0    0    0  0.00000000000E+00  0.00000000000E+00  0.45593999997E+02  0.45594000000E+02  0.51100000000E-03 0. -1.
         11   -1    0    0    0    0 -0.00000000000E+00 -0.00000000000E+00 -0.45593999997E+02  0.45594000000E+02  0.51100000000E-03 0.  1.
    9900012    2    1    2    0    0  0.32093768667E+02 -0.86449199061E-01  0.24962945563E+02  0.50528854511E+02  0.29999983772E+02 0.  0.
        -12    1    1    2    0    0 -0.32093768667E+02  0.86449199061E-01 -0.24962945563E+02  0.40659145489E+02  0.00000000000E+00 0.  1.
         11    1    3    3    0    0  0.14712857160E+02 -0.74166174510E+01  0.59169993640E+01  0.17506720480E+02  0.51100000000E-03 0. -1.
        -11    1    3    3    0    0  0.10632847064E+02  0.90346869782E+01  0.21509767346E+02  0.25638898124E+02  0.51100000000E-03 0.  1.
        -12    1    3    3    0    0  0.67480644430E+01 -0.17045187263E+01 -0.24638211471E+01  0.73832359071E+01  0.00000000000E+00 0.  1.
</event>
<event>
 7    1  0.1369731E-013  0.5052885E+02  0.7816164E-02  0.1300439E+00
        -11   -1    0    0    0    0  0.00000000000E+00  0.00000000000E+00  0.45593999997E+02  0.45594000000E+02  0.51100000000E-03 0. -1.
         11   -1    0    0    0    0 -0.00000000000E+00 -0.00000000000E+00 -0.45593999997E+02  0.45594000000E+02  0.51100000000E-03 0.  1.
    9900012    2    1    2    0    0  0.15648275851E+02  0.88529780377E+01  0.36468106121E+02  0.50528849477E+02  0.29999968469E+02 0.  0.
        -12    1    1    2    0    0 -0.15648275851E+02 -0.88529780377E+01 -0.36468106121E+02  0.40659150523E+02  0.00000000000E+00 0.  1.
         11    1    3    3    0    0 -0.35690074180E+01  0.65477902456E+00  0.25304728083E+02  0.25563564172E+02  0.51100000000E-03 0. -1.
        -11    1    3    3    0    0  0.86256395211E+01  0.59571622186E+01  0.17681889139E+01  0.10630895124E+02  0.51100000000E-03 0.  1.
         12    1    3    3    0    0  0.10591643747E+02  0.22410367946E+01  0.93951891237E+01  0.14334390181E+02  0.00000000000E+00 0. -1.
</event>
<event>
 7    1  0.1369731E-013  0.5052886E+02  0.7816164E-02  0.1300439E+00
        -11   -1    0    0    0    0  0.00000000000E+00  0.00000000000E+00  0.45593999997E+02  0.45594000000E+02  0.51100000000E-03 0. -1.
         11   -1    0    0    0    0 -0.00000000000E+00 -0.00000000000E+00 -0.45593999997E+02  0.45594000000E+02  0.51100000000E-03 0.  1.
    9900012    2    1    2    0    0  0.45630338862E+01  0.41892735668E+01  0.40184501421E+02  0.50528862703E+02  0.30000008672E+02 0.  0.
        -12    1    1    2    0    0 -0.45630338862E+01 -0.41892735668E+01 -0.40184501421E+02  0.40659137297E+02  0.00000000000E+00 0.  1.
         11    1    3    3    0    0  0.74625843760E-01 -0.90425428646E+00  0.73342830467E+00  0.11666885490E+01  0.51100000000E-03 0. -1.
        -11    1    3    3    0    0  0.77174883120E+01 -0.30805645019E+01 -0.62560996146E+00  0.83331201588E+01  0.51100000000E-03 0.  1.
        -12    1    3    3    0    0 -0.32290802696E+01  0.81740923552E+01  0.40076683078E+02  0.41029053995E+02  0.00000000000E+00 0.  1.
</event>
<event>
 7    1  0.1369731E-013  0.5052886E+02  0.7816164E-02  0.1300439E+00
        -11   -1    0    0    0    0  0.00000000000E+00  0.00000000000E+00  0.45593999997E+02  0.45594000000E+02  0.51100000000E-03 0. -1.
         11   -1    0    0    0    0 -0.00000000000E+00 -0.00000000000E+00 -0.45593999997E+02  0.45594000000E+02  0.51100000000E-03 0.  1.
    9900012    2    1    2    0    0  0.42960236665E+01  0.25696343092E+02  0.31215509305E+02  0.50528857254E+02  0.29999992109E+02 0.  0.
        -12    1    1    2    0    0 -0.42960236665E+01 -0.25696343092E+02 -0.31215509305E+02  0.40659142746E+02  0.00000000000E+00 0.  1.
         11    1    3    3    0    0  0.21801352286E+01 -0.20041056757E+01  0.10802112854E+00  0.29632917507E+01  0.51100000000E-03 0. -1.
        -11    1    3    3    0    0  0.57557787964E+01  0.22868371366E+02  0.33577647153E+02  0.41031083182E+02  0.51100000000E-03 0.  1.
        -12    1    3    3    0    0 -0.36398903585E+01  0.48320774017E+01 -0.24701589763E+01  0.65344823212E+01  0.00000000000E+00 0.  1.
</event>
<event>
 7    1  0.1369731E-013  0.5052886E+02  0.7816164E-02  0.1300439E+00
        -11   -1    0    0    0    0  0.00000000000E+00  0.00000000000E+00  0.45593999997E+02  0.45594000000E+02  0.51100000000E-03 0. -1.
         11   -1    0    0    0    0 -0.00000000000E+00 -0.00000000000E+00 -0.45593999997E+02  0.45594000000E+02  0.51100000000E-03 0.  1.
    9900012    2    1    2    0    0 -0.38940349308E+02  0.23062837056E+01  0.11467168329E+02  0.50528859598E+02  0.29999999233E+02 0.  0.
        -12    1    1    2    0    0  0.38940349308E+02 -0.23062837056E+01 -0.11467168329E+02  0.40659140402E+02  0.00000000000E+00 0.  1.
         11    1    3    3    0    0 -0.23308147060E+02  0.15081828679E+02  0.42538680943E+01  0.28086058280E+02  0.51100000000E-03 0. -1.
        -11    1    3    3    0    0 -0.60608769239E+01 -0.90398558462E+01  0.47626413546E+01  0.11880066319E+02  0.51100000000E-03 0.  1.
        -12    1    3    3    0    0 -0.95713253244E+01 -0.37356891269E+01  0.24506588800E+01  0.10562734999E+02  0.00000000000E+00 0.  1.
</event>
<event>
 7    1  0.1369731E-013  0.5052886E+02  0.7816164E-02  0.1300439E+00
        -11   -1    0    0    0    0  0.00000000000E+00  0.00000000000E+00  0.45593999997E+02  0.45594000000E+02  0.51100000000E-03 0. -1.
         11   -1    0    0    0    0 -0.00000000000E+00 -0.00000000000E+00 -0.45593999997E+02  0.45594000000E+02  0.51100000000E-03 0.  1.
    9900012    2    1    2    0    0  0.21992713289E+02  0.24478905505E+02 -0.23880313560E+02  0.50528860459E+02  0.30000001850E+02 0.  0.
         12    1    1    2    0    0 -0.21992713289E+02 -0.24478905505E+02  0.23880313560E+02  0.40659139541E+02  0.00000000000E+00 0. -1.
         11    1    3    3    0    0  0.11976907019E+02 -0.20099543106E+01 -0.14403574707E+02  0.18840095081E+02  0.51100000000E-03 0. -1.
        -11    1    3    3    0    0  0.69091933119E+01  0.21903677388E+02 -0.29933351465E+01  0.23161780824E+02  0.51100000000E-03 0.  1.
         12    1    3    3    0    0  0.31066129574E+01  0.45851824270E+01 -0.64834037070E+01  0.85269845539E+01  0.00000000000E+00 0. -1.
</event>
<event>
 7    1  0.1369731E-013  0.5052886E+02  0.7816164E-02  0.1300439E+00
        -11   -1    0    0    0    0  0.00000000000E+00  0.00000000000E+00  0.45593999997E+02  0.45594000000E+02  0.51100000000E-03 0. -1.
         11   -1    0    0    0    0 -0.00000000000E+00 -0.00000000000E+00 -0.45593999997E+02  0.45594000000E+02  0.51100000000E-03 0.  1.
    9900012    2    1    2    0    0  0.25779538195E+02  0.28224483928E+02 -0.13854935969E+02  0.50528864086E+02  0.30000012876E+02 0.  0.
         12    1    1    2    0    0 -0.25779538195E+02 -0.28224483928E+02  0.13854935969E+02  0.40659135914E+02  0.00000000000E+00 0. -1.
         11    1    3    3    0    0  0.28149908875E+01  0.16759770265E+02  0.73103138787E+00  0.17010246330E+02  0.51100000000E-03 0. -1.
        -11    1    3    3    0    0  0.15793558297E+02 -0.86007662200E+00 -0.62900681135E+01  0.17021785236E+02  0.51100000000E-03 0.  1.
        -12    1    3    3    0    0  0.71709890107E+01  0.12324790284E+02 -0.82958992437E+01  0.16496832520E+02  0.00000000000E+00 0.  1.
</event>
<event>
 7    1  0.1369731E-013  0.5052886E+02  0.7816164E-02  0.1300439E+00
        -11   -1    0    0    0    0  0.00000000000E+00  0.00000000000E+00  0.45593999997E+02  0.45594000000E+02  0.51100000000E-03 0. -1.
         11   -1    0    0    0    0 -0.00000000000E+00 -0.00000000000E+00 -0.45593999997E+02  0.45594000000E+02  0.51100000000E-03 0.  1.
    9900012    2    1    2    0    0  0.21206290824E+02  0.16839099768E+02  0.30329916628E+02  0.50528857189E+02  0.29999991911E+02 0.  0.
        -12    1    1    2    0    0 -0.21206290824E+02 -0.16839099768E+02 -0.30329916628E+02  0.40659142811E+02  0.00000000000E+00 0.  1.
         11    1    3    3    0    0  0.85624587496E+00  0.73853235688E+01  0.11067419323E+02  0.13332814105E+02  0.51100000000E-03 0. -1.
        -11    1    3    3    0    0  0.20112390408E+02  0.20334351111E+01  0.21432007344E+02  0.29461399243E+02  0.51100000000E-03 0.  1.
        -12    1    3    3    0    0  0.23765454074E+00  0.74203410879E+01 -0.21695100395E+01  0.77346438414E+01  0.00000000000E+00 0.  1.
</event>
<event>
 7    1  0.1369731E-013  0.5052886E+02  0.7816164E-02  0.1300439E+00
        -11   -1    0    0    0    0  0.00000000000E+00  0.00000000000E+00  0.45593999997E+02  0.45594000000E+02  0.51100000000E-03 0. -1.
         11   -1    0    0    0    0 -0.00000000000E+00 -0.00000000000E+00 -0.45593999997E+02  0.45594000000E+02  0.51100000000E-03 0.  1.
    9900012    2    1    2    0    0 -0.47215329506E+01 -0.61034240404E+01 -0.39920181991E+02  0.50528860946E+02  0.30000003333E+02 0.  0.
         12    1    1    2    0    0  0.47215329506E+01  0.61034240404E+01  0.39920181991E+02  0.40659139054E+02  0.00000000000E+00 0. -1.
         11    1    3    3    0    0 -0.20270263053E+01 -0.56071202573E+00  0.44063648962E+01  0.48825490758E+01  0.51100000000E-03 0. -1.
        -11    1    3    3    0    0 -0.32957445895E+01  0.16161566997E+01 -0.13146099539E+02  0.13648949711E+02  0.51100000000E-03 0.  1.
         12    1    3    3    0    0  0.60123794420E+00 -0.71588687143E+01 -0.31180447348E+02  0.31997362159E+02  0.00000000000E+00 0. -1.
</event>
<event>
 7    1  0.1369731E-013  0.5052890E+02  0.7816164E-02  0.1300439E+00
        -11   -1    0    0    0    0  0.00000000000E+00  0.00000000000E+00  0.45593999997E+02  0.45594000000E+02  0.51100000000E-03 0.  1.
         11   -1    0    0    0    0 -0.00000000000E+00 -0.00000000000E+00 -0.45593999997E+02  0.45594000000E+02  0.51100000000E-03 0. -1.
    9900012    2    1    2    0    0  0.14421936227E+02 -0.34707502100E+02 -0.15509988844E+02  0.50528896462E+02  0.30000111286E+02 0.  0.
         12    1    1    2    0    0 -0.14421936227E+02  0.34707502100E+02  0.15509988844E+02  0.40659103538E+02  0.00000000000E+00 0. -1.
         11    1    3    3    0    0  0.11199325479E+00 -0.22280485532E+02 -0.11091083732E+02  0.24888646340E+02  0.51100000000E-03 0. -1.
        -11    1    3    3    0    0  0.63226242131E+01  0.28602960277E+01  0.20229927071E+01  0.72283725734E+01  0.51100000000E-03 0.  1.
        -12    1    3    3    0    0  0.79873187590E+01 -0.15287312596E+02 -0.64418978190E+01  0.18411877549E+02  0.00000000000E+00 0.  1.
</event>
<event>
 7    1  0.1369731E-013  0.5052886E+02  0.7816164E-02  0.1300439E+00
        -11   -1    0    0    0    0  0.00000000000E+00  0.00000000000E+00  0.45593999997E+02  0.45594000000E+02  0.51100000000E-03 0. -1.
         11   -1    0    0    0    0 -0.00000000000E+00 -0.00000000000E+00 -0.45593999997E+02  0.45594000000E+02  0.51100000000E-03 0.  1.
    9900012    2    1    2    0    0 -0.84489978786E+01  0.18652806302E+02 -0.35126240848E+02  0.50528861492E+02  0.30000004992E+02 0.  0.
         12    1    1    2    0    0  0.84489978786E+01 -0.18652806302E+02  0.35126240848E+02  0.40659138508E+02  0.00000000000E+00 0. -1.
         11    1    3    3    0    0  0.62544397928E+01  0.11069196242E+01 -0.72733216001E+00  0.63931448058E+01  0.51100000000E-03 0. -1.
        -11    1    3    3    0    0 -0.12868907576E+02  0.14098819227E+02 -0.35297759630E+02  0.40128759275E+02  0.51100000000E-03 0.  1.
        -12    1    3    3    0    0 -0.18345300954E+01  0.34470674502E+01  0.89885094221E+00  0.40069574110E+01  0.00000000000E+00 0.  1.
</event>
<event>
 7    1  0.1369731E-013  0.5052886E+02  0.7816164E-02  0.1300439E+00
        -11   -1    0    0    0    0  0.00000000000E+00  0.00000000000E+00  0.45593999997E+02  0.45594000000E+02  0.51100000000E-03 0. -1.
         11   -1    0    0    0    0 -0.00000000000E+00 -0.00000000000E+00 -0.45593999997E+02  0.45594000000E+02  0.51100000000E-03 0.  1.
    9900012    2    1    2    0    0  0.15661222100E+02 -0.21929766442E+01  0.37457746728E+02  0.50528858173E+02  0.29999994902E+02 0.  0.
        -12    1    1    2    0    0 -0.15661222100E+02  0.21929766442E+01 -0.37457746728E+02  0.40659141827E+02  0.00000000000E+00 0.  1.
         11    1    3    3    0    0 -0.58326696015E+00  0.65225616390E+01 -0.39109823518E+00  0.65602567612E+01  0.51100000000E-03 0.  1.
        -11    1    3    3    0    0  0.84310219169E+01 -0.30971140814E+01  0.30681297522E+02  0.31968989101E+02  0.51100000000E-03 0. -1.
        -12    1    3    3    0    0  0.78134671429E+01 -0.56184242018E+01  0.71675474405E+01  0.11999612311E+02  0.00000000000E+00 0.  1.
</event>
<event>
 7    1  0.1369731E-013  0.5052886E+02  0.7816164E-02  0.1300439E+00
        -11   -1    0    0    0    0  0.00000000000E+00  0.00000000000E+00  0.45593999997E+02  0.45594000000E+02  0.51100000000E-03 0.  1.
         11   -1    0    0    0    0 -0.00000000000E+00 -0.00000000000E+00 -0.45593999997E+02  0.45594000000E+02  0.51100000000E-03 0. -1.
    9900012    2    1    2    0    0  0.34496789677E+01  0.40178470870E+02  0.51919041146E+01  0.50528859887E+02  0.30000000111E+02 0.  0.
        -12    1    1    2    0    0 -0.34496789677E+01 -0.40178470870E+02 -0.51919041146E+01  0.40659140113E+02  0.00000000000E+00 0.  1.
         11    1    3    3    0    0 -0.44647115645E+01  0.28878562926E+02 -0.25754266682E+01  0.29334925751E+02  0.51100000000E-03 0. -1.
        -11    1    3    3    0    0  0.73232895374E+01 -0.78360760887E+00  0.46167156221E+01  0.86924492481E+01  0.51100000000E-03 0.  1.
        -12    1    3    3    0    0  0.59110099478E+00  0.12083515553E+02  0.31506151608E+01  0.12501484887E+02  0.00000000000E+00 0.  1.
</event>
<event>
 7    1  0.1369731E-013  0.5052891E+02  0.7816164E-02  0.1300439E+00
        -11   -1    0    0    0    0  0.00000000000E+00  0.00000000000E+00  0.45593999997E+02  0.45594000000E+02  0.51100000000E-03 0. -1.
         11   -1    0    0    0    0 -0.00000000000E+00 -0.00000000000E+00 -0.45593999997E+02  0.45594000000E+02  0.51100000000E-03 0.  1.
    9900012    2    1    2    0    0 -0.90285122175E+00  0.58139694861E+01  0.40231129962E+02  0.50528914920E+02  0.30000167391E+02 0.  0.
        -12    1    1    2    0    0  0.90285122175E+00 -0.58139694861E+01 -0.40231129962E+02  0.40659085080E+02  0.00000000000E+00 0.  1.
         11    1    3    3    0    0  0.84867186588E+01  0.10730634049E+02  0.26072679067E+02  0.29444107979E+02  0.51100000000E-03 0. -1.
        -11    1    3    3    0    0 -0.78076399191E+01 -0.38734853250E+01  0.22160396017E+01  0.89929951322E+01  0.51100000000E-03 0.  1.
        -12    1    3    3    0    0 -0.15819299615E+01 -0.10431792378E+01  0.11942411293E+02  0.12091811809E+02  0.00000000000E+00 0.  1.
</event>
<event>
 7    1  0.1369731E-013  0.5052886E+02  0.7816164E-02  0.1300439E+00
        -11   -1    0    0    0    0  0.00000000000E+00  0.00000000000E+00  0.45593999997E+02  0.45594000000E+02  0.51100000000E-03 0. -1.
         11   -1    0    0    0    0 -0.00000000000E+00 -0.00000000000E+00 -0.45593999997E+02  0.45594000000E+02  0.51100000000E-03 0.  1.
    9900012    2    1    2    0    0 -0.13199560218E+02 -0.37477734902E+02  0.86230448871E+01  0.50528857038E+02  0.29999991452E+02 0.  0.
        -12    1    1    2    0    0  0.13199560218E+02  0.37477734902E+02 -0.86230448871E+01  0.40659142962E+02  0.00000000000E+00 0.  1.
         11    1    3    3    0    0 -0.12467336660E+01 -0.49878574706E+01 -0.99137541092E+01  0.11167613343E+02  0.51100000000E-03 0. -1.
        -11    1    3    3    0    0 -0.61539526124E+01 -0.13799450889E+02  0.90651627789E+01  0.17620248411E+02  0.51100000000E-03 0.  1.
         12    1    3    3    0    0 -0.57988739394E+01 -0.18690426542E+02  0.94716362175E+01  0.21740995284E+02  0.00000000000E+00 0. -1.
</event>
<event>
 7    1  0.1369731E-013  0.5052889E+02  0.7816164E-02  0.1300439E+00
        -11   -1    0    0    0    0  0.00000000000E+00  0.00000000000E+00  0.45593999997E+02  0.45594000000E+02  0.51100000000E-03 0. -1.
         11   -1    0    0    0    0 -0.00000000000E+00 -0.00000000000E+00 -0.45593999997E+02  0.45594000000E+02  0.51100000000E-03 0.  1.
    9900012    2    1    2    0    0 -0.13360328677E+02 -0.83868842726E+01  0.37474327617E+02  0.50528887362E+02  0.30000083627E+02 0.  0.
        -12    1    1    2    0    0  0.13360328677E+02  0.83868842726E+01 -0.37474327617E+02  0.40659112638E+02  0.00000000000E+00 0.  1.
         11    1    3    3    0    0 -0.14335092786E+02  0.26436912346E+01  0.23319699371E+02  0.27500770308E+02  0.51100000000E-03 0. -1.
        -11    1    3    3    0    0 -0.75919814094E+00 -0.87609937352E+00 -0.28891395129E+01  0.31130466292E+01  0.51100000000E-03 0.  1.
         12    1    3    3    0    0  0.17339622500E+01 -0.10154476134E+02  0.17043767758E+02  0.19915070425E+02  0.00000000000E+00 0. -1.
</event>
<event>
 7    1  0.1369731E-013  0.5052886E+02  0.7816164E-02  0.1300439E+00
        -11   -1    0    0    0    0  0.00000000000E+00  0.00000000000E+00  0.45593999997E+02  0.45594000000E+02  0.51100000000E-03 0. -1.
         11   -1    0    0    0    0 -0.00000000000E+00 -0.00000000000E+00 -0.45593999997E+02  0.45594000000E+02  0.51100000000E-03 0.  1.
    9900012    2    1    2    0    0  0.15546695201E+02 -0.80186935313E+01 -0.36703764726E+02  0.50528861757E+02  0.30000005797E+02 0.  0.
         12    1    1    2    0    0 -0.15546695201E+02  0.80186935313E+01  0.36703764726E+02  0.40659138243E+02  0.00000000000E+00 0. -1.
         11    1    3    3    0    0  0.91461456313E+01 -0.13816486430E+02 -0.15405732399E+02  0.22624850678E+02  0.51100000000E-03 0. -1.
        -11    1    3    3    0    0 -0.48260303753E+01  0.47197020115E+01 -0.79512334708E+01  0.10430161563E+02  0.51100000000E-03 0.  1.
        -12    1    3    3    0    0  0.11226579945E+02  0.10780908873E+01 -0.13346798856E+02  0.17473849516E+02  0.00000000000E+00 0.  1.
</event>
<event>
 7    1  0.1369731E-013  0.5052887E+02  0.7816164E-02  0.1300439E+00
        -11   -1    0    0    0    0  0.00000000000E+00  0.00000000000E+00  0.45593999997E+02  0.45594000000E+02  0.51100000000E-03 0. -1.
         11   -1    0    0    0    0 -0.00000000000E+00 -0.00000000000E+00 -0.45593999997E+02  0.45594000000E+02  0.51100000000E-03 0.  1.
    9900012    2    1    2    0    0  0.43038318614E+01 -0.61021215490E+01  0.39967566036E+02  0.50528865837E+02  0.30000018197E+02 0.  0.
        -12    1    1    2    0    0 -0.43038318614E+01  0.61021215490E+01 -0.39967566036E+02  0.40659134163E+02  0.00000000000E+00 0.  1.
         11    1    3    3    0    0 -0.63628596371E+01  0.12735912206E+01  0.15036459697E+02  0.16376908678E+02  0.51100000000E-03 0. -1.
        -11    1    3    3    0    0  0.10793035471E+02 -0.14977508138E+01  0.27961592609E+01  0.11249505725E+02  0.51100000000E-03 0.  1.
        -12    1    3    3    0    0 -0.12634397253E+00 -0.58779619557E+01  0.22134947078E+02  0.22902451434E+02  0.00000000000E+00 0.  1.
</event>
<event>
 7    1  0.1369731E-013  0.5052886E+02  0.7816164E-02  0.1300439E+00
        -11   -1    0    0    0    0  0.00000000000E+00  0.00000000000E+00  0.45593999997E+02  0.45594000000E+02  0.51100000000E-03 0. -1.
         11   -1    0    0    0    0 -0.00000000000E+00 -0.00000000000E+00 -0.45593999997E+02  0.45594000000E+02  0.51100000000E-03 0.  1.
    9900012    2    1    2    0    0 -0.14861432183E+02 -0.37811928764E+02 -0.16003626766E+01  0.50528864691E+02  0.30000014716E+02 0.  0.
        -12    1    1    2    0    0  0.14861432183E+02  0.37811928764E+02  0.16003626766E+01  0.40659135309E+02  0.00000000000E+00 0.  1.
         11    1    3    3    0    0  0.36232555051E+01  0.82308394962E+00  0.21367643371E+01  0.42861649218E+01  0.51100000000E-03 0.  1.
        -11    1    3    3    0    0 -0.10446737092E+02 -0.32673423248E+02  0.25938603125E+01  0.34400799616E+02  0.51100000000E-03 0. -1.
         12    1    3    3    0    0 -0.80379505953E+01 -0.59615894654E+01 -0.63309873262E+01  0.11841900154E+02  0.00000000000E+00 0. -1.
</event>
<event>
 7    1  0.1423809E-013  0.5052886E+02  0.7816164E-02  0.1300439E+00
        -11   -1    0    0    0    0  0.00000000000E+00  0.00000000000E+00  0.45593999997E+02  0.45594000000E+02  0.51100000000E-03 0. -1.
         11   -1    0    0    0    0 -0.00000000000E+00 -0.00000000000E+00 -0.45593999997E+02  0.45594000000E+02  0.51100000000E-03 0.  1.
    9900012    2    1    2    0    0  0.11684210382E+02  0.37060882511E+00  0.38942363161E+02  0.50528858695E+02  0.29999996488E+02 0.  0.
        -12    1    1    2    0    0 -0.11684210382E+02 -0.37060882511E+00 -0.38942363161E+02  0.40659141305E+02  0.00000000000E+00 0.  1.
         11    1    3    3    0    0  0.10338990553E+02 -0.10843062821E+00  0.40053076089E+02  0.41366113998E+02  0.51100000000E-03 0. -1.
        -11    1    3    3    0    0 -0.23321259845E+01 -0.26498779561E+01  0.13054110437E+01  0.37636103736E+01  0.51100000000E-03 0.  1.
         12    1    3    3    0    0  0.36773458140E+01  0.31289174095E+01 -0.24161239718E+01  0.53991343230E+01  0.00000000000E+00 0. -1.
</event>
<event>
 7    1  0.1369731E-013  0.5052887E+02  0.7816164E-02  0.1300439E+00
        -11   -1    0    0    0    0  0.00000000000E+00  0.00000000000E+00  0.45593999997E+02  0.45594000000E+02  0.51100000000E-03 0. -1.
         11   -1    0    0    0    0 -0.00000000000E+00 -0.00000000000E+00 -0.45593999997E+02  0.45594000000E+02  0.51100000000E-03 0.  1.
    9900012    2    1    2    0    0 -0.10013155033E+02 -0.36534941135E+02 -0.14768195601E+02  0.50528870659E+02  0.30000032854E+02 0.  0.
         12    1    1    2    0    0  0.10013155033E+02  0.36534941135E+02  0.14768195601E+02  0.40659129341E+02  0.00000000000E+00 0. -1.
         11    1    3    3    0    0 -0.80296015808E+01 -0.72993892144E+01  0.12911695808E+01  0.10928069528E+02  0.51100000000E-03 0. -1.
        -11    1    3    3    0    0 -0.30405713928E+01 -0.28563794250E+02 -0.20303173226E+02  0.35176046674E+02  0.51100000000E-03 0.  1.
        -12    1    3    3    0    0  0.10570179405E+01 -0.67175767083E+00  0.42438080433E+01  0.44247544569E+01  0.00000000000E+00 0.  1.
</event>
<event>
 7    1  0.1369731E-013  0.5052886E+02  0.7816164E-02  0.1300439E+00
        -11   -1    0    0    0    0  0.00000000000E+00  0.00000000000E+00  0.45593999997E+02  0.45594000000E+02  0.51100000000E-03 0. -1.
         11   -1    0    0    0    0 -0.00000000000E+00 -0.00000000000E+00 -0.45593999997E+02  0.45594000000E+02  0.51100000000E-03 0.  1.
    9900012    2    1    2    0    0  0.13117109793E+02  0.36820583541E+02 -0.11196059965E+02  0.50528859572E+02  0.29999999156E+02 0.  0.
         12    1    1    2    0    0 -0.13117109793E+02 -0.36820583541E+02  0.11196059965E+02  0.40659140428E+02  0.00000000000E+00 0. -1.
         11    1    3    3    0    0 -0.57220825840E+01 -0.19321580740E+01 -0.15535437522E+01  0.62361015364E+01  0.51100000000E-03 0. -1.
        -11    1    3    3    0    0  0.92379210890E+01  0.15673852113E+02 -0.31180711581E+01  0.18458905551E+02  0.51100000000E-03 0.  1.
         12    1    3    3    0    0  0.96012712878E+01  0.23078889501E+02 -0.65244450543E+01  0.25833852485E+02  0.00000000000E+00 0. -1.
</event>
<event>
 7    1  0.1369731E-013  0.5052886E+02  0.7816164E-02  0.1300439E+00
        -11   -1    0    0    0    0  0.00000000000E+00  0.00000000000E+00  0.45593999997E+02  0.45594000000E+02  0.51100000000E-03 0. -1.
         11   -1    0    0    0    0 -0.00000000000E+00 -0.00000000000E+00 -0.45593999997E+02  0.45594000000E+02  0.51100000000E-03 0.  1.
    9900012    2    1    2    0    0  0.21766969210E+01 -0.33885954924E+02  0.22364471552E+02  0.50528861563E+02  0.30000005208E+02 0.  0.
        -12    1    1    2    0    0 -0.21766969210E+01  0.33885954924E+02 -0.22364471552E+02  0.40659138437E+02  0.00000000000E+00 0.  1.
         11    1    3    3    0    0 -0.70345979712E+01 -0.27248191794E+02  0.25792474920E+02  0.38173305953E+02  0.51100000000E-03 0. -1.
        -11    1    3    3    0    0  0.94953288960E+01 -0.64690661792E+01 -0.35126586959E+01  0.12014527017E+02  0.51100000000E-03 0.  1.
         12    1    3    3    0    0 -0.28403400389E+00 -0.16869695130E+00  0.84655328060E-01  0.34102859311E+00  0.00000000000E+00 0. -1.
</event>
<event>
 7    1  0.1576252E-013  0.5052886E+02  0.7816164E-02  0.1300439E+00
        -11   -1    0    0    0    0  0.00000000000E+00  0.00000000000E+00  0.45593999997E+02  0.45594000000E+02  0.51100000000E-03 0. -1.
         11   -1    0    0    0    0 -0.00000000000E+00 -0.00000000000E+00 -0.45593999997E+02  0.45594000000E+02  0.51100000000E-03 0.  1.
    9900012    2    1    2    0    0 -0.12474406095E+02  0.20141922259E+02 -0.33043267120E+02  0.50528863983E+02  0.30000012562E+02 0.  0.
         12    1    1    2    0    0  0.12474406095E+02 -0.20141922259E+02  0.33043267120E+02  0.40659136017E+02  0.00000000000E+00 0. -1.
         11    1    3    3    0    0  0.59419548022E+01  0.55833575665E+01 -0.12238489105E+02  0.14705826207E+02  0.51100000000E-03 0. -1.
        -11    1    3    3    0    0 -0.71488429599E+01  0.12532959314E+02 -0.31291644582E+01  0.14763898377E+02  0.51100000000E-03 0.  1.
        -12    1    3    3    0    0 -0.11267517937E+02  0.20256053786E+01 -0.17675613557E+02  0.21059139399E+02  0.00000000000E+00 0.  1.
</event>
<event>
 7    1  0.1369731E-013  0.5052885E+02  0.7816164E-02  0.1300439E+00
        -11   -1    0    0    0    0  0.00000000000E+00  0.00000000000E+00  0.45593999997E+02  0.45594000000E+02  0.51100000000E-03 0. -1.
         11   -1    0    0    0    0 -0.00000000000E+00 -0.00000000000E+00 -0.45593999997E+02  0.45594000000E+02  0.51100000000E-03 0.  1.
    9900012    2    1    2    0    0 -0.32402305316E+02 -0.53701789683E+00 -0.24555422937E+02  0.50528848833E+02  0.29999966512E+02 0.  0.
         12    1    1    2    0    0  0.32402305316E+02  0.53701789683E+00  0.24555422937E+02  0.40659151167E+02  0.00000000000E+00 0. -1.
         11    1    3    3    0    0 -0.98389979703E+01  0.69993933126E+01 -0.12592672516E+02  0.17446282962E+02  0.51100000000E-03 0. -1.
        -11    1    3    3    0    0 -0.15379517154E+02 -0.66605036667E+01  0.24663149406E+01  0.16940323687E+02  0.51100000000E-03 0.  1.
        -12    1    3    3    0    0 -0.71837901922E+01 -0.87590754276E+00 -0.14429065361E+02  0.16142242184E+02  0.00000000000E+00 0.  1.
</event>
<event>
 7    1  0.1369731E-013  0.5052886E+02  0.7816164E-02  0.1300439E+00
        -11   -1    0    0    0    0  0.00000000000E+00  0.00000000000E+00  0.45593999997E+02  0.45594000000E+02  0.51100000000E-03 0. -1.
         11   -1    0    0    0    0 -0.00000000000E+00 -0.00000000000E+00 -0.45593999997E+02  0.45594000000E+02  0.51100000000E-03 0.  1.
    9900012    2    1    2    0    0  0.99661557920E+01  0.39205116320E+02 -0.40988206218E+01  0.50528859116E+02  0.29999997768E+02 0.  0.
        -12    1    1    2    0    0 -0.99661557920E+01 -0.39205116320E+02  0.40988206218E+01  0.40659140884E+02  0.00000000000E+00 0.  1.
         11    1    3    3    0    0  0.52380512659E+01  0.34232704378E+02 -0.62689671119E+01  0.35193965094E+02  0.51100000000E-03 0. -1.
        -11    1    3    3    0    0 -0.45643912635E+01  0.34948342668E-01 -0.11865449392E+00  0.45660670322E+01  0.51100000000E-03 0.  1.
         12    1    3    3    0    0  0.92924957895E+01  0.49374635994E+01  0.22888009840E+01  0.10768826990E+02  0.00000000000E+00 0. -1.
</event>
<event>
 7    1  0.1369731E-013  0.5052886E+02  0.7816164E-02  0.1300439E+00
        -11   -1    0    0    0    0  0.00000000000E+00  0.00000000000E+00  0.45593999997E+02  0.45594000000E+02  0.51100000000E-03 0. -1.
         11   -1    0    0    0    0 -0.00000000000E+00 -0.00000000000E+00 -0.45593999997E+02  0.45594000000E+02  0.51100000000E-03 0.  1.
    9900012    2    1    2    0    0 -0.25138748102E+02 -0.57449389271E+01  0.31435723736E+02  0.50528859499E+02  0.29999998934E+02 0.  0.
        -12    1    1    2    0    0  0.25138748102E+02  0.57449389271E+01 -0.31435723736E+02  0.40659140501E+02  0.00000000000E+00 0.  1.
         11    1    3    3    0    0  0.50049079985E+01  0.41917254725E+01  0.52587472604E+01  0.83829642442E+01  0.51100000000E-03 0. -1.
        -11    1    3    3    0    0 -0.17113209333E+02 -0.92424038465E+01  0.19280949327E+02  0.27386839353E+02  0.51100000000E-03 0.  1.
         12    1    3    3    0    0 -0.13030446768E+02 -0.69426055308E+00  0.68960271487E+01  0.14759055902E+02  0.00000000000E+00 0. -1.
</event>
<event>
 7    1  0.1369731E-013  0.5052887E+02  0.7816164E-02  0.1300439E+00
        -11   -1    0    0    0    0  0.00000000000E+00  0.00000000000E+00  0.45593999997E+02  0.45594000000E+02  0.51100000000E-03 0. -1.
         11   -1    0    0    0    0 -0.00000000000E+00 -0.00000000000E+00 -0.45593999997E+02  0.45594000000E+02  0.51100000000E-03 0.  1.
    9900012    2    1    2    0    0 -0.89967477094E+01 -0.51858345133E+01 -0.39310696072E+02  0.50528866037E+02  0.30000018806E+02 0.  0.
         12    1    1    2    0    0  0.89967477094E+01  0.51858345133E+01  0.39310696072E+02  0.40659133963E+02  0.00000000000E+00 0. -1.
         11    1    3    3    0    0 -0.70188099343E-01  0.30292107781E+01 -0.47399663201E+01  0.56256844281E+01  0.51100000000E-03 0. -1.
        -11    1    3    3    0    0 -0.32546447794E+01 -0.17171858115E+02 -0.16998908225E+02  0.24380900411E+02  0.51100000000E-03 0.  1.
        -12    1    3    3    0    0 -0.56719148307E+01  0.89568128232E+01 -0.17571821527E+02  0.20522281198E+02  0.00000000000E+00 0.  1.
</event>
<event>
 7    1  0.1369731E-013  0.5052885E+02  0.7816164E-02  0.1300439E+00
        -11   -1    0    0    0    0  0.00000000000E+00  0.00000000000E+00  0.45593999997E+02  0.45594000000E+02  0.51100000000E-03 0. -1.
         11   -1    0    0    0    0 -0.00000000000E+00 -0.00000000000E+00 -0.45593999997E+02  0.45594000000E+02  0.51100000000E-03 0.  1.
    9900012    2    1    2    0    0  0.34236888095E+02 -0.20370905439E+02  0.81257555229E+01  0.50528853456E+02  0.29999980564E+02 0.  0.
        -12    1    1    2    0    0 -0.34236888095E+02  0.20370905439E+02 -0.81257555229E+01  0.40659146544E+02  0.00000000000E+00 0.  1.
         11    1    3    3    0    0  0.30528296833E+02 -0.16284861438E+02  0.16149385670E+02  0.38183455545E+02  0.51100000000E-03 0. -1.
        -11    1    3    3    0    0  0.32114068024E+01 -0.58876625389E+01 -0.80482661316E+01  0.10476272801E+02  0.51100000000E-03 0.  1.
         12    1    3    3    0    0  0.49718445986E+00  0.18016185375E+01  0.24635984270E-01  0.18691251091E+01  0.00000000000E+00 0. -1.
</event>
<event>
 7    1  0.2161992E-013  0.5052887E+02  0.7816164E-02  0.1300439E+00
        -11   -1    0    0    0    0  0.00000000000E+00  0.00000000000E+00  0.45593999997E+02  0.45594000000E+02  0.51100000000E-03 0. -1.
         11   -1    0    0    0    0 -0.00000000000E+00 -0.00000000000E+00 -0.45593999997E+02  0.45594000000E+02  0.51100000000E-03 0.  1.
    9900012    2    1    2    0    0  0.51745531087E+01 -0.18806652257E+02 -0.35674903734E+02  0.50528869102E+02  0.30000028122E+02 0.  0.
         12    1    1    2    0    0 -0.51745531087E+01  0.18806652257E+02  0.35674903734E+02  0.40659130898E+02  0.00000000000E+00 0. -1.
         11    1    3    3    0    0  0.29374003640E+01  0.66311726837E+00  0.58394129213E+00  0.30674147264E+01  0.51100000000E-03 0. -1.
        -11    1    3    3    0    0 -0.10516651290E+02 -0.63756424661E+01 -0.15893965146E+02  0.20096439971E+02  0.51100000000E-03 0.  1.
        -12    1    3    3    0    0  0.12753804035E+02 -0.13094127059E+02 -0.20364879880E+02  0.27365014404E+02  0.00000000000E+00 0.  1.
</event>
<event>
 7    1  0.1369731E-013  0.5052886E+02  0.7816164E-02  0.1300439E+00
        -11   -1    0    0    0    0  0.00000000000E+00  0.00000000000E+00  0.45593999997E+02  0.45594000000E+02  0.51100000000E-03 0. -1.
         11   -1    0    0    0    0 -0.00000000000E+00 -0.00000000000E+00 -0.45593999997E+02  0.45594000000E+02  0.51100000000E-03 0.  1.
    9900012    2    1    2    0    0 -0.38717416046E+02  0.73441771786E+01  0.10009511860E+02  0.50528861157E+02  0.30000003974E+02 0.  0.
        -12    1    1    2    0    0  0.38717416046E+02 -0.73441771786E+01 -0.10009511860E+02  0.40659138843E+02  0.00000000000E+00 0.  1.
         11    1    3    3    0    0 -0.33580576413E+02  0.80379945491E+01 -0.47385038911E+01  0.34852803158E+02  0.51100000000E-03 0. -1.
        -11    1    3    3    0    0 -0.10993563020E+01 -0.61700022774E+00  0.30323606408E+01  0.32839739459E+01  0.51100000000E-03 0.  1.
         12    1    3    3    0    0 -0.40374833317E+01 -0.76817142703E-01  0.11715655110E+02  0.12392084054E+02  0.00000000000E+00 0. -1.
</event>
<event>
 7    1  0.1369731E-013  0.5052885E+02  0.7816164E-02  0.1300439E+00
        -11   -1    0    0    0    0  0.00000000000E+00  0.00000000000E+00  0.45593999997E+02  0.45594000000E+02  0.51100000000E-03 0. -1.
         11   -1    0    0    0    0 -0.00000000000E+00 -0.00000000000E+00 -0.45593999997E+02  0.45594000000E+02  0.51100000000E-03 0.  1.
    9900012    2    1    2    0    0 -0.94893513138E+01 -0.33827560535E+02 -0.20464965794E+02  0.50528850168E+02  0.29999970569E+02 0.  0.
         12    1    1    2    0    0  0.94893513138E+01  0.33827560535E+02  0.20464965794E+02  0.40659149832E+02  0.00000000000E+00 0. -1.
         11    1    3    3    0    0  0.88470409574E+01 -0.55383186541E+01 -0.99917247958E+01  0.14449140870E+02  0.51100000000E-03 0. -1.
        -11    1    3    3    0    0 -0.96479266281E+01 -0.83734982817E+01 -0.32463031260E+01  0.13180912182E+02  0.51100000000E-03 0.  1.
         12    1    3    3    0    0 -0.86884656432E+01 -0.19915743600E+02 -0.72269378725E+01  0.22898797116E+02  0.00000000000E+00 0. -1.
</event>
<event>
 7    1  0.1369731E-013  0.5052886E+02  0.7816164E-02  0.1300439E+00
        -11   -1    0    0    0    0  0.00000000000E+00  0.00000000000E+00  0.45593999997E+02  0.45594000000E+02  0.51100000000E-03 0. -1.
         11   -1    0    0    0    0 -0.00000000000E+00 -0.00000000000E+00 -0.45593999997E+02  0.45594000000E+02  0.51100000000E-03 0.  1.
    9900012    2    1    2    0    0  0.79106959354E+01  0.19210341550E+02 -0.34950664802E+02  0.50528864462E+02  0.30000014017E+02 0.  0.
         12    1    1    2    0    0 -0.79106959354E+01 -0.19210341550E+02  0.34950664802E+02  0.40659135538E+02  0.00000000000E+00 0. -1.
         11    1    3    3    0    0  0.76668971717E+01  0.12140098944E+02 -0.22558781527E+02  0.26740642080E+02  0.51100000000E-03 0.  1.
        -11    1    3    3    0    0 -0.54197926453E+01  0.97627238059E+00  0.30152388564E+01  0.62784493070E+01  0.51100000000E-03 0. -1.
         12    1    3    3    0    0  0.56635914090E+01  0.60939702257E+01 -0.15407122131E+02  0.17509773075E+02  0.00000000000E+00 0. -1.
</event>
<event>
 7    1  0.1369731E-013  0.5052886E+02  0.7816164E-02  0.1300439E+00
        -11   -1    0    0    0    0  0.00000000000E+00  0.00000000000E+00  0.45593999997E+02  0.45594000000E+02  0.51100000000E-03 0. -1.
         11   -1    0    0    0    0 -0.00000000000E+00 -0.00000000000E+00 -0.45593999997E+02  0.45594000000E+02  0.51100000000E-03 0.  1.
    9900012    2    1    2    0    0  0.22884212374E+02 -0.54867871799E+01  0.33156808484E+02  0.50528856399E+02  0.29999989510E+02 0.  0.
        -12    1    1    2    0    0 -0.22884212374E+02  0.54867871799E+01 -0.33156808484E+02  0.40659143601E+02  0.00000000000E+00 0.  1.
         11    1    3    3    0    0 -0.17606023580E+01 -0.60953100789E+01  0.59480095543E+01  0.86966282858E+01  0.51100000000E-03 0. -1.
        -11    1    3    3    0    0  0.17832786604E+02  0.68649736421E+01  0.84020557572E+01  0.20874163034E+02  0.51100000000E-03 0.  1.
        -12    1    3    3    0    0  0.68120281282E+01 -0.62564507430E+01  0.18806743172E+02  0.20958065079E+02  0.00000000000E+00 0.  1.
</event>
<event>
 7    1  0.1369731E-013  0.5052886E+02  0.7816164E-02  0.1300439E+00
        -11   -1    0    0    0    0  0.00000000000E+00  0.00000000000E+00  0.45593999997E+02  0.45594000000E+02  0.51100000000E-03 0. -1.
         11   -1    0    0    0    0 -0.00000000000E+00 -0.00000000000E+00 -0.45593999997E+02  0.45594000000E+02  0.51100000000E-03 0.  1.
    9900012    2    1    2    0    0  0.33011106027E+02 -0.11920760053E+02 -0.20526278780E+02  0.50528858815E+02  0.29999996854E+02 0.  0.
         12    1    1    2    0    0 -0.33011106027E+02  0.11920760053E+02  0.20526278780E+02  0.40659141185E+02  0.00000000000E+00 0. -1.
         11    1    3    3    0    0  0.78817826660E+01  0.41886307157E+01 -0.17637682689E+02  0.19767523268E+02  0.51100000000E-03 0.  1.
        -11    1    3    3    0    0  0.77848549002E+01 -0.69566542627E+01  0.18076039319E+01  0.10595585712E+02  0.51100000000E-03 0. -1.
         12    1    3    3    0    0  0.17344468461E+02 -0.91527365057E+01 -0.46962000233E+01  0.20165749834E+02  0.00000000000E+00 0. -1.
</event>
<event>
 7    1  0.1369731E-013  0.5052886E+02  0.7816164E-02  0.1300439E+00
        -11   -1    0    0    0    0  0.00000000000E+00  0.00000000000E+00  0.45593999997E+02  0.45594000000E+02  0.51100000000E-03 0. -1.
         11   -1    0    0    0    0 -0.00000000000E+00 -0.00000000000E+00 -0.45593999997E+02  0.45594000000E+02  0.51100000000E-03 0.  1.
    9900012    2    1    2    0    0  0.74453598613E+01 -0.26097696992E+01 -0.39886357569E+02  0.50528858329E+02  0.29999995376E+02 0.  0.
         12    1    1    2    0    0 -0.74453598613E+01  0.26097696992E+01  0.39886357569E+02  0.40659141671E+02  0.00000000000E+00 0. -1.
         11    1    3    3    0    0  0.68162191194E+00  0.54608626712E+01 -0.62617508547E+01  0.83363753257E+01  0.51100000000E-03 0. -1.
        -11    1    3    3    0    0  0.56964418898E+01 -0.16258358888E+02 -0.23015109868E+02  0.28748547205E+02  0.51100000000E-03 0.  1.
        -12    1    3    3    0    0  0.10672960596E+01  0.81877265176E+01 -0.10609496846E+02  0.13443935798E+02  0.00000000000E+00 0.  1.
</event>
<event>
 7    1  0.1369731E-013  0.5052887E+02  0.7816164E-02  0.1300439E+00
        -11   -1    0    0    0    0  0.00000000000E+00  0.00000000000E+00  0.45593999997E+02  0.45594000000E+02  0.51100000000E-03 0. -1.
         11   -1    0    0    0    0 -0.00000000000E+00 -0.00000000000E+00 -0.45593999997E+02  0.45594000000E+02  0.51100000000E-03 0.  1.
    9900012    2    1    2    0    0  0.58260972790E+01 -0.69126707413E+01 -0.39641350429E+02  0.50528867077E+02  0.30000021966E+02 0.  0.
         12    1    1    2    0    0 -0.58260972790E+01  0.69126707413E+01  0.39641350429E+02  0.40659132923E+02  0.00000000000E+00 0. -1.
         11    1    3    3    0    0 -0.42202001342E+01  0.92134325117E+00 -0.61858987485E+01  0.75448198221E+01  0.51100000000E-03 0. -1.
        -11    1    3    3    0    0  0.16063605441E+02 -0.84678879213E+01 -0.14971170660E+02  0.23534665853E+02  0.51100000000E-03 0.  1.
        -12    1    3    3    0    0 -0.60173080283E+01  0.63387392885E+00 -0.18484281020E+02  0.19449381402E+02  0.00000000000E+00 0.  1.
</event>
<event>
 7    1  0.1369731E-013  0.5052897E+02  0.7816164E-02  0.1300438E+00
        -11   -1    0    0    0    0  0.00000000000E+00  0.00000000000E+00  0.45593999997E+02  0.45594000000E+02  0.51100000000E-03 0. -1.
         11   -1    0    0    0    0 -0.00000000000E+00 -0.00000000000E+00 -0.45593999997E+02  0.45594000000E+02  0.51100000000E-03 0.  1.
    9900012    2    1    2    0    0 -0.10110456426E+02 -0.28070185189E+02  0.27622455522E+02  0.50528970563E+02  0.30000336523E+02 0.  0.
        -12    1    1    2    0    0  0.10110456426E+02  0.28070185189E+02 -0.27622455522E+02  0.40659029437E+02  0.00000000000E+00 0.  1.
         11    1    3    3    0    0  0.37504324623E+00 -0.25436188042E+01  0.17381630319E+02  0.17570763411E+02  0.51100000000E-03 0. -1.
        -11    1    3    3    0    0 -0.46117604393E+01 -0.12198038431E+02 -0.28794492894E+01  0.13354838239E+02  0.51100000000E-03 0.  1.
         12    1    3    3    0    0 -0.58737392326E+01 -0.13328527953E+02  0.13120274492E+02  0.19603368913E+02  0.00000000000E+00 0. -1.
</event>
<event>
 7    1  0.1369731E-013  0.5052887E+02  0.7816164E-02  0.1300439E+00
        -11   -1    0    0    0    0  0.00000000000E+00  0.00000000000E+00  0.45593999997E+02  0.45594000000E+02  0.51100000000E-03 0. -1.
         11   -1    0    0    0    0 -0.00000000000E+00 -0.00000000000E+00 -0.45593999997E+02  0.45594000000E+02  0.51100000000E-03 0.  1.
    9900012    2    1    2    0    0 -0.14636983274E+02  0.37113078949E+00  0.37931331357E+02  0.50528869218E+02  0.30000028476E+02 0.  0.
        -12    1    1    2    0    0  0.14636983274E+02 -0.37113078949E+00 -0.37931331357E+02  0.40659130782E+02  0.00000000000E+00 0.  1.
         11    1    3    3    0    0 -0.15103640753E+02  0.11703676736E+02  0.19568815435E+02  0.27350220309E+02  0.51100000000E-03 0. -1.
        -11    1    3    3    0    0  0.19598438610E+01 -0.39539401833E+01  0.14149701830E+01  0.46343038110E+01  0.51100000000E-03 0.  1.
         12    1    3    3    0    0 -0.14931863817E+01 -0.73786057629E+01  0.16947545738E+02  0.18544345098E+02  0.00000000000E+00 0. -1.
</event>
<event>
 7    1  0.1369731E-013  0.5052887E+02  0.7816164E-02  0.1300439E+00
        -11   -1    0    0    0    0  0.00000000000E+00  0.00000000000E+00  0.45593999997E+02  0.45594000000E+02  0.51100000000E-03 0. -1.
         11   -1    0    0    0    0 -0.00000000000E+00 -0.00000000000E+00 -0.45593999997E+02  0.45594000000E+02  0.51100000000E-03 0.  1.
    9900012    2    1    2    0    0 -0.17681249582E+02 -0.85543323829E+01 -0.35600027819E+02  0.50528866094E+02  0.30000018980E+02 0.  0.
         12    1    1    2    0    0  0.17681249582E+02  0.85543323829E+01  0.35600027819E+02  0.40659133906E+02  0.00000000000E+00 0. -1.
         11    1    3    3    0    0  0.73340831023E+01  0.13168612349E+01 -0.85638114439E+01  0.11351729611E+02  0.51100000000E-03 0.  1.
        -11    1    3    3    0    0 -0.19473597772E+02 -0.44871189586E+01 -0.15490499108E+02  0.25284596291E+02  0.51100000000E-03 0. -1.
        -12    1    3    3    0    0 -0.55417349120E+01 -0.53840746593E+01 -0.11545717267E+02  0.13892540192E+02  0.00000000000E+00 0.  1.
</event>
<event>
 7    1  0.1369731E-013  0.5052886E+02  0.7816164E-02  0.1300439E+00
        -11   -1    0    0    0    0  0.00000000000E+00  0.00000000000E+00  0.45593999997E+02  0.45594000000E+02  0.51100000000E-03 0. -1.
         11   -1    0    0    0    0 -0.00000000000E+00 -0.00000000000E+00 -0.45593999997E+02  0.45594000000E+02  0.51100000000E-03 0.  1.
    9900012    2    1    2    0    0  0.13339339285E+02  0.70843592130E+01 -0.37749698349E+02  0.50528857812E+02  0.29999993807E+02 0.  0.
         12    1    1    2    0    0 -0.13339339285E+02 -0.70843592130E+01  0.37749698349E+02  0.40659142188E+02  0.00000000000E+00 0. -1.
         11    1    3    3    0    0 -0.18998301788E+01 -0.28210535408E+01 -0.23775357232E+01  0.41497438674E+01  0.51100000000E-03 0. -1.
        -11    1    3    3    0    0  0.78850720530E+01  0.96472236041E+01 -0.25187796720E+01  0.12711708612E+02  0.51100000000E-03 0.  1.
        -12    1    3    3    0    0  0.73540974107E+01  0.25818914976E+00 -0.32853382953E+02  0.33667405333E+02  0.00000000000E+00 0.  1.
</event>
<event>
 7    1  0.1369731E-013  0.5052886E+02  0.7816164E-02  0.1300439E+00
        -11   -1    0    0    0    0  0.00000000000E+00  0.00000000000E+00  0.45593999997E+02  0.45594000000E+02  0.51100000000E-03 0.  1.
         11   -1    0    0    0    0 -0.00000000000E+00 -0.00000000000E+00 -0.45593999997E+02  0.45594000000E+02  0.51100000000E-03 0. -1.
    9900012    2    1    2    0    0 -0.86701427528E+01 -0.37853711128E+02 -0.12045358537E+02  0.50528862235E+02  0.30000007250E+02 0.  0.
         12    1    1    2    0    0  0.86701427528E+01  0.37853711128E+02  0.12045358537E+02  0.40659137765E+02  0.00000000000E+00 0. -1.
         11    1    3    3    0    0 -0.13252942535E+02 -0.33843707122E+01 -0.94749407835E+00  0.13711024624E+02  0.51100000000E-03 0. -1.
        -11    1    3    3    0    0  0.14603090377E+01 -0.25394588107E+02 -0.90987637017E+01  0.27014905307E+02  0.51100000000E-03 0.  1.
         12    1    3    3    0    0  0.31224907445E+01 -0.90747523091E+01 -0.19991007567E+01  0.98029323040E+01  0.00000000000E+00 0. -1.
</event>
<event>
 7    1  0.1369731E-013  0.5052886E+02  0.7816164E-02  0.1300439E+00
        -11   -1    0    0    0    0  0.00000000000E+00  0.00000000000E+00  0.45593999997E+02  0.45594000000E+02  0.51100000000E-03 0. -1.
         11   -1    0    0    0    0 -0.00000000000E+00 -0.00000000000E+00 -0.45593999997E+02  0.45594000000E+02  0.51100000000E-03 0.  1.
    9900012    2    1    2    0    0  0.33853036818E+02  0.73415109655E+01  0.21289424745E+02  0.50528862146E+02  0.30000006978E+02 0.  0.
        -12    1    1    2    0    0 -0.33853036818E+02 -0.73415109655E+01 -0.21289424745E+02  0.40659137854E+02  0.00000000000E+00 0.  1.
         11    1    3    3    0    0  0.11217558625E+02  0.66593516303E+01  0.25690199397E+01  0.13295880917E+02  0.51100000000E-03 0. -1.
        -11    1    3    3    0    0  0.12934594202E+02 -0.93442716670E+01  0.30385302787E+01  0.16243515835E+02  0.51100000000E-03 0.  1.
        -12    1    3    3    0    0  0.97008839910E+01  0.10026431002E+02  0.15681874527E+02  0.20989465394E+02  0.00000000000E+00 0.  1.
</event>
<event>
 7    1  0.1369731E-013  0.5052886E+02  0.7816164E-02  0.1300439E+00
        -11   -1    0    0    0    0  0.00000000000E+00  0.00000000000E+00  0.45593999997E+02  0.45594000000E+02  0.51100000000E-03 0. -1.
         11   -1    0    0    0    0 -0.00000000000E+00 -0.00000000000E+00 -0.45593999997E+02  0.45594000000E+02  0.51100000000E-03 0.  1.
    9900012    2    1    2    0    0  0.43619923943E+01 -0.21849165363E+02  0.34011066510E+02  0.50528860193E+02  0.30000001042E+02 0.  0.
        -12    1    1    2    0    0 -0.43619923943E+01  0.21849165363E+02 -0.34011066510E+02  0.40659139807E+02  0.00000000000E+00 0.  1.
         11    1    3    3    0    0  0.35996227375E+01 -0.89494814368E+01  0.43081740495E+01  0.10564604382E+02  0.51100000000E-03 0. -1.
        -11    1    3    3    0    0 -0.10904705220E+02 -0.28202568500E+01  0.13822218172E+02  0.17830315760E+02  0.51100000000E-03 0.  1.
        -12    1    3    3    0    0  0.11667074876E+02 -0.10079427076E+02  0.15880674288E+02  0.22133940052E+02  0.00000000000E+00 0.  1.
</event>
<event>
 7    1  0.1369731E-013  0.5052886E+02  0.7816164E-02  0.1300439E+00
        -11   -1    0    0    0    0  0.00000000000E+00  0.00000000000E+00  0.45593999997E+02  0.45594000000E+02  0.51100000000E-03 0.  1.
         11   -1    0    0    0    0 -0.00000000000E+00 -0.00000000000E+00 -0.45593999997E+02  0.45594000000E+02  0.51100000000E-03 0. -1.
    9900012    2    1    2    0    0  0.41417800425E+01  0.24744704539E+02 -0.31995487862E+02  0.50528856032E+02  0.29999988396E+02 0.  0.
         12    1    1    2    0    0 -0.41417800425E+01 -0.24744704539E+02  0.31995487862E+02  0.40659143968E+02  0.00000000000E+00 0. -1.
         11    1    3    3    0    0  0.55139030320E+01  0.62655907026E+01 -0.70315674936E+01  0.10913463940E+02  0.51100000000E-03 0. -1.
        -11    1    3    3    0    0 -0.36210715196E+01 -0.29127303285E+01  0.20539702580E+01  0.50808415640E+01  0.51100000000E-03 0.  1.
        -12    1    3    3    0    0  0.22489485301E+01  0.21391844164E+02 -0.27017890627E+02  0.34534550528E+02  0.00000000000E+00 0.  1.
</event>
<event>
 7    1  0.1369731E-013  0.5052886E+02  0.7816164E-02  0.1300439E+00
        -11   -1    0    0    0    0  0.00000000000E+00  0.00000000000E+00  0.45593999997E+02  0.45594000000E+02  0.51100000000E-03 0. -1.
         11   -1    0    0    0    0 -0.00000000000E+00 -0.00000000000E+00 -0.45593999997E+02  0.45594000000E+02  0.51100000000E-03 0.  1.
    9900012    2    1    2    0    0  0.11107670378E+02 -0.22175526102E+02  0.32218495405E+02  0.50528859019E+02  0.29999997474E+02 0.  0.
        -12    1    1    2    0    0 -0.11107670378E+02  0.22175526102E+02 -0.32218495405E+02  0.40659140981E+02  0.00000000000E+00 0.  1.
         11    1    3    3    0    0  0.23286610780E+01 -0.11816008050E+01  0.12020294072E+02  0.12300663101E+02  0.51100000000E-03 0. -1.
        -11    1    3    3    0    0  0.26003024453E+01 -0.10993808200E+02 -0.34562004425E+01  0.11814004965E+02  0.51100000000E-03 0.  1.
        -12    1    3    3    0    0  0.61787068547E+01 -0.10000117097E+02  0.23654401776E+02  0.26414190953E+02  0.00000000000E+00 0.  1.
</event>
<event>
 7    1  0.1369731E-013  0.5052885E+02  0.7816164E-02  0.1300439E+00
        -11   -1    0    0    0    0  0.00000000000E+00  0.00000000000E+00  0.45593999997E+02  0.45594000000E+02  0.51100000000E-03 0. -1.
         11   -1    0    0    0    0 -0.00000000000E+00 -0.00000000000E+00 -0.45593999997E+02  0.45594000000E+02  0.51100000000E-03 0.  1.
    9900012    2    1    2    0    0  0.37509057716E+02 -0.23793898966E+01 -0.15510487214E+02  0.50528854403E+02  0.29999983444E+02 0.  0.
         12    1    1    2    0    0 -0.37509057716E+02  0.23793898966E+01  0.15510487214E+02  0.40659145597E+02  0.00000000000E+00 0. -1.
         11    1    3    3    0    0  0.58490409591E+00  0.75927937340E+01 -0.82387523053E+01  0.11219165267E+02  0.51100000000E-03 0. -1.
        -11    1    3    3    0    0  0.89931784959E+01 -0.48181218210E+01 -0.12857719515E+01  0.10283227466E+02  0.51100000000E-03 0.  1.
         12    1    3    3    0    0  0.27930975125E+02 -0.51540618096E+01 -0.59859629574E+01  0.29026461670E+02  0.00000000000E+00 0. -1.
</event>
<event>
 7    1  0.1369731E-013  0.5052886E+02  0.7816164E-02  0.1300439E+00
        -11   -1    0    0    0    0  0.00000000000E+00  0.00000000000E+00  0.45593999997E+02  0.45594000000E+02  0.51100000000E-03 0. -1.
         11   -1    0    0    0    0 -0.00000000000E+00 -0.00000000000E+00 -0.45593999997E+02  0.45594000000E+02  0.51100000000E-03 0.  1.
    9900012    2    1    2    0    0 -0.40269638003E+02  0.56138855288E+01  0.77029017488E-01  0.50528863400E+02  0.30000010790E+02 0.  0.
         12    1    1    2    0    0  0.40269638003E+02 -0.56138855288E+01 -0.77029017488E-01  0.40659136600E+02  0.00000000000E+00 0. -1.
         11    1    3    3    0    0 -0.81011474332E+00  0.21821343206E+01  0.55298219435E+01  0.59997439177E+01  0.51100000000E-03 0. -1.
        -11    1    3    3    0    0 -0.14446430070E+02 -0.70057993791E+01 -0.66989636986E+01  0.17397030828E+02  0.51100000000E-03 0.  1.
        -12    1    3    3    0    0 -0.25013093189E+02  0.10437550587E+02  0.12461707726E+01  0.27132088654E+02  0.00000000000E+00 0.  1.
</event>
<event>
 7    1  0.1369731E-013  0.5052886E+02  0.7816164E-02  0.1300439E+00
        -11   -1    0    0    0    0  0.00000000000E+00  0.00000000000E+00  0.45593999997E+02  0.45594000000E+02  0.51100000000E-03 0. -1.
         11   -1    0    0    0    0 -0.00000000000E+00 -0.00000000000E+00 -0.45593999997E+02  0.45594000000E+02  0.51100000000E-03 0.  1.
    9900012    2    1    2    0    0 -0.62589216493E+01 -0.65905724645E+01  0.39630236309E+02  0.50528863566E+02  0.30000011296E+02 0.  0.
        -12    1    1    2    0    0  0.62589216493E+01  0.65905724645E+01 -0.39630236309E+02  0.40659136434E+02  0.00000000000E+00 0.  1.
         11    1    3    3    0    0  0.28161872968E+01  0.75456712706E+01  0.22708557534E+02  0.24094535716E+02  0.51100000000E-03 0. -1.
        -11    1    3    3    0    0 -0.41770423918E+01 -0.30056944852E+01 -0.51956968060E+00  0.51722176477E+01  0.51100000000E-03 0.  1.
        -12    1    3    3    0    0 -0.48980665544E+01 -0.11130549250E+02  0.17441248456E+02  0.21262110203E+02  0.00000000000E+00 0.  1.
</event>
<event>
 7    1  0.1369731E-013  0.5052887E+02  0.7816164E-02  0.1300439E+00
        -11   -1    0    0    0    0  0.00000000000E+00  0.00000000000E+00  0.45593999997E+02  0.45594000000E+02  0.51100000000E-03 0. -1.
         11   -1    0    0    0    0 -0.00000000000E+00 -0.00000000000E+00 -0.45593999997E+02  0.45594000000E+02  0.51100000000E-03 0.  1.
    9900012    2    1    2    0    0 -0.15048139557E+02 -0.84123443262E+01 -0.36823239927E+02  0.50528867694E+02  0.30000023841E+02 0.  0.
         12    1    1    2    0    0  0.15048139557E+02  0.84123443262E+01  0.36823239927E+02  0.40659132306E+02  0.00000000000E+00 0. -1.
         11    1    3    3    0    0  0.27277594490E+01 -0.12119335311E+02 -0.12830089046E+02  0.17858615433E+02  0.51100000000E-03 0. -1.
        -11    1    3    3    0    0 -0.14532577207E+02  0.37090203366E+00 -0.23950634824E+02  0.28017249639E+02  0.51100000000E-03 0.  1.
         12    1    3    3    0    0 -0.32433217990E+01  0.33360889515E+01 -0.42516057596E-01  0.46530026219E+01  0.00000000000E+00 0. -1.
</event>
<event>
 7    1  0.1369731E-013  0.5052885E+02  0.7816164E-02  0.1300439E+00
        -11   -1    0    0    0    0  0.00000000000E+00  0.00000000000E+00  0.45593999997E+02  0.45594000000E+02  0.51100000000E-03 0. -1.
         11   -1    0    0    0    0 -0.00000000000E+00 -0.00000000000E+00 -0.45593999997E+02  0.45594000000E+02  0.51100000000E-03 0.  1.
    9900012    2    1    2    0    0  0.26523853831E+02 -0.78686788109E+01  0.29794887144E+02  0.50528853081E+02  0.29999979424E+02 0.  0.
        -12    1    1    2    0    0 -0.26523853831E+02  0.78686788109E+01 -0.29794887144E+02  0.40659146919E+02  0.00000000000E+00 0.  1.
         11    1    3    3    0    0  0.86329461402E+01 -0.62748713325E+01  0.29127853891E+02  0.31021502895E+02  0.51100000000E-03 0. -1.
        -11    1    3    3    0    0  0.61440920053E+01 -0.38092897263E+01 -0.14345455870E+01  0.73701069253E+01  0.51100000000E-03 0.  1.
         12    1    3    3    0    0  0.11746815685E+02  0.22154822479E+01  0.21015788395E+01  0.12137243260E+02  0.00000000000E+00 0. -1.
</event>
<event>
 7    1  0.1369731E-013  0.5052886E+02  0.7816164E-02  0.1300439E+00
        -11   -1    0    0    0    0  0.00000000000E+00  0.00000000000E+00  0.45593999997E+02  0.45594000000E+02  0.51100000000E-03 0. -1.
         11   -1    0    0    0    0 -0.00000000000E+00 -0.00000000000E+00 -0.45593999997E+02  0.45594000000E+02  0.51100000000E-03 0.  1.
    9900012    2    1    2    0    0 -0.14802160389E+02 -0.34173556650E+02 -0.16316551040E+02  0.50528858788E+02  0.29999996772E+02 0.  0.
         12    1    1    2    0    0  0.14802160389E+02  0.34173556650E+02  0.16316551040E+02  0.40659141212E+02  0.00000000000E+00 0. -1.
         11    1    3    3    0    0 -0.16224886287E+02 -0.25674174863E+02 -0.58366946714E+01  0.30926965497E+02  0.51100000000E-03 0. -1.
        -11    1    3    3    0    0  0.49279294786E+01 -0.10845711056E+02 -0.95848232944E+01  0.15289956674E+02  0.51100000000E-03 0.  1.
         12    1    3    3    0    0 -0.35052035806E+01  0.23463292691E+01 -0.89503307378E+00  0.43119366164E+01  0.00000000000E+00 0. -1.
</event>
<event>
 7    1  0.1369731E-013  0.5052886E+02  0.7816164E-02  0.1300439E+00
        -11   -1    0    0    0    0  0.00000000000E+00  0.00000000000E+00  0.45593999997E+02  0.45594000000E+02  0.51100000000E-03 0. -1.
         11   -1    0    0    0    0 -0.00000000000E+00 -0.00000000000E+00 -0.45593999997E+02  0.45594000000E+02  0.51100000000E-03 0.  1.
    9900012    2    1    2    0    0 -0.17790392239E+02  0.24990541923E+02  0.26685961521E+02  0.50528858544E+02  0.29999996030E+02 0.  0.
        -12    1    1    2    0    0  0.17790392239E+02 -0.24990541923E+02 -0.26685961521E+02  0.40659141456E+02  0.00000000000E+00 0.  1.
         11    1    3    3    0    0 -0.13182401165E+02  0.14550962741E+02  0.31113874620E+02  0.36791023515E+02  0.51100000000E-03 0. -1.
        -11    1    3    3    0    0 -0.60929142574E+01  0.76549767212E+01 -0.27460191819E+01  0.10161835187E+02  0.51100000000E-03 0.  1.
         12    1    3    3    0    0  0.14849231827E+01  0.27846024608E+01 -0.16818939173E+01  0.35759998423E+01  0.00000000000E+00 0. -1.
</event>
<event>
 7    1  0.1369731E-013  0.5052886E+02  0.7816164E-02  0.1300439E+00
        -11   -1    0    0    0    0  0.00000000000E+00  0.00000000000E+00  0.45593999997E+02  0.45594000000E+02  0.51100000000E-03 0. -1.
         11   -1    0    0    0    0 -0.00000000000E+00 -0.00000000000E+00 -0.45593999997E+02  0.45594000000E+02  0.51100000000E-03 0.  1.
    9900012    2    1    2    0    0 -0.70094039078E+01 -0.35193726953E+02  0.19116357407E+02  0.50528864735E+02  0.30000014850E+02 0.  0.
        -12    1    1    2    0    0  0.70094039078E+01  0.35193726953E+02 -0.19116357407E+02  0.40659135265E+02  0.00000000000E+00 0.  1.
         11    1    3    3    0    0  0.14306078440E+01 -0.23414815671E+02  0.21992838886E+02  0.32155640162E+02  0.51100000000E-03 0. -1.
        -11    1    3    3    0    0 -0.82301614985E+01 -0.90569742589E+01  0.23642027802E+01  0.12464100291E+02  0.51100000000E-03 0.  1.
         12    1    3    3    0    0 -0.20985025328E+00 -0.27219370229E+01 -0.52406842589E+01  0.59091242825E+01  0.00000000000E+00 0. -1.
</event>
<event>
 7    1  0.1369731E-013  0.5052885E+02  0.7816164E-02  0.1300439E+00
        -11   -1    0    0    0    0  0.00000000000E+00  0.00000000000E+00  0.45593999997E+02  0.45594000000E+02  0.51100000000E-03 0. -1.
         11   -1    0    0    0    0 -0.00000000000E+00 -0.00000000000E+00 -0.45593999997E+02  0.45594000000E+02  0.51100000000E-03 0.  1.
    9900012    2    1    2    0    0 -0.24315983374E+02 -0.31681034398E+02 -0.76296312306E+01  0.50528852681E+02  0.29999978210E+02 0.  0.
         12    1    1    2    0    0  0.24315983374E+02  0.31681034398E+02  0.76296312306E+01  0.40659147319E+02  0.00000000000E+00 0. -1.
         11    1    3    3    0    0 -0.13208335499E+02 -0.30490450705E+01 -0.70690933690E+01  0.15288194263E+02  0.51100000000E-03 0. -1.
        -11    1    3    3    0    0 -0.71786586206E+01 -0.22341635085E+02 -0.79446479925E+01  0.24774971844E+02  0.51100000000E-03 0.  1.
         12    1    3    3    0    0 -0.39289892547E+01 -0.62903542425E+01  0.73841101309E+01  0.10465686575E+02  0.00000000000E+00 0. -1.
</event>
<event>
 7    1  0.1369731E-013  0.5052886E+02  0.7816164E-02  0.1300439E+00
        -11   -1    0    0    0    0  0.00000000000E+00  0.00000000000E+00  0.45593999997E+02  0.45594000000E+02  0.51100000000E-03 0. -1.
         11   -1    0    0    0    0 -0.00000000000E+00 -0.00000000000E+00 -0.45593999997E+02  0.45594000000E+02  0.51100000000E-03 0.  1.
    9900012    2    1    2    0    0  0.13247263622E+02 -0.20476438635E+02  0.32532920676E+02  0.50528862523E+02  0.30000008125E+02 0.  0.
        -12    1    1    2    0    0 -0.13247263622E+02  0.20476438635E+02 -0.32532920676E+02  0.40659137477E+02  0.00000000000E+00 0.  1.
         11    1    3    3    0    0  0.52704580228E+00 -0.20147485321E+02  0.10864557527E+02  0.22896234462E+02  0.51100000000E-03 0. -1.
        -11    1    3    3    0    0  0.35476839390E+01  0.45067041658E+01  0.12653287935E+02  0.13892520995E+02  0.51100000000E-03 0.  1.
         12    1    3    3    0    0  0.91725338810E+01 -0.48356574801E+01  0.90150752143E+01  0.13740107066E+02  0.00000000000E+00 0. -1.
</event>
<event>
 7    1  0.1369731E-013  0.5052885E+02  0.7816164E-02  0.1300439E+00
        -11   -1    0    0    0    0  0.00000000000E+00  0.00000000000E+00  0.45593999997E+02  0.45594000000E+02  0.51100000000E-03 0. -1.
         11   -1    0    0    0    0 -0.00000000000E+00 -0.00000000000E+00 -0.45593999997E+02  0.45594000000E+02  0.51100000000E-03 0.  1.
    9900012    2    1    2    0    0 -0.62316089056E+01 -0.13445856397E+02  0.37862147982E+02  0.50528852768E+02  0.29999978474E+02 0.  0.
        -12    1    1    2    0    0  0.62316089056E+01  0.13445856397E+02 -0.37862147982E+02  0.40659147232E+02  0.00000000000E+00 0.  1.
         11    1    3    3    0    0  0.67090443343E+01 -0.75335616092E+01  0.30937719283E+02  0.32540871241E+02  0.51100000000E-03 0. -1.
        -11    1    3    3    0    0 -0.82246144087E+01 -0.23996448766E+01  0.83217519723E+01  0.11943790598E+02  0.51100000000E-03 0.  1.
         12    1    3    3    0    0 -0.47160388313E+01 -0.35126499115E+01 -0.13973232732E+01  0.60441909292E+01  0.00000000000E+00 0. -1.
</event>
<event>
 7    1  0.1369731E-013  0.5052886E+02  0.7816164E-02  0.1300439E+00
        -11   -1    0    0    0    0  0.00000000000E+00  0.00000000000E+00  0.45593999997E+02  0.45594000000E+02  0.51100000000E-03 0. -1.
         11   -1    0    0    0    0 -0.00000000000E+00 -0.00000000000E+00 -0.45593999997E+02  0.45594000000E+02  0.51100000000E-03 0.  1.
    9900012    2    1    2    0    0  0.57654132602E+01 -0.26135746371E+02  0.30607982373E+02  0.50528858182E+02  0.29999994931E+02 0.  0.
        -12    1    1    2    0    0 -0.57654132602E+01  0.26135746371E+02 -0.30607982373E+02  0.40659141818E+02  0.00000000000E+00 0.  1.
         11    1    3    3    0    0  0.52882038001E+01 -0.95684106217E+00  0.78596429659E+00  0.54312415143E+01  0.51100000000E-03 0. -1.
        -11    1    3    3    0    0  0.40521457888E+01 -0.27400592269E+02  0.30067862224E+02  0.40881397740E+02  0.51100000000E-03 0.  1.
        -12    1    3    3    0    0 -0.35749363287E+01  0.22216869606E+01 -0.24584414748E+00  0.42162189281E+01  0.00000000000E+00 0.  1.
</event>
<event>
 7    1  0.3103854E-013  0.5052884E+02  0.7816164E-02  0.1300439E+00
        -11   -1    0    0    0    0  0.00000000000E+00  0.00000000000E+00  0.45593999997E+02  0.45594000000E+02  0.51100000000E-03 0. -1.
         11   -1    0    0    0    0 -0.00000000000E+00 -0.00000000000E+00 -0.45593999997E+02  0.45594000000E+02  0.51100000000E-03 0.  1.
    9900012    2    1    2    0    0  0.47880534228E+01  0.66604138960E+01  0.39823118338E+02  0.50528839618E+02  0.29999938503E+02 0.  0.
        -12    1    1    2    0    0 -0.47880534228E+01 -0.66604138960E+01 -0.39823118338E+02  0.40659160382E+02  0.00000000000E+00 0.  1.
         11    1    3    3    0    0  0.76194557055E+01  0.11671823413E+02  0.25119545103E+02  0.28727671564E+02  0.51100000000E-03 0. -1.
        -11    1    3    3    0    0 -0.16596696116E+00  0.71380779539E-01 -0.30949331992E+01  0.31002019316E+01  0.51100000000E-03 0.  1.
         12    1    3    3    0    0 -0.26654353216E+01 -0.50827902964E+01  0.17798506433E+02  0.18700966122E+02  0.00000000000E+00 0. -1.
</event>
<event>
 7    1  0.1369731E-013  0.5052886E+02  0.7816164E-02  0.1300439E+00
        -11   -1    0    0    0    0  0.00000000000E+00  0.00000000000E+00  0.45593999997E+02  0.45594000000E+02  0.51100000000E-03 0. -1.
         11   -1    0    0    0    0 -0.00000000000E+00 -0.00000000000E+00 -0.45593999997E+02  0.45594000000E+02  0.51100000000E-03 0.  1.
    9900012    2    1    2    0    0 -0.10587588236E+01  0.81673885846E+00  0.40637149705E+02  0.50528856271E+02  0.29999989123E+02 0.  0.
        -12    1    1    2    0    0  0.10587588236E+01 -0.81673885846E+00 -0.40637149705E+02  0.40659143729E+02  0.00000000000E+00 0.  1.
         11    1    3    3    0    0 -0.77794722170E+01 -0.27539384373E+01  0.16049292091E+02  0.18046721081E+02  0.51100000000E-03 0. -1.
        -11    1    3    3    0    0  0.10997304867E+02  0.83012441221E+01  0.11593251110E+02  0.18007077494E+02  0.51100000000E-03 0.  1.
        -12    1    3    3    0    0 -0.42765914734E+01 -0.47305668264E+01  0.12994606504E+02  0.14475057697E+02  0.00000000000E+00 0.  1.
</event>
<event>
 7    1  0.1369731E-013  0.5052886E+02  0.7816164E-02  0.1300439E+00
        -11   -1    0    0    0    0  0.00000000000E+00  0.00000000000E+00  0.45593999997E+02  0.45594000000E+02  0.51100000000E-03 0. -1.
         11   -1    0    0    0    0 -0.00000000000E+00 -0.00000000000E+00 -0.45593999997E+02  0.45594000000E+02  0.51100000000E-03 0.  1.
    9900012    2    1    2    0    0  0.22487123775E+02 -0.22285526172E+02  0.25511770969E+02  0.50528857481E+02  0.29999992800E+02 0.  0.
        -12    1    1    2    0    0 -0.22487123775E+02  0.22285526172E+02 -0.25511770969E+02  0.40659142519E+02  0.00000000000E+00 0.  1.
         11    1    3    3    0    0  0.18432771743E+02 -0.16292746688E+02  0.26705872514E+02  0.36310112858E+02  0.51100000000E-03 0. -1.
        -11    1    3    3    0    0  0.14020380137E+01  0.23883009267E+01 -0.41108947275E+01  0.49567275121E+01  0.51100000000E-03 0.  1.
         12    1    3    3    0    0  0.26523140176E+01 -0.83810804104E+01  0.29167931818E+01  0.92620171107E+01  0.00000000000E+00 0. -1.
</event>
<event>
 7    1  0.1369731E-013  0.5052886E+02  0.7816164E-02  0.1300439E+00
        -11   -1    0    0    0    0  0.00000000000E+00  0.00000000000E+00  0.45593999997E+02  0.45594000000E+02  0.51100000000E-03 0. -1.
         11   -1    0    0    0    0 -0.00000000000E+00 -0.00000000000E+00 -0.45593999997E+02  0.45594000000E+02  0.51100000000E-03 0.  1.
    9900012    2    1    2    0    0 -0.31210339054E+02  0.10465479483E+02 -0.23865339716E+02  0.50528856324E+02  0.29999989283E+02 0.  0.
         12    1    1    2    0    0  0.31210339054E+02 -0.10465479483E+02  0.23865339716E+02  0.40659143676E+02  0.00000000000E+00 0. -1.
         11    1    3    3    0    0  0.25093855178E+01  0.61956524996E+01  0.21102675185E+01  0.70097328647E+01  0.51100000000E-03 0. -1.
        -11    1    3    3    0    0 -0.16605817861E+02  0.60081469814E+01 -0.11931182289E+02  0.21312065317E+02  0.51100000000E-03 0.  1.
        -12    1    3    3    0    0 -0.17113906710E+02 -0.17383199977E+01 -0.14044424946E+02  0.22207058143E+02  0.00000000000E+00 0.  1.
</event>
<event>
 7    1  0.1369731E-013  0.5052885E+02  0.7816164E-02  0.1300439E+00
        -11   -1    0    0    0    0  0.00000000000E+00  0.00000000000E+00  0.45593999997E+02  0.45594000000E+02  0.51100000000E-03 0. -1.
         11   -1    0    0    0    0 -0.00000000000E+00 -0.00000000000E+00 -0.45593999997E+02  0.45594000000E+02  0.51100000000E-03 0.  1.
    9900012    2    1    2    0    0  0.57423331839E+01  0.12827756524E+01 -0.40231160141E+02  0.50528854042E+02  0.29999982346E+02 0.  0.
         12    1    1    2    0    0 -0.57423331839E+01 -0.12827756524E+01  0.40231160141E+02  0.40659145958E+02  0.00000000000E+00 0. -1.
         11    1    3    3    0    0 -0.65268516589E+01 -0.93698230076E+01 -0.92116044223E+01  0.14671299604E+02  0.51100000000E-03 0. -1.
        -11    1    3    3    0    0  0.77248266706E+01  0.10321957278E+02 -0.18623352212E+02  0.22650496617E+02  0.51100000000E-03 0.  1.
         12    1    3    3    0    0  0.45443581723E+01  0.33064138222E+00 -0.12396203506E+02  0.13207057821E+02  0.00000000000E+00 0. -1.
</event>
<event>
 7    1  0.1369731E-013  0.5052886E+02  0.7816164E-02  0.1300439E+00
        -11   -1    0    0    0    0  0.00000000000E+00  0.00000000000E+00  0.45593999997E+02  0.45594000000E+02  0.51100000000E-03 0. -1.
         11   -1    0    0    0    0 -0.00000000000E+00 -0.00000000000E+00 -0.45593999997E+02  0.45594000000E+02  0.51100000000E-03 0.  1.
    9900012    2    1    2    0    0 -0.59234178849E+01  0.21850728478E+02  0.33773132595E+02  0.50528859580E+02  0.29999999179E+02 0.  0.
        -12    1    1    2    0    0  0.59234178849E+01 -0.21850728478E+02 -0.33773132595E+02  0.40659140420E+02  0.00000000000E+00 0.  1.
         11    1    3    3    0    0 -0.59131986890E+01  0.23919152551E+02  0.36080722239E+02  0.43691077980E+02  0.51100000000E-03 0. -1.
        -11    1    3    3    0    0 -0.15315093759E-01 -0.39993491346E+01 -0.23676000255E+00  0.40063803629E+01  0.51100000000E-03 0.  1.
         12    1    3    3    0    0  0.50958979425E-02  0.19309250613E+01 -0.20708296417E+01  0.28314012371E+01  0.00000000000E+00 0. -1.
</event>
<event>
 7    1  0.1369731E-013  0.5052887E+02  0.7816164E-02  0.1300439E+00
        -11   -1    0    0    0    0  0.00000000000E+00  0.00000000000E+00  0.45593999997E+02  0.45594000000E+02  0.51100000000E-03 0.  1.
         11   -1    0    0    0    0 -0.00000000000E+00 -0.00000000000E+00 -0.45593999997E+02  0.45594000000E+02  0.51100000000E-03 0. -1.
    9900012    2    1    2    0    0  0.38515646637E+02 -0.12753786791E+02  0.26552852548E+01  0.50528872450E+02  0.30000038298E+02 0.  0.
         12    1    1    2    0    0 -0.38515646637E+02  0.12753786791E+02 -0.26552852548E+01  0.40659127550E+02  0.00000000000E+00 0. -1.
         11    1    3    3    0    0 -0.12622800606E+00  0.81819840362E+00  0.52141109284E+01  0.52794256479E+01  0.51100000000E-03 0. -1.
        -11    1    3    3    0    0  0.13528993724E+02 -0.11156048271E+02 -0.82615583723E+01  0.19384128333E+02  0.51100000000E-03 0.  1.
        -12    1    3    3    0    0  0.25112880919E+02 -0.24159369235E+01  0.57027326988E+01  0.25865318469E+02  0.00000000000E+00 0.  1.
</event>
<event>
 7    1  0.1369731E-013  0.5052886E+02  0.7816164E-02  0.1300439E+00
        -11   -1    0    0    0    0  0.00000000000E+00  0.00000000000E+00  0.45593999997E+02  0.45594000000E+02  0.51100000000E-03 0.  1.
         11   -1    0    0    0    0 -0.00000000000E+00 -0.00000000000E+00 -0.45593999997E+02  0.45594000000E+02  0.51100000000E-03 0. -1.
    9900012    2    1    2    0    0 -0.94249958497E+01 -0.39112350339E+02 -0.58787232252E+01  0.50528857332E+02  0.29999992345E+02 0.  0.
        -12    1    1    2    0    0  0.94249958497E+01  0.39112350339E+02  0.58787232252E+01  0.40659142668E+02  0.00000000000E+00 0.  1.
         11    1    3    3    0    0 -0.10109200848E+02 -0.44695093869E+01 -0.94210851837E+01  0.14523405325E+02  0.51100000000E-03 0. -1.
        -11    1    3    3    0    0  0.28294710002E+01 -0.19396520252E+02  0.58056186389E+01  0.20443485810E+02  0.51100000000E-03 0.  1.
         12    1    3    3    0    0 -0.21452660023E+01 -0.15246320699E+02 -0.22632566804E+01  0.15561966196E+02  0.00000000000E+00 0. -1.
</event>
<event>
 7    1  0.1369731E-013  0.5052887E+02  0.7816164E-02  0.1300439E+00
        -11   -1    0    0    0    0  0.00000000000E+00  0.00000000000E+00  0.45593999997E+02  0.45594000000E+02  0.51100000000E-03 0. -1.
         11   -1    0    0    0    0 -0.00000000000E+00 -0.00000000000E+00 -0.45593999997E+02  0.45594000000E+02  0.51100000000E-03 0.  1.
    9900012    2    1    2    0    0 -0.31165062525E+01 -0.38188066243E+01  0.40359251341E+02  0.50528867397E+02  0.30000022939E+02 0.  0.
        -12    1    1    2    0    0  0.31165062525E+01  0.38188066243E+01 -0.40359251341E+02  0.40659132603E+02  0.00000000000E+00 0.  1.
         11    1    3    3    0    0 -0.12179910194E+02  0.11297786887E+01  0.27653525450E+02  0.30238122995E+02  0.51100000000E-03 0. -1.
        -11    1    3    3    0    0  0.56132888888E+01 -0.55244182771E+01  0.84031196009E+00  0.79205008618E+01  0.51100000000E-03 0.  1.
        -12    1    3    3    0    0  0.34501150523E+01  0.57583296410E+00  0.11865413931E+02  0.12370243540E+02  0.00000000000E+00 0.  1.
</event>
<event>
 7    1  0.1369731E-013  0.5052886E+02  0.7816164E-02  0.1300439E+00
        -11   -1    0    0    0    0  0.00000000000E+00  0.00000000000E+00  0.45593999997E+02  0.45594000000E+02  0.51100000000E-03 0. -1.
         11   -1    0    0    0    0 -0.00000000000E+00 -0.00000000000E+00 -0.45593999997E+02  0.45594000000E+02  0.51100000000E-03 0.  1.
    9900012    2    1    2    0    0  0.14121454711E+02  0.12768861281E+02 -0.35926402505E+02  0.50528859595E+02  0.29999999225E+02 0.  0.
         12    1    1    2    0    0 -0.14121454711E+02 -0.12768861281E+02  0.35926402505E+02  0.40659140405E+02  0.00000000000E+00 0. -1.
         11    1    3    3    0    0  0.51412431991E+01  0.15844542426E+02 -0.11348099362E+02  0.20155923837E+02  0.51100000000E-03 0. -1.
        -11    1    3    3    0    0  0.98446788219E+01  0.33866818701E+00 -0.61536015409E+01  0.11614611893E+02  0.51100000000E-03 0.  1.
        -12    1    3    3    0    0 -0.86446731025E+00 -0.34143493325E+01 -0.18424701601E+02  0.18758323864E+02  0.00000000000E+00 0.  1.
</event>
<event>
 7    1  0.1369731E-013  0.5052887E+02  0.7816164E-02  0.1300439E+00
        -11   -1    0    0    0    0  0.00000000000E+00  0.00000000000E+00  0.45593999997E+02  0.45594000000E+02  0.51100000000E-03 0. -1.
         11   -1    0    0    0    0 -0.00000000000E+00 -0.00000000000E+00 -0.45593999997E+02  0.45594000000E+02  0.51100000000E-03 0.  1.
    9900012    2    1    2    0    0  0.23008389974E+02  0.31213112639E+02  0.12227863477E+02  0.50528867508E+02  0.30000023277E+02 0.  0.
        -12    1    1    2    0    0 -0.23008389974E+02 -0.31213112639E+02 -0.12227863477E+02  0.40659132492E+02  0.00000000000E+00 0.  1.
         11    1    3    3    0    0  0.40495057867E+01  0.29237324561E+02  0.45002597844E+01  0.29857528079E+02  0.51100000000E-03 0. -1.
        -11    1    3    3    0    0  0.12702439557E+02  0.87925169701E+00  0.42113644483E+01  0.13411213406E+02  0.51100000000E-03 0.  1.
         12    1    3    3    0    0  0.62564446301E+01  0.10965363810E+01  0.35162392441E+01  0.72601260228E+01  0.00000000000E+00 0. -1.
</event>
<event>
 7    1  0.1369731E-013  0.5052883E+02  0.7816164E-02  0.1300439E+00
        -11   -1    0    0    0    0  0.00000000000E+00  0.00000000000E+00  0.45593999997E+02  0.45594000000E+02  0.51100000000E-03 0. -1.
         11   -1    0    0    0    0 -0.00000000000E+00 -0.00000000000E+00 -0.45593999997E+02  0.45594000000E+02  0.51100000000E-03 0.  1.
    9900012    2    1    2    0    0 -0.19765224236E+02 -0.20503442204E+02 -0.29019182494E+02  0.50528829031E+02  0.29999906321E+02 0.  0.
         12    1    1    2    0    0  0.19765224236E+02  0.20503442204E+02  0.29019182494E+02  0.40659170969E+02  0.00000000000E+00 0. -1.
         11    1    3    3    0    0 -0.61440112035E+01 -0.12413681707E+02 -0.48230355030E+00  0.13859328417E+02  0.51100000000E-03 0. -1.
        -11    1    3    3    0    0 -0.13098342652E+02 -0.12744717333E+02 -0.23805187069E+02  0.30011353381E+02  0.51100000000E-03 0.  1.
         12    1    3    3    0    0 -0.52287038113E+00  0.46549568357E+01 -0.47316918744E+01  0.66581472327E+01  0.00000000000E+00 0. -1.
</event>
<event>
 7    1  0.1369731E-013  0.5052885E+02  0.7816164E-02  0.1300439E+00
        -11   -1    0    0    0    0  0.00000000000E+00  0.00000000000E+00  0.45593999997E+02  0.45594000000E+02  0.51100000000E-03 0. -1.
         11   -1    0    0    0    0 -0.00000000000E+00 -0.00000000000E+00 -0.45593999997E+02  0.45594000000E+02  0.51100000000E-03 0.  1.
    9900012    2    1    2    0    0 -0.10040665538E+02  0.22880746222E+01 -0.39333402594E+02  0.50528845932E+02  0.29999957693E+02 0.  0.
         12    1    1    2    0    0  0.10040665538E+02 -0.22880746222E+01  0.39333402594E+02  0.40659154068E+02  0.00000000000E+00 0. -1.
         11    1    3    3    0    0  0.88675068787E+00  0.81728249369E+01 -0.16537362784E+02  0.18467965842E+02  0.51100000000E-03 0. -1.
        -11    1    3    3    0    0 -0.12562382637E+02 -0.65337788218E+01 -0.25304607858E+02  0.28997015403E+02  0.51100000000E-03 0.  1.
         12    1    3    3    0    0  0.16349664108E+01  0.64902850699E+00  0.25085680474E+01  0.30638646863E+01  0.00000000000E+00 0. -1.
</event>
<event>
 7    1  0.1369731E-013  0.5052886E+02  0.7816164E-02  0.1300439E+00
        -11   -1    0    0    0    0  0.00000000000E+00  0.00000000000E+00  0.45593999997E+02  0.45594000000E+02  0.51100000000E-03 0. -1.
         11   -1    0    0    0    0 -0.00000000000E+00 -0.00000000000E+00 -0.45593999997E+02  0.45594000000E+02  0.51100000000E-03 0.  1.
    9900012    2    1    2    0    0  0.15610483420E+02  0.29970243751E+02  0.22611124472E+02  0.50528860154E+02  0.30000000925E+02 0.  0.
        -12    1    1    2    0    0 -0.15610483420E+02 -0.29970243751E+02 -0.22611124472E+02  0.40659139846E+02  0.00000000000E+00 0.  1.
         11    1    3    3    0    0  0.10711200482E+02  0.56168441942E+01  0.79728655714E+01  0.14486039492E+02  0.51100000000E-03 0. -1.
        -11    1    3    3    0    0 -0.23121747581E+01  0.16540477003E+02  0.18320771138E+02  0.24790808517E+02  0.51100000000E-03 0.  1.
        -12    1    3    3    0    0  0.72114576959E+01  0.78129225539E+01 -0.36825122374E+01  0.11252012145E+02  0.00000000000E+00 0.  1.
</event>
<event>
 7    1  0.1369731E-013  0.5052886E+02  0.7816164E-02  0.1300439E+00
        -11   -1    0    0    0    0  0.00000000000E+00  0.00000000000E+00  0.45593999997E+02  0.45594000000E+02  0.51100000000E-03 0. -1.
         11   -1    0    0    0    0 -0.00000000000E+00 -0.00000000000E+00 -0.45593999997E+02  0.45594000000E+02  0.51100000000E-03 0.  1.
    9900012    2    1    2    0    0 -0.17750850772E+02  0.94155838452E+01  0.35347135253E+02  0.50528857205E+02  0.29999991960E+02 0.  0.
        -12    1    1    2    0    0  0.17750850772E+02 -0.94155838452E+01 -0.35347135253E+02  0.40659142795E+02  0.00000000000E+00 0.  1.
         11    1    3    3    0    0 -0.45089884230E+01  0.11806756706E+02  0.16869540108E+02  0.21078706417E+02  0.51100000000E-03 0. -1.
        -11    1    3    3    0    0 -0.62505112177E+01 -0.68446308404E+01  0.77983584732E-01  0.92695168982E+01  0.51100000000E-03 0.  1.
        -12    1    3    3    0    0 -0.69913511315E+01  0.44534579797E+01  0.18399611560E+02  0.20180633889E+02  0.00000000000E+00 0.  1.
</event>
<event>
 7    1  0.1369731E-013  0.5052886E+02  0.7816164E-02  0.1300439E+00
        -11   -1    0    0    0    0  0.00000000000E+00  0.00000000000E+00  0.45593999997E+02  0.45594000000E+02  0.51100000000E-03 0. -1.
         11   -1    0    0    0    0 -0.00000000000E+00 -0.00000000000E+00 -0.45593999997E+02  0.45594000000E+02  0.51100000000E-03 0.  1.
    9900012    2    1    2    0    0 -0.26120094216E+01  0.30436527696E+02 -0.26832088095E+02  0.50528858802E+02  0.29999996815E+02 0.  0.
         12    1    1    2    0    0  0.26120094216E+01 -0.30436527696E+02  0.26832088095E+02  0.40659141198E+02  0.00000000000E+00 0. -1.
         11    1    3    3    0    0 -0.22332755859E+00 -0.44677238965E+01 -0.43796779463E+01  0.62603523214E+01  0.51100000000E-03 0. -1.
        -11    1    3    3    0    0  0.61535309303E+01  0.19484348050E+02 -0.10523072242E+02  0.22983489977E+02  0.51100000000E-03 0.  1.
         12    1    3    3    0    0 -0.85422127933E+01  0.15419903542E+02 -0.11929337907E+02  0.21285016503E+02  0.00000000000E+00 0. -1.
</event>
<event>
 7    1  0.1369731E-013  0.5052886E+02  0.7816164E-02  0.1300439E+00
        -11   -1    0    0    0    0  0.00000000000E+00  0.00000000000E+00  0.45593999997E+02  0.45594000000E+02  0.51100000000E-03 0. -1.
         11   -1    0    0    0    0 -0.00000000000E+00 -0.00000000000E+00 -0.45593999997E+02  0.45594000000E+02  0.51100000000E-03 0.  1.
    9900012    2    1    2    0    0 -0.32124209322E+02  0.66561958696E+01  0.24018649726E+02  0.50528864462E+02  0.30000014018E+02 0.  0.
        -12    1    1    2    0    0  0.32124209322E+02 -0.66561958696E+01 -0.24018649726E+02  0.40659135538E+02  0.00000000000E+00 0.  1.
         11    1    3    3    0    0 -0.15794812048E+01  0.11538315175E+02  0.49825876171E+01  0.12667030338E+02  0.51100000000E-03 0. -1.
        -11    1    3    3    0    0 -0.29353584585E+02 -0.32901224627E+01  0.14490287261E+02  0.32900247096E+02  0.51100000000E-03 0.  1.
        -12    1    3    3    0    0 -0.11911435325E+01 -0.15919968425E+01  0.45457748488E+01  0.49615870281E+01  0.00000000000E+00 0.  1.
</event>
<event>
 7    1  0.1369731E-013  0.5052886E+02  0.7816164E-02  0.1300439E+00
        -11   -1    0    0    0    0  0.00000000000E+00  0.00000000000E+00  0.45593999997E+02  0.45594000000E+02  0.51100000000E-03 0.  1.
         11   -1    0    0    0    0 -0.00000000000E+00 -0.00000000000E+00 -0.45593999997E+02  0.45594000000E+02  0.51100000000E-03 0. -1.
    9900012    2    1    2    0    0 -0.15060520551E+02 -0.27043853177E+02 -0.26362409462E+02  0.50528857036E+02  0.29999991446E+02 0.  0.
         12    1    1    2    0    0  0.15060520551E+02  0.27043853177E+02  0.26362409462E+02  0.40659142964E+02  0.00000000000E+00 0. -1.
         11    1    3    3    0    0 -0.23921010873E+01 -0.15650925410E+02 -0.21411976852E+02  0.26629802230E+02  0.51100000000E-03 0. -1.
        -11    1    3    3    0    0 -0.56207574205E+00 -0.79929979976E+01  0.35051304335E+01  0.87458496297E+01  0.51100000000E-03 0.  1.
        -12    1    3    3    0    0 -0.12106343721E+02 -0.33999297695E+01 -0.84555630433E+01  0.15153205176E+02  0.00000000000E+00 0.  1.
</event>
<event>
 7    1  0.1369731E-013  0.5052886E+02  0.7816164E-02  0.1300439E+00
        -11   -1    0    0    0    0  0.00000000000E+00  0.00000000000E+00  0.45593999997E+02  0.45594000000E+02  0.51100000000E-03 0. -1.
         11   -1    0    0    0    0 -0.00000000000E+00 -0.00000000000E+00 -0.45593999997E+02  0.45594000000E+02  0.51100000000E-03 0.  1.
    9900012    2    1    2    0    0 -0.30212978803E+02 -0.26822070600E+02 -0.45736318984E+01  0.50528859968E+02  0.30000000358E+02 0.  0.
         12    1    1    2    0    0  0.30212978803E+02  0.26822070600E+02  0.45736318984E+01  0.40659140032E+02  0.00000000000E+00 0. -1.
         11    1    3    3    0    0 -0.18204635276E+02 -0.15439083776E+02  0.79756768687E+01  0.25167150715E+02  0.51100000000E-03 0. -1.
        -11    1    3    3    0    0 -0.10373366732E+02 -0.11888698392E+02 -0.15392862991E+02  0.22042870007E+02  0.51100000000E-03 0.  1.
        -12    1    3    3    0    0 -0.16349767952E+01  0.50571156781E+00  0.28435542242E+01  0.33188392454E+01  0.00000000000E+00 0.  1.
</event>
<event>
 7    1  0.1369731E-013  0.5052886E+02  0.7816164E-02  0.1300439E+00
        -11   -1    0    0    0    0  0.00000000000E+00  0.00000000000E+00  0.45593999997E+02  0.45594000000E+02  0.51100000000E-03 0. -1.
         11   -1    0    0    0    0 -0.00000000000E+00 -0.00000000000E+00 -0.45593999997E+02  0.45594000000E+02  0.51100000000E-03 0.  1.
    9900012    2    1    2    0    0 -0.11137572281E+02  0.16447752018E+02  0.35476631512E+02  0.50528862698E+02  0.30000008656E+02 0.  0.
        -12    1    1    2    0    0  0.11137572281E+02 -0.16447752018E+02 -0.35476631512E+02  0.40659137302E+02  0.00000000000E+00 0.  1.
         11    1    3    3    0    0 -0.16966848488E+02  0.87638908731E+01  0.20278686785E+02  0.27855068997E+02  0.51100000000E-03 0. -1.
        -11    1    3    3    0    0  0.93041567705E+00 -0.14628925106E+01  0.11543591422E+02  0.11673055770E+02  0.51100000000E-03 0.  1.
         12    1    3    3    0    0  0.48988605306E+01  0.91467536558E+01  0.36543533044E+01  0.11000737930E+02  0.00000000000E+00 0. -1.
</event>
<event>
 7    1  0.1369731E-013  0.5052893E+02  0.7816164E-02  0.1300439E+00
        -11   -1    0    0    0    0  0.00000000000E+00  0.00000000000E+00  0.45593999997E+02  0.45594000000E+02  0.51100000000E-03 0. -1.
         11   -1    0    0    0    0 -0.00000000000E+00 -0.00000000000E+00 -0.45593999997E+02  0.45594000000E+02  0.51100000000E-03 0.  1.
    9900012    2    1    2    0    0  0.83604401191E+01 -0.35260886368E+02 -0.18437278977E+02  0.50528925705E+02  0.30000200173E+02 0.  0.
         12    1    1    2    0    0 -0.83604401191E+01  0.35260886368E+02  0.18437278977E+02  0.40659074295E+02  0.00000000000E+00 0. -1.
         11    1    3    3    0    0  0.31638247251E+01 -0.17025899865E+02  0.44420956245E+01  0.17878010708E+02  0.51100000000E-03 0. -1.
        -11    1    3    3    0    0  0.90544821838E+01 -0.99353391081E+01 -0.17385690911E+02  0.21976279474E+02  0.51100000000E-03 0.  1.
         12    1    3    3    0    0 -0.38578667898E+01 -0.82996473955E+01 -0.54936836905E+01  0.10674635523E+02  0.00000000000E+00 0. -1.
</event>
<event>
 7    1  0.1369731E-013  0.5052886E+02  0.7816164E-02  0.1300439E+00
        -11   -1    0    0    0    0  0.00000000000E+00  0.00000000000E+00  0.45593999997E+02  0.45594000000E+02  0.51100000000E-03 0. -1.
         11   -1    0    0    0    0 -0.00000000000E+00 -0.00000000000E+00 -0.45593999997E+02  0.45594000000E+02  0.51100000000E-03 0.  1.
    9900012    2    1    2    0    0  0.65060431853E+01  0.76944941832E+01 -0.39390753632E+02  0.50528864368E+02  0.30000013734E+02 0.  0.
         12    1    1    2    0    0 -0.65060431853E+01 -0.76944941832E+01  0.39390753632E+02  0.40659135632E+02  0.00000000000E+00 0. -1.
         11    1    3    3    0    0 -0.46383856165E+00  0.60077239523E+01 -0.33230358631E+01  0.68811671181E+01  0.51100000000E-03 0. -1.
        -11    1    3    3    0    0 -0.33332885434E+01 -0.90812284456E+01 -0.13791032017E+02  0.16845536113E+02  0.51100000000E-03 0.  1.
        -12    1    3    3    0    0  0.10303170290E+02  0.10767998676E+02 -0.22276685752E+02  0.26802161137E+02  0.00000000000E+00 0.  1.
</event>
<event>
 7    1  0.1369731E-013  0.5052886E+02  0.7816164E-02  0.1300439E+00
        -11   -1    0    0    0    0  0.00000000000E+00  0.00000000000E+00  0.45593999997E+02  0.45594000000E+02  0.51100000000E-03 0. -1.
         11   -1    0    0    0    0 -0.00000000000E+00 -0.00000000000E+00 -0.45593999997E+02  0.45594000000E+02  0.51100000000E-03 0.  1.
    9900012    2    1    2    0    0  0.29615065253E+02  0.35866067887E+01  0.27626971046E+02  0.50528863667E+02  0.30000011601E+02 0.  0.
        -12    1    1    2    0    0 -0.29615065253E+02 -0.35866067887E+01 -0.27626971046E+02  0.40659136333E+02  0.00000000000E+00 0.  1.
         11    1    3    3    0    0  0.17067274833E+02  0.13596948049E+02  0.12594809472E+02  0.25195199788E+02  0.51100000000E-03 0. -1.
        -11    1    3    3    0    0  0.23067662340E+01 -0.66662865320E+01  0.27105322796E+00  0.70593212633E+01  0.51100000000E-03 0.  1.
         12    1    3    3    0    0  0.10241024186E+02 -0.33440547279E+01  0.14761108346E+02  0.18274342615E+02  0.00000000000E+00 0. -1.
</event>
<event>
 7    1  0.1513749E-013  0.5052885E+02  0.7816164E-02  0.1300439E+00
        -11   -1    0    0    0    0  0.00000000000E+00  0.00000000000E+00  0.45593999997E+02  0.45594000000E+02  0.51100000000E-03 0. -1.
         11   -1    0    0    0    0 -0.00000000000E+00 -0.00000000000E+00 -0.45593999997E+02  0.45594000000E+02  0.51100000000E-03 0.  1.
    9900012    2    1    2    0    0 -0.83107154753E+01  0.22280952409E+01 -0.39738323188E+02  0.50528846911E+02  0.29999960671E+02 0.  0.
         12    1    1    2    0    0  0.83107154753E+01 -0.22280952409E+01  0.39738323188E+02  0.40659153089E+02  0.00000000000E+00 0. -1.
         11    1    3    3    0    0  0.42179179051E+01 -0.43386081373E+01 -0.44775640424E+00  0.60675232247E+01  0.51100000000E-03 0. -1.
        -11    1    3    3    0    0 -0.13316588192E+02 -0.83684921771E+00 -0.26184346689E+02  0.29387954156E+02  0.51100000000E-03 0.  1.
        -12    1    3    3    0    0  0.78795481118E+00  0.74035525959E+01 -0.13106220095E+02  0.15073369530E+02  0.00000000000E+00 0.  1.
</event>
<event>
 7    1  0.1369731E-013  0.5052886E+02  0.7816164E-02  0.1300439E+00
        -11   -1    0    0    0    0  0.00000000000E+00  0.00000000000E+00  0.45593999997E+02  0.45594000000E+02  0.51100000000E-03 0. -1.
         11   -1    0    0    0    0 -0.00000000000E+00 -0.00000000000E+00 -0.45593999997E+02  0.45594000000E+02  0.51100000000E-03 0.  1.
    9900012    2    1    2    0    0  0.26131487457E+02  0.21691159937E+02  0.22356309176E+02  0.50528860609E+02  0.30000002306E+02 0.  0.
        -12    1    1    2    0    0 -0.26131487457E+02 -0.21691159937E+02 -0.22356309176E+02  0.40659139391E+02  0.00000000000E+00 0.  1.
         11    1    3    3    0    0 -0.30959224792E+01 -0.45768833496E+01  0.23361862268E+01  0.59991969080E+01  0.51100000000E-03 0. -1.
        -11    1    3    3    0    0  0.66776360651E+01  0.59564340033E+01  0.17870578800E+01  0.91248838667E+01  0.51100000000E-03 0.  1.
         12    1    3    3    0    0  0.22549773871E+02  0.20311609283E+02  0.18233065069E+02  0.35404779834E+02  0.00000000000E+00 0. -1.
</event>
<event>
 7    1  0.1369731E-013  0.5052886E+02  0.7816164E-02  0.1300439E+00
        -11   -1    0    0    0    0  0.00000000000E+00  0.00000000000E+00  0.45593999997E+02  0.45594000000E+02  0.51100000000E-03 0. -1.
         11   -1    0    0    0    0 -0.00000000000E+00 -0.00000000000E+00 -0.45593999997E+02  0.45594000000E+02  0.51100000000E-03 0.  1.
    9900012    2    1    2    0    0 -0.36793412561E+02  0.17302184011E+02  0.21168347043E+00  0.50528860937E+02  0.30000003304E+02 0.  0.
         12    1    1    2    0    0  0.36793412561E+02 -0.17302184011E+02 -0.21168347043E+00  0.40659139063E+02  0.00000000000E+00 0. -1.
         11    1    3    3    0    0  0.10111456670E+01  0.44734599314E+00  0.14810288211E+01  0.18482371675E+01  0.51100000000E-03 0. -1.
        -11    1    3    3    0    0 -0.19867793206E+02 -0.44727721244E+01 -0.37335128249E+01  0.20704444345E+02  0.51100000000E-03 0.  1.
        -12    1    3    3    0    0 -0.17936765022E+02  0.21327610142E+02  0.24641674743E+01  0.27976179424E+02  0.00000000000E+00 0.  1.
</event>
<event>
 7    1  0.1369731E-013  0.5052886E+02  0.7816164E-02  0.1300439E+00
        -11   -1    0    0    0    0  0.00000000000E+00  0.00000000000E+00  0.45593999997E+02  0.45594000000E+02  0.51100000000E-03 0. -1.
         11   -1    0    0    0    0 -0.00000000000E+00 -0.00000000000E+00 -0.45593999997E+02  0.45594000000E+02  0.51100000000E-03 0.  1.
    9900012    2    1    2    0    0 -0.55244047803E+01 -0.37164416431E+02  0.15538758710E+02  0.50528856882E+02  0.29999990978E+02 0.  0.
        -12    1    1    2    0    0  0.55244047803E+01  0.37164416431E+02 -0.15538758710E+02  0.40659143118E+02  0.00000000000E+00 0.  1.
         11    1    3    3    0    0  0.65212134435E+01 -0.14747841296E+02  0.88586794072E+01  0.18398403430E+02  0.51100000000E-03 0. -1.
        -11    1    3    3    0    0 -0.15201149214E+02 -0.14009375850E+02  0.94547150685E+01  0.22731678038E+02  0.51100000000E-03 0.  1.
        -12    1    3    3    0    0  0.31555309904E+01 -0.84071992848E+01 -0.27746357658E+01  0.93987754138E+01  0.00000000000E+00 0.  1.
</event>
<event>
 7    1  0.1369731E-013  0.5052886E+02  0.7816164E-02  0.1300439E+00
        -11   -1    0    0    0    0  0.00000000000E+00  0.00000000000E+00  0.45593999997E+02  0.45594000000E+02  0.51100000000E-03 0. -1.
         11   -1    0    0    0    0 -0.00000000000E+00 -0.00000000000E+00 -0.45593999997E+02  0.45594000000E+02  0.51100000000E-03 0.  1.
    9900012    2    1    2    0    0  0.20950032026E+02  0.16424885415E+02 -0.30732472942E+02  0.50528860857E+02  0.30000003059E+02 0.  0.
         12    1    1    2    0    0 -0.20950032026E+02 -0.16424885415E+02  0.30732472942E+02  0.40659139143E+02  0.00000000000E+00 0. -1.
         11    1    3    3    0    0  0.68874488134E+01  0.12761794434E+02  0.13885528139E+01  0.14568061899E+02  0.51100000000E-03 0. -1.
        -11    1    3    3    0    0  0.58530238499E+01 -0.88997669498E+00 -0.18452729315E+02  0.19379194156E+02  0.51100000000E-03 0.  1.
         12    1    3    3    0    0  0.82095593625E+01  0.45530676761E+01 -0.13668296441E+02  0.16581604801E+02  0.00000000000E+00 0. -1.
</event>
<event>
 7    1  0.1564235E-013  0.5052886E+02  0.7816164E-02  0.1300439E+00
        -11   -1    0    0    0    0  0.00000000000E+00  0.00000000000E+00  0.45593999997E+02  0.45594000000E+02  0.51100000000E-03 0. -1.
         11   -1    0    0    0    0 -0.00000000000E+00 -0.00000000000E+00 -0.45593999997E+02  0.45594000000E+02  0.51100000000E-03 0.  1.
    9900012    2    1    2    0    0  0.19809478029E+02 -0.26349207371E+02 -0.23800627284E+02  0.50528855789E+02  0.29999987655E+02 0.  0.
         12    1    1    2    0    0 -0.19809478029E+02  0.26349207371E+02  0.23800627284E+02  0.40659144211E+02  0.00000000000E+00 0. -1.
         11    1    3    3    0    0  0.35661319256E+01  0.24600416774E+01 -0.87100334844E+00  0.44190212784E+01  0.51100000000E-03 0. -1.
        -11    1    3    3    0    0  0.19514001775E+02 -0.23218256430E+02 -0.10503561164E+02  0.32096861129E+02  0.51100000000E-03 0.  1.
        -12    1    3    3    0    0 -0.32706556713E+01 -0.55909926188E+01 -0.12426062772E+02  0.14012973382E+02  0.00000000000E+00 0.  1.
</event>
<event>
 7    1  0.1369731E-013  0.5052885E+02  0.7816164E-02  0.1300439E+00
        -11   -1    0    0    0    0  0.00000000000E+00  0.00000000000E+00  0.45593999997E+02  0.45594000000E+02  0.51100000000E-03 0.  1.
         11   -1    0    0    0    0 -0.00000000000E+00 -0.00000000000E+00 -0.45593999997E+02  0.45594000000E+02  0.51100000000E-03 0. -1.
    9900012    2    1    2    0    0  0.17847050077E+02 -0.36367579766E+02  0.34710432949E+01  0.50528853476E+02  0.29999980627E+02 0.  0.
        -12    1    1    2    0    0 -0.17847050077E+02  0.36367579766E+02 -0.34710432949E+01  0.40659146524E+02  0.00000000000E+00 0.  1.
         11    1    3    3    0    0  0.20352904471E+01 -0.13321529223E+02  0.14444368440E+02  0.19754628013E+02  0.51100000000E-03 0.  1.
        -11    1    3    3    0    0  0.14019718973E+02 -0.17177563566E+02 -0.62670440040E+01  0.23041203331E+02  0.51100000000E-03 0. -1.
        -12    1    3    3    0    0  0.17920406568E+01 -0.58684869774E+01 -0.47062811412E+01  0.77330221324E+01  0.00000000000E+00 0.  1.
</event>
<event>
 7    1  0.1369731E-013  0.5052885E+02  0.7816164E-02  0.1300439E+00
        -11   -1    0    0    0    0  0.00000000000E+00  0.00000000000E+00  0.45593999997E+02  0.45594000000E+02  0.51100000000E-03 0. -1.
         11   -1    0    0    0    0 -0.00000000000E+00 -0.00000000000E+00 -0.45593999997E+02  0.45594000000E+02  0.51100000000E-03 0.  1.
    9900012    2    1    2    0    0 -0.23457690657E+02  0.17187409422E+02  0.28416474637E+02  0.50528851898E+02  0.29999975829E+02 0.  0.
        -12    1    1    2    0    0  0.23457690657E+02 -0.17187409422E+02 -0.28416474637E+02  0.40659148102E+02  0.00000000000E+00 0.  1.
         11    1    3    3    0    0 -0.14246062795E+02  0.51282512992E+01  0.54477833927E+01  0.16091227756E+02  0.51100000000E-03 0. -1.
        -11    1    3    3    0    0  0.47989715550E+01 -0.24773672409E+01  0.59152594926E+01  0.80098546527E+01  0.51100000000E-03 0.  1.
        -12    1    3    3    0    0 -0.14010599417E+02  0.14536525363E+02  0.17053431752E+02  0.26427769489E+02  0.00000000000E+00 0.  1.
</event>
<event>
 7    1  0.1369731E-013  0.5052887E+02  0.7816164E-02  0.1300439E+00
        -11   -1    0    0    0    0  0.00000000000E+00  0.00000000000E+00  0.45593999997E+02  0.45594000000E+02  0.51100000000E-03 0. -1.
         11   -1    0    0    0    0 -0.00000000000E+00 -0.00000000000E+00 -0.45593999997E+02  0.45594000000E+02  0.51100000000E-03 0.  1.
    9900012    2    1    2    0    0  0.25372894308E+02 -0.19558507919E+02  0.25036882364E+02  0.50528874627E+02  0.30000044917E+02 0.  0.
        -12    1    1    2    0    0 -0.25372894308E+02  0.19558507919E+02 -0.25036882364E+02  0.40659125373E+02  0.00000000000E+00 0.  1.
         11    1    3    3    0    0  0.11883693115E+02 -0.11772828010E+00  0.32424282759E+01  0.12318659155E+02  0.51100000000E-03 0. -1.
        -11    1    3    3    0    0  0.44139709794E+01 -0.16550403012E+02  0.22926714107E+02  0.28618756082E+02  0.51100000000E-03 0.  1.
        -12    1    3    3    0    0  0.90752302139E+01 -0.28903766265E+01 -0.11322600193E+01  0.95914593900E+01  0.00000000000E+00 0.  1.
</event>
<event>
 7    1  0.1369731E-013  0.5052886E+02  0.7816164E-02  0.1300439E+00
        -11   -1    0    0    0    0  0.00000000000E+00  0.00000000000E+00  0.45593999997E+02  0.45594000000E+02  0.51100000000E-03 0. -1.
         11   -1    0    0    0    0 -0.00000000000E+00 -0.00000000000E+00 -0.45593999997E+02  0.45594000000E+02  0.51100000000E-03 0.  1.
    9900012    2    1    2    0    0 -0.18944338153E+02 -0.22587513263E+02  0.28001459478E+02  0.50528862818E+02  0.30000009022E+02 0.  0.
        -12    1    1    2    0    0  0.18944338153E+02  0.22587513263E+02 -0.28001459478E+02  0.40659137182E+02  0.00000000000E+00 0.  1.
         11    1    3    3    0    0 -0.77367452704E+01 -0.22085980471E+02  0.29377162608E+02  0.37558826445E+02  0.51100000000E-03 0. -1.
        -11    1    3    3    0    0 -0.92001739883E+01 -0.28593764765E+01 -0.19259495260E+01  0.98248927265E+01  0.51100000000E-03 0.  1.
         12    1    3    3    0    0 -0.20074188947E+01  0.23578436850E+01  0.55024639549E+00  0.31451436466E+01  0.00000000000E+00 0. -1.
</event>
<event>
 7    1  0.1369731E-013  0.5052886E+02  0.7816164E-02  0.1300439E+00
        -11   -1    0    0    0    0  0.00000000000E+00  0.00000000000E+00  0.45593999997E+02  0.45594000000E+02  0.51100000000E-03 0. -1.
         11   -1    0    0    0    0 -0.00000000000E+00 -0.00000000000E+00 -0.45593999997E+02  0.45594000000E+02  0.51100000000E-03 0.  1.
    9900012    2    1    2    0    0 -0.27441413291E+02  0.77519737732E+01  0.28983468266E+02  0.50528859656E+02  0.29999999411E+02 0.  0.
        -12    1    1    2    0    0  0.27441413291E+02 -0.77519737732E+01 -0.28983468266E+02  0.40659140344E+02  0.00000000000E+00 0.  1.
         11    1    3    3    0    0 -0.26580016974E+02 -0.65118620982E+00  0.20864510584E+02  0.33797176627E+02  0.51100000000E-03 0. -1.
        -11    1    3    3    0    0  0.32383009639E+01  0.54707408129E+01 -0.87929814582E+00  0.64178472765E+01  0.51100000000E-03 0.  1.
         12    1    3    3    0    0 -0.40996972807E+01  0.29324191701E+01  0.89982558278E+01  0.10313835752E+02  0.00000000000E+00 0. -1.
</event>
<event>
 7    1  0.1369731E-013  0.5052886E+02  0.7816164E-02  0.1300439E+00
        -11   -1    0    0    0    0  0.00000000000E+00  0.00000000000E+00  0.45593999997E+02  0.45594000000E+02  0.51100000000E-03 0. -1.
         11   -1    0    0    0    0 -0.00000000000E+00 -0.00000000000E+00 -0.45593999997E+02  0.45594000000E+02  0.51100000000E-03 0.  1.
    9900012    2    1    2    0    0  0.10795837075E+01 -0.12058841999E+02 -0.38814744543E+02  0.50528861233E+02  0.30000004204E+02 0.  0.
         12    1    1    2    0    0 -0.10795837075E+01  0.12058841999E+02  0.38814744543E+02  0.40659138767E+02  0.00000000000E+00 0. -1.
         11    1    3    3    0    0  0.71676868958E+01 -0.14646693414E+02 -0.36092864392E+02  0.39605507491E+02  0.51100000000E-03 0.  1.
        -11    1    3    3    0    0 -0.75697184635E+00  0.26532020177E+01  0.23053588571E+01  0.35954369754E+01  0.51100000000E-03 0. -1.
        -12    1    3    3    0    0 -0.53311313420E+01 -0.65350603272E-01 -0.50272390082E+01  0.73279167662E+01  0.00000000000E+00 0.  1.
</event>
<event>
 7    1  0.1369731E-013  0.5052881E+02  0.7816164E-02  0.1300439E+00
        -11   -1    0    0    0    0  0.00000000000E+00  0.00000000000E+00  0.45593999997E+02  0.45594000000E+02  0.51100000000E-03 0. -1.
         11   -1    0    0    0    0 -0.00000000000E+00 -0.00000000000E+00 -0.45593999997E+02  0.45594000000E+02  0.51100000000E-03 0.  1.
    9900012    2    1    2    0    0  0.35302020900E+01  0.29667476336E+02 -0.27578046485E+02  0.50528805138E+02  0.29999833697E+02 0.  0.
         12    1    1    2    0    0 -0.35302020900E+01 -0.29667476336E+02  0.27578046485E+02  0.40659194862E+02  0.00000000000E+00 0. -1.
         11    1    3    3    0    0 -0.78286134379E+01  0.11265768426E+02 -0.90130893820E+01  0.16414643068E+02  0.51100000000E-03 0. -1.
        -11    1    3    3    0    0  0.11234023604E+02  0.10588035645E+02 -0.20877070800E+02  0.25964627295E+02  0.51100000000E-03 0.  1.
         12    1    3    3    0    0  0.12479192339E+00  0.78136722648E+01  0.23121136968E+01  0.81495347740E+01  0.00000000000E+00 0. -1.
</event>
<event>
 7    1  0.1369731E-013  0.5052885E+02  0.7816164E-02  0.1300439E+00
        -11   -1    0    0    0    0  0.00000000000E+00  0.00000000000E+00  0.45593999997E+02  0.45594000000E+02  0.51100000000E-03 0. -1.
         11   -1    0    0    0    0 -0.00000000000E+00 -0.00000000000E+00 -0.45593999997E+02  0.45594000000E+02  0.51100000000E-03 0.  1.
    9900012    2    1    2    0    0  0.24936569726E+02  0.49079441980E+01  0.31737133815E+02  0.50528854795E+02  0.29999984636E+02 0.  0.
        -12    1    1    2    0    0 -0.24936569726E+02 -0.49079441980E+01 -0.31737133815E+02  0.40659145205E+02  0.00000000000E+00 0.  1.
         11    1    3    3    0    0  0.22261079440E+02  0.47740260670E+00  0.21211643947E+02  0.30752518763E+02  0.51100000000E-03 0. -1.
        -11    1    3    3    0    0 -0.60656625608E+01  0.32166579850E+01  0.81114587627E+01  0.10627084003E+02  0.51100000000E-03 0.  1.
        -12    1    3    3    0    0  0.87411528469E+01  0.12138836063E+01  0.24140311054E+01  0.91492520285E+01  0.00000000000E+00 0.  1.
</event>
<event>
 7    1  0.1369731E-013  0.5052886E+02  0.7816164E-02  0.1300439E+00
        -11   -1    0    0    0    0  0.00000000000E+00  0.00000000000E+00  0.45593999997E+02  0.45594000000E+02  0.51100000000E-03 0. -1.
         11   -1    0    0    0    0 -0.00000000000E+00 -0.00000000000E+00 -0.45593999997E+02  0.45594000000E+02  0.51100000000E-03 0.  1.
    9900012    2    1    2    0    0 -0.55670564492E+01 -0.24025120766E+02  0.32325948561E+02  0.50528862088E+02  0.30000006804E+02 0.  0.
        -12    1    1    2    0    0  0.55670564492E+01  0.24025120766E+02 -0.32325948561E+02  0.40659137912E+02  0.00000000000E+00 0.  1.
         11    1    3    3    0    0 -0.12203513120E+02 -0.65236620219E+01  0.30755690851E+01  0.14175437351E+02  0.51100000000E-03 0.  1.
        -11    1    3    3    0    0  0.71789754314E+01 -0.11896191027E+02  0.12528797799E+02  0.18709030540E+02  0.51100000000E-03 0. -1.
         12    1    3    3    0    0 -0.54251876073E+00 -0.56052677167E+01  0.16721581678E+02  0.17644394197E+02  0.00000000000E+00 0. -1.
</event>
<event>
 7    1  0.1369731E-013  0.5052886E+02  0.7816164E-02  0.1300439E+00
        -11   -1    0    0    0    0  0.00000000000E+00  0.00000000000E+00  0.45593999997E+02  0.45594000000E+02  0.51100000000E-03 0.  1.
         11   -1    0    0    0    0 -0.00000000000E+00 -0.00000000000E+00 -0.45593999997E+02  0.45594000000E+02  0.51100000000E-03 0. -1.
    9900012    2    1    2    0    0  0.95197880585E+01 -0.39345217451E+02 -0.38070125057E+01  0.50528857791E+02  0.29999993741E+02 0.  0.
        -12    1    1    2    0    0 -0.95197880585E+01  0.39345217451E+02  0.38070125057E+01  0.40659142209E+02  0.00000000000E+00 0.  1.
         11    1    3    3    0    0  0.84189467686E+01 -0.31102853328E+02  0.11650955713E+01  0.32243194596E+02  0.51100000000E-03 0. -1.
        -11    1    3    3    0    0 -0.17663176217E+01  0.25278654256E+00  0.47418141791E+01  0.50664169733E+01  0.51100000000E-03 0.  1.
        -12    1    3    3    0    0  0.28671589116E+01 -0.84951506658E+01 -0.97139222562E+01  0.13219246221E+02  0.00000000000E+00 0.  1.
</event>
<event>
 7    1  0.1369731E-013  0.5052886E+02  0.7816164E-02  0.1300439E+00
        -11   -1    0    0    0    0  0.00000000000E+00  0.00000000000E+00  0.45593999997E+02  0.45594000000E+02  0.51100000000E-03 0. -1.
         11   -1    0    0    0    0 -0.00000000000E+00 -0.00000000000E+00 -0.45593999997E+02  0.45594000000E+02  0.51100000000E-03 0.  1.
    9900012    2    1    2    0    0 -0.80118744815E+01 -0.19658187544E+02  0.34677526604E+02  0.50528864229E+02  0.30000013311E+02 0.  0.
        -12    1    1    2    0    0  0.80118744815E+01  0.19658187544E+02 -0.34677526604E+02  0.40659135771E+02  0.00000000000E+00 0.  1.
         11    1    3    3    0    0  0.29695973568E+01 -0.84036623744E+01  0.19820558369E+01  0.91306404686E+01  0.51100000000E-03 0. -1.
        -11    1    3    3    0    0 -0.12378212934E+02  0.14788644715E+01  0.14140688061E+02  0.18851160565E+02  0.51100000000E-03 0.  1.
         12    1    3    3    0    0  0.13967410954E+01 -0.12733389641E+02  0.18554782707E+02  0.22547063195E+02  0.00000000000E+00 0. -1.
</event>
<event>
 7    1  0.1369731E-013  0.5052886E+02  0.7816164E-02  0.1300439E+00
        -11   -1    0    0    0    0  0.00000000000E+00  0.00000000000E+00  0.45593999997E+02  0.45594000000E+02  0.51100000000E-03 0. -1.
         11   -1    0    0    0    0 -0.00000000000E+00 -0.00000000000E+00 -0.45593999997E+02  0.45594000000E+02  0.51100000000E-03 0.  1.
    9900012    2    1    2    0    0  0.40626240682E+02  0.58608735452E+00  0.15266364509E+01  0.50528861431E+02  0.30000004804E+02 0.  0.
         12    1    1    2    0    0 -0.40626240682E+02 -0.58608735452E+00 -0.15266364509E+01  0.40659138569E+02  0.00000000000E+00 0. -1.
         11    1    3    3    0    0  0.30411351047E+02  0.78797630250E+01  0.77008807634E+01  0.32345703001E+02  0.51100000000E-03 0. -1.
        -11    1    3    3    0    0  0.23943288567E+01 -0.64697548804E+01 -0.75200544027E+01  0.10204986887E+02  0.51100000000E-03 0.  1.
         12    1    3    3    0    0  0.78205607789E+01 -0.82392079007E+00  0.13458100902E+01  0.79781715427E+01  0.00000000000E+00 0. -1.
</event>
<event>
 7    1  0.1369731E-013  0.5052886E+02  0.7816164E-02  0.1300439E+00
        -11   -1    0    0    0    0  0.00000000000E+00  0.00000000000E+00  0.45593999997E+02  0.45594000000E+02  0.51100000000E-03 0. -1.
         11   -1    0    0    0    0 -0.00000000000E+00 -0.00000000000E+00 -0.45593999997E+02  0.45594000000E+02  0.51100000000E-03 0.  1.
    9900012    2    1    2    0    0 -0.32000959863E+02 -0.94324076421E+01 -0.23240778109E+02  0.50528861873E+02  0.30000006150E+02 0.  0.
         12    1    1    2    0    0  0.32000959863E+02  0.94324076421E+01  0.23240778109E+02  0.40659138127E+02  0.00000000000E+00 0. -1.
         11    1    3    3    0    0 -0.51195395955E+01 -0.12124905500E+02 -0.30013088958E+01  0.13499291626E+02  0.51100000000E-03 0. -1.
        -11    1    3    3    0    0 -0.13578228546E+02  0.89950046539E+01 -0.10487570289E+02  0.19371823095E+02  0.51100000000E-03 0.  1.
        -12    1    3    3    0    0 -0.13303191721E+02 -0.63025067959E+01 -0.97518989242E+01  0.17657747153E+02  0.00000000000E+00 0.  1.
</event>
<event>
 7    1  0.1369731E-013  0.5052886E+02  0.7816164E-02  0.1300439E+00
        -11   -1    0    0    0    0  0.00000000000E+00  0.00000000000E+00  0.45593999997E+02  0.45594000000E+02  0.51100000000E-03 0. -1.
         11   -1    0    0    0    0 -0.00000000000E+00 -0.00000000000E+00 -0.45593999997E+02  0.45594000000E+02  0.51100000000E-03 0.  1.
    9900012    2    1    2    0    0  0.36551618313E+01 -0.31279226210E+02 -0.25717992698E+02  0.50528863896E+02  0.30000012298E+02 0.  0.
         12    1    1    2    0    0 -0.36551618313E+01  0.31279226210E+02  0.25717992698E+02  0.40659136104E+02  0.00000000000E+00 0. -1.
         11    1    3    3    0    0  0.41930239540E+01 -0.16904459690E+02 -0.43246345612E+01  0.17945603128E+02  0.51100000000E-03 0. -1.
        -11    1    3    3    0    0 -0.74871436684E+01 -0.66456204453E+01 -0.19637590444E+02  0.22042153936E+02  0.51100000000E-03 0.  1.
        -12    1    3    3    0    0  0.69492815458E+01 -0.77291460753E+01 -0.17557676924E+01  0.10541106832E+02  0.00000000000E+00 0.  1.
</event>
<event>
 7    1  0.1369731E-013  0.5052888E+02  0.7816164E-02  0.1300439E+00
        -11   -1    0    0    0    0  0.00000000000E+00  0.00000000000E+00  0.45593999997E+02  0.45594000000E+02  0.51100000000E-03 0.  1.
         11   -1    0    0    0    0 -0.00000000000E+00 -0.00000000000E+00 -0.45593999997E+02  0.45594000000E+02  0.51100000000E-03 0. -1.
    9900012    2    1    2    0    0 -0.12991139249E+02  0.38090915647E+02 -0.57859068278E+01  0.50528877141E+02  0.30000052559E+02 0.  0.
         12    1    1    2    0    0  0.12991139249E+02 -0.38090915647E+02  0.57859068278E+01  0.40659122859E+02  0.00000000000E+00 0. -1.
         11    1    3    3    0    0  0.15850917820E+01 -0.33868436436E+01 -0.27364451951E+01  0.46337197142E+01  0.51100000000E-03 0. -1.
        -11    1    3    3    0    0 -0.91893353959E+01  0.25464924620E+02  0.44063055729E+01  0.27428485193E+02  0.51100000000E-03 0.  1.
        -12    1    3    3    0    0 -0.53868956351E+01  0.16012834671E+02 -0.74557672055E+01  0.18466672234E+02  0.00000000000E+00 0.  1.
</event>
<event>
 7    1  0.1369731E-013  0.5052884E+02  0.7816164E-02  0.1300439E+00
        -11   -1    0    0    0    0  0.00000000000E+00  0.00000000000E+00  0.45593999997E+02  0.45594000000E+02  0.51100000000E-03 0. -1.
         11   -1    0    0    0    0 -0.00000000000E+00 -0.00000000000E+00 -0.45593999997E+02  0.45594000000E+02  0.51100000000E-03 0.  1.
    9900012    2    1    2    0    0  0.18795786718E+01 -0.24876599796E+02  0.32105902294E+02  0.50528843645E+02  0.29999950743E+02 0.  0.
        -12    1    1    2    0    0 -0.18795786718E+01  0.24876599796E+02 -0.32105902294E+02  0.40659156355E+02  0.00000000000E+00 0.  1.
         11    1    3    3    0    0  0.39254358600E+01 -0.19819400960E+02  0.36944060459E+02  0.42107971983E+02  0.51100000000E-03 0. -1.
        -11    1    3    3    0    0 -0.31541055609E+01 -0.22607916140E+01 -0.25903886879E+01  0.46657983697E+01  0.51100000000E-03 0.  1.
         12    1    3    3    0    0  0.11082483727E+01 -0.27964072225E+01 -0.22477694768E+01  0.37550732923E+01  0.00000000000E+00 0. -1.
</event>
<event>
 7    1  0.1369731E-013  0.5052886E+02  0.7816164E-02  0.1300439E+00
        -11   -1    0    0    0    0  0.00000000000E+00  0.00000000000E+00  0.45593999997E+02  0.45594000000E+02  0.51100000000E-03 0. -1.
         11   -1    0    0    0    0 -0.00000000000E+00 -0.00000000000E+00 -0.45593999997E+02  0.45594000000E+02  0.51100000000E-03 0.  1.
    9900012    2    1    2    0    0 -0.27750961542E+02 -0.21163129765E+02 -0.20860779801E+02  0.50528855126E+02  0.29999985642E+02 0.  0.
         12    1    1    2    0    0  0.27750961542E+02  0.21163129765E+02  0.20860779801E+02  0.40659144874E+02  0.00000000000E+00 0. -1.
         11    1    3    3    0    0 -0.34034487974E+01 -0.18679298285E+02 -0.12570754443E+02  0.22771111428E+02  0.51100000000E-03 0. -1.
        -11    1    3    3    0    0 -0.12051163199E+02 -0.36432646631E+01 -0.88580531179E+01  0.15393798010E+02  0.51100000000E-03 0.  1.
         12    1    3    3    0    0 -0.12296349545E+02  0.11594331833E+01  0.56802776006E+00  0.12363945688E+02  0.00000000000E+00 0. -1.
</event>
<event>
 7    1  0.1369731E-013  0.5052884E+02  0.7816164E-02  0.1300439E+00
        -11   -1    0    0    0    0  0.00000000000E+00  0.00000000000E+00  0.45593999997E+02  0.45594000000E+02  0.51100000000E-03 0. -1.
         11   -1    0    0    0    0 -0.00000000000E+00 -0.00000000000E+00 -0.45593999997E+02  0.45594000000E+02  0.51100000000E-03 0.  1.
    9900012    2    1    2    0    0  0.62880164331E+01 -0.49397915082E+00 -0.40166948981E+02  0.50528844124E+02  0.29999952200E+02 0.  0.
         12    1    1    2    0    0 -0.62880164331E+01  0.49397915082E+00  0.40166948981E+02  0.40659155876E+02  0.00000000000E+00 0. -1.
         11    1    3    3    0    0  0.10172975616E+02 -0.42089359790E+01 -0.49673048165E+01  0.12078025185E+02  0.51100000000E-03 0. -1.
        -11    1    3    3    0    0 -0.73512966022E+01 -0.25122115632E+01 -0.23505867252E+02  0.24756384312E+02  0.51100000000E-03 0.  1.
         12    1    3    3    0    0  0.34663374189E+01  0.62271683913E+01 -0.11693776913E+02  0.13694434628E+02  0.00000000000E+00 0. -1.
</event>
<event>
 7    1  0.1369731E-013  0.5052885E+02  0.7816164E-02  0.1300439E+00
        -11   -1    0    0    0    0  0.00000000000E+00  0.00000000000E+00  0.45593999997E+02  0.45594000000E+02  0.51100000000E-03 0.  1.
         11   -1    0    0    0    0 -0.00000000000E+00 -0.00000000000E+00 -0.45593999997E+02  0.45594000000E+02  0.51100000000E-03 0. -1.
    9900012    2    1    2    0    0  0.13396298352E+02  0.38376527938E+02  0.97354400211E+00  0.50528849811E+02  0.29999969487E+02 0.  0.
         12    1    1    2    0    0 -0.13396298352E+02 -0.38376527938E+02 -0.97354400211E+00  0.40659150189E+02  0.00000000000E+00 0. -1.
         11    1    3    3    0    0 -0.45328573542E+01  0.71574078863E+01  0.36034601385E+00  0.84796894374E+01  0.51100000000E-03 0. -1.
        -11    1    3    3    0    0  0.15849510506E+02  0.14188439239E+02  0.88221112594E+01  0.23029295227E+02  0.51100000000E-03 0.  1.
        -12    1    3    3    0    0  0.20796452001E+01  0.17030680813E+02 -0.82089132712E+01  0.19019865147E+02  0.00000000000E+00 0.  1.
</event>
<event>
 7    1  0.1369731E-013  0.5052882E+02  0.7816164E-02  0.1300439E+00
        -11   -1    0    0    0    0  0.00000000000E+00  0.00000000000E+00  0.45593999997E+02  0.45594000000E+02  0.51100000000E-03 0. -1.
         11   -1    0    0    0    0 -0.00000000000E+00 -0.00000000000E+00 -0.45593999997E+02  0.45594000000E+02  0.51100000000E-03 0.  1.
    9900012    2    1    2    0    0 -0.11836750585E+02 -0.38427995578E+02 -0.60290647417E+01  0.50528817394E+02  0.29999870949E+02 0.  0.
         12    1    1    2    0    0  0.11836750585E+02  0.38427995578E+02  0.60290647417E+01  0.40659182606E+02  0.00000000000E+00 0. -1.
         11    1    3    3    0    0 -0.89022784396E+01 -0.34095872911E+02  0.56162308295E+01  0.35683625937E+02  0.51100000000E-03 0. -1.
        -11    1    3    3    0    0 -0.19027032794E+01 -0.37954463197E+01 -0.13078636484E+01  0.44425443294E+01  0.51100000000E-03 0.  1.
         12    1    3    3    0    0 -0.10317688661E+01 -0.53667634699E+00 -0.10337431923E+02  0.10402647127E+02  0.00000000000E+00 0. -1.
</event>
<event>
 7    1  0.1369731E-013  0.5052886E+02  0.7816164E-02  0.1300439E+00
        -11   -1    0    0    0    0  0.00000000000E+00  0.00000000000E+00  0.45593999997E+02  0.45594000000E+02  0.51100000000E-03 0. -1.
         11   -1    0    0    0    0 -0.00000000000E+00 -0.00000000000E+00 -0.45593999997E+02  0.45594000000E+02  0.51100000000E-03 0.  1.
    9900012    2    1    2    0    0 -0.35947945191E+01 -0.27128981147E+02 -0.30070940709E+02  0.50528860304E+02  0.30000001381E+02 0.  0.
         12    1    1    2    0    0  0.35947945191E+01  0.27128981147E+02  0.30070940709E+02  0.40659139696E+02  0.00000000000E+00 0. -1.
         11    1    3    3    0    0  0.79663511812E+01 -0.10314181762E+02 -0.57567414725E+01  0.14247286380E+02  0.51100000000E-03 0. -1.
        -11    1    3    3    0    0 -0.72069478859E+01 -0.27262154946E+01 -0.19175569711E+02  0.20665788704E+02  0.51100000000E-03 0.  1.
        -12    1    3    3    0    0 -0.43541978144E+01 -0.14088583890E+02 -0.51386295249E+01  0.15615785220E+02  0.00000000000E+00 0.  1.
</event>
<event>
 7    1  0.1369731E-013  0.5052885E+02  0.7816164E-02  0.1300439E+00
        -11   -1    0    0    0    0  0.00000000000E+00  0.00000000000E+00  0.45593999997E+02  0.45594000000E+02  0.51100000000E-03 0. -1.
         11   -1    0    0    0    0 -0.00000000000E+00 -0.00000000000E+00 -0.45593999997E+02  0.45594000000E+02  0.51100000000E-03 0.  1.
    9900012    2    1    2    0    0  0.39768233427E+02 -0.21304398236E+01  0.81923714509E+01  0.50528854488E+02  0.29999983703E+02 0.  0.
        -12    1    1    2    0    0 -0.39768233427E+02  0.21304398236E+01 -0.81923714509E+01  0.40659145512E+02  0.00000000000E+00 0.  1.
         11    1    3    3    0    0  0.11278683787E+02  0.31998506522E+01  0.28910243580E+01  0.12075006181E+02  0.51100000000E-03 0. -1.
        -11    1    3    3    0    0  0.30152610375E+01 -0.10078999851E+02  0.67510886772E+01  0.12500209426E+02  0.51100000000E-03 0.  1.
        -12    1    3    3    0    0  0.25474288602E+02  0.47487093750E+01 -0.14497415843E+01  0.25953638881E+02  0.00000000000E+00 0.  1.
</event>
<event>
 7    1  0.1369731E-013  0.5052886E+02  0.7816164E-02  0.1300439E+00
        -11   -1    0    0    0    0  0.00000000000E+00  0.00000000000E+00  0.45593999997E+02  0.45594000000E+02  0.51100000000E-03 0. -1.
         11   -1    0    0    0    0 -0.00000000000E+00 -0.00000000000E+00 -0.45593999997E+02  0.45594000000E+02  0.51100000000E-03 0.  1.
    9900012    2    1    2    0    0 -0.31805691237E+02 -0.11406272484E+02 -0.22615490593E+02  0.50528862505E+02  0.30000008070E+02 0.  0.
         12    1    1    2    0    0  0.31805691237E+02  0.11406272484E+02  0.22615490593E+02  0.40659137495E+02  0.00000000000E+00 0. -1.
         11    1    3    3    0    0 -0.26776639710E+02 -0.58072690890E+01 -0.27545148664E+01  0.27537250422E+02  0.51100000000E-03 0. -1.
        -11    1    3    3    0    0 -0.17475726000E+01 -0.66187846765E+01 -0.74669217013E+01  0.10130016809E+02  0.51100000000E-03 0.  1.
         12    1    3    3    0    0 -0.32814789276E+01  0.10197812812E+01 -0.12394054025E+02  0.12861595274E+02  0.00000000000E+00 0. -1.
</event>
<event>
 7    1  0.1369731E-013  0.5052886E+02  0.7816164E-02  0.1300439E+00
        -11   -1    0    0    0    0  0.00000000000E+00  0.00000000000E+00  0.45593999997E+02  0.45594000000E+02  0.51100000000E-03 0. -1.
         11   -1    0    0    0    0 -0.00000000000E+00 -0.00000000000E+00 -0.45593999997E+02  0.45594000000E+02  0.51100000000E-03 0.  1.
    9900012    2    1    2    0    0 -0.20645387508E+01  0.57609080082E+01 -0.40195962689E+02  0.50528858373E+02  0.29999995511E+02 0.  0.
         12    1    1    2    0    0  0.20645387508E+01 -0.57609080082E+01  0.40195962689E+02  0.40659141627E+02  0.00000000000E+00 0. -1.
         11    1    3    3    0    0 -0.87231120248E+01  0.20229323431E+01 -0.13617001889E+02  0.16297474631E+02  0.51100000000E-03 0. -1.
        -11    1    3    3    0    0  0.12499917249E+02  0.39894757677E+01 -0.24904521230E+02  0.28149583054E+02  0.51100000000E-03 0.  1.
        -12    1    3    3    0    0 -0.58413439753E+01 -0.25150010253E+00 -0.16744395706E+01  0.60818006885E+01  0.00000000000E+00 0.  1.
</event>
<event>
 7    1  0.1369731E-013  0.5052885E+02  0.7816164E-02  0.1300439E+00
        -11   -1    0    0    0    0  0.00000000000E+00  0.00000000000E+00  0.45593999997E+02  0.45594000000E+02  0.51100000000E-03 0. -1.
         11   -1    0    0    0    0 -0.00000000000E+00 -0.00000000000E+00 -0.45593999997E+02  0.45594000000E+02  0.51100000000E-03 0.  1.
    9900012    2    1    2    0    0 -0.66199462676E+01 -0.10861605400E+02 -0.38618237201E+02  0.50528850907E+02  0.29999972817E+02 0.  0.
         12    1    1    2    0    0  0.66199462676E+01  0.10861605400E+02  0.38618237201E+02  0.40659149093E+02  0.00000000000E+00 0. -1.
         11    1    3    3    0    0 -0.18487820978E+01  0.74257626698E+01 -0.94361792224E+01  0.12149132687E+02  0.51100000000E-03 0. -1.
        -11    1    3    3    0    0 -0.16042505616E+01 -0.18234320464E+02 -0.29968128106E+02  0.35116274932E+02  0.51100000000E-03 0.  1.
        -12    1    3    3    0    0 -0.31669136081E+01 -0.53047605843E-01  0.78607012707E+00  0.32634432881E+01  0.00000000000E+00 0.  1.
</event>
<event>
 7    1  0.1369731E-013  0.5052887E+02  0.7816164E-02  0.1300439E+00
        -11   -1    0    0    0    0  0.00000000000E+00  0.00000000000E+00  0.45593999997E+02  0.45594000000E+02  0.51100000000E-03 0. -1.
         11   -1    0    0    0    0 -0.00000000000E+00 -0.00000000000E+00 -0.45593999997E+02  0.45594000000E+02  0.51100000000E-03 0.  1.
    9900012    2    1    2    0    0 -0.13547491350E+02  0.95705863469E+01  0.37121883970E+02  0.50528869237E+02  0.30000028534E+02 0.  0.
        -12    1    1    2    0    0  0.13547491350E+02 -0.95705863469E+01 -0.37121883970E+02  0.40659130763E+02  0.00000000000E+00 0.  1.
         11    1    3    3    0    0  0.25671733281E+01  0.79583163483E+01  0.31285337882E+02  0.32383599933E+02  0.51100000000E-03 0. -1.
        -11    1    3    3    0    0 -0.36084775404E+01 -0.89868457482E+00 -0.74355970570E+00  0.37923113561E+01  0.51100000000E-03 0.  1.
         12    1    3    3    0    0 -0.12506187138E+02  0.25109545734E+01  0.65801057937E+01  0.14352957948E+02  0.00000000000E+00 0. -1.
</event>
<event>
 7    1  0.1369731E-013  0.5052886E+02  0.7816164E-02  0.1300439E+00
        -11   -1    0    0    0    0  0.00000000000E+00  0.00000000000E+00  0.45593999997E+02  0.45594000000E+02  0.51100000000E-03 0. -1.
         11   -1    0    0    0    0 -0.00000000000E+00 -0.00000000000E+00 -0.45593999997E+02  0.45594000000E+02  0.51100000000E-03 0.  1.
    9900012    2    1    2    0    0 -0.15014269958E+02  0.66909490752E+01  0.37188281191E+02  0.50528863760E+02  0.30000011884E+02 0.  0.
        -12    1    1    2    0    0  0.15014269958E+02 -0.66909490752E+01 -0.37188281191E+02  0.40659136240E+02  0.00000000000E+00 0.  1.
         11    1    3    3    0    0  0.45180221140E+01 -0.60861968736E+01  0.16303240413E+02  0.17979153607E+02  0.51100000000E-03 0. -1.
        -11    1    3    3    0    0 -0.12128364486E+02  0.58226097233E+01  0.65049043964E+01  0.14943687315E+02  0.51100000000E-03 0.  1.
         12    1    3    3    0    0 -0.74039275860E+01  0.69545362256E+01  0.14380136381E+02  0.17606022838E+02  0.00000000000E+00 0. -1.
</event>
<event>
 7    1  0.1369731E-013  0.5052885E+02  0.7816164E-02  0.1300439E+00
        -11   -1    0    0    0    0  0.00000000000E+00  0.00000000000E+00  0.45593999997E+02  0.45594000000E+02  0.51100000000E-03 0. -1.
         11   -1    0    0    0    0 -0.00000000000E+00 -0.00000000000E+00 -0.45593999997E+02  0.45594000000E+02  0.51100000000E-03 0.  1.
    9900012    2    1    2    0    0  0.21557304265E+01 -0.33700931136E+01 -0.40461851502E+02  0.50528854310E+02  0.29999983162E+02 0.  0.
         12    1    1    2    0    0 -0.21557304265E+01  0.33700931136E+01  0.40461851502E+02  0.40659145690E+02  0.00000000000E+00 0. -1.
         11    1    3    3    0    0 -0.73698867899E+01 -0.94253522735E+01 -0.16679877371E+02  0.20527318533E+02  0.51100000000E-03 0. -1.
        -11    1    3    3    0    0  0.10345872800E+02  0.38829758242E+01 -0.25033285868E+02  0.27363844519E+02  0.51100000000E-03 0.  1.
         12    1    3    3    0    0 -0.82025558368E+00  0.21722833357E+01  0.12513117372E+01  0.26376912588E+01  0.00000000000E+00 0. -1.
</event>
<event>
 7    1  0.1369731E-013  0.5052888E+02  0.7816164E-02  0.1300439E+00
        -11   -1    0    0    0    0  0.00000000000E+00  0.00000000000E+00  0.45593999997E+02  0.45594000000E+02  0.51100000000E-03 0. -1.
         11   -1    0    0    0    0 -0.00000000000E+00 -0.00000000000E+00 -0.45593999997E+02  0.45594000000E+02  0.51100000000E-03 0.  1.
    9900012    2    1    2    0    0  0.80363971506E+01  0.23626220648E+02  0.32099562335E+02  0.50528881916E+02  0.30000067071E+02 0.  0.
        -12    1    1    2    0    0 -0.80363971506E+01 -0.23626220648E+02 -0.32099562335E+02  0.40659118084E+02  0.00000000000E+00 0.  1.
         11    1    3    3    0    0  0.74059552029E+01  0.23702957625E+02  0.25267852400E+02  0.35427993703E+02  0.51100000000E-03 0. -1.
        -11    1    3    3    0    0  0.22545836124E+01 -0.59930033641E+01  0.62342320232E+01  0.89367156029E+01  0.51100000000E-03 0.  1.
        -12    1    3    3    0    0 -0.16241416647E+01  0.59162663872E+01  0.59747791176E+00  0.61641726100E+01  0.00000000000E+00 0.  1.
</event>
<event>
 7    1  0.1369731E-013  0.5052886E+02  0.7816164E-02  0.1300439E+00
        -11   -1    0    0    0    0  0.00000000000E+00  0.00000000000E+00  0.45593999997E+02  0.45594000000E+02  0.51100000000E-03 0. -1.
         11   -1    0    0    0    0 -0.00000000000E+00 -0.00000000000E+00 -0.45593999997E+02  0.45594000000E+02  0.51100000000E-03 0.  1.
    9900012    2    1    2    0    0  0.14242794455E+02  0.17250122947E+02  0.33952052426E+02  0.50528858353E+02  0.29999995449E+02 0.  0.
        -12    1    1    2    0    0 -0.14242794455E+02 -0.17250122947E+02 -0.33952052426E+02  0.40659141647E+02  0.00000000000E+00 0.  1.
         11    1    3    3    0    0  0.12964357040E+02  0.59691789069E+01  0.18125845045E+02  0.23070585366E+02  0.51100000000E-03 0. -1.
        -11    1    3    3    0    0 -0.18638786338E+01  0.55600244529E+01 -0.36568854498E+01  0.69109136106E+01  0.51100000000E-03 0.  1.
        -12    1    3    3    0    0  0.31423160493E+01  0.57209195869E+01  0.19483092831E+02  0.20547359376E+02  0.00000000000E+00 0.  1.
</event>
<event>
 7    1  0.1369731E-013  0.5052890E+02  0.7816164E-02  0.1300439E+00
        -11   -1    0    0    0    0  0.00000000000E+00  0.00000000000E+00  0.45593999997E+02  0.45594000000E+02  0.51100000000E-03 0. -1.
         11   -1    0    0    0    0 -0.00000000000E+00 -0.00000000000E+00 -0.45593999997E+02  0.45594000000E+02  0.51100000000E-03 0.  1.
    9900012    2    1    2    0    0  0.33754612602E+02  0.20091450262E+02  0.10493928331E+02  0.50528895517E+02  0.30000108413E+02 0.  0.
         12    1    1    2    0    0 -0.33754612602E+02 -0.20091450262E+02 -0.10493928331E+02  0.40659104483E+02  0.00000000000E+00 0. -1.
         11    1    3    3    0    0  0.89823631318E+01 -0.50546827150E+01 -0.19242020027E+01  0.10484999685E+02  0.51100000000E-03 0. -1.
        -11    1    3    3    0    0  0.12219207135E+02  0.93126197527E+01 -0.16074088510E+01  0.15447254551E+02  0.51100000000E-03 0.  1.
         12    1    3    3    0    0  0.12553042335E+02  0.15833513225E+02  0.14025539185E+02  0.24596641281E+02  0.00000000000E+00 0. -1.
</event>
<event>
 7    1  0.1565542E-013  0.5052886E+02  0.7816164E-02  0.1300439E+00
        -11   -1    0    0    0    0  0.00000000000E+00  0.00000000000E+00  0.45593999997E+02  0.45594000000E+02  0.51100000000E-03 0. -1.
         11   -1    0    0    0    0 -0.00000000000E+00 -0.00000000000E+00 -0.45593999997E+02  0.45594000000E+02  0.51100000000E-03 0.  1.
    9900012    2    1    2    0    0  0.17894371045E+00  0.23504469435E+02  0.33176397432E+02  0.50528862640E+02  0.30000008480E+02 0.  0.
        -12    1    1    2    0    0 -0.17894371045E+00 -0.23504469435E+02 -0.33176397432E+02  0.40659137360E+02  0.00000000000E+00 0.  1.
         11    1    3    3    0    0 -0.45697522763E+01  0.16948554654E+02  0.48924553259E+01  0.18222849945E+02  0.51100000000E-03 0. -1.
        -11    1    3    3    0    0  0.58670682057E+01 -0.10220621438E+01  0.49406532776E+01  0.77380330463E+01  0.51100000000E-03 0.  1.
         12    1    3    3    0    0 -0.11183722190E+01  0.75779769251E+01  0.23343288829E+02  0.24567979649E+02  0.00000000000E+00 0. -1.
</event>
<event>
 7    1  0.1369731E-013  0.5052886E+02  0.7816164E-02  0.1300439E+00
        -11   -1    0    0    0    0  0.00000000000E+00  0.00000000000E+00  0.45593999997E+02  0.45594000000E+02  0.51100000000E-03 0. -1.
         11   -1    0    0    0    0 -0.00000000000E+00 -0.00000000000E+00 -0.45593999997E+02  0.45594000000E+02  0.51100000000E-03 0.  1.
    9900012    2    1    2    0    0 -0.76303998502E+01 -0.44335695084E+01  0.39689873402E+02  0.50528860916E+02  0.30000003239E+02 0.  0.
        -12    1    1    2    0    0  0.76303998502E+01  0.44335695084E+01 -0.39689873402E+02  0.40659139084E+02  0.00000000000E+00 0.  1.
         11    1    3    3    0    0  0.41090620594E+01  0.23850536226E+01  0.12648846773E+02  0.13511705915E+02  0.51100000000E-03 0. -1.
        -11    1    3    3    0    0 -0.15593121071E+02  0.16815451855E+01  0.19459376296E+02  0.24992805866E+02  0.51100000000E-03 0.  1.
        -12    1    3    3    0    0  0.38536591616E+01 -0.85001683165E+01  0.75816503321E+01  0.12024349134E+02  0.00000000000E+00 0.  1.
</event>
<event>
 7    1  0.1369731E-013  0.5052889E+02  0.7816164E-02  0.1300439E+00
        -11   -1    0    0    0    0  0.00000000000E+00  0.00000000000E+00  0.45593999997E+02  0.45594000000E+02  0.51100000000E-03 0. -1.
         11   -1    0    0    0    0 -0.00000000000E+00 -0.00000000000E+00 -0.45593999997E+02  0.45594000000E+02  0.51100000000E-03 0.  1.
    9900012    2    1    2    0    0  0.54297532475E+01  0.14117765746E+02  0.37740824991E+02  0.50528887848E+02  0.30000085102E+02 0.  0.
        -12    1    1    2    0    0 -0.54297532475E+01 -0.14117765746E+02 -0.37740824991E+02  0.40659112152E+02  0.00000000000E+00 0.  1.
         11    1    3    3    0    0  0.77385339201E+01  0.37260827645E+01  0.32002466239E+02  0.33134973150E+02  0.51100000000E-03 0. -1.
        -11    1    3    3    0    0 -0.64903263247E+00  0.61054385835E+01 -0.35057020527E+01  0.70701888799E+01  0.51100000000E-03 0.  1.
         12    1    3    3    0    0 -0.16597480401E+01  0.42862443979E+01  0.92440608047E+01  0.10323725818E+02  0.00000000000E+00 0. -1.
</event>
<event>
 7    1  0.1369731E-013  0.5052896E+02  0.7816164E-02  0.1300438E+00
        -11   -1    0    0    0    0  0.00000000000E+00  0.00000000000E+00  0.45593999997E+02  0.45594000000E+02  0.51100000000E-03 0. -1.
         11   -1    0    0    0    0 -0.00000000000E+00 -0.00000000000E+00 -0.45593999997E+02  0.45594000000E+02  0.51100000000E-03 0.  1.
    9900012    2    1    2    0    0 -0.34174367593E+02  0.13497339619E+02 -0.17409535653E+02  0.50528960306E+02  0.30000305343E+02 0.  0.
         12    1    1    2    0    0  0.34174367593E+02 -0.13497339619E+02  0.17409535653E+02  0.40659039694E+02  0.00000000000E+00 0. -1.
         11    1    3    3    0    0  0.12399425781E+01  0.34263576652E+01 -0.69938504972E+00  0.37103266912E+01  0.51100000000E-03 0. -1.
        -11    1    3    3    0    0  0.32257241412E+01  0.20984117079E+01  0.28756206791E+00  0.38589273295E+01  0.51100000000E-03 0.  1.
        -12    1    3    3    0    0 -0.38640034313E+02  0.79725702463E+01 -0.16997712672E+02  0.42959706285E+02  0.00000000000E+00 0.  1.
</event>
<event>
 7    1  0.1369731E-013  0.5052886E+02  0.7816164E-02  0.1300439E+00
        -11   -1    0    0    0    0  0.00000000000E+00  0.00000000000E+00  0.45593999997E+02  0.45594000000E+02  0.51100000000E-03 0. -1.
         11   -1    0    0    0    0 -0.00000000000E+00 -0.00000000000E+00 -0.45593999997E+02  0.45594000000E+02  0.51100000000E-03 0.  1.
    9900012    2    1    2    0    0  0.21551320826E+02 -0.22803531791E+02 -0.25859331944E+02  0.50528861542E+02  0.30000005144E+02 0.  0.
         12    1    1    2    0    0 -0.21551320826E+02  0.22803531791E+02  0.25859331944E+02  0.40659138458E+02  0.00000000000E+00 0. -1.
         11    1    3    3    0    0  0.22916601245E+02 -0.14775195071E+02 -0.28397181045E+02  0.39368475885E+02  0.51100000000E-03 0.  1.
        -11    1    3    3    0    0  0.19938036263E+01 -0.67285387406E+01  0.27849439445E+01  0.75501257949E+01  0.51100000000E-03 0. -1.
        -12    1    3    3    0    0 -0.33590840448E+01 -0.12997979801E+01 -0.24709484391E+00  0.36102598620E+01  0.00000000000E+00 0.  1.
</event>
<event>
 7    1  0.1369731E-013  0.5052886E+02  0.7816164E-02  0.1300439E+00
        -11   -1    0    0    0    0  0.00000000000E+00  0.00000000000E+00  0.45593999997E+02  0.45594000000E+02  0.51100000000E-03 0. -1.
         11   -1    0    0    0    0 -0.00000000000E+00 -0.00000000000E+00 -0.45593999997E+02  0.45594000000E+02  0.51100000000E-03 0.  1.
    9900012    2    1    2    0    0  0.27150031876E+02  0.18440292186E+02  0.23999941650E+02  0.50528858273E+02  0.29999995208E+02 0.  0.
        -12    1    1    2    0    0 -0.27150031876E+02 -0.18440292186E+02 -0.23999941650E+02  0.40659141727E+02  0.00000000000E+00 0.  1.
         11    1    3    3    0    0  0.88435609344E+01 -0.40776726649E+01  0.10939574880E+02  0.14646169573E+02  0.51100000000E-03 0. -1.
        -11    1    3    3    0    0  0.15097157882E+02  0.20639238674E+02  0.16809797291E+02  0.30601824037E+02  0.51100000000E-03 0.  1.
        -12    1    3    3    0    0  0.32093130593E+01  0.18787261766E+01 -0.37494305207E+01  0.52808646630E+01  0.00000000000E+00 0.  1.
</event>
<event>
 7    1  0.1369731E-013  0.5052887E+02  0.7816164E-02  0.1300439E+00
        -11   -1    0    0    0    0  0.00000000000E+00  0.00000000000E+00  0.45593999997E+02  0.45594000000E+02  0.51100000000E-03 0. -1.
         11   -1    0    0    0    0 -0.00000000000E+00 -0.00000000000E+00 -0.45593999997E+02  0.45594000000E+02  0.51100000000E-03 0.  1.
    9900012    2    1    2    0    0 -0.10344805831E+02  0.37497318752E+02  0.11836439584E+02  0.50528865438E+02  0.30000016987E+02 0.  0.
        -12    1    1    2    0    0  0.10344805831E+02 -0.37497318752E+02 -0.11836439584E+02  0.40659134562E+02  0.00000000000E+00 0.  1.
         11    1    3    3    0    0 -0.81265326704E+01  0.30066479419E+02  0.14022280765E+02  0.34156376799E+02  0.51100000000E-03 0. -1.
        -11    1    3    3    0    0 -0.43327165795E+00  0.47211391861E+01 -0.82383164760E+01  0.95050901186E+01  0.51100000000E-03 0.  1.
        -12    1    3    3    0    0 -0.17850015026E+01  0.27097001470E+01  0.60524752951E+01  0.68673985212E+01  0.00000000000E+00 0.  1.
</event>
<event>
 7    1  0.1508602E-013  0.5052885E+02  0.7816164E-02  0.1300439E+00
        -11   -1    0    0    0    0  0.00000000000E+00  0.00000000000E+00  0.45593999997E+02  0.45594000000E+02  0.51100000000E-03 0. -1.
         11   -1    0    0    0    0 -0.00000000000E+00 -0.00000000000E+00 -0.45593999997E+02  0.45594000000E+02  0.51100000000E-03 0.  1.
    9900012    2    1    2    0    0  0.28247460449E+02 -0.88968336137E+01 -0.27858457425E+02  0.50528851948E+02  0.29999975982E+02 0.  0.
         12    1    1    2    0    0 -0.28247460449E+02  0.88968336137E+01  0.27858457425E+02  0.40659148052E+02  0.00000000000E+00 0. -1.
         11    1    3    3    0    0  0.50747267959E+01 -0.13491622163E+02 -0.10965326425E+02  0.18111187275E+02  0.51100000000E-03 0. -1.
        -11    1    3    3    0    0  0.20836787765E+02 -0.35396855973E+00 -0.17075929714E+02  0.26942241814E+02  0.51100000000E-03 0.  1.
         12    1    3    3    0    0  0.23359458884E+01  0.49487571091E+01  0.18279871381E+00  0.54754228593E+01  0.00000000000E+00 0. -1.
</event>
<event>
 7    1  0.1369731E-013  0.5052886E+02  0.7816164E-02  0.1300439E+00
        -11   -1    0    0    0    0  0.00000000000E+00  0.00000000000E+00  0.45593999997E+02  0.45594000000E+02  0.51100000000E-03 0. -1.
         11   -1    0    0    0    0 -0.00000000000E+00 -0.00000000000E+00 -0.45593999997E+02  0.45594000000E+02  0.51100000000E-03 0.  1.
    9900012    2    1    2    0    0 -0.14447815605E+02  0.20813867827E+01  0.37948568732E+02  0.50528863075E+02  0.30000009803E+02 0.  0.
        -12    1    1    2    0    0  0.14447815605E+02 -0.20813867827E+01 -0.37948568732E+02  0.40659136925E+02  0.00000000000E+00 0.  1.
         11    1    3    3    0    0 -0.19371154496E+02  0.62259333809E+01  0.32292741583E+02  0.38168377385E+02  0.51100000000E-03 0. -1.
        -11    1    3    3    0    0  0.16811064385E+01 -0.53361200126E+01  0.67218348965E+01  0.87454765613E+01  0.51100000000E-03 0.  1.
         12    1    3    3    0    0  0.32422324531E+01  0.11915734144E+01 -0.10660077483E+01  0.36150091288E+01  0.00000000000E+00 0. -1.
</event>
<event>
 7    1  0.1369731E-013  0.5052881E+02  0.7816164E-02  0.1300439E+00
        -11   -1    0    0    0    0  0.00000000000E+00  0.00000000000E+00  0.45593999997E+02  0.45594000000E+02  0.51100000000E-03 0. -1.
         11   -1    0    0    0    0 -0.00000000000E+00 -0.00000000000E+00 -0.45593999997E+02  0.45594000000E+02  0.51100000000E-03 0.  1.
    9900012    2    1    2    0    0  0.11350220513E+02 -0.23820473757E+02  0.30934236888E+02  0.50528812999E+02  0.29999857592E+02 0.  0.
        -12    1    1    2    0    0 -0.11350220513E+02  0.23820473757E+02 -0.30934236888E+02  0.40659187001E+02  0.00000000000E+00 0.  1.
         11    1    3    3    0    0 -0.17734713532E+00  0.46668270839E+01  0.39161071430E+01  0.60948029052E+01  0.51100000000E-03 0.  1.
        -11    1    3    3    0    0  0.14604509680E+02 -0.26862369252E+02  0.27236387938E+02  0.40947520230E+02  0.51100000000E-03 0. -1.
        -12    1    3    3    0    0 -0.30769420313E+01 -0.16249315889E+01 -0.21825819306E+00  0.34864898639E+01  0.00000000000E+00 0.  1.
</event>
<event>
 7    1  0.1369731E-013  0.5052874E+02  0.7816164E-02  0.1300439E+00
        -11   -1    0    0    0    0  0.00000000000E+00  0.00000000000E+00  0.45593999997E+02  0.45594000000E+02  0.51100000000E-03 0. -1.
         11   -1    0    0    0    0 -0.00000000000E+00 -0.00000000000E+00 -0.45593999997E+02  0.45594000000E+02  0.51100000000E-03 0.  1.
    9900012    2    1    2    0    0  0.10539034589E+02 -0.18041745279E+02 -0.34879793401E+02  0.50528735244E+02  0.29999621246E+02 0.  0.
         12    1    1    2    0    0 -0.10539034589E+02  0.18041745279E+02  0.34879793401E+02  0.40659264756E+02  0.00000000000E+00 0. -1.
         11    1    3    3    0    0 -0.17900829036E+01  0.10557534113E+01  0.13581586633E+01  0.24826613308E+01  0.51100000000E-03 0. -1.
        -11    1    3    3    0    0  0.15268557386E+02 -0.91268846464E+01 -0.32406254418E+02  0.36967474808E+02  0.51100000000E-03 0.  1.
        -12    1    3    3    0    0 -0.29394398932E+01 -0.99706140437E+01 -0.38316976464E+01  0.11078599106E+02  0.00000000000E+00 0.  1.
</event>
<event>
 7    1  0.1369731E-013  0.5052887E+02  0.7816164E-02  0.1300439E+00
        -11   -1    0    0    0    0  0.00000000000E+00  0.00000000000E+00  0.45593999997E+02  0.45594000000E+02  0.51100000000E-03 0. -1.
         11   -1    0    0    0    0 -0.00000000000E+00 -0.00000000000E+00 -0.45593999997E+02  0.45594000000E+02  0.51100000000E-03 0.  1.
    9900012    2    1    2    0    0  0.13246209414E+02  0.18012420960E+02  0.33959620802E+02  0.50528865508E+02  0.30000017198E+02 0.  0.
        -12    1    1    2    0    0 -0.13246209414E+02 -0.18012420960E+02 -0.33959620802E+02  0.40659134492E+02  0.00000000000E+00 0.  1.
         11    1    3    3    0    0  0.52466684068E+01 -0.74112791265E+01  0.98946492252E+01  0.13429768100E+02  0.51100000000E-03 0. -1.
        -11    1    3    3    0    0  0.70376819409E+01  0.15763902472E+02  0.98205585060E+01  0.19861343305E+02  0.51100000000E-03 0.  1.
         12    1    3    3    0    0  0.96185906614E+00  0.96597976145E+01  0.14244413070E+02  0.17237754104E+02  0.00000000000E+00 0. -1.
</event>
<event>
 7    1  0.1369731E-013  0.5052886E+02  0.7816164E-02  0.1300439E+00
        -11   -1    0    0    0    0  0.00000000000E+00  0.00000000000E+00  0.45593999997E+02  0.45594000000E+02  0.51100000000E-03 0. -1.
         11   -1    0    0    0    0 -0.00000000000E+00 -0.00000000000E+00 -0.45593999997E+02  0.45594000000E+02  0.51100000000E-03 0.  1.
    9900012    2    1    2    0    0  0.15840690765E+01 -0.10858037801E+02  0.39150472148E+02  0.50528859218E+02  0.29999998078E+02 0.  0.
        -12    1    1    2    0    0 -0.15840690765E+01  0.10858037801E+02 -0.39150472148E+02  0.40659140782E+02  0.00000000000E+00 0.  1.
         11    1    3    3    0    0 -0.43916856121E+01  0.44770368143E+01  0.19989738405E+02  0.20950427272E+02  0.51100000000E-03 0. -1.
        -11    1    3    3    0    0  0.62592260726E+01 -0.17407155624E+02  0.20072997726E+02  0.27296743687E+02  0.51100000000E-03 0.  1.
        -12    1    3    3    0    0 -0.28347138402E+00  0.20720810092E+01 -0.91226398212E+00  0.22816882581E+01  0.00000000000E+00 0.  1.
</event>
<event>
 7    1  0.1369731E-013  0.5052885E+02  0.7816164E-02  0.1300439E+00
        -11   -1    0    0    0    0  0.00000000000E+00  0.00000000000E+00  0.45593999997E+02  0.45594000000E+02  0.51100000000E-03 0. -1.
         11   -1    0    0    0    0 -0.00000000000E+00 -0.00000000000E+00 -0.45593999997E+02  0.45594000000E+02  0.51100000000E-03 0.  1.
    9900012    2    1    2    0    0  0.11327636671E+02  0.51463835418E+01 -0.38708731597E+02  0.50528849518E+02  0.29999968594E+02 0.  0.
         12    1    1    2    0    0 -0.11327636671E+02 -0.51463835418E+01  0.38708731597E+02  0.40659150482E+02  0.00000000000E+00 0. -1.
         11    1    3    3    0    0  0.33381533776E+01  0.16541120367E+02 -0.14045539850E+02  0.21955161600E+02  0.51100000000E-03 0. -1.
        -11    1    3    3    0    0  0.12077996205E+01 -0.26469893318E+01 -0.84970627955E+01  0.89813923674E+01  0.51100000000E-03 0.  1.
         12    1    3    3    0    0  0.67816836726E+01 -0.87477474931E+01 -0.16166128952E+02  0.19592295550E+02  0.00000000000E+00 0. -1.
</event>
<event>
 7    1  0.1369731E-013  0.5052883E+02  0.7816164E-02  0.1300439E+00
        -11   -1    0    0    0    0  0.00000000000E+00  0.00000000000E+00  0.45593999997E+02  0.45594000000E+02  0.51100000000E-03 0. -1.
         11   -1    0    0    0    0 -0.00000000000E+00 -0.00000000000E+00 -0.45593999997E+02  0.45594000000E+02  0.51100000000E-03 0.  1.
    9900012    2    1    2    0    0 -0.56215262333E+01 -0.15245637090E+02 -0.37271134973E+02  0.50528825024E+02  0.29999894144E+02 0.  0.
         12    1    1    2    0    0  0.56215262333E+01  0.15245637090E+02  0.37271134973E+02  0.40659174976E+02  0.00000000000E+00 0. -1.
         11    1    3    3    0    0  0.20332858202E+01 -0.66963594361E+01  0.36742755515E+01  0.79041623220E+01  0.51100000000E-03 0. -1.
        -11    1    3    3    0    0 -0.47932423799E+01 -0.42503651207E+01 -0.27115980661E+02  0.27862469087E+02  0.51100000000E-03 0.  1.
         12    1    3    3    0    0 -0.28615696736E+01 -0.42989125336E+01 -0.13829429864E+02  0.14762193615E+02  0.00000000000E+00 0. -1.
</event>
<event>
 7    1  0.1369731E-013  0.5052886E+02  0.7816164E-02  0.1300439E+00
        -11   -1    0    0    0    0  0.00000000000E+00  0.00000000000E+00  0.45593999997E+02  0.45594000000E+02  0.51100000000E-03 0. -1.
         11   -1    0    0    0    0 -0.00000000000E+00 -0.00000000000E+00 -0.45593999997E+02  0.45594000000E+02  0.51100000000E-03 0.  1.
    9900012    2    1    2    0    0  0.93909933611E+01  0.10469489560E+02  0.38149243391E+02  0.50528859093E+02  0.29999997699E+02 0.  0.
        -12    1    1    2    0    0 -0.93909933611E+01 -0.10469489560E+02 -0.38149243391E+02  0.40659140907E+02  0.00000000000E+00 0.  1.
         11    1    3    3    0    0  0.64746144182E+01 -0.19747297759E+00  0.37521318726E+01  0.74858614262E+01  0.51100000000E-03 0. -1.
        -11    1    3    3    0    0 -0.65507548362E+01 -0.43621525786E+01  0.79671157589E+01  0.11198915029E+02  0.51100000000E-03 0.  1.
        -12    1    3    3    0    0  0.94671337791E+01  0.15029115117E+02  0.26429995760E+02  0.31844082638E+02  0.00000000000E+00 0.  1.
</event>
<event>
 7    1  0.1369731E-013  0.5052888E+02  0.7816164E-02  0.1300439E+00
        -11   -1    0    0    0    0  0.00000000000E+00  0.00000000000E+00  0.45593999997E+02  0.45594000000E+02  0.51100000000E-03 0. -1.
         11   -1    0    0    0    0 -0.00000000000E+00 -0.00000000000E+00 -0.45593999997E+02  0.45594000000E+02  0.51100000000E-03 0.  1.
    9900012    2    1    2    0    0 -0.26443397956E+02 -0.15789052435E+02 -0.26544616929E+02  0.50528878512E+02  0.30000056724E+02 0.  0.
         12    1    1    2    0    0  0.26443397956E+02  0.15789052435E+02  0.26544616929E+02  0.40659121488E+02  0.00000000000E+00 0. -1.
         11    1    3    3    0    0 -0.60643764409E+00  0.78118220066E+00 -0.28737120098E+01  0.30391171782E+01  0.51100000000E-03 0. -1.
        -11    1    3    3    0    0 -0.16282566894E+02 -0.47435060453E+01 -0.27038745900E+02  0.31917340340E+02  0.51100000000E-03 0.  1.
        -12    1    3    3    0    0 -0.95543934176E+01 -0.11826728591E+02  0.33678409803E+01  0.15572420994E+02  0.00000000000E+00 0.  1.
</event>
<event>
 7    1  0.1369731E-013  0.5052887E+02  0.7816164E-02  0.1300439E+00
        -11   -1    0    0    0    0  0.00000000000E+00  0.00000000000E+00  0.45593999997E+02  0.45594000000E+02  0.51100000000E-03 0. -1.
         11   -1    0    0    0    0 -0.00000000000E+00 -0.00000000000E+00 -0.45593999997E+02  0.45594000000E+02  0.51100000000E-03 0.  1.
    9900012    2    1    2    0    0 -0.67581027740E+00 -0.22656069291E+02 -0.33755157992E+02  0.50528869583E+02  0.30000029584E+02 0.  0.
         12    1    1    2    0    0  0.67581027740E+00  0.22656069291E+02  0.33755157992E+02  0.40659130417E+02  0.00000000000E+00 0. -1.
         11    1    3    3    0    0  0.11117580268E+01  0.46228129496E+01 -0.16483435780E+02  0.17155467375E+02  0.51100000000E-03 0. -1.
        -11    1    3    3    0    0  0.26584030863E+01 -0.55232945813E+01 -0.20977796333E+01  0.64787784074E+01  0.51100000000E-03 0.  1.
         12    1    3    3    0    0 -0.44459713905E+01 -0.21755587659E+02 -0.15173942578E+02  0.26894623800E+02  0.00000000000E+00 0. -1.
</event>
<event>
 7    1  0.1369731E-013  0.5052889E+02  0.7816164E-02  0.1300439E+00
        -11   -1    0    0    0    0  0.00000000000E+00  0.00000000000E+00  0.45593999997E+02  0.45594000000E+02  0.51100000000E-03 0. -1.
         11   -1    0    0    0    0 -0.00000000000E+00 -0.00000000000E+00 -0.45593999997E+02  0.45594000000E+02  0.51100000000E-03 0.  1.
    9900012    2    1    2    0    0 -0.18445117639E+02  0.81495411171E+01  0.35306173985E+02  0.50528889009E+02  0.30000088632E+02 0.  0.
        -12    1    1    2    0    0  0.18445117639E+02 -0.81495411171E+01 -0.35306173985E+02  0.40659110991E+02  0.00000000000E+00 0.  1.
         11    1    3    3    0    0 -0.11945155989E+02  0.25644246344E+01  0.16432285079E+02  0.20476401502E+02  0.51100000000E-03 0. -1.
        -11    1    3    3    0    0 -0.12532770215E+01  0.10415897623E+02  0.68271064874E+00  0.10513216476E+02  0.51100000000E-03 0.  1.
        -12    1    3    3    0    0 -0.52466846288E+01 -0.48307811404E+01  0.18191178257E+02  0.19539271031E+02  0.00000000000E+00 0.  1.
</event>
<event>
 7    1  0.1369731E-013  0.5052887E+02  0.7816164E-02  0.1300439E+00
        -11   -1    0    0    0    0  0.00000000000E+00  0.00000000000E+00  0.45593999997E+02  0.45594000000E+02  0.51100000000E-03 0. -1.
         11   -1    0    0    0    0 -0.00000000000E+00 -0.00000000000E+00 -0.45593999997E+02  0.45594000000E+02  0.51100000000E-03 0.  1.
    9900012    2    1    2    0    0  0.16748928444E+02 -0.25121961976E+02  0.27230965442E+02  0.50528867490E+02  0.30000023223E+02 0.  0.
        -12    1    1    2    0    0 -0.16748928444E+02  0.25121961976E+02 -0.27230965442E+02  0.40659132510E+02  0.00000000000E+00 0.  1.
         11    1    3    3    0    0 -0.19925467214E+01 -0.96082286968E+01  0.22534158213E+02  0.24577969561E+02  0.51100000000E-03 0. -1.
        -11    1    3    3    0    0  0.17456378896E+02 -0.11090764489E+02  0.51778914104E+01  0.21319962027E+02  0.51100000000E-03 0.  1.
        -12    1    3    3    0    0  0.12850962691E+01 -0.44229687904E+01 -0.48108418099E+00  0.46309359023E+01  0.00000000000E+00 0.  1.
</event>
<event>
 7    1  0.1369731E-013  0.5052887E+02  0.7816164E-02  0.1300439E+00
        -11   -1    0    0    0    0  0.00000000000E+00  0.00000000000E+00  0.45593999997E+02  0.45594000000E+02  0.51100000000E-03 0. -1.
         11   -1    0    0    0    0 -0.00000000000E+00 -0.00000000000E+00 -0.45593999997E+02  0.45594000000E+02  0.51100000000E-03 0.  1.
    9900012    2    1    2    0    0  0.10339403475E+02 -0.17578454280E+02 -0.35174703236E+02  0.50528867362E+02  0.30000022835E+02 0.  0.
         12    1    1    2    0    0 -0.10339403475E+02  0.17578454280E+02  0.35174703236E+02  0.40659132638E+02  0.00000000000E+00 0. -1.
         11    1    3    3    0    0  0.29461078143E+01  0.43184411646E+01 -0.15061265949E+02  0.15942716757E+02  0.51100000000E-03 0. -1.
        -11    1    3    3    0    0 -0.36734784497E+00 -0.19525724739E+02 -0.17009044924E+02  0.25897808411E+02  0.51100000000E-03 0.  1.
        -12    1    3    3    0    0  0.77606435057E+01 -0.23711707063E+01 -0.31043923625E+01  0.86883421941E+01  0.00000000000E+00 0.  1.
</event>
<event>
 7    1  0.1369731E-013  0.5052886E+02  0.7816164E-02  0.1300439E+00
        -11   -1    0    0    0    0  0.00000000000E+00  0.00000000000E+00  0.45593999997E+02  0.45594000000E+02  0.51100000000E-03 0. -1.
         11   -1    0    0    0    0 -0.00000000000E+00 -0.00000000000E+00 -0.45593999997E+02  0.45594000000E+02  0.51100000000E-03 0.  1.
    9900012    2    1    2    0    0 -0.69070984256E+01  0.35598011762E+02  0.18391283434E+02  0.50528858882E+02  0.29999997058E+02 0.  0.
        -12    1    1    2    0    0  0.69070984256E+01 -0.35598011762E+02 -0.18391283434E+02  0.40659141118E+02  0.00000000000E+00 0.  1.
         11    1    3    3    0    0 -0.84290194809E+01  0.32675274644E+02  0.54049364189E+01  0.34175068111E+02  0.51100000000E-03 0. -1.
        -11    1    3    3    0    0  0.23902828098E+01 -0.33344150102E+00 -0.48983379873E+00  0.24626352871E+01  0.51100000000E-03 0.  1.
         12    1    3    3    0    0 -0.86836175454E+00  0.32561786194E+01  0.13476180814E+02  0.13891155484E+02  0.00000000000E+00 0. -1.
</event>
<event>
 7    1  0.1369731E-013  0.5052882E+02  0.7816164E-02  0.1300439E+00
        -11   -1    0    0    0    0  0.00000000000E+00  0.00000000000E+00  0.45593999997E+02  0.45594000000E+02  0.51100000000E-03 0. -1.
         11   -1    0    0    0    0 -0.00000000000E+00 -0.00000000000E+00 -0.45593999997E+02  0.45594000000E+02  0.51100000000E-03 0.  1.
    9900012    2    1    2    0    0  0.30909536401E+00  0.10355876765E+02  0.39317035989E+02  0.50528818473E+02  0.29999874230E+02 0.  0.
        -12    1    1    2    0    0 -0.30909536401E+00 -0.10355876765E+02 -0.39317035989E+02  0.40659181527E+02  0.00000000000E+00 0.  1.
         11    1    3    3    0    0 -0.11242444626E+02  0.66711618354E+01  0.26811089674E+02  0.29828367223E+02  0.51100000000E-03 0. -1.
        -11    1    3    3    0    0  0.69585483634E+01  0.81155771820E+00 -0.71228274629E-01  0.70060755765E+01  0.51100000000E-03 0.  1.
         12    1    3    3    0    0  0.45929916266E+01  0.28731572113E+01  0.12577174589E+02  0.13694375674E+02  0.00000000000E+00 0. -1.
</event>
<event>
 7    1  0.1369731E-013  0.5052887E+02  0.7816164E-02  0.1300439E+00
        -11   -1    0    0    0    0  0.00000000000E+00  0.00000000000E+00  0.45593999997E+02  0.45594000000E+02  0.51100000000E-03 0. -1.
         11   -1    0    0    0    0 -0.00000000000E+00 -0.00000000000E+00 -0.45593999997E+02  0.45594000000E+02  0.51100000000E-03 0.  1.
    9900012    2    1    2    0    0  0.13507591735E+02  0.15178590591E+02  0.35218178820E+02  0.50528871059E+02  0.30000034072E+02 0.  0.
        -12    1    1    2    0    0 -0.13507591735E+02 -0.15178590591E+02 -0.35218178820E+02  0.40659128941E+02  0.00000000000E+00 0.  1.
         11    1    3    3    0    0  0.56034007547E+01  0.17955443662E+02  0.12355702505E+02  0.22504653780E+02  0.51100000000E-03 0. -1.
        -11    1    3    3    0    0  0.11928770908E+02 -0.18645590658E+01  0.16685383213E+02  0.20595489048E+02  0.51100000000E-03 0.  1.
        -12    1    3    3    0    0 -0.40245799275E+01 -0.91229400565E+00  0.61770931018E+01  0.74287282312E+01  0.00000000000E+00 0.  1.
</event>
<event>
 7    1  0.1949967E-013  0.5052887E+02  0.7816164E-02  0.1300439E+00
        -11   -1    0    0    0    0  0.00000000000E+00  0.00000000000E+00  0.45593999997E+02  0.45594000000E+02  0.51100000000E-03 0. -1.
         11   -1    0    0    0    0 -0.00000000000E+00 -0.00000000000E+00 -0.45593999997E+02  0.45594000000E+02  0.51100000000E-03 0.  1.
    9900012    2    1    2    0    0  0.95681041197E+01 -0.16512988027E+02  0.35901776790E+02  0.50528868594E+02  0.30000026577E+02 0.  0.
        -12    1    1    2    0    0 -0.95681041197E+01  0.16512988027E+02 -0.35901776790E+02  0.40659131406E+02  0.00000000000E+00 0.  1.
         11    1    3    3    0    0  0.15419525047E+01 -0.18575135103E+02  0.28490453387E+02  0.34045839630E+02  0.51100000000E-03 0. -1.
        -11    1    3    3    0    0  0.43610634404E+01 -0.31361778754E+01 -0.14606156778E+01  0.55666762450E+01  0.51100000000E-03 0.  1.
         12    1    3    3    0    0  0.36650881747E+01  0.51983249516E+01  0.88719390804E+01  0.10916352719E+02  0.00000000000E+00 0. -1.
</event>
<event>
 7    1  0.1369731E-013  0.5052885E+02  0.7816164E-02  0.1300439E+00
        -11   -1    0    0    0    0  0.00000000000E+00  0.00000000000E+00  0.45593999997E+02  0.45594000000E+02  0.51100000000E-03 0. -1.
         11   -1    0    0    0    0 -0.00000000000E+00 -0.00000000000E+00 -0.45593999997E+02  0.45594000000E+02  0.51100000000E-03 0.  1.
    9900012    2    1    2    0    0  0.17390197012E+02  0.14059448494E+02 -0.33957018018E+02  0.50528854452E+02  0.29999983591E+02 0.  0.
         12    1    1    2    0    0 -0.17390197012E+02 -0.14059448494E+02  0.33957018018E+02  0.40659145548E+02  0.00000000000E+00 0. -1.
         11    1    3    3    0    0 -0.29857434726E+01 -0.37714653146E+01 -0.19616468906E+01  0.51948699202E+01  0.51100000000E-03 0. -1.
        -11    1    3    3    0    0  0.22319216020E+02  0.19390765787E+02 -0.30195086704E+02  0.42259820905E+02  0.51100000000E-03 0.  1.
        -12    1    3    3    0    0 -0.19432755356E+01 -0.15598519783E+01 -0.18002844225E+01  0.30741636266E+01  0.00000000000E+00 0.  1.
</event>
<event>
 7    1  0.1369731E-013  0.5052881E+02  0.7816164E-02  0.1300439E+00
        -11   -1    0    0    0    0  0.00000000000E+00  0.00000000000E+00  0.45593999997E+02  0.45594000000E+02  0.51100000000E-03 0. -1.
         11   -1    0    0    0    0 -0.00000000000E+00 -0.00000000000E+00 -0.45593999997E+02  0.45594000000E+02  0.51100000000E-03 0.  1.
    9900012    2    1    2    0    0  0.97502393609E+01 -0.23413299515E+02  0.31779233530E+02  0.50528813516E+02  0.29999859164E+02 0.  0.
        -12    1    1    2    0    0 -0.97502393609E+01  0.23413299515E+02 -0.31779233530E+02  0.40659186484E+02  0.00000000000E+00 0.  1.
         11    1    3    3    0    0 -0.55684890000E+00 -0.32021900792E-01  0.55247212029E-01  0.56049854158E+00  0.51100000000E-03 0. -1.
        -11    1    3    3    0    0 -0.49526743754E+01 -0.11035360851E+02  0.27282272056E+02  0.29843433807E+02  0.51100000000E-03 0.  1.
        -12    1    3    3    0    0  0.15259762636E+02 -0.12345916763E+02  0.44417142616E+01  0.20124881168E+02  0.00000000000E+00 0.  1.
</event>
<event>
 7    1  0.1369731E-013  0.5052886E+02  0.7816164E-02  0.1300439E+00
        -11   -1    0    0    0    0  0.00000000000E+00  0.00000000000E+00  0.45593999997E+02  0.45594000000E+02  0.51100000000E-03 0. -1.
         11   -1    0    0    0    0 -0.00000000000E+00 -0.00000000000E+00 -0.45593999997E+02  0.45594000000E+02  0.51100000000E-03 0.  1.
    9900012    2    1    2    0    0  0.10999184896E+02 -0.83911581219E+00  0.39134123356E+02  0.50528858413E+02  0.29999995633E+02 0.  0.
        -12    1    1    2    0    0 -0.10999184896E+02  0.83911581219E+00 -0.39134123356E+02  0.40659141587E+02  0.00000000000E+00 0.  1.
         11    1    3    3    0    0  0.18508247052E+02 -0.82895582435E+01  0.29678603711E+02  0.35945674334E+02  0.51100000000E-03 0. -1.
        -11    1    3    3    0    0 -0.27600752739E+01  0.44364175862E+01  0.30154337233E+01  0.60326327020E+01  0.51100000000E-03 0.  1.
         12    1    3    3    0    0 -0.47489868825E+01  0.30140248452E+01  0.64400859213E+01  0.85505513770E+01  0.00000000000E+00 0. -1.
</event>
<event>
 7    1  0.1369731E-013  0.5052886E+02  0.7816164E-02  0.1300439E+00
        -11   -1    0    0    0    0  0.00000000000E+00  0.00000000000E+00  0.45593999997E+02  0.45594000000E+02  0.51100000000E-03 0.  1.
         11   -1    0    0    0    0 -0.00000000000E+00 -0.00000000000E+00 -0.45593999997E+02  0.45594000000E+02  0.51100000000E-03 0. -1.
    9900012    2    1    2    0    0  0.23058424028E+01  0.38665779242E+02 -0.12361473377E+02  0.50528863049E+02  0.30000009722E+02 0.  0.
         12    1    1    2    0    0 -0.23058424028E+01 -0.38665779242E+02  0.12361473377E+02  0.40659136951E+02  0.00000000000E+00 0. -1.
         11    1    3    3    0    0 -0.34408317155E+00  0.23738946221E+02 -0.10713189237E+02  0.26046657843E+02  0.51100000000E-03 0. -1.
        -11    1    3    3    0    0  0.70466111598E+01  0.15574113841E+02  0.37392423742E+01  0.17498276617E+02  0.51100000000E-03 0.  1.
         12    1    3    3    0    0 -0.43966855855E+01 -0.64728081931E+00 -0.53875265138E+01  0.69839285888E+01  0.00000000000E+00 0. -1.
</event>
<event>
 7    1  0.1369731E-013  0.5052885E+02  0.7816164E-02  0.1300439E+00
        -11   -1    0    0    0    0  0.00000000000E+00  0.00000000000E+00  0.45593999997E+02  0.45594000000E+02  0.51100000000E-03 0. -1.
         11   -1    0    0    0    0 -0.00000000000E+00 -0.00000000000E+00 -0.45593999997E+02  0.45594000000E+02  0.51100000000E-03 0.  1.
    9900012    2    1    2    0    0  0.26564084174E+02  0.11397398382E+02  0.28593966309E+02  0.50528853832E+02  0.29999981707E+02 0.  0.
        -12    1    1    2    0    0 -0.26564084174E+02 -0.11397398382E+02 -0.28593966309E+02  0.40659146168E+02  0.00000000000E+00 0.  1.
         11    1    3    3    0    0  0.16451698600E+02  0.51084223103E+01  0.30555152733E+02  0.35076654973E+02  0.51100000000E-03 0. -1.
        -11    1    3    3    0    0  0.61442917694E+01  0.65732771775E+01 -0.51377487343E+01  0.10361310560E+02  0.51100000000E-03 0.  1.
        -12    1    3    3    0    0  0.39680938044E+01 -0.28430110561E+00  0.31765623105E+01  0.50908882989E+01  0.00000000000E+00 0.  1.
</event>
<event>
 7    1  0.1369731E-013  0.5052885E+02  0.7816164E-02  0.1300439E+00
        -11   -1    0    0    0    0  0.00000000000E+00  0.00000000000E+00  0.45593999997E+02  0.45594000000E+02  0.51100000000E-03 0. -1.
         11   -1    0    0    0    0 -0.00000000000E+00 -0.00000000000E+00 -0.45593999997E+02  0.45594000000E+02  0.51100000000E-03 0.  1.
    9900012    2    1    2    0    0  0.31431068993E+02 -0.20788184362E+02 -0.15267796208E+02  0.50528852098E+02  0.29999976436E+02 0.  0.
         12    1    1    2    0    0 -0.31431068993E+02  0.20788184362E+02  0.15267796208E+02  0.40659147902E+02  0.00000000000E+00 0. -1.
         11    1    3    3    0    0 -0.49169236163E+01 -0.18672322479E+00 -0.25597356606E+01  0.55464628660E+01  0.51100000000E-03 0. -1.
        -11    1    3    3    0    0  0.17528843954E+02 -0.14468028787E+02 -0.29653464716E+01  0.22921114879E+02  0.51100000000E-03 0.  1.
         12    1    3    3    0    0  0.18819148655E+02 -0.61334323497E+01 -0.97427140754E+01  0.22061274353E+02  0.00000000000E+00 0. -1.
</event>
<event>
 7    1  0.1369731E-013  0.5052886E+02  0.7816164E-02  0.1300439E+00
        -11   -1    0    0    0    0  0.00000000000E+00  0.00000000000E+00  0.45593999997E+02  0.45594000000E+02  0.51100000000E-03 0. -1.
         11   -1    0    0    0    0 -0.00000000000E+00 -0.00000000000E+00 -0.45593999997E+02  0.45594000000E+02  0.51100000000E-03 0.  1.
    9900012    2    1    2    0    0  0.32668067102E+02  0.78199483870E+01  0.22908761822E+02  0.50528861185E+02  0.30000004058E+02 0.  0.
        -12    1    1    2    0    0 -0.32668067102E+02 -0.78199483870E+01 -0.22908761822E+02  0.40659138815E+02  0.00000000000E+00 0.  1.
         11    1    3    3    0    0  0.20123355452E+02  0.38471866630E+01  0.17315664341E+02  0.26825035167E+02  0.51100000000E-03 0. -1.
        -11    1    3    3    0    0 -0.39855359601E+01 -0.84486667691E+00  0.50349521141E+01  0.64768078282E+01  0.51100000000E-03 0.  1.
        -12    1    3    3    0    0  0.16530247610E+02  0.48176284010E+01  0.55814536704E+00  0.17227018190E+02  0.00000000000E+00 0.  1.
</event>
<event>
 7    1  0.1369731E-013  0.5052887E+02  0.7816164E-02  0.1300439E+00
        -11   -1    0    0    0    0  0.00000000000E+00  0.00000000000E+00  0.45593999997E+02  0.45594000000E+02  0.51100000000E-03 0. -1.
         11   -1    0    0    0    0 -0.00000000000E+00 -0.00000000000E+00 -0.45593999997E+02  0.45594000000E+02  0.51100000000E-03 0.  1.
    9900012    2    1    2    0    0 -0.31298221361E+02 -0.12084943581E+02  0.22968247636E+02  0.50528869154E+02  0.30000028280E+02 0.  0.
        -12    1    1    2    0    0  0.31298221361E+02  0.12084943581E+02 -0.22968247636E+02  0.40659130846E+02  0.00000000000E+00 0.  1.
         11    1    3    3    0    0 -0.11693464953E+02 -0.17771185913E+02  0.49266211430E+01  0.21836294729E+02  0.51100000000E-03 0. -1.
        -11    1    3    3    0    0 -0.68456168190E+01  0.60546531888E+01  0.48896632435E+01  0.10364849336E+02  0.51100000000E-03 0.  1.
         12    1    3    3    0    0 -0.12759139589E+02 -0.36841085648E+00  0.13151963249E+02  0.18327725088E+02  0.00000000000E+00 0. -1.
</event>
<event>
 7    1  0.1369731E-013  0.5052886E+02  0.7816164E-02  0.1300439E+00
        -11   -1    0    0    0    0  0.00000000000E+00  0.00000000000E+00  0.45593999997E+02  0.45594000000E+02  0.51100000000E-03 0. -1.
         11   -1    0    0    0    0 -0.00000000000E+00 -0.00000000000E+00 -0.45593999997E+02  0.45594000000E+02  0.51100000000E-03 0.  1.
    9900012    2    1    2    0    0 -0.14086102912E+02 -0.12298398215E+02 -0.36103973894E+02  0.50528858041E+02  0.29999994500E+02 0.  0.
         12    1    1    2    0    0  0.14086102912E+02  0.12298398215E+02  0.36103973894E+02  0.40659141959E+02  0.00000000000E+00 0. -1.
         11    1    3    3    0    0  0.54043755943E+01 -0.11438353892E+01 -0.20694570251E+02  0.21419170692E+02  0.51100000000E-03 0. -1.
        -11    1    3    3    0    0 -0.27766910225E+01 -0.55386105879E+01 -0.87058292613E+00  0.62565274052E+01  0.51100000000E-03 0.  1.
         12    1    3    3    0    0 -0.16713787484E+02 -0.56159522383E+01 -0.14538820717E+02  0.22853159944E+02  0.00000000000E+00 0. -1.
</event>
<event>
 7    1  0.1369731E-013  0.5052887E+02  0.7816164E-02  0.1300439E+00
        -11   -1    0    0    0    0  0.00000000000E+00  0.00000000000E+00  0.45593999997E+02  0.45594000000E+02  0.51100000000E-03 0. -1.
         11   -1    0    0    0    0 -0.00000000000E+00 -0.00000000000E+00 -0.45593999997E+02  0.45594000000E+02  0.51100000000E-03 0.  1.
    9900012    2    1    2    0    0  0.33786597765E+02  0.66723459477E+01  0.21612740418E+02  0.50528868955E+02  0.30000027675E+02 0.  0.
        -12    1    1    2    0    0 -0.33786597765E+02 -0.66723459477E+01 -0.21612740418E+02  0.40659131045E+02  0.00000000000E+00 0.  1.
         11    1    3    3    0    0  0.66002870032E+01  0.52782195325E+01  0.17047755402E+02  0.19027594553E+02  0.51100000000E-03 0. -1.
        -11    1    3    3    0    0  0.18356539206E+02  0.39236472919E+01 -0.37148332338E+01  0.19135243032E+02  0.51100000000E-03 0.  1.
        -12    1    3    3    0    0  0.88297715557E+01 -0.25295208767E+01  0.82798182499E+01  0.12366031370E+02  0.00000000000E+00 0.  1.
</event>
<event>
 7    1  0.1369731E-013  0.5052886E+02  0.7816164E-02  0.1300439E+00
        -11   -1    0    0    0    0  0.00000000000E+00  0.00000000000E+00  0.45593999997E+02  0.45594000000E+02  0.51100000000E-03 0. -1.
         11   -1    0    0    0    0 -0.00000000000E+00 -0.00000000000E+00 -0.45593999997E+02  0.45594000000E+02  0.51100000000E-03 0.  1.
    9900012    2    1    2    0    0 -0.27161083344E+02  0.27325086988E+02 -0.12991571472E+02  0.50528858880E+02  0.29999997051E+02 0.  0.
         12    1    1    2    0    0  0.27161083344E+02 -0.27325086988E+02  0.12991571472E+02  0.40659141120E+02  0.00000000000E+00 0. -1.
         11    1    3    3    0    0 -0.33344863477E+01 -0.15268462625E+01  0.59761469976E+00  0.37158043951E+01  0.51100000000E-03 0. -1.
        -11    1    3    3    0    0 -0.23476477081E+01  0.13773230789E+02 -0.15041593903E+02  0.20529561211E+02  0.51100000000E-03 0.  1.
        -12    1    3    3    0    0 -0.21478949288E+02  0.15078702462E+02  0.14524077305E+01  0.26283493274E+02  0.00000000000E+00 0.  1.
</event>
<event>
 7    1  0.1369731E-013  0.5052886E+02  0.7816164E-02  0.1300439E+00
        -11   -1    0    0    0    0  0.00000000000E+00  0.00000000000E+00  0.45593999997E+02  0.45594000000E+02  0.51100000000E-03 0.  1.
         11   -1    0    0    0    0 -0.00000000000E+00 -0.00000000000E+00 -0.45593999997E+02  0.45594000000E+02  0.51100000000E-03 0. -1.
    9900012    2    1    2    0    0 -0.24246982471E+02 -0.31198240729E+02  0.95874400626E+01  0.50528863382E+02  0.30000010737E+02 0.  0.
        -12    1    1    2    0    0  0.24246982471E+02  0.31198240729E+02 -0.95874400626E+01  0.40659136618E+02  0.00000000000E+00 0.  1.
         11    1    3    3    0    0  0.21314421617E+01 -0.12555044383E+02  0.60380202759E+01  0.14093611115E+02  0.51100000000E-03 0. -1.
        -11    1    3    3    0    0 -0.20012278936E+02 -0.14506800256E+02  0.98121373326E+01  0.26593544352E+02  0.51100000000E-03 0.  1.
         12    1    3    3    0    0 -0.63661456967E+01 -0.41363960903E+01 -0.62627175458E+01  0.98417079161E+01  0.00000000000E+00 0. -1.
</event>
<event>
 7    1  0.1369731E-013  0.5052886E+02  0.7816164E-02  0.1300439E+00
        -11   -1    0    0    0    0  0.00000000000E+00  0.00000000000E+00  0.45593999997E+02  0.45594000000E+02  0.51100000000E-03 0. -1.
         11   -1    0    0    0    0 -0.00000000000E+00 -0.00000000000E+00 -0.45593999997E+02  0.45594000000E+02  0.51100000000E-03 0.  1.
    9900012    2    1    2    0    0 -0.17789502522E+02 -0.23038525543E+02  0.28388822879E+02  0.50528864205E+02  0.30000013238E+02 0.  0.
        -12    1    1    2    0    0  0.17789502522E+02  0.23038525543E+02 -0.28388822879E+02  0.40659135795E+02  0.00000000000E+00 0.  1.
         11    1    3    3    0    0 -0.64003765005E+01 -0.10349376291E+02 -0.25800079838E+01  0.12439085594E+02  0.51100000000E-03 0. -1.
        -11    1    3    3    0    0  0.14944802919E+01  0.54976757145E+00 -0.43922330852E+00  0.16518574700E+01  0.51100000000E-03 0.  1.
         12    1    3    3    0    0 -0.12883606313E+02 -0.13238916823E+02  0.31408054171E+02  0.36437921141E+02  0.00000000000E+00 0. -1.
</event>
<event>
 7    1  0.1369731E-013  0.5052888E+02  0.7816164E-02  0.1300439E+00
        -11   -1    0    0    0    0  0.00000000000E+00  0.00000000000E+00  0.45593999997E+02  0.45594000000E+02  0.51100000000E-03 0. -1.
         11   -1    0    0    0    0 -0.00000000000E+00 -0.00000000000E+00 -0.45593999997E+02  0.45594000000E+02  0.51100000000E-03 0.  1.
    9900012    2    1    2    0    0  0.33612586938E+02  0.79813755015E+01 -0.21439574454E+02  0.50528884068E+02  0.30000073613E+02 0.  0.
         12    1    1    2    0    0 -0.33612586938E+02 -0.79813755015E+01  0.21439574454E+02  0.40659115932E+02  0.00000000000E+00 0. -1.
         11    1    3    3    0    0  0.29617181730E+02  0.92445122154E+00 -0.13792248646E+02  0.32684219229E+02  0.51100000000E-03 0. -1.
        -11    1    3    3    0    0  0.52176987632E+01  0.63345257465E+01 -0.11277051014E+02  0.13947131485E+02  0.51100000000E-03 0.  1.
         12    1    3    3    0    0 -0.12222935543E+01  0.72239853339E+00  0.36297252057E+01  0.38975333537E+01  0.00000000000E+00 0. -1.
</event>
<event>
 7    1  0.1369731E-013  0.5052885E+02  0.7816164E-02  0.1300439E+00
        -11   -1    0    0    0    0  0.00000000000E+00  0.00000000000E+00  0.45593999997E+02  0.45594000000E+02  0.51100000000E-03 0.  1.
         11   -1    0    0    0    0 -0.00000000000E+00 -0.00000000000E+00 -0.45593999997E+02  0.45594000000E+02  0.51100000000E-03 0. -1.
    9900012    2    1    2    0    0  0.10205417727E+02 -0.39225762946E+02 -0.32179467819E+01  0.50528853290E+02  0.29999980061E+02 0.  0.
         12    1    1    2    0    0 -0.10205417727E+02  0.39225762946E+02  0.32179467819E+01  0.40659146710E+02  0.00000000000E+00 0. -1.
         11    1    3    3    0    0  0.81074447839E+01 -0.57611656161E+01  0.21602609151E+01  0.10177839538E+02  0.51100000000E-03 0. -1.
        -11    1    3    3    0    0 -0.56101251355E+01 -0.77536325608E+01 -0.91561502224E+01  0.13244901248E+02  0.51100000000E-03 0.  1.
        -12    1    3    3    0    0  0.77080980789E+01 -0.25710964769E+02  0.37779425255E+01  0.27106112504E+02  0.00000000000E+00 0.  1.
</event>
<event>
 7    1  0.1369731E-013  0.5052894E+02  0.7816164E-02  0.1300438E+00
        -11   -1    0    0    0    0  0.00000000000E+00  0.00000000000E+00  0.45593999997E+02  0.45594000000E+02  0.51100000000E-03 0. -1.
         11   -1    0    0    0    0 -0.00000000000E+00 -0.00000000000E+00 -0.45593999997E+02  0.45594000000E+02  0.51100000000E-03 0.  1.
    9900012    2    1    2    0    0  0.12515988698E+02  0.12490449910E+02 -0.36612805010E+02  0.50528944394E+02  0.30000256980E+02 0.  0.
         12    1    1    2    0    0 -0.12515988698E+02 -0.12490449910E+02  0.36612805010E+02  0.40659055606E+02  0.00000000000E+00 0. -1.
         11    1    3    3    0    0 -0.65324865513E+01  0.77987833028E+00 -0.39320136522E+01  0.76643540089E+01  0.51100000000E-03 0. -1.
        -11    1    3    3    0    0  0.17646338634E+02  0.45605504135E+01 -0.29996610120E+02  0.35099693819E+02  0.51100000000E-03 0.  1.
        -12    1    3    3    0    0  0.14021366153E+01  0.71500211662E+01 -0.26841812381E+01  0.77648965662E+01  0.00000000000E+00 0.  1.
</event>
<event>
 7    1  0.1369731E-013  0.5052886E+02  0.7816164E-02  0.1300439E+00
        -11   -1    0    0    0    0  0.00000000000E+00  0.00000000000E+00  0.45593999997E+02  0.45594000000E+02  0.51100000000E-03 0. -1.
         11   -1    0    0    0    0 -0.00000000000E+00 -0.00000000000E+00 -0.45593999997E+02  0.45594000000E+02  0.51100000000E-03 0.  1.
    9900012    2    1    2    0    0 -0.16542001398E+02  0.14776710130E+01  0.37112590363E+02  0.50528859757E+02  0.29999999716E+02 0.  0.
        -12    1    1    2    0    0  0.16542001398E+02 -0.14776710130E+01 -0.37112590363E+02  0.40659140243E+02  0.00000000000E+00 0.  1.
         11    1    3    3    0    0 -0.14003939811E+01 -0.10844743405E+02  0.14448580071E+02  0.18119906985E+02  0.51100000000E-03 0. -1.
        -11    1    3    3    0    0 -0.15077298040E+02  0.94553312862E+01  0.12245089420E+02  0.21602555893E+02  0.51100000000E-03 0.  1.
        -12    1    3    3    0    0 -0.64309377145E-01  0.28670831315E+01  0.10418920872E+02  0.10806396879E+02  0.00000000000E+00 0.  1.
</event>
<event>
 7    1  0.1369731E-013  0.5052887E+02  0.7816164E-02  0.1300439E+00
        -11   -1    0    0    0    0  0.00000000000E+00  0.00000000000E+00  0.45593999997E+02  0.45594000000E+02  0.51100000000E-03 0. -1.
         11   -1    0    0    0    0 -0.00000000000E+00 -0.00000000000E+00 -0.45593999997E+02  0.45594000000E+02  0.51100000000E-03 0.  1.
    9900012    2    1    2    0    0 -0.36167754305E+02  0.81286916313E+01 -0.16702778793E+02  0.50528869432E+02  0.30000029126E+02 0.  0.
         12    1    1    2    0    0  0.36167754305E+02 -0.81286916313E+01  0.16702778793E+02  0.40659130568E+02  0.00000000000E+00 0. -1.
         11    1    3    3    0    0 -0.20112412584E+02  0.13002621700E+02 -0.32822555882E+01  0.24173343026E+02  0.51100000000E-03 0.  1.
        -11    1    3    3    0    0 -0.16040089384E+02 -0.87146193705E+01 -0.13164485240E+02  0.22506282015E+02  0.51100000000E-03 0. -1.
        -12    1    3    3    0    0 -0.15252336323E-01  0.38406893019E+01 -0.25603796503E+00  0.38492443917E+01  0.00000000000E+00 0.  1.
</event>
<event>
 7    1  0.1369731E-013  0.5052886E+02  0.7816164E-02  0.1300439E+00
        -11   -1    0    0    0    0  0.00000000000E+00  0.00000000000E+00  0.45593999997E+02  0.45594000000E+02  0.51100000000E-03 0. -1.
         11   -1    0    0    0    0 -0.00000000000E+00 -0.00000000000E+00 -0.45593999997E+02  0.45594000000E+02  0.51100000000E-03 0.  1.
    9900012    2    1    2    0    0 -0.16857732824E+02  0.14991349894E+02 -0.33826643992E+02  0.50528861158E+02  0.30000003976E+02 0.  0.
         12    1    1    2    0    0  0.16857732824E+02 -0.14991349894E+02  0.33826643992E+02  0.40659138842E+02  0.00000000000E+00 0. -1.
         11    1    3    3    0    0  0.50305857025E+01  0.41766334494E+01  0.52568372111E+00  0.65595276595E+01  0.51100000000E-03 0. -1.
        -11    1    3    3    0    0 -0.16264327529E+02  0.16034333469E+01 -0.23833797690E+02  0.28898949134E+02  0.51100000000E-03 0.  1.
         12    1    3    3    0    0 -0.56239909970E+01  0.92112830982E+01 -0.10518530023E+02  0.15070384365E+02  0.00000000000E+00 0. -1.
</event>
<event>
 7    1  0.1369731E-013  0.5052891E+02  0.7816164E-02  0.1300439E+00
        -11   -1    0    0    0    0  0.00000000000E+00  0.00000000000E+00  0.45593999997E+02  0.45594000000E+02  0.51100000000E-03 0. -1.
         11   -1    0    0    0    0 -0.00000000000E+00 -0.00000000000E+00 -0.45593999997E+02  0.45594000000E+02  0.51100000000E-03 0.  1.
    9900012    2    1    2    0    0 -0.37856721923E+02  0.10257391335E+02  0.10715215330E+02  0.50528913545E+02  0.30000163212E+02 0.  0.
        -12    1    1    2    0    0  0.37856721923E+02 -0.10257391335E+02 -0.10715215330E+02  0.40659086455E+02  0.00000000000E+00 0.  1.
         11    1    3    3    0    0 -0.84355195342E+01  0.40995292427E+01  0.20155157877E+00  0.93810848586E+01  0.51100000000E-03 0. -1.
        -11    1    3    3    0    0 -0.29070005847E+01 -0.87707564045E+01  0.11478673300E+01  0.93109838349E+01  0.51100000000E-03 0.  1.
        -12    1    3    3    0    0 -0.26514201804E+02  0.14928618496E+02  0.93657964209E+01  0.31836844852E+02  0.00000000000E+00 0.  1.
</event>
<event>
 7    1  0.1369731E-013  0.5052886E+02  0.7816164E-02  0.1300439E+00
        -11   -1    0    0    0    0  0.00000000000E+00  0.00000000000E+00  0.45593999997E+02  0.45594000000E+02  0.51100000000E-03 0. -1.
         11   -1    0    0    0    0 -0.00000000000E+00 -0.00000000000E+00 -0.45593999997E+02  0.45594000000E+02  0.51100000000E-03 0.  1.
    9900012    2    1    2    0    0  0.26646628502E+02 -0.14045765641E+02  0.27310061785E+02  0.50528858129E+02  0.29999994770E+02 0.  0.
        -12    1    1    2    0    0 -0.26646628502E+02  0.14045765641E+02 -0.27310061785E+02  0.40659141871E+02  0.00000000000E+00 0.  1.
         11    1    3    3    0    0  0.44279849242E+01 -0.46368214493E+01  0.82209921375E+01  0.10425539584E+02  0.51100000000E-03 0. -1.
        -11    1    3    3    0    0  0.16707471101E+02 -0.76047890048E+01 -0.17805961685E+01  0.18442964225E+02  0.51100000000E-03 0.  1.
        -12    1    3    3    0    0  0.55111724759E+01 -0.18041551866E+01  0.20869665816E+02  0.21660354320E+02  0.00000000000E+00 0.  1.
</event>
<event>
 7    1  0.1369731E-013  0.5052886E+02  0.7816164E-02  0.1300439E+00
        -11   -1    0    0    0    0  0.00000000000E+00  0.00000000000E+00  0.45593999997E+02  0.45594000000E+02  0.51100000000E-03 0. -1.
         11   -1    0    0    0    0 -0.00000000000E+00 -0.00000000000E+00 -0.45593999997E+02  0.45594000000E+02  0.51100000000E-03 0.  1.
    9900012    2    1    2    0    0 -0.12179576042E+01  0.11016438323E+02 -0.39119311419E+02  0.50528857609E+02  0.29999993188E+02 0.  0.
         12    1    1    2    0    0  0.12179576042E+01 -0.11016438323E+02  0.39119311419E+02  0.40659142391E+02  0.00000000000E+00 0. -1.
         11    1    3    3    0    0  0.72218220451E+01  0.50010383992E+01 -0.21678670608E+01  0.90479139351E+01  0.51100000000E-03 0. -1.
        -11    1    3    3    0    0 -0.58008029154E+01  0.10672983916E+02 -0.17475888066E+02  0.21283058147E+02  0.51100000000E-03 0.  1.
        -12    1    3    3    0    0 -0.26389767339E+01 -0.46575839920E+01 -0.19475556293E+02  0.20197885527E+02  0.00000000000E+00 0.  1.
</event>
<event>
 7    1  0.1369731E-013  0.5052886E+02  0.7816164E-02  0.1300439E+00
        -11   -1    0    0    0    0  0.00000000000E+00  0.00000000000E+00  0.45593999997E+02  0.45594000000E+02  0.51100000000E-03 0. -1.
         11   -1    0    0    0    0 -0.00000000000E+00 -0.00000000000E+00 -0.45593999997E+02  0.45594000000E+02  0.51100000000E-03 0.  1.
    9900012    2    1    2    0    0  0.14126363400E+02  0.11620141284E+02  0.36312308092E+02  0.50528861478E+02  0.30000004949E+02 0.  0.
        -12    1    1    2    0    0 -0.14126363400E+02 -0.11620141284E+02 -0.36312308092E+02  0.40659138522E+02  0.00000000000E+00 0.  1.
         11    1    3    3    0    0 -0.88677975445E+00  0.57482810351E+01  0.25952602357E+02  0.26596365965E+02  0.51100000000E-03 0. -1.
        -11    1    3    3    0    0  0.17299160291E+02  0.34778564417E+01  0.63968222427E+01  0.18769010823E+02  0.51100000000E-03 0.  1.
         12    1    3    3    0    0 -0.22860171364E+01  0.23940038066E+01  0.39628834923E+01  0.51634846904E+01  0.00000000000E+00 0. -1.
</event>
<event>
 7    1  0.1369731E-013  0.5052882E+02  0.7816164E-02  0.1300439E+00
        -11   -1    0    0    0    0  0.00000000000E+00  0.00000000000E+00  0.45593999997E+02  0.45594000000E+02  0.51100000000E-03 0. -1.
         11   -1    0    0    0    0 -0.00000000000E+00 -0.00000000000E+00 -0.45593999997E+02  0.45594000000E+02  0.51100000000E-03 0.  1.
    9900012    2    1    2    0    0 -0.30341715767E+02 -0.12186577642E+02  0.24166849363E+02  0.50528819014E+02  0.29999875875E+02 0.  0.
        -12    1    1    2    0    0  0.30341715767E+02  0.12186577642E+02 -0.24166849363E+02  0.40659180986E+02  0.00000000000E+00 0.  1.
         11    1    3    3    0    0 -0.23004762737E+02 -0.29849453865E+00  0.14202467593E+02  0.27037349973E+02  0.51100000000E-03 0. -1.
        -11    1    3    3    0    0 -0.46190338141E+01 -0.38420726291E+01 -0.39498864134E+01  0.71901737394E+01  0.51100000000E-03 0.  1.
         12    1    3    3    0    0 -0.27179192156E+01 -0.80460104743E+01  0.13914268184E+02  0.16301295302E+02  0.00000000000E+00 0. -1.
</event>
<event>
 7    1  0.1369731E-013  0.5052885E+02  0.7816164E-02  0.1300439E+00
        -11   -1    0    0    0    0  0.00000000000E+00  0.00000000000E+00  0.45593999997E+02  0.45594000000E+02  0.51100000000E-03 0. -1.
         11   -1    0    0    0    0 -0.00000000000E+00 -0.00000000000E+00 -0.45593999997E+02  0.45594000000E+02  0.51100000000E-03 0.  1.
    9900012    2    1    2    0    0 -0.62981020136E+01 -0.28208166836E+02 -0.28597194392E+02  0.50528852292E+02  0.29999977027E+02 0.  0.
         12    1    1    2    0    0  0.62981020136E+01  0.28208166836E+02  0.28597194392E+02  0.40659147708E+02  0.00000000000E+00 0. -1.
         11    1    3    3    0    0  0.38150123254E+01 -0.90047285143E+01 -0.83303180365E+01  0.12846542473E+02  0.51100000000E-03 0. -1.
        -11    1    3    3    0    0 -0.10009131840E+02 -0.78210046982E+01 -0.22727648240E+02  0.26036451937E+02  0.51100000000E-03 0.  1.
        -12    1    3    3    0    0 -0.10398249929E+00 -0.11382433624E+02  0.24607718842E+01  0.11645857883E+02  0.00000000000E+00 0.  1.
</event>
<event>
 7    1  0.1369731E-013  0.5052888E+02  0.7816164E-02  0.1300439E+00
        -11   -1    0    0    0    0  0.00000000000E+00  0.00000000000E+00  0.45593999997E+02  0.45594000000E+02  0.51100000000E-03 0.  1.
         11   -1    0    0    0    0 -0.00000000000E+00 -0.00000000000E+00 -0.45593999997E+02  0.45594000000E+02  0.51100000000E-03 0. -1.
    9900012    2    1    2    0    0 -0.11067495167E+02  0.28809807079E+01 -0.39017620219E+02  0.50528878186E+02  0.30000055735E+02 0.  0.
         12    1    1    2    0    0  0.11067495167E+02 -0.28809807079E+01  0.39017620219E+02  0.40659121814E+02  0.00000000000E+00 0. -1.
         11    1    3    3    0    0  0.73396909561E+01 -0.52705173160E+01 -0.13211830648E+02  0.16006307677E+02  0.51100000000E-03 0.  1.
        -11    1    3    3    0    0 -0.10672193110E+02  0.80086441303E+01 -0.92121628586E+01  0.16214130608E+02  0.51100000000E-03 0. -1.
        -12    1    3    3    0    0 -0.77349930139E+01  0.14285389359E+00 -0.16593626712E+02  0.18308439901E+02  0.00000000000E+00 0.  1.
</event>
<event>
 7    1  0.1369731E-013  0.5052886E+02  0.7816164E-02  0.1300439E+00
        -11   -1    0    0    0    0  0.00000000000E+00  0.00000000000E+00  0.45593999997E+02  0.45594000000E+02  0.51100000000E-03 0. -1.
         11   -1    0    0    0    0 -0.00000000000E+00 -0.00000000000E+00 -0.45593999997E+02  0.45594000000E+02  0.51100000000E-03 0.  1.
    9900012    2    1    2    0    0  0.25195486335E+02 -0.46086293096E+01  0.31577106350E+02  0.50528860299E+02  0.30000001366E+02 0.  0.
        -12    1    1    2    0    0 -0.25195486335E+02  0.46086293096E+01 -0.31577106350E+02  0.40659139701E+02  0.00000000000E+00 0.  1.
         11    1    3    3    0    0  0.15692516718E+02 -0.51119840316E+01  0.14172581942E+02  0.21754299365E+02  0.51100000000E-03 0. -1.
        -11    1    3    3    0    0 -0.10530541099E+01  0.13706849714E+01  0.18079066613E+02  0.18161507375E+02  0.51100000000E-03 0.  1.
        -12    1    3    3    0    0  0.10556023727E+02 -0.86733024931E+00 -0.67454220562E+00  0.10613053560E+02  0.00000000000E+00 0.  1.
</event>
<event>
 7    1  0.1369731E-013  0.5052881E+02  0.7816164E-02  0.1300439E+00
        -11   -1    0    0    0    0  0.00000000000E+00  0.00000000000E+00  0.45593999997E+02  0.45594000000E+02  0.51100000000E-03 0. -1.
         11   -1    0    0    0    0 -0.00000000000E+00 -0.00000000000E+00 -0.45593999997E+02  0.45594000000E+02  0.51100000000E-03 0.  1.
    9900012    2    1    2    0    0  0.19624555415E+01 -0.33438637085E+02  0.23047253765E+02  0.50528811764E+02  0.29999853838E+02 0.  0.
        -12    1    1    2    0    0 -0.19624555415E+01  0.33438637085E+02 -0.23047253765E+02  0.40659188236E+02  0.00000000000E+00 0.  1.
         11    1    3    3    0    0  0.10198680917E+02 -0.14990228707E+02  0.11750476641E+02  0.21605410218E+02  0.51100000000E-03 0. -1.
        -11    1    3    3    0    0 -0.73779419973E+01 -0.14382944107E+02 -0.74790837826E+00  0.16182165384E+02  0.51100000000E-03 0.  1.
        -12    1    3    3    0    0 -0.85828337783E+00 -0.40654642719E+01  0.12044685503E+02  0.12741236163E+02  0.00000000000E+00 0.  1.
</event>
<event>
 7    1  0.1369731E-013  0.5052886E+02  0.7816164E-02  0.1300439E+00
        -11   -1    0    0    0    0  0.00000000000E+00  0.00000000000E+00  0.45593999997E+02  0.45594000000E+02  0.51100000000E-03 0. -1.
         11   -1    0    0    0    0 -0.00000000000E+00 -0.00000000000E+00 -0.45593999997E+02  0.45594000000E+02  0.51100000000E-03 0.  1.
    9900012    2    1    2    0    0  0.33825402268E+02  0.21931123312E+02 -0.52947029332E+01  0.50528857271E+02  0.29999992161E+02 0.  0.
         12    1    1    2    0    0 -0.33825402268E+02 -0.21931123312E+02  0.52947029332E+01  0.40659142729E+02  0.00000000000E+00 0. -1.
         11    1    3    3    0    0  0.29337241330E+01  0.84321463867E+00 -0.47653563172E+01  0.56591845090E+01  0.51100000000E-03 0. -1.
        -11    1    3    3    0    0  0.15514399306E+02  0.65289407371E+01 -0.12108155574E+02  0.20734779590E+02  0.51100000000E-03 0.  1.
         12    1    3    3    0    0  0.15377278829E+02  0.14558967936E+02  0.11578808958E+02  0.24134893172E+02  0.00000000000E+00 0. -1.
</event>
<event>
 7    1  0.1369731E-013  0.5052888E+02  0.7816164E-02  0.1300439E+00
        -11   -1    0    0    0    0  0.00000000000E+00  0.00000000000E+00  0.45593999997E+02  0.45594000000E+02  0.51100000000E-03 0. -1.
         11   -1    0    0    0    0 -0.00000000000E+00 -0.00000000000E+00 -0.45593999997E+02  0.45594000000E+02  0.51100000000E-03 0.  1.
    9900012    2    1    2    0    0  0.38233083835E+02  0.20176382546E+01 -0.13686665750E+02  0.50528875772E+02  0.30000048397E+02 0.  0.
         12    1    1    2    0    0 -0.38233083835E+02 -0.20176382546E+01  0.13686665750E+02  0.40659124228E+02  0.00000000000E+00 0. -1.
         11    1    3    3    0    0  0.44834002675E+01  0.43127045122E+01  0.77429778436E+01  0.99324722157E+01  0.51100000000E-03 0. -1.
        -11    1    3    3    0    0  0.29692806044E+02 -0.33980953958E+01 -0.16577848588E+02  0.34176524796E+02  0.51100000000E-03 0.  1.
         12    1    3    3    0    0  0.40568775229E+01  0.11030291383E+01 -0.48517950058E+01  0.64198787601E+01  0.00000000000E+00 0. -1.
</event>
<event>
 7    1  0.1369731E-013  0.5052885E+02  0.7816164E-02  0.1300439E+00
        -11   -1    0    0    0    0  0.00000000000E+00  0.00000000000E+00  0.45593999997E+02  0.45594000000E+02  0.51100000000E-03 0.  1.
         11   -1    0    0    0    0 -0.00000000000E+00 -0.00000000000E+00 -0.45593999997E+02  0.45594000000E+02  0.51100000000E-03 0. -1.
    9900012    2    1    2    0    0 -0.40400979611E+02 -0.68480732755E+00 -0.45230794270E+01  0.50528851434E+02  0.29999974420E+02 0.  0.
         12    1    1    2    0    0  0.40400979611E+02  0.68480732755E+00  0.45230794270E+01  0.40659148566E+02  0.00000000000E+00 0. -1.
         11    1    3    3    0    0 -0.13009963275E+02  0.91285668339E+01 -0.38689391401E+01  0.16357217587E+02  0.51100000000E-03 0. -1.
        -11    1    3    3    0    0 -0.27704841071E+02 -0.39814259771E+01  0.12816717791E+01  0.28018791094E+02  0.51100000000E-03 0.  1.
        -12    1    3    3    0    0  0.31382473546E+00 -0.58319481843E+01 -0.19358120660E+01  0.61528427531E+01  0.00000000000E+00 0.  1.
</event>
<event>
 7    1  0.1369731E-013  0.5052886E+02  0.7816164E-02  0.1300439E+00
        -11   -1    0    0    0    0  0.00000000000E+00  0.00000000000E+00  0.45593999997E+02  0.45594000000E+02  0.51100000000E-03 0. -1.
         11   -1    0    0    0    0 -0.00000000000E+00 -0.00000000000E+00 -0.45593999997E+02  0.45594000000E+02  0.51100000000E-03 0.  1.
    9900012    2    1    2    0    0  0.19837230034E+02 -0.19501588869E+02 -0.29653639047E+02  0.50528856224E+02  0.29999988980E+02 0.  0.
         12    1    1    2    0    0 -0.19837230034E+02  0.19501588869E+02  0.29653639047E+02  0.40659143776E+02  0.00000000000E+00 0. -1.
         11    1    3    3    0    0  0.13356092891E+02  0.17677719534E+01 -0.79511329255E+00  0.13496015723E+02  0.51100000000E-03 0. -1.
        -11    1    3    3    0    0  0.14186382545E+01 -0.97194833197E+01 -0.80429061780E+01  0.12695244407E+02  0.51100000000E-03 0.  1.
         12    1    3    3    0    0  0.50624988892E+01 -0.11549877503E+02 -0.20815619576E+02  0.24337596095E+02  0.00000000000E+00 0. -1.
</event>
<event>
 7    1  0.1369731E-013  0.5052886E+02  0.7816164E-02  0.1300439E+00
        -11   -1    0    0    0    0  0.00000000000E+00  0.00000000000E+00  0.45593999997E+02  0.45594000000E+02  0.51100000000E-03 0.  1.
         11   -1    0    0    0    0 -0.00000000000E+00 -0.00000000000E+00 -0.45593999997E+02  0.45594000000E+02  0.51100000000E-03 0. -1.
    9900012    2    1    2    0    0 -0.34712091424E+02 -0.16900608959E+02 -0.12751707712E+02  0.50528856825E+02  0.29999990804E+02 0.  0.
         12    1    1    2    0    0  0.34712091424E+02  0.16900608959E+02  0.12751707712E+02  0.40659143175E+02  0.00000000000E+00 0. -1.
         11    1    3    3    0    0 -0.17603801972E+02 -0.13781388961E+02  0.27995810754E+01  0.22531271159E+02  0.51100000000E-03 0.  1.
        -11    1    3    3    0    0 -0.16209260714E+02  0.32483905121E+01 -0.13183863607E+02  0.21144891432E+02  0.51100000000E-03 0. -1.
         12    1    3    3    0    0 -0.89902873781E+00 -0.63676105099E+01 -0.23674251810E+01  0.68526942340E+01  0.00000000000E+00 0. -1.
</event>
<event>
 7    1  0.1369731E-013  0.5052886E+02  0.7816164E-02  0.1300439E+00
        -11   -1    0    0    0    0  0.00000000000E+00  0.00000000000E+00  0.45593999997E+02  0.45594000000E+02  0.51100000000E-03 0. -1.
         11   -1    0    0    0    0 -0.00000000000E+00 -0.00000000000E+00 -0.45593999997E+02  0.45594000000E+02  0.51100000000E-03 0.  1.
    9900012    2    1    2    0    0 -0.27438075597E+02  0.11004227668E+02  0.27914600095E+02  0.50528856902E+02  0.29999991039E+02 0.  0.
        -12    1    1    2    0    0  0.27438075597E+02 -0.11004227668E+02 -0.27914600095E+02  0.40659143098E+02  0.00000000000E+00 0.  1.
         11    1    3    3    0    0 -0.15433150362E+02  0.99946292947E+01  0.16360262349E+02  0.24611642148E+02  0.51100000000E-03 0. -1.
        -11    1    3    3    0    0 -0.13697348963E+02  0.64927786442E+00 -0.51701767908E+00  0.13722472004E+02  0.51100000000E-03 0.  1.
         12    1    3    3    0    0  0.16924237282E+01  0.36032050932E+00  0.12071355425E+02  0.12194742750E+02  0.00000000000E+00 0. -1.
</event>
<event>
 7    1  0.1369731E-013  0.5052886E+02  0.7816164E-02  0.1300439E+00
        -11   -1    0    0    0    0  0.00000000000E+00  0.00000000000E+00  0.45593999997E+02  0.45594000000E+02  0.51100000000E-03 0. -1.
         11   -1    0    0    0    0 -0.00000000000E+00 -0.00000000000E+00 -0.45593999997E+02  0.45594000000E+02  0.51100000000E-03 0.  1.
    9900012    2    1    2    0    0  0.17048306555E+02  0.16826407866E+02 -0.32854116301E+02  0.50528859380E+02  0.29999998570E+02 0.  0.
         12    1    1    2    0    0 -0.17048306555E+02 -0.16826407866E+02  0.32854116301E+02  0.40659140620E+02  0.00000000000E+00 0. -1.
         11    1    3    3    0    0 -0.73355211697E+00 -0.52846088921E+00 -0.63956027564E+00  0.11074327190E+01  0.51100000000E-03 0. -1.
        -11    1    3    3    0    0 -0.67535640245E+01  0.22536267634E+01 -0.12904998254E+02  0.14738671610E+02  0.51100000000E-03 0.  1.
        -12    1    3    3    0    0  0.24535422696E+02  0.15101241992E+02 -0.19309557771E+02  0.34682755051E+02  0.00000000000E+00 0.  1.
</event>
<event>
 7    1  0.1369731E-013  0.5052886E+02  0.7816164E-02  0.1300439E+00
        -11   -1    0    0    0    0  0.00000000000E+00  0.00000000000E+00  0.45593999997E+02  0.45594000000E+02  0.51100000000E-03 0. -1.
         11   -1    0    0    0    0 -0.00000000000E+00 -0.00000000000E+00 -0.45593999997E+02  0.45594000000E+02  0.51100000000E-03 0.  1.
    9900012    2    1    2    0    0 -0.11110673953E+02  0.31908583289E+02 -0.22617721035E+02  0.50528855051E+02  0.29999985412E+02 0.  0.
         12    1    1    2    0    0  0.11110673953E+02 -0.31908583289E+02  0.22617721035E+02  0.40659144949E+02  0.00000000000E+00 0. -1.
         11    1    3    3    0    0  0.75960192798E+01  0.63777763938E+01 -0.92187169889E+01  0.13541059183E+02  0.51100000000E-03 0. -1.
        -11    1    3    3    0    0 -0.17012009035E+02  0.11951367667E+02 -0.81565143226E+01  0.22333212189E+02  0.51100000000E-03 0.  1.
         12    1    3    3    0    0 -0.16946841977E+01  0.13579439228E+02 -0.52424897233E+01  0.14654583678E+02  0.00000000000E+00 0. -1.
</event>
<event>
 7    1  0.1369731E-013  0.5052885E+02  0.7816164E-02  0.1300439E+00
        -11   -1    0    0    0    0  0.00000000000E+00  0.00000000000E+00  0.45593999997E+02  0.45594000000E+02  0.51100000000E-03 0.  1.
         11   -1    0    0    0    0 -0.00000000000E+00 -0.00000000000E+00 -0.45593999997E+02  0.45594000000E+02  0.51100000000E-03 0. -1.
    9900012    2    1    2    0    0 -0.32191538808E+02 -0.97383523926E+01 -0.22848097810E+02  0.50528852792E+02  0.29999978547E+02 0.  0.
         12    1    1    2    0    0  0.32191538808E+02  0.97383523926E+01  0.22848097810E+02  0.40659147208E+02  0.00000000000E+00 0. -1.
         11    1    3    3    0    0 -0.11373142501E+02 -0.15438134395E+02 -0.17640019274E+02  0.26054839171E+02  0.51100000000E-03 0. -1.
        -11    1    3    3    0    0 -0.14034835736E+02  0.53983173953E+01  0.12680857105E+01  0.15090609214E+02  0.51100000000E-03 0.  1.
        -12    1    3    3    0    0 -0.67835605709E+01  0.30146460731E+00 -0.64761642464E+01  0.93834044075E+01  0.00000000000E+00 0.  1.
</event>
<event>
 7    1  0.1369731E-013  0.5052886E+02  0.7816164E-02  0.1300439E+00
        -11   -1    0    0    0    0  0.00000000000E+00  0.00000000000E+00  0.45593999997E+02  0.45594000000E+02  0.51100000000E-03 0. -1.
         11   -1    0    0    0    0 -0.00000000000E+00 -0.00000000000E+00 -0.45593999997E+02  0.45594000000E+02  0.51100000000E-03 0.  1.
    9900012    2    1    2    0    0 -0.41727758764E+01 -0.59578384361E+01  0.40003221194E+02  0.50528860766E+02  0.30000002783E+02 0.  0.
        -12    1    1    2    0    0  0.41727758764E+01  0.59578384361E+01 -0.40003221194E+02  0.40659139234E+02  0.00000000000E+00 0.  1.
         11    1    3    3    0    0  0.70337630255E+01 -0.97050175231E+01  0.20113823629E+02  0.23414249693E+02  0.51100000000E-03 0. -1.
        -11    1    3    3    0    0 -0.51646529190E+01  0.79349531698E+01  0.16491585591E+02  0.19016033160E+02  0.51100000000E-03 0.  1.
        -12    1    3    3    0    0 -0.60418859828E+01 -0.41877740828E+01  0.33978119742E+01  0.80985779128E+01  0.00000000000E+00 0.  1.
</event>
<event>
 7    1  0.1369731E-013  0.5052890E+02  0.7816164E-02  0.1300439E+00
        -11   -1    0    0    0    0  0.00000000000E+00  0.00000000000E+00  0.45593999997E+02  0.45594000000E+02  0.51100000000E-03 0. -1.
         11   -1    0    0    0    0 -0.00000000000E+00 -0.00000000000E+00 -0.45593999997E+02  0.45594000000E+02  0.51100000000E-03 0.  1.
    9900012    2    1    2    0    0  0.13555136982E+02 -0.22349493872E+02 -0.31143545763E+02  0.50528904367E+02  0.30000135314E+02 0.  0.
         12    1    1    2    0    0 -0.13555136982E+02  0.22349493872E+02  0.31143545763E+02  0.40659095633E+02  0.00000000000E+00 0. -1.
         11    1    3    3    0    0  0.76911013947E+01 -0.79189460623E+01 -0.42516966990E+01  0.11829609989E+02  0.51100000000E-03 0. -1.
        -11    1    3    3    0    0  0.15763164602E+01  0.53271853870E+01 -0.13089223763E+02  0.14219404231E+02  0.51100000000E-03 0.  1.
        -12    1    3    3    0    0  0.42877191274E+01 -0.19757733197E+02 -0.13802625302E+02  0.24479890147E+02  0.00000000000E+00 0.  1.
</event>
<event>
 7    1  0.1369731E-013  0.5052886E+02  0.7816164E-02  0.1300439E+00
        -11   -1    0    0    0    0  0.00000000000E+00  0.00000000000E+00  0.45593999997E+02  0.45594000000E+02  0.51100000000E-03 0. -1.
         11   -1    0    0    0    0 -0.00000000000E+00 -0.00000000000E+00 -0.45593999997E+02  0.45594000000E+02  0.51100000000E-03 0.  1.
    9900012    2    1    2    0    0  0.97322716262E+01 -0.26542749264E+02 -0.29222095220E+02  0.50528862053E+02  0.30000006697E+02 0.  0.
         12    1    1    2    0    0 -0.97322716262E+01  0.26542749264E+02  0.29222095220E+02  0.40659137947E+02  0.00000000000E+00 0. -1.
         11    1    3    3    0    0  0.91484703219E+01 -0.39166662303E+01 -0.25044547315E+00  0.99547730655E+01  0.51100000000E-03 0. -1.
        -11    1    3    3    0    0 -0.40368050731E+01 -0.12631065640E+02 -0.49595081575E+01  0.14157554020E+02  0.51100000000E-03 0.  1.
         12    1    3    3    0    0  0.46206063774E+01 -0.99950173939E+01 -0.24012141590E+02  0.26416534968E+02  0.00000000000E+00 0. -1.
</event>
<event>
 7    1  0.1369731E-013  0.5052886E+02  0.7816164E-02  0.1300439E+00
        -11   -1    0    0    0    0  0.00000000000E+00  0.00000000000E+00  0.45593999997E+02  0.45594000000E+02  0.51100000000E-03 0. -1.
         11   -1    0    0    0    0 -0.00000000000E+00 -0.00000000000E+00 -0.45593999997E+02  0.45594000000E+02  0.51100000000E-03 0.  1.
    9900012    2    1    2    0    0  0.55649872711E+00  0.26758585839E+02 -0.30607740117E+02  0.50528863732E+02  0.30000011801E+02 0.  0.
         12    1    1    2    0    0 -0.55649872711E+00 -0.26758585839E+02  0.30607740117E+02  0.40659136268E+02  0.00000000000E+00 0. -1.
         11    1    3    3    0    0 -0.33832025768E+01  0.76915774960E+01  0.98639285529E+00  0.84604606954E+01  0.51100000000E-03 0. -1.
        -11    1    3    3    0    0  0.70925462701E+01  0.18259528328E+02 -0.33115843451E+02  0.38475624427E+02  0.51100000000E-03 0.  1.
        -12    1    3    3    0    0 -0.31528449662E+01  0.80748001575E+00  0.15217104786E+01  0.35927786096E+01  0.00000000000E+00 0.  1.
</event>
<event>
 7    1  0.1369731E-013  0.5052885E+02  0.7816164E-02  0.1300439E+00
        -11   -1    0    0    0    0  0.00000000000E+00  0.00000000000E+00  0.45593999997E+02  0.45594000000E+02  0.51100000000E-03 0. -1.
         11   -1    0    0    0    0 -0.00000000000E+00 -0.00000000000E+00 -0.45593999997E+02  0.45594000000E+02  0.51100000000E-03 0.  1.
    9900012    2    1    2    0    0  0.27439541413E+02 -0.71020928167E-01  0.30003882365E+02  0.50528850552E+02  0.29999971737E+02 0.  0.
        -12    1    1    2    0    0 -0.27439541413E+02  0.71020928167E-01 -0.30003882365E+02  0.40659149448E+02  0.00000000000E+00 0.  1.
         11    1    3    3    0    0  0.25133973903E+02 -0.54629151894E+00  0.29526927267E+02  0.38779563080E+02  0.51100000000E-03 0. -1.
        -11    1    3    3    0    0 -0.22366720531E+01 -0.39972229274E+01  0.22912542579E+01  0.51215563396E+01  0.51100000000E-03 0.  1.
         12    1    3    3    0    0  0.45422395624E+01  0.44724935181E+01 -0.18142991605E+01  0.66277311318E+01  0.00000000000E+00 0. -1.
</event>
<event>
 7    1  0.1369731E-013  0.5052886E+02  0.7816164E-02  0.1300439E+00
        -11   -1    0    0    0    0  0.00000000000E+00  0.00000000000E+00  0.45593999997E+02  0.45594000000E+02  0.51100000000E-03 0. -1.
         11   -1    0    0    0    0 -0.00000000000E+00 -0.00000000000E+00 -0.45593999997E+02  0.45594000000E+02  0.51100000000E-03 0.  1.
    9900012    2    1    2    0    0  0.33491559709E+02 -0.16986155363E+02 -0.15586907973E+02  0.50528859011E+02  0.29999997451E+02 0.  0.
         12    1    1    2    0    0 -0.33491559709E+02  0.16986155363E+02  0.15586907973E+02  0.40659140989E+02  0.00000000000E+00 0. -1.
         11    1    3    3    0    0  0.57969425408E+01  0.12811663107E+01  0.35281161003E+01  0.69060504933E+01  0.51100000000E-03 0. -1.
        -11    1    3    3    0    0  0.88449032569E+00 -0.10871562131E+02 -0.23787147536E+01  0.11163846579E+02  0.51100000000E-03 0.  1.
        -12    1    3    3    0    0  0.26810126843E+02 -0.73957595428E+01 -0.16736309320E+02  0.32458961939E+02  0.00000000000E+00 0.  1.
</event>
<event>
 7    1  0.1492569E-013  0.5052886E+02  0.7816164E-02  0.1300439E+00
        -11   -1    0    0    0    0  0.00000000000E+00  0.00000000000E+00  0.45593999997E+02  0.45594000000E+02  0.51100000000E-03 0. -1.
         11   -1    0    0    0    0 -0.00000000000E+00 -0.00000000000E+00 -0.45593999997E+02  0.45594000000E+02  0.51100000000E-03 0.  1.
    9900012    2    1    2    0    0  0.14219575169E+02  0.34925312967E+01  0.37931145455E+02  0.50528857260E+02  0.29999992128E+02 0.  0.
        -12    1    1    2    0    0 -0.14219575169E+02 -0.34925312967E+01 -0.37931145455E+02  0.40659142740E+02  0.00000000000E+00 0.  1.
         11    1    3    3    0    0 -0.14162928123E+01 -0.15541887281E+01  0.30077150115E+02  0.30150561309E+02  0.51100000000E-03 0. -1.
        -11    1    3    3    0    0  0.61856537744E+01  0.21917187313E+01 -0.15511079808E+01  0.67432840547E+01  0.51100000000E-03 0.  1.
         12    1    3    3    0    0  0.94502142072E+01  0.28550012935E+01  0.94051033199E+01  0.13635011896E+02  0.00000000000E+00 0. -1.
</event>
<event>
 7    1  0.1369731E-013  0.5052887E+02  0.7816164E-02  0.1300439E+00
        -11   -1    0    0    0    0  0.00000000000E+00  0.00000000000E+00  0.45593999997E+02  0.45594000000E+02  0.51100000000E-03 0. -1.
         11   -1    0    0    0    0 -0.00000000000E+00 -0.00000000000E+00 -0.45593999997E+02  0.45594000000E+02  0.51100000000E-03 0.  1.
    9900012    2    1    2    0    0 -0.16784840102E+01  0.37096010759E+01 -0.40454741437E+02  0.50528873676E+02  0.30000042026E+02 0.  0.
         12    1    1    2    0    0  0.16784840102E+01 -0.37096010759E+01  0.40454741437E+02  0.40659126324E+02  0.00000000000E+00 0. -1.
         11    1    3    3    0    0 -0.75378802488E+01 -0.82726533328E+01 -0.15010964860E+02  0.18723928490E+02  0.51100000000E-03 0. -1.
        -11    1    3    3    0    0  0.40009446462E+01  0.16570267478E+01 -0.19012480842E+02  0.19499428806E+02  0.51100000000E-03 0.  1.
         12    1    3    3    0    0  0.18584515924E+01  0.10325227661E+02 -0.64312957340E+01  0.12305516380E+02  0.00000000000E+00 0. -1.
</event>
<event>
 7    1  0.1369731E-013  0.5052886E+02  0.7816164E-02  0.1300439E+00
        -11   -1    0    0    0    0  0.00000000000E+00  0.00000000000E+00  0.45593999997E+02  0.45594000000E+02  0.51100000000E-03 0. -1.
         11   -1    0    0    0    0 -0.00000000000E+00 -0.00000000000E+00 -0.45593999997E+02  0.45594000000E+02  0.51100000000E-03 0.  1.
    9900012    2    1    2    0    0 -0.25036007907E+01 -0.26671042224E+02  0.30586812460E+02  0.50528860724E+02  0.30000002656E+02 0.  0.
        -12    1    1    2    0    0  0.25036007907E+01  0.26671042224E+02 -0.30586812460E+02  0.40659139276E+02  0.00000000000E+00 0.  1.
         11    1    3    3    0    0  0.12615381317E+02 -0.56038409857E+01  0.77397279692E+01  0.15825747024E+02  0.51100000000E-03 0. -1.
        -11    1    3    3    0    0 -0.54387555170E+01 -0.60881654086E+01  0.56531644363E+01  0.99299591148E+01  0.51100000000E-03 0.  1.
         12    1    3    3    0    0 -0.96802265911E+01 -0.14979035830E+02  0.17193920054E+02  0.24773154585E+02  0.00000000000E+00 0. -1.
</event>
<event>
 7    1  0.1369731E-013  0.5052886E+02  0.7816164E-02  0.1300439E+00
        -11   -1    0    0    0    0  0.00000000000E+00  0.00000000000E+00  0.45593999997E+02  0.45594000000E+02  0.51100000000E-03 0. -1.
         11   -1    0    0    0    0 -0.00000000000E+00 -0.00000000000E+00 -0.45593999997E+02  0.45594000000E+02  0.51100000000E-03 0.  1.
    9900012    2    1    2    0    0  0.95967888586E+00 -0.37897648595E+02 -0.14697377926E+02  0.50528859939E+02  0.30000000271E+02 0.  0.
         12    1    1    2    0    0 -0.95967888586E+00  0.37897648595E+02  0.14697377926E+02  0.40659140061E+02  0.00000000000E+00 0. -1.
         11    1    3    3    0    0 -0.66516757139E+01 -0.52950038176E+01  0.62095547202E+01  0.10528077950E+02  0.51100000000E-03 0.  1.
        -11    1    3    3    0    0  0.58055362410E+01 -0.13565068166E+02 -0.11393277208E+02  0.18641944404E+02  0.51100000000E-03 0. -1.
        -12    1    3    3    0    0  0.18058183588E+01 -0.19037576611E+02 -0.95136554389E+01  0.21358837585E+02  0.00000000000E+00 0.  1.
</event>
<event>
 7    1  0.1369731E-013  0.5052886E+02  0.7816164E-02  0.1300439E+00
        -11   -1    0    0    0    0  0.00000000000E+00  0.00000000000E+00  0.45593999997E+02  0.45594000000E+02  0.51100000000E-03 0. -1.
         11   -1    0    0    0    0 -0.00000000000E+00 -0.00000000000E+00 -0.45593999997E+02  0.45594000000E+02  0.51100000000E-03 0.  1.
    9900012    2    1    2    0    0  0.11643894223E+02  0.15069328538E+02  0.35923535779E+02  0.50528863780E+02  0.30000011946E+02 0.  0.
        -12    1    1    2    0    0 -0.11643894223E+02 -0.15069328538E+02 -0.35923535779E+02  0.40659136220E+02  0.00000000000E+00 0.  1.
         11    1    3    3    0    0  0.98703143295E+00  0.68339461255E+00  0.10795240209E+02  0.10861789479E+02  0.51100000000E-03 0. -1.
        -11    1    3    3    0    0  0.12440142850E+02  0.27998941101E+01  0.93762458199E+00  0.12785761662E+02  0.51100000000E-03 0.  1.
        -12    1    3    3    0    0 -0.17832800595E+01  0.11586039815E+02  0.24190670988E+02  0.26881312640E+02  0.00000000000E+00 0.  1.
</event>
<event>
 7    1  0.1369731E-013  0.5052887E+02  0.7816164E-02  0.1300439E+00
        -11   -1    0    0    0    0  0.00000000000E+00  0.00000000000E+00  0.45593999997E+02  0.45594000000E+02  0.51100000000E-03 0. -1.
         11   -1    0    0    0    0 -0.00000000000E+00 -0.00000000000E+00 -0.45593999997E+02  0.45594000000E+02  0.51100000000E-03 0.  1.
    9900012    2    1    2    0    0  0.14630656316E+02 -0.46859727565E+01  0.37645059294E+02  0.50528868994E+02  0.30000027793E+02 0.  0.
        -12    1    1    2    0    0 -0.14630656316E+02  0.46859727565E+01 -0.37645059294E+02  0.40659131006E+02  0.00000000000E+00 0.  1.
         11    1    3    3    0    0 -0.49660585958E+01  0.10028854910E+01 -0.53445763525E-02  0.50663148452E+01  0.51100000000E-03 0. -1.
        -11    1    3    3    0    0  0.21015103423E+02 -0.48486159790E+01  0.26389017064E+02  0.34081136581E+02  0.51100000000E-03 0.  1.
         12    1    3    3    0    0 -0.14183885108E+01 -0.84024226859E+00  0.11261386807E+02  0.11381417567E+02  0.00000000000E+00 0. -1.
</event>
<event>
 7    1  0.1369731E-013  0.5052886E+02  0.7816164E-02  0.1300439E+00
        -11   -1    0    0    0    0  0.00000000000E+00  0.00000000000E+00  0.45593999997E+02  0.45594000000E+02  0.51100000000E-03 0. -1.
         11   -1    0    0    0    0 -0.00000000000E+00 -0.00000000000E+00 -0.45593999997E+02  0.45594000000E+02  0.51100000000E-03 0.  1.
    9900012    2    1    2    0    0 -0.10139741821E+02 -0.24358003047E+02 -0.30936053269E+02  0.50528855045E+02  0.29999985394E+02 0.  0.
         12    1    1    2    0    0  0.10139741821E+02  0.24358003047E+02  0.30936053269E+02  0.40659144955E+02  0.00000000000E+00 0. -1.
         11    1    3    3    0    0 -0.53628081887E+01  0.38891689258E+01 -0.23559574398E+00  0.66287896496E+01  0.51100000000E-03 0. -1.
        -11    1    3    3    0    0  0.42178911773E+01 -0.13075885767E+02 -0.13756721339E+02  0.19442653544E+02  0.51100000000E-03 0.  1.
         12    1    3    3    0    0 -0.89948248100E+01 -0.15171286206E+02 -0.16943736186E+02  0.24457411851E+02  0.00000000000E+00 0. -1.
</event>
<event>
 7    1  0.1369731E-013  0.5052887E+02  0.7816164E-02  0.1300439E+00
        -11   -1    0    0    0    0  0.00000000000E+00  0.00000000000E+00  0.45593999997E+02  0.45594000000E+02  0.51100000000E-03 0. -1.
         11   -1    0    0    0    0 -0.00000000000E+00 -0.00000000000E+00 -0.45593999997E+02  0.45594000000E+02  0.51100000000E-03 0.  1.
    9900012    2    1    2    0    0  0.35499953639E+02 -0.19222207852E+02  0.48399499041E+01  0.50528866977E+02  0.30000021663E+02 0.  0.
        -12    1    1    2    0    0 -0.35499953639E+02  0.19222207852E+02 -0.48399499041E+01  0.40659133023E+02  0.00000000000E+00 0.  1.
         11    1    3    3    0    0  0.31122387521E+02 -0.21224429812E+02  0.11540857158E+02  0.39398868132E+02  0.51100000000E-03 0. -1.
        -11    1    3    3    0    0  0.38286322276E+01  0.22683046857E+01 -0.83004246613E+01  0.94181038803E+01  0.51100000000E-03 0.  1.
         12    1    3    3    0    0  0.54893389036E+00 -0.26608272585E+00  0.15995174073E+01  0.17118949644E+01  0.00000000000E+00 0. -1.
</event>
<event>
 7    1  0.1369731E-013  0.5052881E+02  0.7816164E-02  0.1300439E+00
        -11   -1    0    0    0    0  0.00000000000E+00  0.00000000000E+00  0.45593999997E+02  0.45594000000E+02  0.51100000000E-03 0. -1.
         11   -1    0    0    0    0 -0.00000000000E+00 -0.00000000000E+00 -0.45593999997E+02  0.45594000000E+02  0.51100000000E-03 0.  1.
    9900012    2    1    2    0    0 -0.16687904853E+02 -0.28789403278E+02 -0.23363514759E+02  0.50528810001E+02  0.29999848478E+02 0.  0.
         12    1    1    2    0    0  0.16687904853E+02  0.28789403278E+02  0.23363514759E+02  0.40659189999E+02  0.00000000000E+00 0. -1.
         11    1    3    3    0    0 -0.15987410156E+02 -0.18818426058E+02 -0.10569572604E+02  0.26859752569E+02  0.51100000000E-03 0. -1.
        -11    1    3    3    0    0 -0.14939449407E+01 -0.58292897427E+00 -0.14070374687E+02  0.14161466088E+02  0.51100000000E-03 0.  1.
         12    1    3    3    0    0  0.79345024279E+00 -0.93880482459E+01  0.12764325316E+01  0.95075913439E+01  0.00000000000E+00 0. -1.
</event>
<event>
 7    1  0.1369731E-013  0.5052887E+02  0.7816164E-02  0.1300439E+00
        -11   -1    0    0    0    0  0.00000000000E+00  0.00000000000E+00  0.45593999997E+02  0.45594000000E+02  0.51100000000E-03 0. -1.
         11   -1    0    0    0    0 -0.00000000000E+00 -0.00000000000E+00 -0.45593999997E+02  0.45594000000E+02  0.51100000000E-03 0.  1.
    9900012    2    1    2    0    0  0.27185294472E+02 -0.16764374035E+02 -0.25161081105E+02  0.50528874645E+02  0.30000044971E+02 0.  0.
         12    1    1    2    0    0 -0.27185294472E+02  0.16764374035E+02  0.25161081105E+02  0.40659125355E+02  0.00000000000E+00 0. -1.
         11    1    3    3    0    0 -0.39210810201E+01 -0.59800974098E+01 -0.13883186285E+01  0.72844951968E+01  0.51100000000E-03 0. -1.
        -11    1    3    3    0    0  0.25040957115E+02 -0.11663263814E+02 -0.24687155057E+02  0.37047764860E+02  0.51100000000E-03 0.  1.
        -12    1    3    3    0    0  0.60654183770E+01  0.87898718961E+00  0.91439258059E+00  0.61966145885E+01  0.00000000000E+00 0.  1.
</event>
<event>
 7    1  0.1369731E-013  0.5052887E+02  0.7816164E-02  0.1300439E+00
        -11   -1    0    0    0    0  0.00000000000E+00  0.00000000000E+00  0.45593999997E+02  0.45594000000E+02  0.51100000000E-03 0. -1.
         11   -1    0    0    0    0 -0.00000000000E+00 -0.00000000000E+00 -0.45593999997E+02  0.45594000000E+02  0.51100000000E-03 0.  1.
    9900012    2    1    2    0    0  0.16715376512E+02 -0.13159227698E+02  0.34649616972E+02  0.50528867670E+02  0.30000023769E+02 0.  0.
        -12    1    1    2    0    0 -0.16715376512E+02  0.13159227698E+02 -0.34649616972E+02  0.40659132330E+02  0.00000000000E+00 0.  1.
         11    1    3    3    0    0  0.19144522306E+01  0.72505461057E+01  0.14675542171E+02  0.16480506196E+02  0.51100000000E-03 0. -1.
        -11    1    3    3    0    0  0.14000648611E+02 -0.11223184798E+02  0.10328366951E+02  0.20703941718E+02  0.51100000000E-03 0.  1.
         12    1    3    3    0    0  0.80027567071E+00 -0.91865890057E+01  0.96457078494E+01  0.13344419756E+02  0.00000000000E+00 0. -1.
</event>
<event>
 7    1  0.1369731E-013  0.5052886E+02  0.7816164E-02  0.1300439E+00
        -11   -1    0    0    0    0  0.00000000000E+00  0.00000000000E+00  0.45593999997E+02  0.45594000000E+02  0.51100000000E-03 0. -1.
         11   -1    0    0    0    0 -0.00000000000E+00 -0.00000000000E+00 -0.45593999997E+02  0.45594000000E+02  0.51100000000E-03 0.  1.
    9900012    2    1    2    0    0 -0.16126632654E+02 -0.72356015073E+01  0.36616160641E+02  0.50528862896E+02  0.30000009260E+02 0.  0.
        -12    1    1    2    0    0  0.16126632654E+02  0.72356015073E+01 -0.36616160641E+02  0.40659137104E+02  0.00000000000E+00 0.  1.
         11    1    3    3    0    0  0.19186059624E+01 -0.30337704119E+01  0.13517247459E+02  0.13985735264E+02  0.51100000000E-03 0. -1.
        -11    1    3    3    0    0 -0.20902251064E+02  0.71263146127E-01  0.11501847505E+02  0.23857947822E+02  0.51100000000E-03 0.  1.
        -12    1    3    3    0    0  0.28570124472E+01 -0.42730942415E+01  0.11597065677E+02  0.12685179811E+02  0.00000000000E+00 0.  1.
</event>
<event>
 7    1  0.1369731E-013  0.5052886E+02  0.7816164E-02  0.1300439E+00
        -11   -1    0    0    0    0  0.00000000000E+00  0.00000000000E+00  0.45593999997E+02  0.45594000000E+02  0.51100000000E-03 0. -1.
         11   -1    0    0    0    0 -0.00000000000E+00 -0.00000000000E+00 -0.45593999997E+02  0.45594000000E+02  0.51100000000E-03 0.  1.
    9900012    2    1    2    0    0  0.37117756373E+01 -0.23546632762E+02  0.32938499384E+02  0.50528856692E+02  0.29999990402E+02 0.  0.
        -12    1    1    2    0    0 -0.37117756373E+01  0.23546632762E+02 -0.32938499384E+02  0.40659143308E+02  0.00000000000E+00 0.  1.
         11    1    3    3    0    0 -0.42805444195E+01 -0.25553424398E+02  0.29587078247E+02  0.39328053072E+02  0.51100000000E-03 0. -1.
        -11    1    3    3    0    0  0.66230025116E+01  0.33735179798E+01  0.47435034612E+01  0.88173471734E+01  0.51100000000E-03 0.  1.
        -12    1    3    3    0    0  0.13693175452E+01 -0.13667263441E+01 -0.13920823234E+01  0.23834564469E+01  0.00000000000E+00 0.  1.
</event>
<event>
 7    1  0.1369731E-013  0.5052886E+02  0.7816164E-02  0.1300439E+00
        -11   -1    0    0    0    0  0.00000000000E+00  0.00000000000E+00  0.45593999997E+02  0.45594000000E+02  0.51100000000E-03 0. -1.
         11   -1    0    0    0    0 -0.00000000000E+00 -0.00000000000E+00 -0.45593999997E+02  0.45594000000E+02  0.51100000000E-03 0.  1.
    9900012    2    1    2    0    0 -0.16846151313E+02  0.74915454252E+01  0.36238785269E+02  0.50528860502E+02  0.30000001981E+02 0.  0.
        -12    1    1    2    0    0  0.16846151313E+02 -0.74915454252E+01 -0.36238785269E+02  0.40659139498E+02  0.00000000000E+00 0.  1.
         11    1    3    3    0    0 -0.36338367254E+00  0.72177825744E-01  0.23102553566E+02  0.23105523990E+02  0.51100000000E-03 0. -1.
        -11    1    3    3    0    0 -0.14989133668E+02  0.11991364162E+02  0.11302474689E+02  0.22275836167E+02  0.51100000000E-03 0.  1.
        -12    1    3    3    0    0 -0.14936339728E+01 -0.45719965625E+01  0.18337570143E+01  0.51475003448E+01  0.00000000000E+00 0.  1.
</event>
<event>
 7    1  0.1369731E-013  0.5052885E+02  0.7816164E-02  0.1300439E+00
        -11   -1    0    0    0    0  0.00000000000E+00  0.00000000000E+00  0.45593999997E+02  0.45594000000E+02  0.51100000000E-03 0. -1.
         11   -1    0    0    0    0 -0.00000000000E+00 -0.00000000000E+00 -0.45593999997E+02  0.45594000000E+02  0.51100000000E-03 0.  1.
    9900012    2    1    2    0    0  0.36196199492E+01 -0.10058754392E+02  0.39228636764E+02  0.50528854278E+02  0.29999983063E+02 0.  0.
        -12    1    1    2    0    0 -0.36196199492E+01  0.10058754392E+02 -0.39228636764E+02  0.40659145722E+02  0.00000000000E+00 0.  1.
         11    1    3    3    0    0 -0.43934257903E+01 -0.15028961603E+02  0.27971637699E+02  0.32055957213E+02  0.51100000000E-03 0. -1.
        -11    1    3    3    0    0  0.78932679323E+01  0.75218424861E+00  0.18196855517E+01  0.81351530756E+01  0.51100000000E-03 0.  1.
        -12    1    3    3    0    0  0.11977780714E+00  0.42180229627E+01  0.94373135133E+01  0.10337743989E+02  0.00000000000E+00 0.  1.
</event>
<event>
 7    1  0.1369731E-013  0.5052886E+02  0.7816164E-02  0.1300439E+00
        -11   -1    0    0    0    0  0.00000000000E+00  0.00000000000E+00  0.45593999997E+02  0.45594000000E+02  0.51100000000E-03 0. -1.
         11   -1    0    0    0    0 -0.00000000000E+00 -0.00000000000E+00 -0.45593999997E+02  0.45594000000E+02  0.51100000000E-03 0.  1.
    9900012    2    1    2    0    0  0.49188041953E+01  0.76288315265E+00  0.40353301665E+02  0.50528861043E+02  0.30000003627E+02 0.  0.
        -12    1    1    2    0    0 -0.49188041953E+01 -0.76288315265E+00 -0.40353301665E+02  0.40659138957E+02  0.00000000000E+00 0.  1.
         11    1    3    3    0    0 -0.37298339875E+01  0.28512715006E+01  0.25784933434E+02  0.26208857342E+02  0.51100000000E-03 0. -1.
        -11    1    3    3    0    0  0.38923936801E+01 -0.97260678534E+01  0.77939233614E+01  0.13057272536E+02  0.51100000000E-03 0.  1.
        -12    1    3    3    0    0  0.47562445026E+01  0.76376795054E+01  0.67744448701E+01  0.11262731165E+02  0.00000000000E+00 0.  1.
</event>
<event>
 7    1  0.1369731E-013  0.5052885E+02  0.7816164E-02  0.1300439E+00
        -11   -1    0    0    0    0  0.00000000000E+00  0.00000000000E+00  0.45593999997E+02  0.45594000000E+02  0.51100000000E-03 0. -1.
         11   -1    0    0    0    0 -0.00000000000E+00 -0.00000000000E+00 -0.45593999997E+02  0.45594000000E+02  0.51100000000E-03 0.  1.
    9900012    2    1    2    0    0  0.72440724201E+01  0.11211117106E+02  0.38405733482E+02  0.50528854703E+02  0.29999984356E+02 0.  0.
        -12    1    1    2    0    0 -0.72440724201E+01 -0.11211117106E+02 -0.38405733482E+02  0.40659145297E+02  0.00000000000E+00 0.  1.
         11    1    3    3    0    0 -0.36332716051E+01  0.15977335754E+01 -0.17183090239E+01  0.43250435024E+01  0.51100000000E-03 0.  1.
        -11    1    3    3    0    0  0.14152572510E+02  0.91817626633E+01  0.39345628228E+02  0.42809794851E+02  0.51100000000E-03 0. -1.
         12    1    3    3    0    0 -0.32752284845E+01  0.43162086711E+00  0.77841427785E+00  0.33940163504E+01  0.00000000000E+00 0. -1.
</event>
<event>
 7    1  0.1369731E-013  0.5052886E+02  0.7816164E-02  0.1300439E+00
        -11   -1    0    0    0    0  0.00000000000E+00  0.00000000000E+00  0.45593999997E+02  0.45594000000E+02  0.51100000000E-03 0. -1.
         11   -1    0    0    0    0 -0.00000000000E+00 -0.00000000000E+00 -0.45593999997E+02  0.45594000000E+02  0.51100000000E-03 0.  1.
    9900012    2    1    2    0    0 -0.66772496994E+01 -0.77423501605E+01 -0.39352716427E+02  0.50528856628E+02  0.29999990205E+02 0.  0.
         12    1    1    2    0    0  0.66772496994E+01  0.77423501605E+01  0.39352716427E+02  0.40659143372E+02  0.00000000000E+00 0. -1.
         11    1    3    3    0    0  0.53459902831E+01 -0.28973731606E+01 -0.10549627051E+02  0.12176576469E+02  0.51100000000E-03 0. -1.
        -11    1    3    3    0    0 -0.14412596038E+02  0.35622627436E+01 -0.24409702944E+02  0.28570023424E+02  0.51100000000E-03 0.  1.
        -12    1    3    3    0    0  0.23893560552E+01 -0.84072397434E+01 -0.43933864328E+01  0.97822567340E+01  0.00000000000E+00 0.  1.
</event>
<event>
 7    1  0.1369731E-013  0.5052886E+02  0.7816164E-02  0.1300439E+00
        -11   -1    0    0    0    0  0.00000000000E+00  0.00000000000E+00  0.45593999997E+02  0.45594000000E+02  0.51100000000E-03 0.  1.
         11   -1    0    0    0    0 -0.00000000000E+00 -0.00000000000E+00 -0.45593999997E+02  0.45594000000E+02  0.51100000000E-03 0. -1.
    9900012    2    1    2    0    0  0.35807154506E+02  0.18197414448E+02  0.63140729491E+01  0.50528859286E+02  0.29999998286E+02 0.  0.
         12    1    1    2    0    0 -0.35807154506E+02 -0.18197414448E+02 -0.63140729491E+01  0.40659140714E+02  0.00000000000E+00 0. -1.
         11    1    3    3    0    0  0.36038201198E+00  0.14085446449E+02 -0.73292163277E+00  0.14109105260E+02  0.51100000000E-03 0. -1.
        -11    1    3    3    0    0  0.18266955803E+02  0.24964916901E+01  0.27885298648E+01  0.18646448566E+02  0.51100000000E-03 0.  1.
         12    1    3    3    0    0  0.17179816691E+02  0.16154763090E+01  0.42584647171E+01  0.17773305460E+02  0.00000000000E+00 0. -1.
</event>
<event>
 7    1  0.1369731E-013  0.5052885E+02  0.7816164E-02  0.1300439E+00
        -11   -1    0    0    0    0  0.00000000000E+00  0.00000000000E+00  0.45593999997E+02  0.45594000000E+02  0.51100000000E-03 0.  1.
         11   -1    0    0    0    0 -0.00000000000E+00 -0.00000000000E+00 -0.45593999997E+02  0.45594000000E+02  0.51100000000E-03 0. -1.
    9900012    2    1    2    0    0  0.35169041182E+02  0.13441387254E+02  0.15350383802E+02  0.50528848117E+02  0.29999964336E+02 0.  0.
        -12    1    1    2    0    0 -0.35169041182E+02 -0.13441387254E+02 -0.15350383802E+02  0.40659151883E+02  0.00000000000E+00 0.  1.
         11    1    3    3    0    0  0.55823708752E+01  0.13904187610E+02  0.11065771688E+02  0.18626341589E+02  0.51100000000E-03 0. -1.
        -11    1    3    3    0    0  0.27753830496E+02  0.14277070103E+01  0.11577298961E+01  0.27814632719E+02  0.51100000000E-03 0.  1.
         12    1    3    3    0    0  0.18328398105E+01 -0.18905073661E+01  0.31268822174E+01  0.40878738084E+01  0.00000000000E+00 0. -1.
</event>
<event>
 7    1  0.1369731E-013  0.5052886E+02  0.7816164E-02  0.1300439E+00
        -11   -1    0    0    0    0  0.00000000000E+00  0.00000000000E+00  0.45593999997E+02  0.45594000000E+02  0.51100000000E-03 0.  1.
         11   -1    0    0    0    0 -0.00000000000E+00 -0.00000000000E+00 -0.45593999997E+02  0.45594000000E+02  0.51100000000E-03 0. -1.
    9900012    2    1    2    0    0 -0.27160211749E+02  0.24196611113E+02  0.18166248154E+02  0.50528860023E+02  0.30000000527E+02 0.  0.
        -12    1    1    2    0    0  0.27160211749E+02 -0.24196611113E+02 -0.18166248154E+02  0.40659139977E+02  0.00000000000E+00 0.  1.
         11    1    3    3    0    0 -0.15819321209E+02  0.32704377333E+01 -0.76237262609E+00  0.16171824225E+02  0.51100000000E-03 0. -1.
        -11    1    3    3    0    0 -0.61748121921E+01  0.22320512049E+02  0.16741314711E+02  0.28576304559E+02  0.51100000000E-03 0.  1.
        -12    1    3    3    0    0 -0.51660783479E+01 -0.13943386687E+01  0.21873060694E+01  0.57807312393E+01  0.00000000000E+00 0.  1.
</event>
<event>
 7    1  0.1369731E-013  0.5052887E+02  0.7816164E-02  0.1300439E+00
        -11   -1    0    0    0    0  0.00000000000E+00  0.00000000000E+00  0.45593999997E+02  0.45594000000E+02  0.51100000000E-03 0. -1.
         11   -1    0    0    0    0 -0.00000000000E+00 -0.00000000000E+00 -0.45593999997E+02  0.45594000000E+02  0.51100000000E-03 0.  1.
    9900012    2    1    2    0    0  0.96198757072E+00  0.92630928145E+01  0.39578203156E+02  0.50528874658E+02  0.30000045009E+02 0.  0.
        -12    1    1    2    0    0 -0.96198757072E+00 -0.92630928145E+01 -0.39578203156E+02  0.40659125342E+02  0.00000000000E+00 0.  1.
         11    1    3    3    0    0  0.13722611106E+02  0.59654033289E+01  0.13008997781E+02  0.19827509071E+02  0.51100000000E-03 0. -1.
        -11    1    3    3    0    0 -0.28455438007E+01 -0.13970180006E+00  0.14187882458E+02  0.14471096884E+02  0.51100000000E-03 0.  1.
         12    1    3    3    0    0 -0.99150797345E+01  0.34373912857E+01  0.12381322916E+02  0.16230268703E+02  0.00000000000E+00 0. -1.
</event>
<event>
 7    1  0.1369731E-013  0.5052886E+02  0.7816164E-02  0.1300439E+00
        -11   -1    0    0    0    0  0.00000000000E+00  0.00000000000E+00  0.45593999997E+02  0.45594000000E+02  0.51100000000E-03 0.  1.
         11   -1    0    0    0    0 -0.00000000000E+00 -0.00000000000E+00 -0.45593999997E+02  0.45594000000E+02  0.51100000000E-03 0. -1.
    9900012    2    1    2    0    0 -0.69089899778E+01 -0.38905447593E+02  0.95811235930E+01  0.50528856819E+02  0.29999990786E+02 0.  0.
        -12    1    1    2    0    0  0.69089899778E+01  0.38905447593E+02 -0.95811235930E+01  0.40659143181E+02  0.00000000000E+00 0.  1.
         11    1    3    3    0    0  0.41822231728E+01 -0.14417969525E+01 -0.37907988596E+01  0.58257982607E+01  0.51100000000E-03 0. -1.
        -11    1    3    3    0    0 -0.76382838925E+01 -0.22005518927E+02  0.16516453305E+02  0.28554850273E+02  0.51100000000E-03 0.  1.
        -12    1    3    3    0    0 -0.34529292580E+01 -0.15458131713E+02 -0.31445308522E+01  0.16148208285E+02  0.00000000000E+00 0.  1.
</event>
<event>
 7    1  0.1369731E-013  0.5052886E+02  0.7816164E-02  0.1300439E+00
        -11   -1    0    0    0    0  0.00000000000E+00  0.00000000000E+00  0.45593999997E+02  0.45594000000E+02  0.51100000000E-03 0. -1.
         11   -1    0    0    0    0 -0.00000000000E+00 -0.00000000000E+00 -0.45593999997E+02  0.45594000000E+02  0.51100000000E-03 0.  1.
    9900012    2    1    2    0    0  0.22179858562E+02  0.10071622150E+01 -0.34061782755E+02  0.50528861470E+02  0.30000004923E+02 0.  0.
         12    1    1    2    0    0 -0.22179858562E+02 -0.10071622150E+01  0.34061782755E+02  0.40659138530E+02  0.00000000000E+00 0. -1.
         11    1    3    3    0    0  0.23359525851E+02 -0.53199996544E+01 -0.25576051657E+02  0.35044318554E+02  0.51100000000E-03 0. -1.
        -11    1    3    3    0    0 -0.58960603918E+01  0.14676833837E+01 -0.49965599920E+01  0.78665897741E+01  0.51100000000E-03 0.  1.
         12    1    3    3    0    0  0.47163931032E+01  0.48594784857E+01 -0.34891711061E+01  0.76179531414E+01  0.00000000000E+00 0. -1.
</event>
<event>
 7    1  0.1369731E-013  0.5052886E+02  0.7816164E-02  0.1300439E+00
        -11   -1    0    0    0    0  0.00000000000E+00  0.00000000000E+00  0.45593999997E+02  0.45594000000E+02  0.51100000000E-03 0. -1.
         11   -1    0    0    0    0 -0.00000000000E+00 -0.00000000000E+00 -0.45593999997E+02  0.45594000000E+02  0.51100000000E-03 0.  1.
    9900012    2    1    2    0    0 -0.38381368963E+01 -0.97984178527E+01  0.39273719275E+02  0.50528864336E+02  0.30000013637E+02 0.  0.
        -12    1    1    2    0    0  0.38381368963E+01  0.97984178527E+01 -0.39273719275E+02  0.40659135664E+02  0.00000000000E+00 0.  1.
         11    1    3    3    0    0 -0.45485619602E+01 -0.50339397648E+01  0.65794222393E+01  0.94508604225E+01  0.51100000000E-03 0. -1.
        -11    1    3    3    0    0  0.21857505528E+01  0.88474958482E+01  0.21640357458E+02  0.23481072366E+02  0.51100000000E-03 0.  1.
        -12    1    3    3    0    0 -0.14753254889E+01 -0.13611973936E+02  0.11053939577E+02  0.17596931548E+02  0.00000000000E+00 0.  1.
</event>
<event>
 7    1  0.1369731E-013  0.5052886E+02  0.7816164E-02  0.1300439E+00
        -11   -1    0    0    0    0  0.00000000000E+00  0.00000000000E+00  0.45593999997E+02  0.45594000000E+02  0.51100000000E-03 0. -1.
         11   -1    0    0    0    0 -0.00000000000E+00 -0.00000000000E+00 -0.45593999997E+02  0.45594000000E+02  0.51100000000E-03 0.  1.
    9900012    2    1    2    0    0  0.14613516444E+02 -0.66283325027E+01  0.37358751166E+02  0.50528856584E+02  0.29999990073E+02 0.  0.
        -12    1    1    2    0    0 -0.14613516444E+02  0.66283325027E+01 -0.37358751166E+02  0.40659143416E+02  0.00000000000E+00 0.  1.
         11    1    3    3    0    0 -0.13857669793E+01 -0.10186361817E+02  0.21670038383E+02  0.23984846903E+02  0.51100000000E-03 0. -1.
        -11    1    3    3    0    0  0.17157327507E+02  0.56454919899E+01  0.16008648528E+02  0.24135498647E+02  0.51100000000E-03 0.  1.
        -12    1    3    3    0    0 -0.11580440830E+01 -0.20874626759E+01 -0.31993574502E+00  0.24085110343E+01  0.00000000000E+00 0.  1.
</event>
<event>
 7    1  0.1369731E-013  0.5052886E+02  0.7816164E-02  0.1300439E+00
        -11   -1    0    0    0    0  0.00000000000E+00  0.00000000000E+00  0.45593999997E+02  0.45594000000E+02  0.51100000000E-03 0. -1.
         11   -1    0    0    0    0 -0.00000000000E+00 -0.00000000000E+00 -0.45593999997E+02  0.45594000000E+02  0.51100000000E-03 0.  1.
    9900012    2    1    2    0    0 -0.14485150501E+02 -0.28904785567E+02  0.24654808237E+02  0.50528858556E+02  0.29999996067E+02 0.  0.
        -12    1    1    2    0    0  0.14485150501E+02  0.28904785567E+02 -0.24654808237E+02  0.40659141444E+02  0.00000000000E+00 0.  1.
         11    1    3    3    0    0 -0.36002357253E+01 -0.31744236295E+01  0.16289983347E+02  0.16982409144E+02  0.51100000000E-03 0. -1.
        -11    1    3    3    0    0  0.50287386139E+00 -0.15935272749E+02 -0.77749490195E+00  0.15962152057E+02  0.51100000000E-03 0.  1.
         12    1    3    3    0    0 -0.11387788637E+02 -0.97950891891E+01  0.91423197927E+01  0.17584297355E+02  0.00000000000E+00 0. -1.
</event>
<event>
 7    1  0.1369731E-013  0.5052885E+02  0.7816164E-02  0.1300439E+00
        -11   -1    0    0    0    0  0.00000000000E+00  0.00000000000E+00  0.45593999997E+02  0.45594000000E+02  0.51100000000E-03 0. -1.
         11   -1    0    0    0    0 -0.00000000000E+00 -0.00000000000E+00 -0.45593999997E+02  0.45594000000E+02  0.51100000000E-03 0.  1.
    9900012    2    1    2    0    0  0.22760031875E+02  0.30846919863E+02  0.13550470136E+02  0.50528846579E+02  0.29999959663E+02 0.  0.
        -12    1    1    2    0    0 -0.22760031875E+02 -0.30846919863E+02 -0.13550470136E+02  0.40659153421E+02  0.00000000000E+00 0.  1.
         11    1    3    3    0    0  0.13980582828E+02  0.38498207163E+01  0.79667998738E+01  0.16545323093E+02  0.51100000000E-03 0. -1.
        -11    1    3    3    0    0  0.42677997698E+01  0.27570519991E+02  0.16118901428E+01  0.27945408881E+02  0.51100000000E-03 0.  1.
        -12    1    3    3    0    0  0.45116492774E+01 -0.57342084471E+00  0.39717801198E+01  0.60381146053E+01  0.00000000000E+00 0.  1.
</event>
<event>
 7    1  0.1369731E-013  0.5052886E+02  0.7816164E-02  0.1300439E+00
        -11   -1    0    0    0    0  0.00000000000E+00  0.00000000000E+00  0.45593999997E+02  0.45594000000E+02  0.51100000000E-03 0. -1.
         11   -1    0    0    0    0 -0.00000000000E+00 -0.00000000000E+00 -0.45593999997E+02  0.45594000000E+02  0.51100000000E-03 0.  1.
    9900012    2    1    2    0    0 -0.20023441648E+02  0.25181928640E+01  0.35297109107E+02  0.50528862994E+02  0.30000009556E+02 0.  0.
        -12    1    1    2    0    0  0.20023441648E+02 -0.25181928640E+01 -0.35297109107E+02  0.40659137006E+02  0.00000000000E+00 0.  1.
         11    1    3    3    0    0 -0.15032333931E+02  0.95335358243E+01  0.14649356766E+02  0.23053481790E+02  0.51100000000E-03 0. -1.
        -11    1    3    3    0    0 -0.31050520976E+01 -0.66373206098E+01  0.23171271898E+02  0.24302329416E+02  0.51100000000E-03 0.  1.
        -12    1    3    3    0    0 -0.18860556201E+01 -0.37802235048E+00 -0.25235195565E+01  0.31730517883E+01  0.00000000000E+00 0.  1.
</event>
<event>
 7    1  0.1369731E-013  0.5052887E+02  0.7816164E-02  0.1300439E+00
        -11   -1    0    0    0    0  0.00000000000E+00  0.00000000000E+00  0.45593999997E+02  0.45594000000E+02  0.51100000000E-03 0. -1.
         11   -1    0    0    0    0 -0.00000000000E+00 -0.00000000000E+00 -0.45593999997E+02  0.45594000000E+02  0.51100000000E-03 0.  1.
    9900012    2    1    2    0    0  0.82475852566E+01 -0.38228170142E+01 -0.39629891384E+02  0.50528869616E+02  0.30000029686E+02 0.  0.
         12    1    1    2    0    0 -0.82475852566E+01  0.38228170142E+01  0.39629891384E+02  0.40659130384E+02  0.00000000000E+00 0. -1.
         11    1    3    3    0    0  0.82815267713E+01  0.94409941361E+01 -0.83955473305E+01  0.15106332155E+02  0.51100000000E-03 0. -1.
        -11    1    3    3    0    0  0.44512367758E+01 -0.26668118348E+01 -0.10347016004E+02  0.11575237995E+02  0.51100000000E-03 0.  1.
         12    1    3    3    0    0 -0.44851782905E+01 -0.10596999315E+02 -0.20887328049E+02  0.23847299466E+02  0.00000000000E+00 0. -1.
</event>
<event>
 7    1  0.1369731E-013  0.5052886E+02  0.7816164E-02  0.1300439E+00
        -11   -1    0    0    0    0  0.00000000000E+00  0.00000000000E+00  0.45593999997E+02  0.45594000000E+02  0.51100000000E-03 0. -1.
         11   -1    0    0    0    0 -0.00000000000E+00 -0.00000000000E+00 -0.45593999997E+02  0.45594000000E+02  0.51100000000E-03 0.  1.
    9900012    2    1    2    0    0 -0.31875745611E+02  0.50714324912E+01 -0.24726160588E+02  0.50528860767E+02  0.30000002787E+02 0.  0.
         12    1    1    2    0    0  0.31875745611E+02 -0.50714324912E+01  0.24726160588E+02  0.40659139233E+02  0.00000000000E+00 0. -1.
         11    1    3    3    0    0  0.17027915032E+01 -0.31207306310E+01 -0.31911738452E+01  0.47772428603E+01  0.51100000000E-03 0. -1.
        -11    1    3    3    0    0 -0.32160469925E+02  0.53183443067E+00 -0.19798942672E+02  0.37770051693E+02  0.51100000000E-03 0.  1.
        -12    1    3    3    0    0 -0.14180671891E+01  0.76603286915E+01 -0.17360440704E+01  0.79815662141E+01  0.00000000000E+00 0.  1.
</event>
<event>
 7    1  0.1452793E-013  0.5052886E+02  0.7816164E-02  0.1300439E+00
        -11   -1    0    0    0    0  0.00000000000E+00  0.00000000000E+00  0.45593999997E+02  0.45594000000E+02  0.51100000000E-03 0. -1.
         11   -1    0    0    0    0 -0.00000000000E+00 -0.00000000000E+00 -0.45593999997E+02  0.45594000000E+02  0.51100000000E-03 0.  1.
    9900012    2    1    2    0    0 -0.86874844860E+01  0.11810920156E+02 -0.37923548222E+02  0.50528859191E+02  0.29999997996E+02 0.  0.
         12    1    1    2    0    0  0.86874844860E+01 -0.11810920156E+02  0.37923548222E+02  0.40659140809E+02  0.00000000000E+00 0. -1.
         11    1    3    3    0    0 -0.33450668094E+01 -0.44923111883E+01 -0.45746770666E-01  0.56011092473E+01  0.51100000000E-03 0. -1.
        -11    1    3    3    0    0 -0.10365410918E+02  0.84973957717E+01 -0.29589292898E+02  0.32483437824E+02  0.51100000000E-03 0.  1.
         12    1    3    3    0    0  0.50229932414E+01  0.78058355721E+01 -0.82885085530E+01  0.12444312119E+02  0.00000000000E+00 0. -1.
</event>
<event>
 7    1  0.1369731E-013  0.5052887E+02  0.7816164E-02  0.1300439E+00
        -11   -1    0    0    0    0  0.00000000000E+00  0.00000000000E+00  0.45593999997E+02  0.45594000000E+02  0.51100000000E-03 0. -1.
         11   -1    0    0    0    0 -0.00000000000E+00 -0.00000000000E+00 -0.45593999997E+02  0.45594000000E+02  0.51100000000E-03 0.  1.
    9900012    2    1    2    0    0 -0.15222759490E+02 -0.37521968581E+02 -0.36789171566E+01  0.50528868625E+02  0.30000026673E+02 0.  0.
        -12    1    1    2    0    0  0.15222759490E+02  0.37521968581E+02  0.36789171566E+01  0.40659131375E+02  0.00000000000E+00 0.  1.
         11    1    3    3    0    0 -0.13872322105E+02 -0.23566712197E+02  0.23152161149E+00  0.27347483374E+02  0.51100000000E-03 0. -1.
        -11    1    3    3    0    0  0.31708139443E+01 -0.13785700692E+02 -0.86886551210E+01  0.16600973848E+02  0.51100000000E-03 0.  1.
         12    1    3    3    0    0 -0.45212513296E+01 -0.16955569235E+00  0.47782163529E+01  0.65804114030E+01  0.00000000000E+00 0. -1.
</event>
<event>
 7    1  0.1602039E-013  0.5052886E+02  0.7816164E-02  0.1300439E+00
        -11   -1    0    0    0    0  0.00000000000E+00  0.00000000000E+00  0.45593999997E+02  0.45594000000E+02  0.51100000000E-03 0. -1.
         11   -1    0    0    0    0 -0.00000000000E+00 -0.00000000000E+00 -0.45593999997E+02  0.45594000000E+02  0.51100000000E-03 0.  1.
    9900012    2    1    2    0    0  0.21654170447E+02 -0.10446088675E+02 -0.32789352480E+02  0.50528862006E+02  0.30000006554E+02 0.  0.
         12    1    1    2    0    0 -0.21654170447E+02  0.10446088675E+02  0.32789352480E+02  0.40659137994E+02  0.00000000000E+00 0. -1.
         11    1    3    3    0    0 -0.37724798210E+00  0.58141490077E+01 -0.13447578618E+02  0.14655511444E+02  0.51100000000E-03 0. -1.
        -11    1    3    3    0    0  0.19320466599E+02 -0.11897809966E+02 -0.20532468421E+02  0.30600989711E+02  0.51100000000E-03 0.  1.
         12    1    3    3    0    0  0.27109518297E+01 -0.43624277173E+01  0.11906945595E+01  0.52723608512E+01  0.00000000000E+00 0. -1.
</event>
<event>
 7    1  0.1369731E-013  0.5052887E+02  0.7816164E-02  0.1300439E+00
        -11   -1    0    0    0    0  0.00000000000E+00  0.00000000000E+00  0.45593999997E+02  0.45594000000E+02  0.51100000000E-03 0. -1.
         11   -1    0    0    0    0 -0.00000000000E+00 -0.00000000000E+00 -0.45593999997E+02  0.45594000000E+02  0.51100000000E-03 0.  1.
    9900012    2    1    2    0    0  0.15938412731E+02  0.26588875220E+01 -0.37310346028E+02  0.50528873055E+02  0.30000040137E+02 0.  0.
         12    1    1    2    0    0 -0.15938412731E+02 -0.26588875220E+01  0.37310346028E+02  0.40659126945E+02  0.00000000000E+00 0. -1.
         11    1    3    3    0    0  0.52617646238E+01  0.14656993754E+02 -0.17087556299E+02  0.23119217405E+02  0.51100000000E-03 0. -1.
        -11    1    3    3    0    0 -0.74919603020E+00 -0.43525831604E+01 -0.73554468699E+01  0.85795613977E+01  0.51100000000E-03 0.  1.
         12    1    3    3    0    0  0.11425844138E+02 -0.76455230719E+01 -0.12867342859E+02  0.18830094252E+02  0.00000000000E+00 0. -1.
</event>
<event>
 7    1  0.1369731E-013  0.5052887E+02  0.7816164E-02  0.1300439E+00
        -11   -1    0    0    0    0  0.00000000000E+00  0.00000000000E+00  0.45593999997E+02  0.45594000000E+02  0.51100000000E-03 0. -1.
         11   -1    0    0    0    0 -0.00000000000E+00 -0.00000000000E+00 -0.45593999997E+02  0.45594000000E+02  0.51100000000E-03 0.  1.
    9900012    2    1    2    0    0  0.16504813329E+02  0.70255770682E+01  0.36488320533E+02  0.50528866567E+02  0.30000020418E+02 0.  0.
        -12    1    1    2    0    0 -0.16504813329E+02 -0.70255770682E+01 -0.36488320533E+02  0.40659133433E+02  0.00000000000E+00 0.  1.
         11    1    3    3    0    0  0.11853990389E+02  0.14401385467E+02  0.31483861382E+02  0.36594405573E+02  0.51100000000E-03 0. -1.
        -11    1    3    3    0    0  0.17807107509E+01  0.22119839859E+01  0.20400043903E+01  0.34964871094E+01  0.51100000000E-03 0.  1.
         12    1    3    3    0    0  0.28701121891E+01 -0.95877923843E+01  0.29644547611E+01  0.10437973884E+02  0.00000000000E+00 0. -1.
</event>
<event>
 7    1  0.1369731E-013  0.5052887E+02  0.7816164E-02  0.1300439E+00
        -11   -1    0    0    0    0  0.00000000000E+00  0.00000000000E+00  0.45593999997E+02  0.45594000000E+02  0.51100000000E-03 0. -1.
         11   -1    0    0    0    0 -0.00000000000E+00 -0.00000000000E+00 -0.45593999997E+02  0.45594000000E+02  0.51100000000E-03 0.  1.
    9900012    2    1    2    0    0  0.16291839666E+02 -0.24082591683E+01 -0.37174469958E+02  0.50528868571E+02  0.30000026507E+02 0.  0.
         12    1    1    2    0    0 -0.16291839666E+02  0.24082591683E+01  0.37174469958E+02  0.40659131429E+02  0.00000000000E+00 0. -1.
         11    1    3    3    0    0 -0.33351957593E+01 -0.53570348702E+01  0.16334125800E+01  0.65183886253E+01  0.51100000000E-03 0. -1.
        -11    1    3    3    0    0  0.10877554381E+02  0.45315363076E+01 -0.20159347783E+02  0.23350702643E+02  0.51100000000E-03 0.  1.
         12    1    3    3    0    0  0.87494810441E+01 -0.15827606057E+01 -0.18648534755E+02  0.20659777302E+02  0.00000000000E+00 0. -1.
</event>
<event>
 7    1  0.1369731E-013  0.5052886E+02  0.7816164E-02  0.1300439E+00
        -11   -1    0    0    0    0  0.00000000000E+00  0.00000000000E+00  0.45593999997E+02  0.45594000000E+02  0.51100000000E-03 0. -1.
         11   -1    0    0    0    0 -0.00000000000E+00 -0.00000000000E+00 -0.45593999997E+02  0.45594000000E+02  0.51100000000E-03 0.  1.
    9900012    2    1    2    0    0 -0.11880034403E+02  0.21834102930E+02 -0.32176116805E+02  0.50528858829E+02  0.29999996895E+02 0.  0.
         12    1    1    2    0    0  0.11880034403E+02 -0.21834102930E+02  0.32176116805E+02  0.40659141171E+02  0.00000000000E+00 0. -1.
         11    1    3    3    0    0 -0.46963361803E+00  0.58955156771E+01 -0.26584396734E+02  0.27234313114E+02  0.51100000000E-03 0. -1.
        -11    1    3    3    0    0 -0.52135462754E+01  0.26229874070E+00 -0.35540968881E+01  0.63151777763E+01  0.51100000000E-03 0.  1.
         12    1    3    3    0    0 -0.61968545093E+01  0.15676288513E+02 -0.20376231823E+01  0.16979367938E+02  0.00000000000E+00 0. -1.
</event>
<event>
 7    1  0.1369731E-013  0.5052886E+02  0.7816164E-02  0.1300439E+00
        -11   -1    0    0    0    0  0.00000000000E+00  0.00000000000E+00  0.45593999997E+02  0.45594000000E+02  0.51100000000E-03 0. -1.
         11   -1    0    0    0    0 -0.00000000000E+00 -0.00000000000E+00 -0.45593999997E+02  0.45594000000E+02  0.51100000000E-03 0.  1.
    9900012    2    1    2    0    0 -0.19392515278E+01 -0.35693397680E+02  0.19374881238E+02  0.50528863789E+02  0.30000011973E+02 0.  0.
        -12    1    1    2    0    0  0.19392515278E+01  0.35693397680E+02 -0.19374881238E+02  0.40659136211E+02  0.00000000000E+00 0.  1.
         11    1    3    3    0    0  0.56456342567E+01 -0.21848067961E+02  0.98919789864E+01  0.24638638524E+02  0.51100000000E-03 0. -1.
        -11    1    3    3    0    0 -0.50278732771E+01  0.30583159662E+01  0.60747670148E+01  0.84578721192E+01  0.51100000000E-03 0.  1.
        -12    1    3    3    0    0 -0.25570125074E+01 -0.16903645685E+02  0.34081352370E+01  0.17432353146E+02  0.00000000000E+00 0.  1.
</event>
<event>
 7    1  0.1369731E-013  0.5052886E+02  0.7816164E-02  0.1300439E+00
        -11   -1    0    0    0    0  0.00000000000E+00  0.00000000000E+00  0.45593999997E+02  0.45594000000E+02  0.51100000000E-03 0. -1.
         11   -1    0    0    0    0 -0.00000000000E+00 -0.00000000000E+00 -0.45593999997E+02  0.45594000000E+02  0.51100000000E-03 0.  1.
    9900012    2    1    2    0    0  0.81314385173E+01 -0.12961624912E+02  0.37670170712E+02  0.50528858664E+02  0.29999996395E+02 0.  0.
        -12    1    1    2    0    0 -0.81314385173E+01  0.12961624912E+02 -0.37670170712E+02  0.40659141336E+02  0.00000000000E+00 0.  1.
         11    1    3    3    0    0  0.64191702871E+01  0.28876475373E+01  0.23072096672E+02  0.24121896703E+02  0.51100000000E-03 0. -1.
        -11    1    3    3    0    0  0.10410315937E+01 -0.17772697277E+02  0.15998038994E+02  0.23935115776E+02  0.51100000000E-03 0.  1.
        -12    1    3    3    0    0  0.67123663648E+00  0.19234248276E+01 -0.13999649543E+01  0.24718461851E+01  0.00000000000E+00 0.  1.
</event>
<event>
 7    1  0.1369731E-013  0.5052890E+02  0.7816164E-02  0.1300439E+00
        -11   -1    0    0    0    0  0.00000000000E+00  0.00000000000E+00  0.45593999997E+02  0.45594000000E+02  0.51100000000E-03 0. -1.
         11   -1    0    0    0    0 -0.00000000000E+00 -0.00000000000E+00 -0.45593999997E+02  0.45594000000E+02  0.51100000000E-03 0.  1.
    9900012    2    1    2    0    0  0.22916673891E+02  0.29774608398E+02  0.15539033712E+02  0.50528895040E+02  0.30000106963E+02 0.  0.
        -12    1    1    2    0    0 -0.22916673891E+02 -0.29774608398E+02 -0.15539033712E+02  0.40659104960E+02  0.00000000000E+00 0.  1.
         11    1    3    3    0    0  0.21172130345E+02  0.15187725968E+02  0.20380523728E+02  0.33080082695E+02  0.51100000000E-03 0. -1.
        -11    1    3    3    0    0  0.33331536279E+01  0.14625865175E+02 -0.35857983363E+01  0.15423481942E+02  0.51100000000E-03 0.  1.
         12    1    3    3    0    0 -0.15886100821E+01 -0.38982745073E-01 -0.12556916797E+01  0.20253304032E+01  0.00000000000E+00 0. -1.
</event>
<event>
 7    1  0.1369731E-013  0.5052886E+02  0.7816164E-02  0.1300439E+00
        -11   -1    0    0    0    0  0.00000000000E+00  0.00000000000E+00  0.45593999997E+02  0.45594000000E+02  0.51100000000E-03 0.  1.
         11   -1    0    0    0    0 -0.00000000000E+00 -0.00000000000E+00 -0.45593999997E+02  0.45594000000E+02  0.51100000000E-03 0. -1.
    9900012    2    1    2    0    0  0.22779153798E+02 -0.24804826608E+02  0.22781495799E+02  0.50528858080E+02  0.29999994620E+02 0.  0.
        -12    1    1    2    0    0 -0.22779153798E+02  0.24804826608E+02 -0.22781495799E+02  0.40659141920E+02  0.00000000000E+00 0.  1.
         11    1    3    3    0    0 -0.23298943602E+01 -0.18220967957E+02  0.12752938107E+02  0.22362234048E+02  0.51100000000E-03 0. -1.
        -11    1    3    3    0    0  0.43361437009E+01 -0.11781351408E+01  0.36067082496E+01  0.57618130188E+01  0.51100000000E-03 0.  1.
         12    1    3    3    0    0  0.20772904457E+02 -0.54057235107E+01  0.64218494424E+01  0.22404811013E+02  0.00000000000E+00 0. -1.
</event>
<event>
 7    1  0.1369731E-013  0.5052886E+02  0.7816164E-02  0.1300439E+00
        -11   -1    0    0    0    0  0.00000000000E+00  0.00000000000E+00  0.45593999997E+02  0.45594000000E+02  0.51100000000E-03 0. -1.
         11   -1    0    0    0    0 -0.00000000000E+00 -0.00000000000E+00 -0.45593999997E+02  0.45594000000E+02  0.51100000000E-03 0.  1.
    9900012    2    1    2    0    0  0.34344280833E+02 -0.15780778244E+02 -0.14986768061E+02  0.50528858287E+02  0.29999995248E+02 0.  0.
         12    1    1    2    0    0 -0.34344280833E+02  0.15780778244E+02  0.14986768061E+02  0.40659141713E+02  0.00000000000E+00 0. -1.
         11    1    3    3    0    0  0.21325070285E+02 -0.16258387460E+02  0.30445177448E+01  0.26988198792E+02  0.51100000000E-03 0. -1.
        -11    1    3    3    0    0  0.51315760607E+01 -0.28989335180E+01 -0.10869065440E+02  0.12364201236E+02  0.51100000000E-03 0.  1.
         12    1    3    3    0    0  0.78876344877E+01  0.33765427339E+01 -0.71622203656E+01  0.11176458259E+02  0.00000000000E+00 0. -1.
</event>
<event>
 7    1  0.1369731E-013  0.5052886E+02  0.7816164E-02  0.1300439E+00
        -11   -1    0    0    0    0  0.00000000000E+00  0.00000000000E+00  0.45593999997E+02  0.45594000000E+02  0.51100000000E-03 0. -1.
         11   -1    0    0    0    0 -0.00000000000E+00 -0.00000000000E+00 -0.45593999997E+02  0.45594000000E+02  0.51100000000E-03 0.  1.
    9900012    2    1    2    0    0  0.11325945002E+02 -0.34918206941E+02 -0.17481640872E+02  0.50528856210E+02  0.29999988935E+02 0.  0.
         12    1    1    2    0    0 -0.11325945002E+02  0.34918206941E+02  0.17481640872E+02  0.40659143790E+02  0.00000000000E+00 0. -1.
         11    1    3    3    0    0 -0.62361886095E+01 -0.11551356408E+02  0.25063914409E+01  0.13364351146E+02  0.51100000000E-03 0. -1.
        -11    1    3    3    0    0  0.26524018028E+01 -0.11560164658E+02 -0.10808529091E+02  0.16046711302E+02  0.51100000000E-03 0.  1.
         12    1    3    3    0    0  0.14909731809E+02 -0.11806685875E+02 -0.91795032222E+01  0.21117793762E+02  0.00000000000E+00 0. -1.
</event>
<event>
 7    1  0.1369731E-013  0.5052886E+02  0.7816164E-02  0.1300439E+00
        -11   -1    0    0    0    0  0.00000000000E+00  0.00000000000E+00  0.45593999997E+02  0.45594000000E+02  0.51100000000E-03 0. -1.
         11   -1    0    0    0    0 -0.00000000000E+00 -0.00000000000E+00 -0.45593999997E+02  0.45594000000E+02  0.51100000000E-03 0.  1.
    9900012    2    1    2    0    0  0.27441436416E+02 -0.68805134777E+01  0.29202595146E+02  0.50528862509E+02  0.30000008082E+02 0.  0.
        -12    1    1    2    0    0 -0.27441436416E+02  0.68805134777E+01 -0.29202595146E+02  0.40659137491E+02  0.00000000000E+00 0.  1.
         11    1    3    3    0    0  0.18377097837E+02 -0.14495846320E+01  0.10105161552E+02  0.21022209940E+02  0.51100000000E-03 0. -1.
        -11    1    3    3    0    0  0.70565168284E+01 -0.11387447206E+02  0.18965079773E+02  0.23219445184E+02  0.51100000000E-03 0.  1.
        -12    1    3    3    0    0  0.20078217504E+01  0.59565183605E+01  0.13235382078E+00  0.62872073844E+01  0.00000000000E+00 0.  1.
</event>
<event>
 7    1  0.1369731E-013  0.5052886E+02  0.7816164E-02  0.1300439E+00
        -11   -1    0    0    0    0  0.00000000000E+00  0.00000000000E+00  0.45593999997E+02  0.45594000000E+02  0.51100000000E-03 0. -1.
         11   -1    0    0    0    0 -0.00000000000E+00 -0.00000000000E+00 -0.45593999997E+02  0.45594000000E+02  0.51100000000E-03 0.  1.
    9900012    2    1    2    0    0  0.15378294932E+02 -0.10793951911E+02  0.36057789154E+02  0.50528861894E+02  0.30000006212E+02 0.  0.
        -12    1    1    2    0    0 -0.15378294932E+02  0.10793951911E+02 -0.36057789154E+02  0.40659138106E+02  0.00000000000E+00 0.  1.
         11    1    3    3    0    0  0.69563530100E+01  0.45873269942E+01  0.99151375007E+01  0.12951616427E+02  0.51100000000E-03 0. -1.
        -11    1    3    3    0    0  0.60490905415E+01 -0.19056373458E+02  0.26490815393E+02  0.33188856054E+02  0.51100000000E-03 0.  1.
        -12    1    3    3    0    0  0.23728513807E+01  0.36750945528E+01 -0.34816373977E+00  0.43883894126E+01  0.00000000000E+00 0.  1.
</event>
<event>
 7    1  0.1369731E-013  0.5052885E+02  0.7816164E-02  0.1300439E+00
        -11   -1    0    0    0    0  0.00000000000E+00  0.00000000000E+00  0.45593999997E+02  0.45594000000E+02  0.51100000000E-03 0.  1.
         11   -1    0    0    0    0 -0.00000000000E+00 -0.00000000000E+00 -0.45593999997E+02  0.45594000000E+02  0.51100000000E-03 0. -1.
    9900012    2    1    2    0    0  0.11001077555E+02  0.35918334724E+02 -0.15556861662E+02  0.50528850703E+02  0.29999972198E+02 0.  0.
         12    1    1    2    0    0 -0.11001077555E+02 -0.35918334724E+02  0.15556861662E+02  0.40659149297E+02  0.00000000000E+00 0. -1.
         11    1    3    3    0    0  0.11643476333E+02  0.91887604375E+01 -0.18265289241E+02  0.23529229712E+02  0.51100000000E-03 0. -1.
        -11    1    3    3    0    0 -0.31769209440E+00  0.13104069819E+02  0.21599053527E-01  0.13107938086E+02  0.51100000000E-03 0.  1.
         12    1    3    3    0    0 -0.32470668320E+00  0.13625504468E+02  0.26868285255E+01  0.13891682906E+02  0.00000000000E+00 0. -1.
</event>
<event>
 7    1  0.1369731E-013  0.5052886E+02  0.7816164E-02  0.1300439E+00
        -11   -1    0    0    0    0  0.00000000000E+00  0.00000000000E+00  0.45593999997E+02  0.45594000000E+02  0.51100000000E-03 0. -1.
         11   -1    0    0    0    0 -0.00000000000E+00 -0.00000000000E+00 -0.45593999997E+02  0.45594000000E+02  0.51100000000E-03 0.  1.
    9900012    2    1    2    0    0  0.26380793145E+02  0.12434583681E+02  0.28330202034E+02  0.50528862459E+02  0.30000007931E+02 0.  0.
        -12    1    1    2    0    0 -0.26380793145E+02 -0.12434583681E+02 -0.28330202034E+02  0.40659137541E+02  0.00000000000E+00 0.  1.
         11    1    3    3    0    0  0.18898736465E+02  0.20272499372E+00  0.26475407485E+02  0.32529225924E+02  0.51100000000E-03 0. -1.
        -11    1    3    3    0    0  0.54671414479E+01  0.23050425605E+01 -0.31322972827E+01  0.67092580324E+01  0.51100000000E-03 0.  1.
         12    1    3    3    0    0  0.20149152316E+01  0.99268161272E+01  0.49870918313E+01  0.11290378503E+02  0.00000000000E+00 0. -1.
</event>
<event>
 7    1  0.1369731E-013  0.5052887E+02  0.7816164E-02  0.1300439E+00
        -11   -1    0    0    0    0  0.00000000000E+00  0.00000000000E+00  0.45593999997E+02  0.45594000000E+02  0.51100000000E-03 0. -1.
         11   -1    0    0    0    0 -0.00000000000E+00 -0.00000000000E+00 -0.45593999997E+02  0.45594000000E+02  0.51100000000E-03 0.  1.
    9900012    2    1    2    0    0  0.48066713221E+01 -0.36483288404E+02  0.17292501679E+02  0.50528867738E+02  0.30000023975E+02 0.  0.
        -12    1    1    2    0    0 -0.48066713221E+01  0.36483288404E+02 -0.17292501679E+02  0.40659132262E+02  0.00000000000E+00 0.  1.
         11    1    3    3    0    0  0.15488938303E+02 -0.26869015681E+02  0.16426348357E+02  0.35095243752E+02  0.51100000000E-03 0. -1.
        -11    1    3    3    0    0 -0.22262283873E+01 -0.15205888538E+01 -0.20307660142E+01  0.33752472740E+01  0.51100000000E-03 0.  1.
         12    1    3    3    0    0 -0.84560385933E+01 -0.80936838696E+01  0.28969193360E+01  0.12058376711E+02  0.00000000000E+00 0. -1.
</event>
<event>
 7    1  0.1369731E-013  0.5052886E+02  0.7816164E-02  0.1300439E+00
        -11   -1    0    0    0    0  0.00000000000E+00  0.00000000000E+00  0.45593999997E+02  0.45594000000E+02  0.51100000000E-03 0. -1.
         11   -1    0    0    0    0 -0.00000000000E+00 -0.00000000000E+00 -0.45593999997E+02  0.45594000000E+02  0.51100000000E-03 0.  1.
    9900012    2    1    2    0    0  0.83878629819E+01  0.14934763716E+02 -0.36874950264E+02  0.50528863639E+02  0.30000011517E+02 0.  0.
         12    1    1    2    0    0 -0.83878629819E+01 -0.14934763716E+02  0.36874950264E+02  0.40659136361E+02  0.00000000000E+00 0. -1.
         11    1    3    3    0    0 -0.45291326341E+01  0.85798988560E+01 -0.13596373021E+01  0.97967505148E+01  0.51100000000E-03 0. -1.
        -11    1    3    3    0    0  0.14008246634E+02  0.26265799375E+01 -0.33388772806E+02  0.36303443992E+02  0.51100000000E-03 0.  1.
        -12    1    3    3    0    0 -0.10912510180E+01  0.37282849225E+01 -0.21265401556E+01  0.44286691320E+01  0.00000000000E+00 0.  1.
</event>
<event>
 7    1  0.1369731E-013  0.5052893E+02  0.7816164E-02  0.1300439E+00
        -11   -1    0    0    0    0  0.00000000000E+00  0.00000000000E+00  0.45593999997E+02  0.45594000000E+02  0.51100000000E-03 0.  1.
         11   -1    0    0    0    0 -0.00000000000E+00 -0.00000000000E+00 -0.45593999997E+02  0.45594000000E+02  0.51100000000E-03 0. -1.
    9900012    2    1    2    0    0 -0.35760025038E+02  0.12201115797E+02  0.15017102676E+02  0.50528929792E+02  0.30000212594E+02 0.  0.
        -12    1    1    2    0    0  0.35760025038E+02 -0.12201115797E+02 -0.15017102676E+02  0.40659070208E+02  0.00000000000E+00 0.  1.
         11    1    3    3    0    0 -0.27116210834E+02  0.13178930726E+01  0.81894672394E+01  0.28356535509E+02  0.51100000000E-03 0. -1.
        -11    1    3    3    0    0  0.33599109922E+01  0.15444652981E+01  0.58648838824E+01  0.69333424945E+01  0.51100000000E-03 0.  1.
        -12    1    3    3    0    0 -0.12003725196E+02  0.93387574264E+01  0.96275155457E+00  0.15239051788E+02  0.00000000000E+00 0.  1.
</event>
<event>
 7    1  0.1369731E-013  0.5052886E+02  0.7816164E-02  0.1300439E+00
        -11   -1    0    0    0    0  0.00000000000E+00  0.00000000000E+00  0.45593999997E+02  0.45594000000E+02  0.51100000000E-03 0. -1.
         11   -1    0    0    0    0 -0.00000000000E+00 -0.00000000000E+00 -0.45593999997E+02  0.45594000000E+02  0.51100000000E-03 0.  1.
    9900012    2    1    2    0    0 -0.13058460254E+02  0.14288275123E+01  0.38478575254E+02  0.50528859751E+02  0.29999999698E+02 0.  0.
        -12    1    1    2    0    0  0.13058460254E+02 -0.14288275123E+01 -0.38478575254E+02  0.40659140249E+02  0.00000000000E+00 0.  1.
         11    1    3    3    0    0 -0.54384813621E+01  0.81998389660E+01  0.12933764036E+02  0.16251051997E+02  0.51100000000E-03 0.  1.
        -11    1    3    3    0    0  0.64246272596E+01 -0.52642925718E+01  0.63975825662E+01  0.10484163040E+02  0.51100000000E-03 0. -1.
        -12    1    3    3    0    0 -0.14044606151E+02 -0.15067188819E+01  0.19147228651E+02  0.23793644714E+02  0.00000000000E+00 0.  1.
</event>
<event>
 7    1  0.1369731E-013  0.5052884E+02  0.7816164E-02  0.1300439E+00
        -11   -1    0    0    0    0  0.00000000000E+00  0.00000000000E+00  0.45593999997E+02  0.45594000000E+02  0.51100000000E-03 0. -1.
         11   -1    0    0    0    0 -0.00000000000E+00 -0.00000000000E+00 -0.45593999997E+02  0.45594000000E+02  0.51100000000E-03 0.  1.
    9900012    2    1    2    0    0 -0.97725377835E+00  0.12800406223E+02 -0.38579298487E+02  0.50528835029E+02  0.29999924553E+02 0.  0.
         12    1    1    2    0    0  0.97725377835E+00 -0.12800406223E+02  0.38579298487E+02  0.40659164971E+02  0.00000000000E+00 0. -1.
         11    1    3    3    0    0  0.10236499734E+02  0.75752271695E+01 -0.17770916807E+02  0.21862650294E+02  0.51100000000E-03 0. -1.
        -11    1    3    3    0    0 -0.15054010725E+02  0.41760957374E+01 -0.15272089445E+02  0.21847190455E+02  0.51100000000E-03 0.  1.
        -12    1    3    3    0    0  0.38402572125E+01  0.10490833157E+01 -0.55362922354E+01  0.68189942790E+01  0.00000000000E+00 0.  1.
</event>
<event>
 7    1  0.1369731E-013  0.5052886E+02  0.7816164E-02  0.1300439E+00
        -11   -1    0    0    0    0  0.00000000000E+00  0.00000000000E+00  0.45593999997E+02  0.45594000000E+02  0.51100000000E-03 0. -1.
         11   -1    0    0    0    0 -0.00000000000E+00 -0.00000000000E+00 -0.45593999997E+02  0.45594000000E+02  0.51100000000E-03 0.  1.
    9900012    2    1    2    0    0  0.29376777263E+02 -0.10141575430E+02  0.26216768860E+02  0.50528861248E+02  0.30000004250E+02 0.  0.
        -12    1    1    2    0    0 -0.29376777263E+02  0.10141575430E+02 -0.26216768860E+02  0.40659138752E+02  0.00000000000E+00 0.  1.
         11    1    3    3    0    0  0.55193025243E+01 -0.94625040618E+01  0.15190458715E+02  0.18728366713E+02  0.51100000000E-03 0. -1.
        -11    1    3    3    0    0  0.25931478594E+02 -0.27255720446E+01  0.73128822188E+01  0.27080409370E+02  0.51100000000E-03 0.  1.
        -12    1    3    3    0    0 -0.20740038552E+01  0.20465006761E+01  0.37134279262E+01  0.47200851658E+01  0.00000000000E+00 0.  1.
</event>
<event>
 7    1  0.1369731E-013  0.5052884E+02  0.7816164E-02  0.1300439E+00
        -11   -1    0    0    0    0  0.00000000000E+00  0.00000000000E+00  0.45593999997E+02  0.45594000000E+02  0.51100000000E-03 0. -1.
         11   -1    0    0    0    0 -0.00000000000E+00 -0.00000000000E+00 -0.45593999997E+02  0.45594000000E+02  0.51100000000E-03 0.  1.
    9900012    2    1    2    0    0 -0.94970075960E+01  0.58236858072E+01 -0.39103181146E+02  0.50528840572E+02  0.29999941403E+02 0.  0.
         12    1    1    2    0    0  0.94970075960E+01 -0.58236858072E+01  0.39103181146E+02  0.40659159428E+02  0.00000000000E+00 0. -1.
         11    1    3    3    0    0 -0.12696115714E+02 -0.34988346663E+01 -0.35039383729E+02  0.37432494048E+02  0.51100000000E-03 0.  1.
        -11    1    3    3    0    0  0.55539327346E+01  0.72072895794E+01 -0.39761176367E+01  0.99297886999E+01  0.51100000000E-03 0. -1.
        -12    1    3    3    0    0 -0.23548246170E+01  0.21152308941E+01 -0.87679779722E-01  0.31665578245E+01  0.00000000000E+00 0.  1.
</event>
<event>
 7    1  0.1369731E-013  0.5052885E+02  0.7816164E-02  0.1300439E+00
        -11   -1    0    0    0    0  0.00000000000E+00  0.00000000000E+00  0.45593999997E+02  0.45594000000E+02  0.51100000000E-03 0. -1.
         11   -1    0    0    0    0 -0.00000000000E+00 -0.00000000000E+00 -0.45593999997E+02  0.45594000000E+02  0.51100000000E-03 0.  1.
    9900012    2    1    2    0    0  0.24121350755E+02  0.67217656190E+00 -0.32724221966E+02  0.50528854819E+02  0.29999984707E+02 0.  0.
         12    1    1    2    0    0 -0.24121350755E+02 -0.67217656190E+00  0.32724221966E+02  0.40659145181E+02  0.00000000000E+00 0. -1.
         11    1    3    3    0    0  0.14158123754E-01 -0.86651126804E+01 -0.83181368291E+01  0.12011485286E+02  0.51100000000E-03 0. -1.
        -11    1    3    3    0    0  0.16174417105E+02  0.10574502370E+02 -0.93794342985E+01  0.21480355143E+02  0.51100000000E-03 0.  1.
        -12    1    3    3    0    0  0.79327755267E+01 -0.12372131272E+01 -0.15026650838E+02  0.17037014389E+02  0.00000000000E+00 0.  1.
</event>
<event>
 7    1  0.1369731E-013  0.5052889E+02  0.7816164E-02  0.1300439E+00
        -11   -1    0    0    0    0  0.00000000000E+00  0.00000000000E+00  0.45593999997E+02  0.45594000000E+02  0.51100000000E-03 0. -1.
         11   -1    0    0    0    0 -0.00000000000E+00 -0.00000000000E+00 -0.45593999997E+02  0.45594000000E+02  0.51100000000E-03 0.  1.
    9900012    2    1    2    0    0  0.12731564743E+02  0.10749860026E+02 -0.37087881917E+02  0.50528890117E+02  0.30000091998E+02 0.  0.
         12    1    1    2    0    0 -0.12731564743E+02 -0.10749860026E+02  0.37087881917E+02  0.40659109883E+02  0.00000000000E+00 0. -1.
         11    1    3    3    0    0  0.19508385901E+02  0.81279086194E+01 -0.19482903221E+02  0.28744104390E+02  0.51100000000E-03 0. -1.
        -11    1    3    3    0    0 -0.54955756319E+00 -0.11728213024E+01 -0.13203831232E+02  0.13267203277E+02  0.51100000000E-03 0.  1.
         12    1    3    3    0    0 -0.62272635947E+01  0.37947727088E+01 -0.44011474643E+01  0.85175824500E+01  0.00000000000E+00 0. -1.
</event>
<event>
 7    1  0.1369731E-013  0.5052886E+02  0.7816164E-02  0.1300439E+00
        -11   -1    0    0    0    0  0.00000000000E+00  0.00000000000E+00  0.45593999997E+02  0.45594000000E+02  0.51100000000E-03 0. -1.
         11   -1    0    0    0    0 -0.00000000000E+00 -0.00000000000E+00 -0.45593999997E+02  0.45594000000E+02  0.51100000000E-03 0.  1.
    9900012    2    1    2    0    0  0.24923960620E+02  0.48319354500E+01  0.31758683086E+02  0.50528863702E+02  0.30000011708E+02 0.  0.
        -12    1    1    2    0    0 -0.24923960620E+02 -0.48319354500E+01 -0.31758683086E+02  0.40659136298E+02  0.00000000000E+00 0.  1.
         11    1    3    3    0    0  0.92127421659E+01 -0.28434220576E+01  0.16523276615E+02  0.19130560305E+02  0.51100000000E-03 0. -1.
        -11    1    3    3    0    0  0.39721673991E+01 -0.18650831810E+01 -0.46628191691E+01  0.64030096035E+01  0.51100000000E-03 0.  1.
         12    1    3    3    0    0  0.11739051055E+02  0.95404406886E+01  0.19898225640E+02  0.24995293793E+02  0.00000000000E+00 0. -1.
</event>
<event>
 7    1  0.1369731E-013  0.5052886E+02  0.7816164E-02  0.1300439E+00
        -11   -1    0    0    0    0  0.00000000000E+00  0.00000000000E+00  0.45593999997E+02  0.45594000000E+02  0.51100000000E-03 0. -1.
         11   -1    0    0    0    0 -0.00000000000E+00 -0.00000000000E+00 -0.45593999997E+02  0.45594000000E+02  0.51100000000E-03 0.  1.
    9900012    2    1    2    0    0 -0.16850799286E+02  0.73310465673E+01 -0.36269438255E+02  0.50528857957E+02  0.29999994245E+02 0.  0.
         12    1    1    2    0    0  0.16850799286E+02 -0.73310465673E+01  0.36269438255E+02  0.40659142043E+02  0.00000000000E+00 0. -1.
         11    1    3    3    0    0  0.39826100649E+01  0.28796255629E+01 -0.13712236072E+02  0.14566360035E+02  0.51100000000E-03 0. -1.
        -11    1    3    3    0    0 -0.23131305383E+02  0.28351731796E+01 -0.23404370391E+02  0.33028170541E+02  0.51100000000E-03 0.  1.
         12    1    3    3    0    0  0.22978960312E+01  0.16162478247E+01  0.84716820780E+00  0.29343273801E+01  0.00000000000E+00 0. -1.
</event>
<event>
 7    1  0.1369731E-013  0.5052885E+02  0.7816164E-02  0.1300439E+00
        -11   -1    0    0    0    0  0.00000000000E+00  0.00000000000E+00  0.45593999997E+02  0.45594000000E+02  0.51100000000E-03 0. -1.
         11   -1    0    0    0    0 -0.00000000000E+00 -0.00000000000E+00 -0.45593999997E+02  0.45594000000E+02  0.51100000000E-03 0.  1.
    9900012    2    1    2    0    0 -0.20076601344E+02  0.14432382061E+01  0.35327232249E+02  0.50528853472E+02  0.29999980613E+02 0.  0.
        -12    1    1    2    0    0  0.20076601344E+02 -0.14432382061E+01 -0.35327232249E+02  0.40659146528E+02  0.00000000000E+00 0.  1.
         11    1    3    3    0    0 -0.25590471945E+01 -0.62899678441E+01  0.26640383025E+01  0.72944854761E+01  0.51100000000E-03 0. -1.
        -11    1    3    3    0    0 -0.16351862082E+02  0.10571617540E+02  0.13184310800E+02  0.23515283168E+02  0.51100000000E-03 0.  1.
        -12    1    3    3    0    0 -0.11656920673E+01 -0.28384114903E+01  0.19478883147E+02  0.19719084827E+02  0.00000000000E+00 0.  1.
</event>
<event>
 7    1  0.1369731E-013  0.5052885E+02  0.7816164E-02  0.1300439E+00
        -11   -1    0    0    0    0  0.00000000000E+00  0.00000000000E+00  0.45593999997E+02  0.45594000000E+02  0.51100000000E-03 0. -1.
         11   -1    0    0    0    0 -0.00000000000E+00 -0.00000000000E+00 -0.45593999997E+02  0.45594000000E+02  0.51100000000E-03 0.  1.
    9900012    2    1    2    0    0  0.19096369422E+02 -0.12896213074E+02  0.33498992431E+02  0.50528854280E+02  0.29999983070E+02 0.  0.
        -12    1    1    2    0    0 -0.19096369422E+02  0.12896213074E+02 -0.33498992431E+02  0.40659145720E+02  0.00000000000E+00 0.  1.
         11    1    3    3    0    0  0.22941147505E+01 -0.75124628853E+01  0.99611666953E+01  0.12685617970E+02  0.51100000000E-03 0. -1.
        -11    1    3    3    0    0  0.19802954487E+01  0.85405738224E+01  0.39800555939E+01  0.96282819896E+01  0.51100000000E-03 0.  1.
        -12    1    3    3    0    0  0.14821959223E+02 -0.13924324011E+02  0.19557770142E+02  0.28214954320E+02  0.00000000000E+00 0.  1.
</event>
<event>
 7    1  0.1369731E-013  0.5052887E+02  0.7816164E-02  0.1300439E+00
        -11   -1    0    0    0    0  0.00000000000E+00  0.00000000000E+00  0.45593999997E+02  0.45594000000E+02  0.51100000000E-03 0. -1.
         11   -1    0    0    0    0 -0.00000000000E+00 -0.00000000000E+00 -0.45593999997E+02  0.45594000000E+02  0.51100000000E-03 0.  1.
    9900012    2    1    2    0    0  0.28155738312E+02  0.29280804693E+02  0.17476066128E+01  0.50528865082E+02  0.30000015905E+02 0.  0.
        -12    1    1    2    0    0 -0.28155738312E+02 -0.29280804693E+02 -0.17476066128E+01  0.40659134918E+02  0.00000000000E+00 0.  1.
         11    1    3    3    0    0  0.15037472585E+02  0.13013041172E+02 -0.77458778840E+01  0.21341589602E+02  0.51100000000E-03 0. -1.
        -11    1    3    3    0    0  0.11083805224E+02  0.19389687440E+01  0.94823001795E+01  0.14714766563E+02  0.51100000000E-03 0.  1.
        -12    1    3    3    0    0  0.20344605034E+01  0.14328794776E+02  0.11184317215E-01  0.14472508918E+02  0.00000000000E+00 0.  1.
</event>
<event>
 7    1  0.1369731E-013  0.5052886E+02  0.7816164E-02  0.1300439E+00
        -11   -1    0    0    0    0  0.00000000000E+00  0.00000000000E+00  0.45593999997E+02  0.45594000000E+02  0.51100000000E-03 0. -1.
         11   -1    0    0    0    0 -0.00000000000E+00 -0.00000000000E+00 -0.45593999997E+02  0.45594000000E+02  0.51100000000E-03 0.  1.
    9900012    2    1    2    0    0 -0.20472049990E+02 -0.28894201000E+02 -0.19979638120E+02  0.50528860540E+02  0.30000002097E+02 0.  0.
         12    1    1    2    0    0  0.20472049990E+02  0.28894201000E+02  0.19979638120E+02  0.40659139460E+02  0.00000000000E+00 0. -1.
         11    1    3    3    0    0  0.29306386636E+01  0.13345214193E+00 -0.85119022591E+01  0.90032734480E+01  0.51100000000E-03 0. -1.
        -11    1    3    3    0    0 -0.19838102265E+02 -0.13562840333E+02 -0.73414691248E+01  0.25127636350E+02  0.51100000000E-03 0.  1.
         12    1    3    3    0    0 -0.35645863881E+01 -0.15464812809E+02 -0.41262667363E+01  0.16397950742E+02  0.00000000000E+00 0. -1.
</event>
<event>
 7    1  0.1369731E-013  0.5052886E+02  0.7816164E-02  0.1300439E+00
        -11   -1    0    0    0    0  0.00000000000E+00  0.00000000000E+00  0.45593999997E+02  0.45594000000E+02  0.51100000000E-03 0. -1.
         11   -1    0    0    0    0 -0.00000000000E+00 -0.00000000000E+00 -0.45593999997E+02  0.45594000000E+02  0.51100000000E-03 0.  1.
    9900012    2    1    2    0    0  0.18871400279E+02 -0.18540393342E+02  0.30875384025E+02  0.50528864834E+02  0.30000015149E+02 0.  0.
        -12    1    1    2    0    0 -0.18871400279E+02  0.18540393342E+02 -0.30875384025E+02  0.40659135166E+02  0.00000000000E+00 0.  1.
         11    1    3    3    0    0 -0.80366106340E+00 -0.10119103371E+02  0.24557176581E+02  0.26572486636E+02  0.51100000000E-03 0. -1.
        -11    1    3    3    0    0  0.18972197249E+01  0.84704551552E+00  0.29781241417E+01  0.36312742191E+01  0.51100000000E-03 0.  1.
         12    1    3    3    0    0  0.17777841618E+02 -0.92683354866E+01  0.33400833026E+01  0.20325103979E+02  0.00000000000E+00 0. -1.
</event>
<event>
 7    1  0.1369731E-013  0.5052885E+02  0.7816164E-02  0.1300439E+00
        -11   -1    0    0    0    0  0.00000000000E+00  0.00000000000E+00  0.45593999997E+02  0.45594000000E+02  0.51100000000E-03 0. -1.
         11   -1    0    0    0    0 -0.00000000000E+00 -0.00000000000E+00 -0.45593999997E+02  0.45594000000E+02  0.51100000000E-03 0.  1.
    9900012    2    1    2    0    0 -0.60051837984E+01  0.17707198330E+02  0.36104841003E+02  0.50528847906E+02  0.29999963694E+02 0.  0.
        -12    1    1    2    0    0  0.60051837984E+01 -0.17707198330E+02 -0.36104841003E+02  0.40659152094E+02  0.00000000000E+00 0.  1.
         11    1    3    3    0    0 -0.95148462142E+01  0.91590424915E+01  0.20271454587E+02  0.24194053591E+02  0.51100000000E-03 0. -1.
        -11    1    3    3    0    0  0.10228993476E+02  0.20979094903E+00  0.90418993857E+01  0.13654020087E+02  0.51100000000E-03 0.  1.
        -12    1    3    3    0    0 -0.67193310601E+01  0.83383648894E+01  0.67914870312E+01  0.12680774228E+02  0.00000000000E+00 0.  1.
</event>
<event>
 7    1  0.1369731E-013  0.5052887E+02  0.7816164E-02  0.1300439E+00
        -11   -1    0    0    0    0  0.00000000000E+00  0.00000000000E+00  0.45593999997E+02  0.45594000000E+02  0.51100000000E-03 0. -1.
         11   -1    0    0    0    0 -0.00000000000E+00 -0.00000000000E+00 -0.45593999997E+02  0.45594000000E+02  0.51100000000E-03 0.  1.
    9900012    2    1    2    0    0  0.56347268054E+01 -0.26283852775E+02  0.30505301405E+02  0.50528874620E+02  0.30000044895E+02 0.  0.
        -12    1    1    2    0    0 -0.56347268054E+01  0.26283852775E+02 -0.30505301405E+02  0.40659125380E+02  0.00000000000E+00 0.  1.
         11    1    3    3    0    0 -0.11035595116E+01  0.13360921113E+01  0.17809569570E+02  0.17893679171E+02  0.51100000000E-03 0. -1.
        -11    1    3    3    0    0  0.63759103858E+00 -0.11804722126E+02  0.64955410240E+00  0.11839759609E+02  0.51100000000E-03 0.  1.
         12    1    3    3    0    0  0.61006952784E+01 -0.15815222760E+02  0.12046177733E+02  0.20795435841E+02  0.00000000000E+00 0. -1.
</event>
<event>
 7    1  0.1369731E-013  0.5052885E+02  0.7816164E-02  0.1300439E+00
        -11   -1    0    0    0    0  0.00000000000E+00  0.00000000000E+00  0.45593999997E+02  0.45594000000E+02  0.51100000000E-03 0. -1.
         11   -1    0    0    0    0 -0.00000000000E+00 -0.00000000000E+00 -0.45593999997E+02  0.45594000000E+02  0.51100000000E-03 0.  1.
    9900012    2    1    2    0    0  0.37000801782E+01  0.24351266556E+02  0.32349523224E+02  0.50528850611E+02  0.29999971919E+02 0.  0.
        -12    1    1    2    0    0 -0.37000801782E+01 -0.24351266556E+02 -0.32349523224E+02  0.40659149389E+02  0.00000000000E+00 0.  1.
         11    1    3    3    0    0  0.86862721089E+01  0.97407394214E+01  0.21142861867E+01  0.13221328752E+02  0.51100000000E-03 0. -1.
        -11    1    3    3    0    0 -0.92162308841E+01  0.82008965139E+01  0.10749017185E+02  0.16362609390E+02  0.51100000000E-03 0.  1.
         12    1    3    3    0    0  0.42300389535E+01  0.64096306203E+01  0.19486219852E+02  0.20944912470E+02  0.00000000000E+00 0. -1.
</event>
<event>
 7    1  0.1369731E-013  0.5052888E+02  0.7816164E-02  0.1300439E+00
        -11   -1    0    0    0    0  0.00000000000E+00  0.00000000000E+00  0.45593999997E+02  0.45594000000E+02  0.51100000000E-03 0.  1.
         11   -1    0    0    0    0 -0.00000000000E+00 -0.00000000000E+00 -0.45593999997E+02  0.45594000000E+02  0.51100000000E-03 0. -1.
    9900012    2    1    2    0    0  0.37904321412E+02  0.14707232439E+02 -0.35238642773E+00  0.50528875023E+02  0.30000046120E+02 0.  0.
         12    1    1    2    0    0 -0.37904321412E+02 -0.14707232439E+02  0.35238642773E+00  0.40659124977E+02  0.00000000000E+00 0. -1.
         11    1    3    3    0    0  0.27003504717E+02 -0.36767426545E+01  0.36881218234E+01  0.27501089913E+02  0.51100000000E-03 0. -1.
        -11    1    3    3    0    0  0.90080157260E+01  0.10977013771E+02 -0.55305114960E+01  0.15238954568E+02  0.51100000000E-03 0.  1.
         12    1    3    3    0    0  0.18928009685E+01  0.74069613228E+01  0.14900032449E+01  0.77888305421E+01  0.00000000000E+00 0. -1.
</event>
<event>
 7    1  0.1369731E-013  0.5052886E+02  0.7816164E-02  0.1300439E+00
        -11   -1    0    0    0    0  0.00000000000E+00  0.00000000000E+00  0.45593999997E+02  0.45594000000E+02  0.51100000000E-03 0. -1.
         11   -1    0    0    0    0 -0.00000000000E+00 -0.00000000000E+00 -0.45593999997E+02  0.45594000000E+02  0.51100000000E-03 0.  1.
    9900012    2    1    2    0    0 -0.89826646910E+01  0.27720406216E+02  0.28355893159E+02  0.50528857577E+02  0.29999993090E+02 0.  0.
        -12    1    1    2    0    0  0.89826646910E+01 -0.27720406216E+02 -0.28355893159E+02  0.40659142423E+02  0.00000000000E+00 0.  1.
         11    1    3    3    0    0  0.52113129490E+01  0.99989625875E+01  0.19083979099E+02  0.22166084318E+02  0.51100000000E-03 0. -1.
        -11    1    3    3    0    0 -0.44403090542E+01  0.13342139069E+02 -0.22334982645E+00  0.14063388811E+02  0.51100000000E-03 0.  1.
        -12    1    3    3    0    0 -0.97536685858E+01  0.43793045599E+01  0.94952638866E+01  0.14299384448E+02  0.00000000000E+00 0.  1.
</event>
<event>
 7    1  0.1369731E-013  0.5052886E+02  0.7816164E-02  0.1300439E+00
        -11   -1    0    0    0    0  0.00000000000E+00  0.00000000000E+00  0.45593999997E+02  0.45594000000E+02  0.51100000000E-03 0.  1.
         11   -1    0    0    0    0 -0.00000000000E+00 -0.00000000000E+00 -0.45593999997E+02  0.45594000000E+02  0.51100000000E-03 0. -1.
    9900012    2    1    2    0    0  0.38804731220E+02  0.10576718583E+02 -0.59574552362E+01  0.50528863094E+02  0.30000009861E+02 0.  0.
         12    1    1    2    0    0 -0.38804731220E+02 -0.10576718583E+02  0.59574552362E+01  0.40659136906E+02  0.00000000000E+00 0. -1.
         11    1    3    3    0    0  0.26712797721E+00 -0.28354166562E+01 -0.74544275127E+01  0.79799395219E+01  0.51100000000E-03 0. -1.
        -11    1    3    3    0    0  0.11074551463E+02  0.90996043495E+01  0.32387293423E+01  0.14694824171E+02  0.51100000000E-03 0.  1.
         12    1    3    3    0    0  0.27463051780E+02  0.43125308895E+01 -0.17417570658E+01  0.27854099401E+02  0.00000000000E+00 0. -1.
</event>
<event>
 7    1  0.1369731E-013  0.5052886E+02  0.7816164E-02  0.1300439E+00
        -11   -1    0    0    0    0  0.00000000000E+00  0.00000000000E+00  0.45593999997E+02  0.45594000000E+02  0.51100000000E-03 0. -1.
         11   -1    0    0    0    0 -0.00000000000E+00 -0.00000000000E+00 -0.45593999997E+02  0.45594000000E+02  0.51100000000E-03 0.  1.
    9900012    2    1    2    0    0 -0.20440155467E+01 -0.87194795682E+00  0.40598366094E+02  0.50528860532E+02  0.30000002072E+02 0.  0.
        -12    1    1    2    0    0  0.20440155467E+01  0.87194795682E+00 -0.40598366094E+02  0.40659139468E+02  0.00000000000E+00 0.  1.
         11    1    3    3    0    0 -0.59748665224E+01 -0.31644909872E+01  0.22912088189E+02  0.23888842973E+02  0.51100000000E-03 0. -1.
        -11    1    3    3    0    0  0.56561090955E+01 -0.23742822751E+01 -0.19078285930E+01  0.64240638713E+01  0.51100000000E-03 0.  1.
         12    1    3    3    0    0 -0.17252581198E+01  0.46668253054E+01  0.19594106499E+02  0.20215953687E+02  0.00000000000E+00 0. -1.
</event>
<event>
 7    1  0.1369731E-013  0.5052891E+02  0.7816164E-02  0.1300439E+00
        -11   -1    0    0    0    0  0.00000000000E+00  0.00000000000E+00  0.45593999997E+02  0.45594000000E+02  0.51100000000E-03 0. -1.
         11   -1    0    0    0    0 -0.00000000000E+00 -0.00000000000E+00 -0.45593999997E+02  0.45594000000E+02  0.51100000000E-03 0.  1.
    9900012    2    1    2    0    0  0.71756490949E+01 -0.25883112270E+02  0.30524357930E+02  0.50528906703E+02  0.30000142414E+02 0.  0.
        -12    1    1    2    0    0 -0.71756490949E+01  0.25883112270E+02 -0.30524357930E+02  0.40659093297E+02  0.00000000000E+00 0.  1.
         11    1    3    3    0    0  0.17787660453E+02 -0.15153630932E+02  0.18016494786E+02  0.29506397263E+02  0.51100000000E-03 0. -1.
        -11    1    3    3    0    0 -0.80472083829E+01 -0.54852335584E+01  0.36221035443E+01  0.10390620015E+02  0.51100000000E-03 0.  1.
         12    1    3    3    0    0 -0.25648029754E+01 -0.52442477800E+01  0.88857595993E+01  0.10631889425E+02  0.00000000000E+00 0. -1.
</event>
<event>
 7    1  0.1369731E-013  0.5052886E+02  0.7816164E-02  0.1300439E+00
        -11   -1    0    0    0    0  0.00000000000E+00  0.00000000000E+00  0.45593999997E+02  0.45594000000E+02  0.51100000000E-03 0. -1.
         11   -1    0    0    0    0 -0.00000000000E+00 -0.00000000000E+00 -0.45593999997E+02  0.45594000000E+02  0.51100000000E-03 0.  1.
    9900012    2    1    2    0    0  0.23224022233E+02 -0.17812726909E+02  0.28222633361E+02  0.50528862251E+02  0.30000007298E+02 0.  0.
        -12    1    1    2    0    0 -0.23224022233E+02  0.17812726909E+02 -0.28222633361E+02  0.40659137749E+02  0.00000000000E+00 0.  1.
         11    1    3    3    0    0  0.12960207136E+02 -0.13391252343E+01  0.23929749822E+02  0.27246892523E+02  0.51100000000E-03 0. -1.
        -11    1    3    3    0    0  0.28669751900E+01 -0.75022178595E+01 -0.40270306212E+01  0.89844195937E+01  0.51100000000E-03 0.  1.
         12    1    3    3    0    0  0.73968399075E+01 -0.89713838157E+01  0.83199141609E+01  0.14297550134E+02  0.00000000000E+00 0. -1.
</event>
<event>
 7    1  0.1369731E-013  0.5052880E+02  0.7816164E-02  0.1300439E+00
        -11   -1    0    0    0    0  0.00000000000E+00  0.00000000000E+00  0.45593999997E+02  0.45594000000E+02  0.51100000000E-03 0. -1.
         11   -1    0    0    0    0 -0.00000000000E+00 -0.00000000000E+00 -0.45593999997E+02  0.45594000000E+02  0.51100000000E-03 0.  1.
    9900012    2    1    2    0    0 -0.19191530199E+02  0.43093903093E+01 -0.35584893222E+02  0.50528802986E+02  0.29999827155E+02 0.  0.
         12    1    1    2    0    0  0.19191530199E+02 -0.43093903093E+01  0.35584893222E+02  0.40659197014E+02  0.00000000000E+00 0. -1.
         11    1    3    3    0    0 -0.15736871561E+02 -0.10773590591E+02 -0.16628884301E+02  0.25302947933E+02  0.51100000000E-03 0. -1.
        -11    1    3    3    0    0 -0.31195266144E+01  0.82932139943E+01 -0.14825055911E+02  0.17271106730E+02  0.51100000000E-03 0.  1.
         12    1    3    3    0    0 -0.33513202380E+00  0.67897669058E+01 -0.41309530111E+01  0.79547483234E+01  0.00000000000E+00 0. -1.
</event>
<event>
 7    1  0.1369731E-013  0.5052885E+02  0.7816164E-02  0.1300439E+00
        -11   -1    0    0    0    0  0.00000000000E+00  0.00000000000E+00  0.45593999997E+02  0.45594000000E+02  0.51100000000E-03 0. -1.
         11   -1    0    0    0    0 -0.00000000000E+00 -0.00000000000E+00 -0.45593999997E+02  0.45594000000E+02  0.51100000000E-03 0.  1.
    9900012    2    1    2    0    0 -0.37956773716E+01 -0.20696412458E+02  0.34791058515E+02  0.50528850870E+02  0.29999972705E+02 0.  0.
        -12    1    1    2    0    0  0.37956773716E+01  0.20696412458E+02 -0.34791058515E+02  0.40659149130E+02  0.00000000000E+00 0.  1.
         11    1    3    3    0    0  0.82067599929E+01 -0.26421523284E+00  0.90111857754E+00  0.82603107824E+01  0.51100000000E-03 0.  1.
        -11    1    3    3    0    0 -0.10632988471E+02 -0.17459117358E+02  0.22418626936E+02  0.30339348324E+02  0.51100000000E-03 0. -1.
         12    1    3    3    0    0 -0.13694488933E+01 -0.29730798673E+01  0.11471313001E+02  0.11929191764E+02  0.00000000000E+00 0. -1.
</event>
<event>
 7    1  0.1369731E-013  0.5052886E+02  0.7816164E-02  0.1300439E+00
        -11   -1    0    0    0    0  0.00000000000E+00  0.00000000000E+00  0.45593999997E+02  0.45594000000E+02  0.51100000000E-03 0. -1.
         11   -1    0    0    0    0 -0.00000000000E+00 -0.00000000000E+00 -0.45593999997E+02  0.45594000000E+02  0.51100000000E-03 0.  1.
    9900012    2    1    2    0    0 -0.28411865671E+02  0.35949721089E+00 -0.29082682099E+02  0.50528858995E+02  0.29999997403E+02 0.  0.
         12    1    1    2    0    0  0.28411865671E+02 -0.35949721089E+00  0.29082682099E+02  0.40659141005E+02  0.00000000000E+00 0. -1.
         11    1    3    3    0    0 -0.64692128052E+01  0.10064833389E+02  0.59452720395E+00  0.11979359262E+02  0.51100000000E-03 0. -1.
        -11    1    3    3    0    0 -0.13258657394E+02 -0.29753358947E+01 -0.15484856298E+02  0.20601587182E+02  0.51100000000E-03 0.  1.
         12    1    3    3    0    0 -0.86839954717E+01 -0.67300002830E+01 -0.14192353005E+02  0.17947912552E+02  0.00000000000E+00 0. -1.
</event>
<event>
 7    1  0.1369731E-013  0.5052886E+02  0.7816164E-02  0.1300439E+00
        -11   -1    0    0    0    0  0.00000000000E+00  0.00000000000E+00  0.45593999997E+02  0.45594000000E+02  0.51100000000E-03 0. -1.
         11   -1    0    0    0    0 -0.00000000000E+00 -0.00000000000E+00 -0.45593999997E+02  0.45594000000E+02  0.51100000000E-03 0.  1.
    9900012    2    1    2    0    0  0.33265159799E+02  0.25449644054E+01 -0.23240433639E+02  0.50528862577E+02  0.30000008289E+02 0.  0.
         12    1    1    2    0    0 -0.33265159799E+02 -0.25449644054E+01  0.23240433639E+02  0.40659137423E+02  0.00000000000E+00 0. -1.
         11    1    3    3    0    0  0.35851310573E+01 -0.30551696814E+01  0.26531883189E+01  0.54061663864E+01  0.51100000000E-03 0. -1.
        -11    1    3    3    0    0  0.23909130533E+02  0.49373654028E+01 -0.29494952594E+02  0.38288070318E+02  0.51100000000E-03 0.  1.
        -12    1    3    3    0    0  0.57708982087E+01  0.66276868408E+00  0.36013306360E+01  0.68346258723E+01  0.00000000000E+00 0.  1.
</event>
<event>
 7    1  0.1369731E-013  0.5052886E+02  0.7816164E-02  0.1300439E+00
        -11   -1    0    0    0    0  0.00000000000E+00  0.00000000000E+00  0.45593999997E+02  0.45594000000E+02  0.51100000000E-03 0.  1.
         11   -1    0    0    0    0 -0.00000000000E+00 -0.00000000000E+00 -0.45593999997E+02  0.45594000000E+02  0.51100000000E-03 0. -1.
    9900012    2    1    2    0    0  0.29373200698E+02 -0.24257383133E+02  0.14211275778E+02  0.50528856933E+02  0.29999991133E+02 0.  0.
        -12    1    1    2    0    0 -0.29373200698E+02  0.24257383133E+02 -0.14211275778E+02  0.40659143067E+02  0.00000000000E+00 0.  1.
         11    1    3    3    0    0  0.30141160140E+02 -0.28021487937E+02  0.14205841726E+02  0.43537331799E+02  0.51100000000E-03 0. -1.
        -11    1    3    3    0    0 -0.26839150911E+01 -0.71449154721E-01 -0.24985020068E+00  0.26964663139E+01  0.51100000000E-03 0.  1.
         12    1    3    3    0    0  0.19159556498E+01  0.38355539583E+01  0.25528425181E+00  0.42950588201E+01  0.00000000000E+00 0. -1.
</event>
<event>
 7    1  0.1369731E-013  0.5052886E+02  0.7816164E-02  0.1300439E+00
        -11   -1    0    0    0    0  0.00000000000E+00  0.00000000000E+00  0.45593999997E+02  0.45594000000E+02  0.51100000000E-03 0.  1.
         11   -1    0    0    0    0 -0.00000000000E+00 -0.00000000000E+00 -0.45593999997E+02  0.45594000000E+02  0.51100000000E-03 0. -1.
    9900012    2    1    2    0    0  0.11758117351E+01  0.25215874401E+02 -0.31873861797E+02  0.50528856860E+02  0.29999990912E+02 0.  0.
         12    1    1    2    0    0 -0.11758117351E+01 -0.25215874401E+02  0.31873861797E+02  0.40659143140E+02  0.00000000000E+00 0. -1.
         11    1    3    3    0    0 -0.12428852184E+01 -0.31252809952E+01 -0.14381260191E+02  0.14769319209E+02  0.51100000000E-03 0. -1.
        -11    1    3    3    0    0  0.30965823726E+00  0.16669271961E+02 -0.17114206325E+02  0.23892605014E+02  0.51100000000E-03 0.  1.
         12    1    3    3    0    0  0.21090387162E+01  0.11671883435E+02 -0.37839528048E+00  0.11866932637E+02  0.00000000000E+00 0. -1.
</event>
<event>
 7    1  0.1369731E-013  0.5052886E+02  0.7816164E-02  0.1300439E+00
        -11   -1    0    0    0    0  0.00000000000E+00  0.00000000000E+00  0.45593999997E+02  0.45594000000E+02  0.51100000000E-03 0. -1.
         11   -1    0    0    0    0 -0.00000000000E+00 -0.00000000000E+00 -0.45593999997E+02  0.45594000000E+02  0.51100000000E-03 0.  1.
    9900012    2    1    2    0    0 -0.78913214441E+01  0.22403812068E+01  0.39823030361E+02  0.50528855774E+02  0.29999987610E+02 0.  0.
        -12    1    1    2    0    0  0.78913214441E+01 -0.22403812068E+01 -0.39823030361E+02  0.40659144226E+02  0.00000000000E+00 0.  1.
         11    1    3    3    0    0  0.36558069137E+01  0.39246442974E+01  0.99009848768E+01  0.11260428892E+02  0.51100000000E-03 0. -1.
        -11    1    3    3    0    0 -0.85149599586E+01 -0.67157449716E+01  0.23745738505E+01  0.11101548309E+02  0.51100000000E-03 0.  1.
        -12    1    3    3    0    0 -0.30321683992E+01  0.50314818810E+01  0.27547471634E+02  0.28166878573E+02  0.00000000000E+00 0.  1.
</event>
<event>
 7    1  0.1369731E-013  0.5052886E+02  0.7816164E-02  0.1300439E+00
        -11   -1    0    0    0    0  0.00000000000E+00  0.00000000000E+00  0.45593999997E+02  0.45594000000E+02  0.51100000000E-03 0. -1.
         11   -1    0    0    0    0 -0.00000000000E+00 -0.00000000000E+00 -0.45593999997E+02  0.45594000000E+02  0.51100000000E-03 0.  1.
    9900012    2    1    2    0    0 -0.64178876265E+01  0.30382295968E+02  0.26246753986E+02  0.50528864684E+02  0.30000014693E+02 0.  0.
        -12    1    1    2    0    0  0.64178876265E+01 -0.30382295968E+02 -0.26246753986E+02  0.40659135316E+02  0.00000000000E+00 0.  1.
         11    1    3    3    0    0 -0.13844845797E+02  0.95997661013E+01  0.13182028537E+02  0.21391613800E+02  0.51100000000E-03 0. -1.
        -11    1    3    3    0    0  0.84637633049E+01  0.13908420284E+02  0.14766428318E+02  0.21980146715E+02  0.51100000000E-03 0.  1.
         12    1    3    3    0    0 -0.10368051343E+01  0.68741095827E+01 -0.17017028687E+01  0.71571041696E+01  0.00000000000E+00 0. -1.
</event>
<event>
 7    1  0.1369731E-013  0.5052887E+02  0.7816164E-02  0.1300439E+00
        -11   -1    0    0    0    0  0.00000000000E+00  0.00000000000E+00  0.45593999997E+02  0.45594000000E+02  0.51100000000E-03 0. -1.
         11   -1    0    0    0    0 -0.00000000000E+00 -0.00000000000E+00 -0.45593999997E+02  0.45594000000E+02  0.51100000000E-03 0.  1.
    9900012    2    1    2    0    0  0.11380234696E+02  0.10955141257E+02  0.37465185485E+02  0.50528868367E+02  0.30000025890E+02 0.  0.
        -12    1    1    2    0    0 -0.11380234696E+02 -0.10955141257E+02 -0.37465185485E+02  0.40659131633E+02  0.00000000000E+00 0.  1.
         11    1    3    3    0    0 -0.51977124573E+01 -0.45309517450E+01  0.21475594290E+02  0.22555418171E+02  0.51100000000E-03 0. -1.
        -11    1    3    3    0    0  0.35256203477E+01  0.39979344768E+01  0.21401772548E+01  0.57440262761E+01  0.51100000000E-03 0.  1.
         12    1    3    3    0    0  0.13052326805E+02  0.11488158526E+02  0.13849413940E+02  0.22229423920E+02  0.00000000000E+00 0. -1.
</event>
<event>
 7    1  0.1369731E-013  0.5052886E+02  0.7816164E-02  0.1300439E+00
        -11   -1    0    0    0    0  0.00000000000E+00  0.00000000000E+00  0.45593999997E+02  0.45594000000E+02  0.51100000000E-03 0. -1.
         11   -1    0    0    0    0 -0.00000000000E+00 -0.00000000000E+00 -0.45593999997E+02  0.45594000000E+02  0.51100000000E-03 0.  1.
    9900012    2    1    2    0    0 -0.29750235881E+02  0.11505624547E+01 -0.27690525549E+02  0.50528861616E+02  0.30000005366E+02 0.  0.
         12    1    1    2    0    0  0.29750235881E+02 -0.11505624547E+01  0.27690525549E+02  0.40659138384E+02  0.00000000000E+00 0. -1.
         11    1    3    3    0    0 -0.19245601616E+02 -0.12293390972E+02 -0.84393402167E+01  0.24346316081E+02  0.51100000000E-03 0. -1.
        -11    1    3    3    0    0 -0.27246463969E+01  0.42432595687E+01 -0.92007450564E+01  0.10492028384E+02  0.51100000000E-03 0.  1.
         12    1    3    3    0    0 -0.77799878686E+01  0.92006938582E+01 -0.10050440276E+02  0.15690517151E+02  0.00000000000E+00 0. -1.
</event>
<event>
 7    1  0.1369731E-013  0.5052886E+02  0.7816164E-02  0.1300439E+00
        -11   -1    0    0    0    0  0.00000000000E+00  0.00000000000E+00  0.45593999997E+02  0.45594000000E+02  0.51100000000E-03 0. -1.
         11   -1    0    0    0    0 -0.00000000000E+00 -0.00000000000E+00 -0.45593999997E+02  0.45594000000E+02  0.51100000000E-03 0.  1.
    9900012    2    1    2    0    0  0.21097445166E+01 -0.24855678390E+02 -0.32107790179E+02  0.50528856375E+02  0.29999989437E+02 0.  0.
         12    1    1    2    0    0 -0.21097445166E+01  0.24855678390E+02  0.32107790179E+02  0.40659143625E+02  0.00000000000E+00 0. -1.
         11    1    3    3    0    0  0.56377218328E+01 -0.24118516484E+02 -0.28206520715E+02  0.37537908253E+02  0.51100000000E-03 0.  1.
        -11    1    3    3    0    0 -0.55217493911E+01  0.25139894311E+01 -0.60877804837E+01  0.85948199909E+01  0.51100000000E-03 0. -1.
        -12    1    3    3    0    0  0.19937720749E+01 -0.32511513374E+01  0.21865110201E+01  0.43961281313E+01  0.00000000000E+00 0.  1.
</event>
<event>
 7    1  0.1369731E-013  0.5052885E+02  0.7816164E-02  0.1300439E+00
        -11   -1    0    0    0    0  0.00000000000E+00  0.00000000000E+00  0.45593999997E+02  0.45594000000E+02  0.51100000000E-03 0. -1.
         11   -1    0    0    0    0 -0.00000000000E+00 -0.00000000000E+00 -0.45593999997E+02  0.45594000000E+02  0.51100000000E-03 0.  1.
    9900012    2    1    2    0    0  0.51591795809E+01  0.32392175677E+02 -0.24026983347E+02  0.50528854561E+02  0.29999983925E+02 0.  0.
         12    1    1    2    0    0 -0.51591795809E+01 -0.32392175677E+02  0.24026983347E+02  0.40659145439E+02  0.00000000000E+00 0. -1.
         11    1    3    3    0    0 -0.56817863322E+01  0.69942750921E+01 -0.74585612832E+01  0.11697551738E+02  0.51100000000E-03 0. -1.
        -11    1    3    3    0    0  0.10932719519E+02  0.27460856616E+02 -0.88679646881E+01  0.30858771851E+02  0.51100000000E-03 0.  1.
        -12    1    3    3    0    0 -0.91753606163E-01 -0.20629560311E+01 -0.77004573756E+01  0.79725309723E+01  0.00000000000E+00 0.  1.
</event>
<event>
 7    1  0.1369731E-013  0.5052884E+02  0.7816164E-02  0.1300439E+00
        -11   -1    0    0    0    0  0.00000000000E+00  0.00000000000E+00  0.45593999997E+02  0.45594000000E+02  0.51100000000E-03 0.  1.
         11   -1    0    0    0    0 -0.00000000000E+00 -0.00000000000E+00 -0.45593999997E+02  0.45594000000E+02  0.51100000000E-03 0. -1.
    9900012    2    1    2    0    0 -0.21208097711E+02 -0.10158051254E+02  0.33169229594E+02  0.50528841061E+02  0.29999942889E+02 0.  0.
        -12    1    1    2    0    0  0.21208097711E+02  0.10158051254E+02 -0.33169229594E+02  0.40659158939E+02  0.00000000000E+00 0.  1.
         11    1    3    3    0    0 -0.53204482025E+01 -0.52953923250E+00  0.11448969227E+02  0.12635920129E+02  0.51100000000E-03 0. -1.
        -11    1    3    3    0    0 -0.16074777132E+02 -0.72036287525E+01  0.16681781650E+01  0.17693884415E+02  0.51100000000E-03 0.  1.
        -12    1    3    3    0    0  0.18712762328E+00 -0.24248832687E+01  0.20052082201E+02  0.20199036517E+02  0.00000000000E+00 0.  1.
</event>
<event>
 7    1  0.1369731E-013  0.5052887E+02  0.7816164E-02  0.1300439E+00
        -11   -1    0    0    0    0  0.00000000000E+00  0.00000000000E+00  0.45593999997E+02  0.45594000000E+02  0.51100000000E-03 0. -1.
         11   -1    0    0    0    0 -0.00000000000E+00 -0.00000000000E+00 -0.45593999997E+02  0.45594000000E+02  0.51100000000E-03 0.  1.
    9900012    2    1    2    0    0  0.19908266340E+02 -0.28344877825E+02  0.21293041423E+02  0.50528870882E+02  0.30000033533E+02 0.  0.
        -12    1    1    2    0    0 -0.19908266340E+02  0.28344877825E+02 -0.21293041423E+02  0.40659129118E+02  0.00000000000E+00 0.  1.
         11    1    3    3    0    0  0.18370022255E+02 -0.90123629439E+01  0.35866014737E+01  0.20773639880E+02  0.51100000000E-03 0. -1.
        -11    1    3    3    0    0 -0.33319915328E+01 -0.33439592226E+00  0.24503565072E-01  0.33488190297E+01  0.51100000000E-03 0.  1.
         12    1    3    3    0    0  0.48702356182E+01 -0.18998118959E+02  0.17681936384E+02  0.26406411972E+02  0.00000000000E+00 0. -1.
</event>
<event>
 7    1  0.1369731E-013  0.5052885E+02  0.7816164E-02  0.1300439E+00
        -11   -1    0    0    0    0  0.00000000000E+00  0.00000000000E+00  0.45593999997E+02  0.45594000000E+02  0.51100000000E-03 0. -1.
         11   -1    0    0    0    0 -0.00000000000E+00 -0.00000000000E+00 -0.45593999997E+02  0.45594000000E+02  0.51100000000E-03 0.  1.
    9900012    2    1    2    0    0 -0.25967246295E+02  0.77112960612E+00  0.31277374397E+02  0.50528847646E+02  0.29999962904E+02 0.  0.
        -12    1    1    2    0    0  0.25967246295E+02 -0.77112960612E+00 -0.31277374397E+02  0.40659152354E+02  0.00000000000E+00 0.  1.
         11    1    3    3    0    0 -0.25253809990E+02 -0.31038465642E+01  0.89941538309E+01  0.26986729811E+02  0.51100000000E-03 0. -1.
        -11    1    3    3    0    0 -0.21756964331E+01  0.50911093401E+01  0.14272802685E+02  0.15309015188E+02  0.51100000000E-03 0.  1.
        -12    1    3    3    0    0  0.14622601281E+01 -0.12161331698E+01  0.80104178805E+01  0.82331026466E+01  0.00000000000E+00 0.  1.
</event>
<event>
 7    1  0.1594839E-013  0.5052887E+02  0.7816164E-02  0.1300439E+00
        -11   -1    0    0    0    0  0.00000000000E+00  0.00000000000E+00  0.45593999997E+02  0.45594000000E+02  0.51100000000E-03 0. -1.
         11   -1    0    0    0    0 -0.00000000000E+00 -0.00000000000E+00 -0.45593999997E+02  0.45594000000E+02  0.51100000000E-03 0.  1.
    9900012    2    1    2    0    0 -0.13524808808E+02 -0.29138392368E+02 -0.24923857104E+02  0.50528867987E+02  0.30000024734E+02 0.  0.
         12    1    1    2    0    0  0.13524808808E+02  0.29138392368E+02  0.24923857104E+02  0.40659132013E+02  0.00000000000E+00 0. -1.
         11    1    3    3    0    0 -0.95371580439E+01  0.20362939090E+01 -0.16256505802E+01  0.98866888546E+01  0.51100000000E-03 0. -1.
        -11    1    3    3    0    0 -0.70309380467E+01 -0.19296669415E+02 -0.17905346971E+02  0.27246962964E+02  0.51100000000E-03 0.  1.
         12    1    3    3    0    0  0.30432872827E+01 -0.11878016862E+02 -0.53928595525E+01  0.13395216169E+02  0.00000000000E+00 0. -1.
</event>
<event>
 7    1  0.1369731E-013  0.5052886E+02  0.7816164E-02  0.1300439E+00
        -11   -1    0    0    0    0  0.00000000000E+00  0.00000000000E+00  0.45593999997E+02  0.45594000000E+02  0.51100000000E-03 0. -1.
         11   -1    0    0    0    0 -0.00000000000E+00 -0.00000000000E+00 -0.45593999997E+02  0.45594000000E+02  0.51100000000E-03 0.  1.
    9900012    2    1    2    0    0  0.31038733752E+02  0.22453360751E+02 -0.13623862645E+02  0.50528855452E+02  0.29999986633E+02 0.  0.
         12    1    1    2    0    0 -0.31038733752E+02 -0.22453360751E+02  0.13623862645E+02  0.40659144548E+02  0.00000000000E+00 0. -1.
         11    1    3    3    0    0 -0.13270443219E+01  0.48275699249E+01  0.49124345988E+01  0.70141636680E+01  0.51100000000E-03 0. -1.
        -11    1    3    3    0    0  0.28053045482E+02  0.19032227886E+02 -0.19153610399E+02  0.38936613241E+02  0.51100000000E-03 0.  1.
         12    1    3    3    0    0  0.43127325921E+01 -0.14064370596E+01  0.61731315528E+00  0.45780785429E+01  0.00000000000E+00 0. -1.
</event>
<event>
 7    1  0.1369731E-013  0.5052887E+02  0.7816164E-02  0.1300439E+00
        -11   -1    0    0    0    0  0.00000000000E+00  0.00000000000E+00  0.45593999997E+02  0.45594000000E+02  0.51100000000E-03 0. -1.
         11   -1    0    0    0    0 -0.00000000000E+00 -0.00000000000E+00 -0.45593999997E+02  0.45594000000E+02  0.51100000000E-03 0.  1.
    9900012    2    1    2    0    0  0.59543854062E+01  0.30060436566E+02  0.26722283770E+02  0.50528868160E+02  0.30000025260E+02 0.  0.
        -12    1    1    2    0    0 -0.59543854062E+01 -0.30060436566E+02 -0.26722283770E+02  0.40659131840E+02  0.00000000000E+00 0.  1.
         11    1    3    3    0    0 -0.88342085022E+01  0.85488406672E+01  0.18326212843E+02  0.22067532577E+02  0.51100000000E-03 0. -1.
        -11    1    3    3    0    0  0.59765155991E+01  0.13264075061E+02  0.74758759926E+01  0.16356746255E+02  0.51100000000E-03 0.  1.
         12    1    3    3    0    0  0.88120783092E+01  0.82475208379E+01  0.92019493450E+00  0.12104589329E+02  0.00000000000E+00 0. -1.
</event>
<event>
 7    1  0.1369731E-013  0.5052886E+02  0.7816164E-02  0.1300439E+00
        -11   -1    0    0    0    0  0.00000000000E+00  0.00000000000E+00  0.45593999997E+02  0.45594000000E+02  0.51100000000E-03 0.  1.
         11   -1    0    0    0    0 -0.00000000000E+00 -0.00000000000E+00 -0.45593999997E+02  0.45594000000E+02  0.51100000000E-03 0. -1.
    9900012    2    1    2    0    0 -0.25444302887E+02 -0.31672737274E+02  0.16096243966E+01  0.50528859250E+02  0.29999998177E+02 0.  0.
         12    1    1    2    0    0  0.25444302887E+02  0.31672737274E+02 -0.16096243966E+01  0.40659140750E+02  0.00000000000E+00 0. -1.
         11    1    3    3    0    0 -0.17567517921E+02 -0.12528061684E+02 -0.10296030299E+02  0.23907702852E+02  0.51100000000E-03 0. -1.
        -11    1    3    3    0    0 -0.44708204966E+01 -0.18817946657E+02  0.12660984770E+02  0.23117177334E+02  0.51100000000E-03 0.  1.
        -12    1    3    3    0    0 -0.34059644692E+01 -0.32672893245E+00 -0.75533007452E+00  0.35039790642E+01  0.00000000000E+00 0.  1.
</event>
<event>
 7    1  0.1369731E-013  0.5052886E+02  0.7816164E-02  0.1300439E+00
        -11   -1    0    0    0    0  0.00000000000E+00  0.00000000000E+00  0.45593999997E+02  0.45594000000E+02  0.51100000000E-03 0.  1.
         11   -1    0    0    0    0 -0.00000000000E+00 -0.00000000000E+00 -0.45593999997E+02  0.45594000000E+02  0.51100000000E-03 0. -1.
    9900012    2    1    2    0    0 -0.15900208650E+02 -0.34892958581E+02  0.13521491531E+02  0.50528856787E+02  0.29999990689E+02 0.  0.
        -12    1    1    2    0    0  0.15900208650E+02  0.34892958581E+02 -0.13521491531E+02  0.40659143213E+02  0.00000000000E+00 0.  1.
         11    1    3    3    0    0 -0.71712066553E+01 -0.57242212490E+01 -0.46827704761E+01  0.10301517043E+02  0.51100000000E-03 0. -1.
        -11    1    3    3    0    0 -0.78779029269E+01 -0.29725178886E+02  0.21009775516E+02  0.37243231355E+02  0.51100000000E-03 0.  1.
        -12    1    3    3    0    0 -0.85109906768E+00  0.55644155416E+00 -0.28055135082E+01  0.29841083879E+01  0.00000000000E+00 0.  1.
</event>
<event>
 7    1  0.1369731E-013  0.5052886E+02  0.7816164E-02  0.1300439E+00
        -11   -1    0    0    0    0  0.00000000000E+00  0.00000000000E+00  0.45593999997E+02  0.45594000000E+02  0.51100000000E-03 0.  1.
         11   -1    0    0    0    0 -0.00000000000E+00 -0.00000000000E+00 -0.45593999997E+02  0.45594000000E+02  0.51100000000E-03 0. -1.
    9900012    2    1    2    0    0  0.15701232335E+02 -0.36106041371E+02 -0.10148448876E+02  0.50528856688E+02  0.29999990387E+02 0.  0.
         12    1    1    2    0    0 -0.15701232335E+02  0.36106041371E+02  0.10148448876E+02  0.40659143312E+02  0.00000000000E+00 0. -1.
         11    1    3    3    0    0 -0.44061865612E+01 -0.33560609492E+01 -0.11636251950E+01  0.56596509576E+01  0.51100000000E-03 0. -1.
        -11    1    3    3    0    0  0.14511435062E+02 -0.13894951582E+02  0.50392636716E+01  0.20713416078E+02  0.51100000000E-03 0.  1.
        -12    1    3    3    0    0  0.55959838348E+01 -0.18855028840E+02 -0.14024087353E+02  0.24155789652E+02  0.00000000000E+00 0.  1.
</event>
<event>
 7    1  0.1369731E-013  0.5052887E+02  0.7816164E-02  0.1300439E+00
        -11   -1    0    0    0    0  0.00000000000E+00  0.00000000000E+00  0.45593999997E+02  0.45594000000E+02  0.51100000000E-03 0. -1.
         11   -1    0    0    0    0 -0.00000000000E+00 -0.00000000000E+00 -0.45593999997E+02  0.45594000000E+02  0.51100000000E-03 0.  1.
    9900012    2    1    2    0    0  0.24285597251E+02 -0.63276513663E+01  0.31989613191E+02  0.50528871163E+02  0.30000034387E+02 0.  0.
        -12    1    1    2    0    0 -0.24285597251E+02  0.63276513663E+01 -0.31989613191E+02  0.40659128837E+02  0.00000000000E+00 0.  1.
         11    1    3    3    0    0 -0.26638341720E+01  0.57535496456E+01  0.44564401605E+01  0.77497874284E+01  0.51100000000E-03 0. -1.
        -11    1    3    3    0    0  0.19580900853E+02 -0.78873368287E+01  0.10117102466E+02  0.23408919733E+02  0.51100000000E-03 0.  1.
         12    1    3    3    0    0  0.73685305699E+01 -0.41938641832E+01  0.17416070565E+02  0.19370164002E+02  0.00000000000E+00 0. -1.
</event>
<event>
 7    1  0.1369731E-013  0.5052886E+02  0.7816164E-02  0.1300439E+00
        -11   -1    0    0    0    0  0.00000000000E+00  0.00000000000E+00  0.45593999997E+02  0.45594000000E+02  0.51100000000E-03 0. -1.
         11   -1    0    0    0    0 -0.00000000000E+00 -0.00000000000E+00 -0.45593999997E+02  0.45594000000E+02  0.51100000000E-03 0.  1.
    9900012    2    1    2    0    0  0.12369782287E+02 -0.39731148813E+01  0.38527506668E+02  0.50528856801E+02  0.29999990731E+02 0.  0.
        -12    1    1    2    0    0 -0.12369782287E+02  0.39731148813E+01 -0.38527506668E+02  0.40659143199E+02  0.00000000000E+00 0.  1.
         11    1    3    3    0    0 -0.58367881316E+01 -0.74809363289E+01  0.24927940743E+02  0.26672733906E+02  0.51100000000E-03 0. -1.
        -11    1    3    3    0    0  0.96560801767E+01  0.50661857684E+01  0.73158231472E+01  0.13131161076E+02  0.51100000000E-03 0.  1.
         12    1    3    3    0    0  0.85504902414E+01 -0.15583643207E+01  0.62837427771E+01  0.10724961819E+02  0.00000000000E+00 0. -1.
</event>
<event>
 7    1  0.1369731E-013  0.5052889E+02  0.7816164E-02  0.1300439E+00
        -11   -1    0    0    0    0  0.00000000000E+00  0.00000000000E+00  0.45593999997E+02  0.45594000000E+02  0.51100000000E-03 0. -1.
         11   -1    0    0    0    0 -0.00000000000E+00 -0.00000000000E+00 -0.45593999997E+02  0.45594000000E+02  0.51100000000E-03 0.  1.
    9900012    2    1    2    0    0 -0.21496398072E+00 -0.37334046576E+02  0.16102349445E+02  0.50528893998E+02  0.30000103796E+02 0.  0.
        -12    1    1    2    0    0  0.21496398072E+00  0.37334046576E+02 -0.16102349445E+02  0.40659106002E+02  0.00000000000E+00 0.  1.
         11    1    3    3    0    0  0.66458781319E+01 -0.63914863779E+01  0.12950583688E+02  0.15897685755E+02  0.51100000000E-03 0. -1.
        -11    1    3    3    0    0 -0.10877105057E+02 -0.24194861491E+02  0.12775773608E+01  0.26558142653E+02  0.51100000000E-03 0.  1.
        -12    1    3    3    0    0  0.40162629442E+01 -0.67476987068E+01  0.18741883965E+01  0.80730655900E+01  0.00000000000E+00 0.  1.
</event>
<event>
 7    1  0.1369731E-013  0.5052885E+02  0.7816164E-02  0.1300439E+00
        -11   -1    0    0    0    0  0.00000000000E+00  0.00000000000E+00  0.45593999997E+02  0.45594000000E+02  0.51100000000E-03 0. -1.
         11   -1    0    0    0    0 -0.00000000000E+00 -0.00000000000E+00 -0.45593999997E+02  0.45594000000E+02  0.51100000000E-03 0.  1.
    9900012    2    1    2    0    0  0.42156562574E+00 -0.21788755646E+02 -0.34325486754E+02  0.50528848126E+02  0.29999964365E+02 0.  0.
         12    1    1    2    0    0 -0.42156562574E+00  0.21788755646E+02  0.34325486754E+02  0.40659151874E+02  0.00000000000E+00 0. -1.
         11    1    3    3    0    0 -0.13433420174E+02 -0.76060970658E+01 -0.18679452938E+02  0.24232858941E+02  0.51100000000E-03 0. -1.
        -11    1    3    3    0    0 -0.34583221212E+00 -0.53888718718E+00 -0.25903656209E+01  0.26683316193E+01  0.51100000000E-03 0.  1.
         12    1    3    3    0    0  0.14200818012E+02 -0.13643771393E+02 -0.13055668196E+02  0.23627657566E+02  0.00000000000E+00 0. -1.
</event>
<event>
 7    1  0.1369731E-013  0.5052886E+02  0.7816164E-02  0.1300439E+00
        -11   -1    0    0    0    0  0.00000000000E+00  0.00000000000E+00  0.45593999997E+02  0.45594000000E+02  0.51100000000E-03 0. -1.
         11   -1    0    0    0    0 -0.00000000000E+00 -0.00000000000E+00 -0.45593999997E+02  0.45594000000E+02  0.51100000000E-03 0.  1.
    9900012    2    1    2    0    0  0.14143270046E+02  0.23225301814E+02 -0.30227787090E+02  0.50528857802E+02  0.29999993774E+02 0.  0.
         12    1    1    2    0    0 -0.14143270046E+02 -0.23225301814E+02  0.30227787090E+02  0.40659142198E+02  0.00000000000E+00 0. -1.
         11    1    3    3    0    0 -0.48563247177E+01  0.11180798472E+01 -0.10412183587E+01  0.50909849970E+01  0.51100000000E-03 0. -1.
        -11    1    3    3    0    0  0.19241408197E+02  0.24496643991E+02 -0.22764982637E+02  0.38581884232E+02  0.51100000000E-03 0.  1.
        -12    1    3    3    0    0 -0.24181343336E+00 -0.23894220236E+01 -0.64215860939E+01  0.68559885724E+01  0.00000000000E+00 0.  1.
</event>
<event>
 7    1  0.1369731E-013  0.5052880E+02  0.7816164E-02  0.1300439E+00
        -11   -1    0    0    0    0  0.00000000000E+00  0.00000000000E+00  0.45593999997E+02  0.45594000000E+02  0.51100000000E-03 0. -1.
         11   -1    0    0    0    0 -0.00000000000E+00 -0.00000000000E+00 -0.45593999997E+02  0.45594000000E+02  0.51100000000E-03 0.  1.
    9900012    2    1    2    0    0 -0.26927365612E+02 -0.10721643018E+02  0.28515503371E+02  0.50528799561E+02  0.29999816745E+02 0.  0.
        -12    1    1    2    0    0  0.26927365612E+02  0.10721643018E+02 -0.28515503371E+02  0.40659200439E+02  0.00000000000E+00 0.  1.
         11    1    3    3    0    0 -0.25694414285E+02  0.18120446117E+01  0.23405480853E+02  0.34803778033E+02  0.51100000000E-03 0. -1.
        -11    1    3    3    0    0 -0.53134395540E+00 -0.10199825654E+02  0.72148046215E+01  0.12504886076E+02  0.51100000000E-03 0.  1.
         12    1    3    3    0    0 -0.70160737184E+00 -0.23338619757E+01 -0.21047821037E+01  0.32201354521E+01  0.00000000000E+00 0. -1.
</event>
<event>
 7    1  0.1369731E-013  0.5052885E+02  0.7816164E-02  0.1300439E+00
        -11   -1    0    0    0    0  0.00000000000E+00  0.00000000000E+00  0.45593999997E+02  0.45594000000E+02  0.51100000000E-03 0. -1.
         11   -1    0    0    0    0 -0.00000000000E+00 -0.00000000000E+00 -0.45593999997E+02  0.45594000000E+02  0.51100000000E-03 0.  1.
    9900012    2    1    2    0    0 -0.40894380371E+01 -0.56586091967E+01  0.40055253314E+02  0.50528847530E+02  0.29999962552E+02 0.  0.
        -12    1    1    2    0    0  0.40894380371E+01  0.56586091967E+01 -0.40055253314E+02  0.40659152470E+02  0.00000000000E+00 0.  1.
         11    1    3    3    0    0 -0.41999194380E+01  0.88492613467E+01  0.24561504090E+02  0.26442697160E+02  0.51100000000E-03 0. -1.
        -11    1    3    3    0    0  0.31292733350E+01 -0.15031734243E+02  0.12449781032E+02  0.19767206023E+02  0.51100000000E-03 0.  1.
        -12    1    3    3    0    0 -0.30187919341E+01  0.52386369930E+00  0.30439681932E+01  0.43189443476E+01  0.00000000000E+00 0.  1.
</event>
<event>
 7    1  0.1369731E-013  0.5052886E+02  0.7816164E-02  0.1300439E+00
        -11   -1    0    0    0    0  0.00000000000E+00  0.00000000000E+00  0.45593999997E+02  0.45594000000E+02  0.51100000000E-03 0. -1.
         11   -1    0    0    0    0 -0.00000000000E+00 -0.00000000000E+00 -0.45593999997E+02  0.45594000000E+02  0.51100000000E-03 0.  1.
    9900012    2    1    2    0    0  0.68702407774E+01 -0.19687240503E+02  0.34905269390E+02  0.50528862304E+02  0.30000007460E+02 0.  0.
        -12    1    1    2    0    0 -0.68702407774E+01  0.19687240503E+02 -0.34905269390E+02  0.40659137696E+02  0.00000000000E+00 0.  1.
         11    1    3    3    0    0  0.65151399122E+01 -0.14271285036E+01  0.30540466611E+02  0.31260259835E+02  0.51100000000E-03 0. -1.
        -11    1    3    3    0    0 -0.14305627934E+01 -0.89508624000E+01  0.65007415824E+00  0.90877414291E+01  0.51100000000E-03 0.  1.
         12    1    3    3    0    0  0.17856636586E+01 -0.93092495992E+01  0.37147286208E+01  0.10180861041E+02  0.00000000000E+00 0. -1.
</event>
<event>
 7    1  0.1369731E-013  0.5052889E+02  0.7816164E-02  0.1300439E+00
        -11   -1    0    0    0    0  0.00000000000E+00  0.00000000000E+00  0.45593999997E+02  0.45594000000E+02  0.51100000000E-03 0. -1.
         11   -1    0    0    0    0 -0.00000000000E+00 -0.00000000000E+00 -0.45593999997E+02  0.45594000000E+02  0.51100000000E-03 0.  1.
    9900012    2    1    2    0    0 -0.56594822029E+01  0.10352648229E+02  0.38909594525E+02  0.50528885274E+02  0.30000077280E+02 0.  0.
        -12    1    1    2    0    0  0.56594822029E+01 -0.10352648229E+02 -0.38909594525E+02  0.40659114726E+02  0.00000000000E+00 0.  1.
         11    1    3    3    0    0 -0.41204335576E+01 -0.26320345008E+00  0.18112234949E+02  0.18576875514E+02  0.51100000000E-03 0. -1.
        -11    1    3    3    0    0 -0.35319683027E+00  0.17198201956E+02  0.17331935093E+02  0.24419231618E+02  0.51100000000E-03 0.  1.
        -12    1    3    3    0    0 -0.11858518150E+01 -0.65823502761E+01  0.34654244832E+01  0.75327781418E+01  0.00000000000E+00 0.  1.
</event>
<event>
 7    1  0.1369731E-013  0.5052887E+02  0.7816164E-02  0.1300439E+00
        -11   -1    0    0    0    0  0.00000000000E+00  0.00000000000E+00  0.45593999997E+02  0.45594000000E+02  0.51100000000E-03 0. -1.
         11   -1    0    0    0    0 -0.00000000000E+00 -0.00000000000E+00 -0.45593999997E+02  0.45594000000E+02  0.51100000000E-03 0.  1.
    9900012    2    1    2    0    0 -0.77151771747E+01  0.24713513053E+02 -0.31350966323E+02  0.50528870943E+02  0.30000033719E+02 0.  0.
         12    1    1    2    0    0  0.77151771747E+01 -0.24713513053E+02  0.31350966323E+02  0.40659129057E+02  0.00000000000E+00 0. -1.
         11    1    3    3    0    0 -0.21958215809E+01 -0.63151577009E+01 -0.22155950992E+01  0.70435581283E+01  0.51100000000E-03 0. -1.
        -11    1    3    3    0    0 -0.55877439373E+01  0.19009447034E+02 -0.21541071884E+02  0.29267725177E+02  0.51100000000E-03 0.  1.
         12    1    3    3    0    0  0.68388343546E-01  0.12019223719E+02 -0.75942993407E+01  0.14217587638E+02  0.00000000000E+00 0. -1.
</event>
<event>
 7    1  0.1369731E-013  0.5052885E+02  0.7816164E-02  0.1300439E+00
        -11   -1    0    0    0    0  0.00000000000E+00  0.00000000000E+00  0.45593999997E+02  0.45594000000E+02  0.51100000000E-03 0.  1.
         11   -1    0    0    0    0 -0.00000000000E+00 -0.00000000000E+00 -0.45593999997E+02  0.45594000000E+02  0.51100000000E-03 0. -1.
    9900012    2    1    2    0    0 -0.14305399764E+02  0.31203333806E+02 -0.21791604427E+02  0.50528849412E+02  0.29999968273E+02 0.  0.
         12    1    1    2    0    0  0.14305399764E+02 -0.31203333806E+02  0.21791604427E+02  0.40659150588E+02  0.00000000000E+00 0. -1.
         11    1    3    3    0    0 -0.10974509511E+02  0.20496766927E+01 -0.44272072656E+01  0.12010045711E+02  0.51100000000E-03 0.  1.
        -11    1    3    3    0    0  0.14520762807E+01  0.27031508425E+02 -0.18958227529E+02  0.33048833029E+02  0.51100000000E-03 0. -1.
         12    1    3    3    0    0 -0.47829665335E+01  0.21221486885E+01  0.15938303676E+01  0.54699706725E+01  0.00000000000E+00 0. -1.
</event>
<event>
 7    1  0.1369731E-013  0.5052886E+02  0.7816164E-02  0.1300439E+00
        -11   -1    0    0    0    0  0.00000000000E+00  0.00000000000E+00  0.45593999997E+02  0.45594000000E+02  0.51100000000E-03 0. -1.
         11   -1    0    0    0    0 -0.00000000000E+00 -0.00000000000E+00 -0.45593999997E+02  0.45594000000E+02  0.51100000000E-03 0.  1.
    9900012    2    1    2    0    0 -0.27044281466E+02 -0.11629234362E+02  0.28045199762E+02  0.50528862263E+02  0.30000007334E+02 0.  0.
        -12    1    1    2    0    0  0.27044281466E+02  0.11629234362E+02 -0.28045199762E+02  0.40659137737E+02  0.00000000000E+00 0.  1.
         11    1    3    3    0    0 -0.17599019403E+02 -0.72245079822E+01  0.29456026832E+02  0.35065317859E+02  0.51100000000E-03 0. -1.
        -11    1    3    3    0    0 -0.69265312644E+01 -0.62701541608E+00 -0.58690402284E+01  0.91003086295E+01  0.51100000000E-03 0.  1.
        -12    1    3    3    0    0 -0.25187307986E+01 -0.37777109641E+01  0.44582131577E+01  0.63632357747E+01  0.00000000000E+00 0.  1.
</event>
<event>
 7    1  0.1369731E-013  0.5052886E+02  0.7816164E-02  0.1300439E+00
        -11   -1    0    0    0    0  0.00000000000E+00  0.00000000000E+00  0.45593999997E+02  0.45594000000E+02  0.51100000000E-03 0. -1.
         11   -1    0    0    0    0 -0.00000000000E+00 -0.00000000000E+00 -0.45593999997E+02  0.45594000000E+02  0.51100000000E-03 0.  1.
    9900012    2    1    2    0    0 -0.12970132173E+02  0.31577232488E+02 -0.22086634781E+02  0.50528863559E+02  0.30000011275E+02 0.  0.
         12    1    1    2    0    0  0.12970132173E+02 -0.31577232488E+02  0.22086634781E+02  0.40659136441E+02  0.00000000000E+00 0. -1.
         11    1    3    3    0    0 -0.15362592339E+02  0.66575385419E+01 -0.86957295546E+01  0.18866578269E+02  0.51100000000E-03 0. -1.
        -11    1    3    3    0    0 -0.19818639359E+01  0.24146245199E+02 -0.10864706441E+02  0.26552039247E+02  0.51100000000E-03 0.  1.
        -12    1    3    3    0    0  0.43743241027E+01  0.77344874666E+00 -0.25261987853E+01  0.51102460432E+01  0.00000000000E+00 0.  1.
</event>
<event>
 7    1  0.1369731E-013  0.5052886E+02  0.7816164E-02  0.1300439E+00
        -11   -1    0    0    0    0  0.00000000000E+00  0.00000000000E+00  0.45593999997E+02  0.45594000000E+02  0.51100000000E-03 0. -1.
         11   -1    0    0    0    0 -0.00000000000E+00 -0.00000000000E+00 -0.45593999997E+02  0.45594000000E+02  0.51100000000E-03 0.  1.
    9900012    2    1    2    0    0 -0.20249575819E+02  0.32737868400E+02  0.13090172302E+02  0.50528856390E+02  0.29999989483E+02 0.  0.
        -12    1    1    2    0    0  0.20249575819E+02 -0.32737868400E+02 -0.13090172302E+02  0.40659143610E+02  0.00000000000E+00 0.  1.
         11    1    3    3    0    0 -0.77209239706E+01  0.79424838500E+01  0.14193627861E+02  0.18004299175E+02  0.51100000000E-03 0. -1.
        -11    1    3    3    0    0 -0.14383621641E+02  0.12865012325E+02 -0.48224762171E+01  0.19891037951E+02  0.51100000000E-03 0.  1.
        -12    1    3    3    0    0  0.18549697928E+01  0.11930372224E+02  0.37190206586E+01  0.12633519264E+02  0.00000000000E+00 0.  1.
</event>
<event>
 7    1  0.1369731E-013  0.5052888E+02  0.7816164E-02  0.1300439E+00
        -11   -1    0    0    0    0  0.00000000000E+00  0.00000000000E+00  0.45593999997E+02  0.45594000000E+02  0.51100000000E-03 0. -1.
         11   -1    0    0    0    0 -0.00000000000E+00 -0.00000000000E+00 -0.45593999997E+02  0.45594000000E+02  0.51100000000E-03 0.  1.
    9900012    2    1    2    0    0 -0.13662406976E+01 -0.16897039799E+01 -0.40601017259E+02  0.50528876600E+02  0.30000050914E+02 0.  0.
         12    1    1    2    0    0  0.13662406976E+01  0.16897039799E+01  0.40601017259E+02  0.40659123400E+02  0.00000000000E+00 0. -1.
         11    1    3    3    0    0  0.74483497732E+01  0.45427134775E+01 -0.32577980601E+02  0.33725939281E+02  0.51100000000E-03 0.  1.
        -11    1    3    3    0    0 -0.61528949546E+01  0.15636727058E+01 -0.22165722120E+01  0.67243126998E+01  0.51100000000E-03 0. -1.
        -12    1    3    3    0    0 -0.26616955163E+01 -0.77960901632E+01 -0.58064644460E+01  0.10078624619E+02  0.00000000000E+00 0.  1.
</event>
<event>
 7    1  0.1369731E-013  0.5052888E+02  0.7816164E-02  0.1300439E+00
        -11   -1    0    0    0    0  0.00000000000E+00  0.00000000000E+00  0.45593999997E+02  0.45594000000E+02  0.51100000000E-03 0. -1.
         11   -1    0    0    0    0 -0.00000000000E+00 -0.00000000000E+00 -0.45593999997E+02  0.45594000000E+02  0.51100000000E-03 0.  1.
    9900012    2    1    2    0    0  0.70048489668E+01  0.12645006097E+02 -0.38002633940E+02  0.50528877105E+02  0.30000052448E+02 0.  0.
         12    1    1    2    0    0 -0.70048489668E+01 -0.12645006097E+02  0.38002633940E+02  0.40659122895E+02  0.00000000000E+00 0. -1.
         11    1    3    3    0    0 -0.94874675985E+00  0.73935215765E+01  0.10015317422E+00  0.74548180820E+01  0.51100000000E-03 0. -1.
        -11    1    3    3    0    0 -0.20362306886E+01 -0.23635297177E+01 -0.23944078607E+02  0.24146457479E+02  0.51100000000E-03 0.  1.
        -12    1    3    3    0    0  0.99898264152E+01  0.76150142381E+01 -0.14158708506E+02  0.18927601544E+02  0.00000000000E+00 0.  1.
</event>
<event>
 7    1  0.1369731E-013  0.5052894E+02  0.7816164E-02  0.1300439E+00
        -11   -1    0    0    0    0  0.00000000000E+00  0.00000000000E+00  0.45593999997E+02  0.45594000000E+02  0.51100000000E-03 0. -1.
         11   -1    0    0    0    0 -0.00000000000E+00 -0.00000000000E+00 -0.45593999997E+02  0.45594000000E+02  0.51100000000E-03 0.  1.
    9900012    2    1    2    0    0 -0.89195768054E+01 -0.18468396721E+02 -0.35107246463E+02  0.50528938500E+02  0.30000239064E+02 0.  0.
         12    1    1    2    0    0  0.89195768054E+01  0.18468396721E+02  0.35107246463E+02  0.40659061500E+02  0.00000000000E+00 0. -1.
         11    1    3    3    0    0 -0.13373565927E+02 -0.24756582300E+01 -0.41885798021E+01  0.14231140162E+02  0.51100000000E-03 0. -1.
        -11    1    3    3    0    0  0.59800131795E+01 -0.12177602955E+02 -0.16802764224E+02  0.21596005584E+02  0.51100000000E-03 0.  1.
         12    1    3    3    0    0 -0.15260240577E+01 -0.38151355361E+01 -0.14115902437E+02  0.14701792755E+02  0.00000000000E+00 0. -1.
</event>
<event>
 7    1  0.1369731E-013  0.5052887E+02  0.7816164E-02  0.1300439E+00
        -11   -1    0    0    0    0  0.00000000000E+00  0.00000000000E+00  0.45593999997E+02  0.45594000000E+02  0.51100000000E-03 0.  1.
         11   -1    0    0    0    0 -0.00000000000E+00 -0.00000000000E+00 -0.45593999997E+02  0.45594000000E+02  0.51100000000E-03 0. -1.
    9900012    2    1    2    0    0  0.10325882182E+02 -0.37192845667E+02  0.12776273545E+02  0.50528870923E+02  0.30000033657E+02 0.  0.
        -12    1    1    2    0    0 -0.10325882182E+02  0.37192845667E+02 -0.12776273545E+02  0.40659129077E+02  0.00000000000E+00 0.  1.
         11    1    3    3    0    0  0.31726615592E+00 -0.73678056928E+01 -0.20029249655E+01  0.76417882213E+01  0.51100000000E-03 0. -1.
        -11    1    3    3    0    0  0.14354293902E+02 -0.25421414405E+02  0.19497646354E+02  0.35106299682E+02  0.51100000000E-03 0.  1.
        -12    1    3    3    0    0 -0.43456778758E+01 -0.44036255686E+01 -0.47184478431E+01  0.77807830195E+01  0.00000000000E+00 0.  1.
</event>
<event>
 7    1  0.1569931E-013  0.5052886E+02  0.7816164E-02  0.1300439E+00
        -11   -1    0    0    0    0  0.00000000000E+00  0.00000000000E+00  0.45593999997E+02  0.45594000000E+02  0.51100000000E-03 0. -1.
         11   -1    0    0    0    0 -0.00000000000E+00 -0.00000000000E+00 -0.45593999997E+02  0.45594000000E+02  0.51100000000E-03 0.  1.
    9900012    2    1    2    0    0  0.11416732111E+02 -0.16024271324E+02  0.35581549176E+02  0.50528859757E+02  0.29999999717E+02 0.  0.
        -12    1    1    2    0    0 -0.11416732111E+02  0.16024271324E+02 -0.35581549176E+02  0.40659140243E+02  0.00000000000E+00 0.  1.
         11    1    3    3    0    0 -0.75104477208E+01 -0.96343467669E+01  0.65191708563E+01  0.13846553777E+02  0.51100000000E-03 0. -1.
        -11    1    3    3    0    0  0.51096568619E+01  0.25773130667E+01  0.55342845473E+01  0.79611206247E+01  0.51100000000E-03 0.  1.
         12    1    3    3    0    0  0.13817522970E+02 -0.89672376234E+01  0.23528093772E+02  0.28721185355E+02  0.00000000000E+00 0. -1.
</event>
<event>
 7    1  0.1369731E-013  0.5052887E+02  0.7816164E-02  0.1300439E+00
        -11   -1    0    0    0    0  0.00000000000E+00  0.00000000000E+00  0.45593999997E+02  0.45594000000E+02  0.51100000000E-03 0. -1.
         11   -1    0    0    0    0 -0.00000000000E+00 -0.00000000000E+00 -0.45593999997E+02  0.45594000000E+02  0.51100000000E-03 0.  1.
    9900012    2    1    2    0    0  0.39977077704E+01  0.22310803631E+02  0.33755170453E+02  0.50528866237E+02  0.30000019413E+02 0.  0.
        -12    1    1    2    0    0 -0.39977077704E+01 -0.22310803631E+02 -0.33755170453E+02  0.40659133763E+02  0.00000000000E+00 0.  1.
         11    1    3    3    0    0  0.62438093652E+01  0.38519397535E+01  0.24183189731E+02  0.25271510859E+02  0.51100000000E-03 0. -1.
        -11    1    3    3    0    0  0.15129481128E+00  0.15402197883E+01 -0.34448509654E+01  0.37765282405E+01  0.51100000000E-03 0.  1.
         12    1    3    3    0    0 -0.23973964061E+01  0.16918644089E+02  0.13016831687E+02  0.21480827138E+02  0.00000000000E+00 0. -1.
</event>
<event>
 7    1  0.1369731E-013  0.5052886E+02  0.7816164E-02  0.1300439E+00
        -11   -1    0    0    0    0  0.00000000000E+00  0.00000000000E+00  0.45593999997E+02  0.45594000000E+02  0.51100000000E-03 0. -1.
         11   -1    0    0    0    0 -0.00000000000E+00 -0.00000000000E+00 -0.45593999997E+02  0.45594000000E+02  0.51100000000E-03 0.  1.
    9900012    2    1    2    0    0  0.44214896297E+01 -0.20832400628E+02 -0.34635637772E+02  0.50528857236E+02  0.29999992053E+02 0.  0.
         12    1    1    2    0    0 -0.44214896297E+01  0.20832400628E+02  0.34635637772E+02  0.40659142764E+02  0.00000000000E+00 0. -1.
         11    1    3    3    0    0 -0.50320617947E+01  0.52155266710E+00 -0.16290983922E+02  0.17058423740E+02  0.51100000000E-03 0. -1.
        -11    1    3    3    0    0  0.13649562713E+02 -0.16569072541E+02 -0.15614870401E+02  0.26545600484E+02  0.51100000000E-03 0.  1.
         12    1    3    3    0    0 -0.41960112885E+01 -0.47848807542E+01 -0.27297834486E+01  0.69248330117E+01  0.00000000000E+00 0. -1.
</event>
<event>
 7    1  0.1369731E-013  0.5052875E+02  0.7816164E-02  0.1300439E+00
        -11   -1    0    0    0    0  0.00000000000E+00  0.00000000000E+00  0.45593999997E+02  0.45594000000E+02  0.51100000000E-03 0. -1.
         11   -1    0    0    0    0 -0.00000000000E+00 -0.00000000000E+00 -0.45593999997E+02  0.45594000000E+02  0.51100000000E-03 0.  1.
    9900012    2    1    2    0    0  0.13795204457E+02  0.67335036299E+01 -0.37650053468E+02  0.50528754270E+02  0.29999679078E+02 0.  0.
         12    1    1    2    0    0 -0.13795204457E+02 -0.67335036299E+01  0.37650053468E+02  0.40659245730E+02  0.00000000000E+00 0. -1.
         11    1    3    3    0    0 -0.24019576587E+01 -0.88109538041E+00  0.15936509291E+01  0.30142085543E+01  0.51100000000E-03 0. -1.
        -11    1    3    3    0    0  0.54523506271E+01  0.13332258812E+02 -0.18272270459E+02  0.23266996377E+02  0.51100000000E-03 0.  1.
        -12    1    3    3    0    0  0.10744811489E+02 -0.57176598019E+01 -0.20971433938E+02  0.24247549339E+02  0.00000000000E+00 0.  1.
</event>
<event>
 7    1  0.1369731E-013  0.5052886E+02  0.7816164E-02  0.1300439E+00
        -11   -1    0    0    0    0  0.00000000000E+00  0.00000000000E+00  0.45593999997E+02  0.45594000000E+02  0.51100000000E-03 0. -1.
         11   -1    0    0    0    0 -0.00000000000E+00 -0.00000000000E+00 -0.45593999997E+02  0.45594000000E+02  0.51100000000E-03 0.  1.
    9900012    2    1    2    0    0  0.17876579609E+02  0.26486846786E+01  0.36422221400E+02  0.50528857845E+02  0.29999993907E+02 0.  0.
        -12    1    1    2    0    0 -0.17876579609E+02 -0.26486846786E+01 -0.36422221400E+02  0.40659142155E+02  0.00000000000E+00 0.  1.
         11    1    3    3    0    0  0.78098169810E+00  0.25182314763E+00 -0.17448797078E+00  0.83892408686E+00  0.51100000000E-03 0.  1.
        -11    1    3    3    0    0  0.10445836708E+02  0.14308152966E+02  0.29247788052E+02  0.34194617296E+02  0.51100000000E-03 0. -1.
        -12    1    3    3    0    0  0.66497612033E+01 -0.11911291435E+02  0.73489213184E+01  0.15495316462E+02  0.00000000000E+00 0.  1.
</event>
<event>
 7    1  0.1369731E-013  0.5052886E+02  0.7816164E-02  0.1300439E+00
        -11   -1    0    0    0    0  0.00000000000E+00  0.00000000000E+00  0.45593999997E+02  0.45594000000E+02  0.51100000000E-03 0. -1.
         11   -1    0    0    0    0 -0.00000000000E+00 -0.00000000000E+00 -0.45593999997E+02  0.45594000000E+02  0.51100000000E-03 0.  1.
    9900012    2    1    2    0    0 -0.19234073538E+02  0.20249848200E+02  0.29549275602E+02  0.50528860491E+02  0.30000001949E+02 0.  0.
        -12    1    1    2    0    0  0.19234073538E+02 -0.20249848200E+02 -0.29549275602E+02  0.40659139509E+02  0.00000000000E+00 0.  1.
         11    1    3    3    0    0 -0.63672872444E+00  0.18310912070E+01  0.45341466863E+01  0.49312072468E+01  0.51100000000E-03 0. -1.
        -11    1    3    3    0    0  0.41424769583E+01  0.11527388595E+02  0.18044670298E+01  0.12381312720E+02  0.51100000000E-03 0.  1.
        -12    1    3    3    0    0 -0.22739821772E+02  0.68913683980E+01  0.23210661886E+02  0.33216340524E+02  0.00000000000E+00 0.  1.
</event>
<event>
 7    1  0.1369731E-013  0.5052886E+02  0.7816164E-02  0.1300439E+00
        -11   -1    0    0    0    0  0.00000000000E+00  0.00000000000E+00  0.45593999997E+02  0.45594000000E+02  0.51100000000E-03 0. -1.
         11   -1    0    0    0    0 -0.00000000000E+00 -0.00000000000E+00 -0.45593999997E+02  0.45594000000E+02  0.51100000000E-03 0.  1.
    9900012    2    1    2    0    0  0.30969464014E+02  0.81674881956E+01  0.25046956443E+02  0.50528860907E+02  0.30000003212E+02 0.  0.
        -12    1    1    2    0    0 -0.30969464014E+02 -0.81674881956E+01 -0.25046956443E+02  0.40659139093E+02  0.00000000000E+00 0.  1.
         11    1    3    3    0    0  0.12625179050E+02  0.25386331141E+01 -0.18015488943E+01  0.13003283539E+02  0.51100000000E-03 0. -1.
        -11    1    3    3    0    0  0.13407489781E+02 -0.51427570722E+01  0.14250707761E+02  0.20230951646E+02  0.51100000000E-03 0.  1.
        -12    1    3    3    0    0  0.49367951829E+01  0.10771612154E+02  0.12597797576E+02  0.17294625721E+02  0.00000000000E+00 0.  1.
</event>
<event>
 7    1  0.1369731E-013  0.5052886E+02  0.7816164E-02  0.1300439E+00
        -11   -1    0    0    0    0  0.00000000000E+00  0.00000000000E+00  0.45593999997E+02  0.45594000000E+02  0.51100000000E-03 0. -1.
         11   -1    0    0    0    0 -0.00000000000E+00 -0.00000000000E+00 -0.45593999997E+02  0.45594000000E+02  0.51100000000E-03 0.  1.
    9900012    2    1    2    0    0  0.16139856428E+02  0.11019998128E+02  0.35654317919E+02  0.50528859447E+02  0.29999998775E+02 0.  0.
        -12    1    1    2    0    0 -0.16139856428E+02 -0.11019998128E+02 -0.35654317919E+02  0.40659140553E+02  0.00000000000E+00 0.  1.
         11    1    3    3    0    0 -0.73485619246E+01 -0.33387566024E+00  0.16284456834E+02  0.17868865940E+02  0.51100000000E-03 0. -1.
        -11    1    3    3    0    0  0.14874298630E+02  0.86116850049E+01  0.11556653707E+02  0.20711400810E+02  0.51100000000E-03 0.  1.
         12    1    3    3    0    0  0.86141197220E+01  0.27421887832E+01  0.78132073782E+01  0.11948592697E+02  0.00000000000E+00 0. -1.
</event>
<event>
 7    1  0.1369731E-013  0.5052885E+02  0.7816164E-02  0.1300439E+00
        -11   -1    0    0    0    0  0.00000000000E+00  0.00000000000E+00  0.45593999997E+02  0.45594000000E+02  0.51100000000E-03 0. -1.
         11   -1    0    0    0    0 -0.00000000000E+00 -0.00000000000E+00 -0.45593999997E+02  0.45594000000E+02  0.51100000000E-03 0.  1.
    9900012    2    1    2    0    0  0.14607055783E+02 -0.71267548885E+01  0.37269416780E+02  0.50528854153E+02  0.29999982683E+02 0.  0.
        -12    1    1    2    0    0 -0.14607055783E+02  0.71267548885E+01 -0.37269416780E+02  0.40659145847E+02  0.00000000000E+00 0.  1.
         11    1    3    3    0    0  0.13098815562E+02 -0.79257856562E+01  0.90292959006E+01  0.17774285699E+02  0.51100000000E-03 0. -1.
        -11    1    3    3    0    0  0.38305430175E+01  0.79893008537E+01  0.12834513371E+02  0.15595727674E+02  0.51100000000E-03 0.  1.
        -12    1    3    3    0    0 -0.23223027966E+01 -0.71902700861E+01  0.15405607508E+02  0.17158840779E+02  0.00000000000E+00 0.  1.
</event>
<event>
 7    1  0.1369731E-013  0.5052885E+02  0.7816164E-02  0.1300439E+00
        -11   -1    0    0    0    0  0.00000000000E+00  0.00000000000E+00  0.45593999997E+02  0.45594000000E+02  0.51100000000E-03 0. -1.
         11   -1    0    0    0    0 -0.00000000000E+00 -0.00000000000E+00 -0.45593999997E+02  0.45594000000E+02  0.51100000000E-03 0.  1.
    9900012    2    1    2    0    0 -0.29042578154E+01 -0.24868066354E+02  0.32036090355E+02  0.50528849457E+02  0.29999968410E+02 0.  0.
        -12    1    1    2    0    0  0.29042578154E+01  0.24868066354E+02 -0.32036090355E+02  0.40659150543E+02  0.00000000000E+00 0.  1.
         11    1    3    3    0    0 -0.14235969031E+01 -0.11646996952E+01  0.15132661138E+02  0.15244034469E+02  0.51100000000E-03 0. -1.
        -11    1    3    3    0    0 -0.82809242425E+00 -0.13247153859E+02 -0.22413811425E+01  0.13460929095E+02  0.51100000000E-03 0.  1.
        -12    1    3    3    0    0 -0.65256848804E+00 -0.10456212800E+02  0.19144810359E+02  0.21823885892E+02  0.00000000000E+00 0.  1.
</event>
<event>
 7    1  0.1369731E-013  0.5052886E+02  0.7816164E-02  0.1300439E+00
        -11   -1    0    0    0    0  0.00000000000E+00  0.00000000000E+00  0.45593999997E+02  0.45594000000E+02  0.51100000000E-03 0. -1.
         11   -1    0    0    0    0 -0.00000000000E+00 -0.00000000000E+00 -0.45593999997E+02  0.45594000000E+02  0.51100000000E-03 0.  1.
    9900012    2    1    2    0    0 -0.17527139461E+02 -0.55164569772E+01  0.36270286241E+02  0.50528861061E+02  0.30000003680E+02 0.  0.
        -12    1    1    2    0    0  0.17527139461E+02  0.55164569772E+01 -0.36270286241E+02  0.40659138939E+02  0.00000000000E+00 0.  1.
         11    1    3    3    0    0 -0.12657036857E+02  0.74594409094E+00  0.36232128545E+02  0.38386510049E+02  0.51100000000E-03 0. -1.
        -11    1    3    3    0    0 -0.31307057347E+01  0.60117173486E-01 -0.34959194268E+01  0.46932276070E+01  0.51100000000E-03 0.  1.
         12    1    3    3    0    0 -0.17393968698E+01 -0.63225182416E+01  0.35340771224E+01  0.74491234044E+01  0.00000000000E+00 0. -1.
</event>
<event>
 7    1  0.1369731E-013  0.5052894E+02  0.7816164E-02  0.1300439E+00
        -11   -1    0    0    0    0  0.00000000000E+00  0.00000000000E+00  0.45593999997E+02  0.45594000000E+02  0.51100000000E-03 0. -1.
         11   -1    0    0    0    0 -0.00000000000E+00 -0.00000000000E+00 -0.45593999997E+02  0.45594000000E+02  0.51100000000E-03 0.  1.
    9900012    2    1    2    0    0  0.36713312790E+02  0.48199532227E+01 -0.16794635321E+02  0.50528941223E+02  0.30000247340E+02 0.  0.
         12    1    1    2    0    0 -0.36713312790E+02 -0.48199532227E+01  0.16794635321E+02  0.40659058777E+02  0.00000000000E+00 0. -1.
         11    1    3    3    0    0  0.26386200489E+02  0.62913298608E+01 -0.83481640742E+01  0.28381406789E+02  0.51100000000E-03 0. -1.
        -11    1    3    3    0    0  0.24760981255E+01 -0.12576456959E+01 -0.12847734416E+02  0.13144467069E+02  0.51100000000E-03 0.  1.
        -12    1    3    3    0    0  0.78510141754E+01 -0.21373094221E+00  0.44012631692E+01  0.90030673652E+01  0.00000000000E+00 0.  1.
</event>
<event>
 7    1  0.1369731E-013  0.5052886E+02  0.7816164E-02  0.1300439E+00
        -11   -1    0    0    0    0  0.00000000000E+00  0.00000000000E+00  0.45593999997E+02  0.45594000000E+02  0.51100000000E-03 0. -1.
         11   -1    0    0    0    0 -0.00000000000E+00 -0.00000000000E+00 -0.45593999997E+02  0.45594000000E+02  0.51100000000E-03 0.  1.
    9900012    2    1    2    0    0 -0.22884610526E+02  0.47399475802E+01 -0.33271510965E+02  0.50528856577E+02  0.29999990052E+02 0.  0.
         12    1    1    2    0    0  0.22884610526E+02 -0.47399475802E+01  0.33271510965E+02  0.40659143423E+02  0.00000000000E+00 0. -1.
         11    1    3    3    0    0 -0.28848587502E+01  0.97794359822E+01 -0.44625754026E+01  0.11129885787E+02  0.51100000000E-03 0. -1.
        -11    1    3    3    0    0 -0.20808249490E+02 -0.41153374478E+01 -0.30596749396E+02  0.37230099691E+02  0.51100000000E-03 0.  1.
        -12    1    3    3    0    0  0.80849771418E+00 -0.92415095427E+00  0.17878138340E+01  0.21688710993E+01  0.00000000000E+00 0.  1.
</event>
<event>
 7    1  0.1369731E-013  0.5052886E+02  0.7816164E-02  0.1300439E+00
        -11   -1    0    0    0    0  0.00000000000E+00  0.00000000000E+00  0.45593999997E+02  0.45594000000E+02  0.51100000000E-03 0. -1.
         11   -1    0    0    0    0 -0.00000000000E+00 -0.00000000000E+00 -0.45593999997E+02  0.45594000000E+02  0.51100000000E-03 0.  1.
    9900012    2    1    2    0    0 -0.14500488101E+01 -0.11017800217E+02  0.39111010749E+02  0.50528859269E+02  0.29999998235E+02 0.  0.
        -12    1    1    2    0    0  0.14500488101E+01  0.11017800217E+02 -0.39111010749E+02  0.40659140731E+02  0.00000000000E+00 0.  1.
         11    1    3    3    0    0 -0.67239396148E+01 -0.90629283268E+01  0.34786121711E+02  0.36570784757E+02  0.51100000000E-03 0. -1.
        -11    1    3    3    0    0  0.77543703360E+01  0.19199532203E+01  0.48211952146E+01  0.93306164445E+01  0.51100000000E-03 0.  1.
        -12    1    3    3    0    0 -0.24804795314E+01 -0.38748251107E+01 -0.49630617710E+00  0.46274580674E+01  0.00000000000E+00 0.  1.
</event>
<event>
 7    1  0.1369731E-013  0.5052886E+02  0.7816164E-02  0.1300439E+00
        -11   -1    0    0    0    0  0.00000000000E+00  0.00000000000E+00  0.45593999997E+02  0.45594000000E+02  0.51100000000E-03 0. -1.
         11   -1    0    0    0    0 -0.00000000000E+00 -0.00000000000E+00 -0.45593999997E+02  0.45594000000E+02  0.51100000000E-03 0.  1.
    9900012    2    1    2    0    0 -0.32397254711E+02  0.22353048013E+02 -0.10194333105E+02  0.50528864547E+02  0.30000014277E+02 0.  0.
        -12    1    1    2    0    0  0.32397254711E+02 -0.22353048013E+02  0.10194333105E+02  0.40659135453E+02  0.00000000000E+00 0.  1.
         11    1    3    3    0    0 -0.14114614662E+02  0.15242698838E+02  0.76415794686E+01  0.22134948655E+02  0.51100000000E-03 0. -1.
        -11    1    3    3    0    0 -0.22123139300E+01  0.54981807783E+01 -0.43253980949E+01  0.73371243506E+01  0.51100000000E-03 0.  1.
         12    1    3    3    0    0 -0.16070326120E+02  0.16121683965E+01 -0.13510514479E+02  0.21056791541E+02  0.00000000000E+00 0. -1.
</event>
<event>
 7    1  0.1369731E-013  0.5052886E+02  0.7816164E-02  0.1300439E+00
        -11   -1    0    0    0    0  0.00000000000E+00  0.00000000000E+00  0.45593999997E+02  0.45594000000E+02  0.51100000000E-03 0. -1.
         11   -1    0    0    0    0 -0.00000000000E+00 -0.00000000000E+00 -0.45593999997E+02  0.45594000000E+02  0.51100000000E-03 0.  1.
    9900012    2    1    2    0    0 -0.42568142642E+01 -0.40540755198E+01 -0.40231946312E+02  0.50528862035E+02  0.30000006643E+02 0.  0.
         12    1    1    2    0    0  0.42568142642E+01  0.40540755198E+01  0.40231946312E+02  0.40659137965E+02  0.00000000000E+00 0. -1.
         11    1    3    3    0    0 -0.33717712172E+01  0.78569084326E+01 -0.19454145474E+02  0.21250026533E+02  0.51100000000E-03 0. -1.
        -11    1    3    3    0    0 -0.59597862293E+01 -0.13714633772E+02 -0.17303716199E+02  0.22869823479E+02  0.51100000000E-03 0.  1.
         12    1    3    3    0    0  0.50747431823E+01  0.18036498199E+01 -0.34740846387E+01  0.64090120234E+01  0.00000000000E+00 0. -1.
</event>
<event>
 7    1  0.1369731E-013  0.5052890E+02  0.7816164E-02  0.1300439E+00
        -11   -1    0    0    0    0  0.00000000000E+00  0.00000000000E+00  0.45593999997E+02  0.45594000000E+02  0.51100000000E-03 0. -1.
         11   -1    0    0    0    0 -0.00000000000E+00 -0.00000000000E+00 -0.45593999997E+02  0.45594000000E+02  0.51100000000E-03 0.  1.
    9900012    2    1    2    0    0 -0.83906203317E+01  0.44529937164E+01  0.39533922635E+02  0.50528896450E+02  0.30000111249E+02 0.  0.
        -12    1    1    2    0    0  0.83906203317E+01 -0.44529937164E+01 -0.39533922635E+02  0.40659103550E+02  0.00000000000E+00 0.  1.
         11    1    3    3    0    0 -0.58855313854E+01 -0.59962908792E+01  0.18749092159E+01  0.86087321265E+01  0.51100000000E-03 0.  1.
        -11    1    3    3    0    0  0.51477616566E+01 -0.14334394940E-01  0.14399703865E+02  0.15292191707E+02  0.51100000000E-03 0. -1.
         12    1    3    3    0    0 -0.76528506028E+01  0.10463618991E+02  0.23259309554E+02  0.26627972617E+02  0.00000000000E+00 0. -1.
</event>
<event>
 7    1  0.1369731E-013  0.5052886E+02  0.7816164E-02  0.1300439E+00
        -11   -1    0    0    0    0  0.00000000000E+00  0.00000000000E+00  0.45593999997E+02  0.45594000000E+02  0.51100000000E-03 0. -1.
         11   -1    0    0    0    0 -0.00000000000E+00 -0.00000000000E+00 -0.45593999997E+02  0.45594000000E+02  0.51100000000E-03 0.  1.
    9900012    2    1    2    0    0 -0.14860125308E+02  0.89238213654E+01  0.36779175488E+02  0.50528860049E+02  0.30000000606E+02 0.  0.
        -12    1    1    2    0    0  0.14860125308E+02 -0.89238213654E+01 -0.36779175488E+02  0.40659139951E+02  0.00000000000E+00 0.  1.
         11    1    3    3    0    0  0.11805483622E+00  0.77480431435E+01 -0.22151393925E+01  0.80593394448E+01  0.51100000000E-03 0.  1.
        -11    1    3    3    0    0 -0.94030409143E+01  0.28549598875E+01  0.31388921916E+02  0.32891220617E+02  0.51100000000E-03 0. -1.
        -12    1    3    3    0    0 -0.55751392300E+01 -0.16791816656E+01  0.76053929646E+01  0.95782999873E+01  0.00000000000E+00 0.  1.
</event>
<event>
 7    1  0.1369731E-013  0.5052878E+02  0.7816164E-02  0.1300439E+00
        -11   -1    0    0    0    0  0.00000000000E+00  0.00000000000E+00  0.45593999997E+02  0.45594000000E+02  0.51100000000E-03 0.  1.
         11   -1    0    0    0    0 -0.00000000000E+00 -0.00000000000E+00 -0.45593999997E+02  0.45594000000E+02  0.51100000000E-03 0. -1.
    9900012    2    1    2    0    0 -0.88859813172E+01  0.39676319665E+02 -0.33585611598E-01  0.50528780454E+02  0.29999758667E+02 0.  0.
        -12    1    1    2    0    0  0.88859813172E+01 -0.39676319665E+02  0.33585611598E-01  0.40659219546E+02  0.00000000000E+00 0.  1.
         11    1    3    3    0    0 -0.17043574212E+01  0.88025451185E+00 -0.77470591016E+01  0.79810154247E+01  0.51100000000E-03 0. -1.
        -11    1    3    3    0    0 -0.31582124893E+01  0.36789731368E+02  0.87196849279E+01  0.37940631858E+02  0.51100000000E-03 0.  1.
        -12    1    3    3    0    0 -0.40234114067E+01  0.20063337849E+01 -0.10062114380E+01  0.46071331717E+01  0.00000000000E+00 0.  1.
</event>
<event>
 7    1  0.1369731E-013  0.5052886E+02  0.7816164E-02  0.1300439E+00
        -11   -1    0    0    0    0  0.00000000000E+00  0.00000000000E+00  0.45593999997E+02  0.45594000000E+02  0.51100000000E-03 0. -1.
         11   -1    0    0    0    0 -0.00000000000E+00 -0.00000000000E+00 -0.45593999997E+02  0.45594000000E+02  0.51100000000E-03 0.  1.
    9900012    2    1    2    0    0 -0.32733881013E+02 -0.54278633557E+01  0.23498868990E+02  0.50528861905E+02  0.30000006247E+02 0.  0.
        -12    1    1    2    0    0  0.32733881013E+02  0.54278633557E+01 -0.23498868990E+02  0.40659138095E+02  0.00000000000E+00 0.  1.
         11    1    3    3    0    0 -0.32628642507E+02 -0.11070036193E+01  0.23746758768E+02  0.40370314851E+02  0.51100000000E-03 0. -1.
        -11    1    3    3    0    0 -0.40328379045E+01 -0.16814657106E+01 -0.23719371280E+01  0.49716390155E+01  0.51100000000E-03 0.  1.
         12    1    3    3    0    0  0.39275993988E+01 -0.26393940258E+01  0.21240473502E+01  0.51869080392E+01  0.00000000000E+00 0. -1.
</event>
<event>
 7    1  0.1369731E-013  0.5052886E+02  0.7816164E-02  0.1300439E+00
        -11   -1    0    0    0    0  0.00000000000E+00  0.00000000000E+00  0.45593999997E+02  0.45594000000E+02  0.51100000000E-03 0. -1.
         11   -1    0    0    0    0 -0.00000000000E+00 -0.00000000000E+00 -0.45593999997E+02  0.45594000000E+02  0.51100000000E-03 0.  1.
    9900012    2    1    2    0    0  0.24903401240E+01 -0.13486547190E+02  0.38276323210E+02  0.50528859975E+02  0.30000000380E+02 0.  0.
        -12    1    1    2    0    0 -0.24903401240E+01  0.13486547190E+02 -0.38276323210E+02  0.40659140025E+02  0.00000000000E+00 0.  1.
         11    1    3    3    0    0  0.47155056952E+01 -0.18218978519E+02  0.23104110873E+02  0.29798777017E+02  0.51100000000E-03 0. -1.
        -11    1    3    3    0    0 -0.51805378651E+01  0.78693278504E+01  0.79866812331E+01  0.12351168802E+02  0.51100000000E-03 0.  1.
        -12    1    3    3    0    0  0.29553722939E+01 -0.31368965222E+01  0.71855311043E+01  0.83789141563E+01  0.00000000000E+00 0.  1.
</event>
<event>
 7    1  0.1369731E-013  0.5052884E+02  0.7816164E-02  0.1300439E+00
        -11   -1    0    0    0    0  0.00000000000E+00  0.00000000000E+00  0.45593999997E+02  0.45594000000E+02  0.51100000000E-03 0. -1.
         11   -1    0    0    0    0 -0.00000000000E+00 -0.00000000000E+00 -0.45593999997E+02  0.45594000000E+02  0.51100000000E-03 0.  1.
    9900012    2    1    2    0    0  0.17183197227E+02  0.35805340725E+02 -0.87110608530E+01  0.50528840238E+02  0.29999940387E+02 0.  0.
         12    1    1    2    0    0 -0.17183197227E+02 -0.35805340725E+02  0.87110608530E+01  0.40659159762E+02  0.00000000000E+00 0. -1.
         11    1    3    3    0    0 -0.30373956240E+01  0.37251413566E+01  0.12390161000E+01  0.49636288600E+01  0.51100000000E-03 0. -1.
        -11    1    3    3    0    0  0.16910414563E+02  0.35677327334E+02 -0.97727309584E+01  0.40673579594E+02  0.51100000000E-03 0.  1.
        -12    1    3    3    0    0  0.33101782887E+01 -0.35971279657E+01 -0.17734599460E+00  0.48916317836E+01  0.00000000000E+00 0.  1.
</event>
<event>
 7    1  0.1369731E-013  0.5052887E+02  0.7816164E-02  0.1300439E+00
        -11   -1    0    0    0    0  0.00000000000E+00  0.00000000000E+00  0.45593999997E+02  0.45594000000E+02  0.51100000000E-03 0. -1.
         11   -1    0    0    0    0 -0.00000000000E+00 -0.00000000000E+00 -0.45593999997E+02  0.45594000000E+02  0.51100000000E-03 0.  1.
    9900012    2    1    2    0    0  0.34340077428E+02 -0.44573745331E+01 -0.21308588892E+02  0.50528867372E+02  0.30000022864E+02 0.  0.
         12    1    1    2    0    0 -0.34340077428E+02  0.44573745331E+01  0.21308588892E+02  0.40659132628E+02  0.00000000000E+00 0. -1.
         11    1    3    3    0    0  0.59254185922E+01  0.49166199311E+01 -0.31707890791E+01  0.83269226419E+01  0.51100000000E-03 0. -1.
        -11    1    3    3    0    0  0.32071757273E+02 -0.55576842757E+01 -0.17263407754E+02  0.36844412285E+02  0.51100000000E-03 0.  1.
        -12    1    3    3    0    0 -0.36570984367E+01 -0.38163101884E+01 -0.87439205838E+00  0.53575324452E+01  0.00000000000E+00 0.  1.
</event>
<event>
 7    1  0.1369731E-013  0.5052887E+02  0.7816164E-02  0.1300439E+00
        -11   -1    0    0    0    0  0.00000000000E+00  0.00000000000E+00  0.45593999997E+02  0.45594000000E+02  0.51100000000E-03 0. -1.
         11   -1    0    0    0    0 -0.00000000000E+00 -0.00000000000E+00 -0.45593999997E+02  0.45594000000E+02  0.51100000000E-03 0.  1.
    9900012    2    1    2    0    0  0.35610546285E+01 -0.27275329622E+02 -0.29942274840E+02  0.50528873858E+02  0.30000042579E+02 0.  0.
         12    1    1    2    0    0 -0.35610546285E+01  0.27275329622E+02  0.29942274840E+02  0.40659126142E+02  0.00000000000E+00 0. -1.
         11    1    3    3    0    0  0.38339027213E+01 -0.25147911445E+02 -0.15887592250E+02  0.29992196450E+02  0.51100000000E-03 0. -1.
        -11    1    3    3    0    0 -0.44543144434E+01  0.29594923365E+01 -0.12746709298E+02  0.13823100601E+02  0.51100000000E-03 0.  1.
        -12    1    3    3    0    0  0.41814663506E+01 -0.50869105129E+01 -0.13079732926E+01  0.67135768069E+01  0.00000000000E+00 0.  1.
</event>
<event>
 7    1  0.1369731E-013  0.5052886E+02  0.7816164E-02  0.1300439E+00
        -11   -1    0    0    0    0  0.00000000000E+00  0.00000000000E+00  0.45593999997E+02  0.45594000000E+02  0.51100000000E-03 0. -1.
         11   -1    0    0    0    0 -0.00000000000E+00 -0.00000000000E+00 -0.45593999997E+02  0.45594000000E+02  0.51100000000E-03 0.  1.
    9900012    2    1    2    0    0  0.20531609769E+02 -0.13872001245E+02 -0.32236412989E+02  0.50528859076E+02  0.29999997648E+02 0.  0.
         12    1    1    2    0    0 -0.20531609769E+02  0.13872001245E+02  0.32236412989E+02  0.40659140924E+02  0.00000000000E+00 0. -1.
         11    1    3    3    0    0  0.11080041630E+02 -0.12900853662E+01 -0.12526037566E+02  0.16772991985E+02  0.51100000000E-03 0. -1.
        -11    1    3    3    0    0  0.17663314958E+01 -0.17606625073E+02 -0.15987703246E+02  0.23847847466E+02  0.51100000000E-03 0.  1.
        -12    1    3    3    0    0  0.76852366431E+01  0.50247091939E+01 -0.37226721772E+01  0.99080196247E+01  0.00000000000E+00 0.  1.
</event>
<event>
 7    1  0.1369731E-013  0.5052885E+02  0.7816164E-02  0.1300439E+00
        -11   -1    0    0    0    0  0.00000000000E+00  0.00000000000E+00  0.45593999997E+02  0.45594000000E+02  0.51100000000E-03 0. -1.
         11   -1    0    0    0    0 -0.00000000000E+00 -0.00000000000E+00 -0.45593999997E+02  0.45594000000E+02  0.51100000000E-03 0.  1.
    9900012    2    1    2    0    0  0.93195733055E+01 -0.22928293508E+02 -0.32258413090E+02  0.50528852138E+02  0.29999976559E+02 0.  0.
         12    1    1    2    0    0 -0.93195733055E+01  0.22928293508E+02  0.32258413090E+02  0.40659147862E+02  0.00000000000E+00 0. -1.
         11    1    3    3    0    0 -0.65481271240E+01 -0.94011742583E+01 -0.20418920772E+02  0.23413508324E+02  0.51100000000E-03 0. -1.
        -11    1    3    3    0    0  0.17752724723E+02 -0.13267037147E+02 -0.12005440218E+02  0.25205239631E+02  0.51100000000E-03 0.  1.
        -12    1    3    3    0    0 -0.18850242936E+01 -0.26008210281E+00  0.16594790006E+00  0.19101041839E+01  0.00000000000E+00 0.  1.
</event>
<event>
 7    1  0.1369731E-013  0.5052886E+02  0.7816164E-02  0.1300439E+00
        -11   -1    0    0    0    0  0.00000000000E+00  0.00000000000E+00  0.45593999997E+02  0.45594000000E+02  0.51100000000E-03 0.  1.
         11   -1    0    0    0    0 -0.00000000000E+00 -0.00000000000E+00 -0.45593999997E+02  0.45594000000E+02  0.51100000000E-03 0. -1.
    9900012    2    1    2    0    0  0.36383844054E+02 -0.50570033086E+01 -0.17430087437E+02  0.50528864020E+02  0.30000012674E+02 0.  0.
         12    1    1    2    0    0 -0.36383844054E+02  0.50570033086E+01  0.17430087437E+02  0.40659135980E+02  0.00000000000E+00 0. -1.
         11    1    3    3    0    0 -0.35269805337E+01 -0.12877959223E+01 -0.47109148278E+01  0.60241786825E+01  0.51100000000E-03 0. -1.
        -11    1    3    3    0    0  0.38072064460E+02 -0.69000625982E+01 -0.99862111876E+01  0.39960197325E+02  0.51100000000E-03 0.  1.
        -12    1    3    3    0    0  0.18387601280E+01  0.31308552119E+01 -0.27329614213E+01  0.45444880126E+01  0.00000000000E+00 0.  1.
</event>
<event>
 7    1  0.1369731E-013  0.5052887E+02  0.7816164E-02  0.1300439E+00
        -11   -1    0    0    0    0  0.00000000000E+00  0.00000000000E+00  0.45593999997E+02  0.45594000000E+02  0.51100000000E-03 0. -1.
         11   -1    0    0    0    0 -0.00000000000E+00 -0.00000000000E+00 -0.45593999997E+02  0.45594000000E+02  0.51100000000E-03 0.  1.
    9900012    2    1    2    0    0  0.14979022376E+02  0.18861267245E+01  0.37752306699E+02  0.50528865154E+02  0.30000016123E+02 0.  0.
        -12    1    1    2    0    0 -0.14979022376E+02 -0.18861267245E+01 -0.37752306699E+02  0.40659134846E+02  0.00000000000E+00 0.  1.
         11    1    3    3    0    0 -0.45483288050E+01 -0.72083490083E+01  0.68720619480E+01  0.10948644940E+02  0.51100000000E-03 0.  1.
        -11    1    3    3    0    0  0.94423988530E+01  0.10357929373E+02  0.13582323997E+02  0.19517303154E+02  0.51100000000E-03 0. -1.
        -12    1    3    3    0    0  0.10084952328E+02 -0.12634536406E+01  0.17297920754E+02  0.20062917060E+02  0.00000000000E+00 0.  1.
</event>
<event>
 7    1  0.1369731E-013  0.5052886E+02  0.7816164E-02  0.1300439E+00
        -11   -1    0    0    0    0  0.00000000000E+00  0.00000000000E+00  0.45593999997E+02  0.45594000000E+02  0.51100000000E-03 0. -1.
         11   -1    0    0    0    0 -0.00000000000E+00 -0.00000000000E+00 -0.45593999997E+02  0.45594000000E+02  0.51100000000E-03 0.  1.
    9900012    2    1    2    0    0  0.74211223834E+01 -0.12865691216E+02 -0.37849259774E+02  0.50528861626E+02  0.30000005397E+02 0.  0.
         12    1    1    2    0    0 -0.74211223834E+01  0.12865691216E+02  0.37849259774E+02  0.40659138374E+02  0.00000000000E+00 0. -1.
         11    1    3    3    0    0 -0.29266297924E+01 -0.10437424835E+01  0.33326494036E+01  0.45564363950E+01  0.51100000000E-03 0. -1.
        -11    1    3    3    0    0  0.10911490472E+02 -0.31247652867E+01 -0.27502642816E+02  0.29752649371E+02  0.51100000000E-03 0.  1.
         12    1    3    3    0    0 -0.56373829654E+00 -0.86971834463E+01 -0.13679266361E+02  0.16219775860E+02  0.00000000000E+00 0. -1.
</event>
<event>
 7    1  0.1369731E-013  0.5052887E+02  0.7816164E-02  0.1300439E+00
        -11   -1    0    0    0    0  0.00000000000E+00  0.00000000000E+00  0.45593999997E+02  0.45594000000E+02  0.51100000000E-03 0. -1.
         11   -1    0    0    0    0 -0.00000000000E+00 -0.00000000000E+00 -0.45593999997E+02  0.45594000000E+02  0.51100000000E-03 0.  1.
    9900012    2    1    2    0    0  0.32231616480E+01  0.11780646667E+01  0.40514049910E+02  0.50528870060E+02  0.30000031035E+02 0.  0.
        -12    1    1    2    0    0 -0.32231616480E+01 -0.11780646667E+01 -0.40514049910E+02  0.40659129940E+02  0.00000000000E+00 0.  1.
         11    1    3    3    0    0  0.34041225321E+01 -0.78019568123E+01  0.97183314217E+01  0.12919154237E+02  0.51100000000E-03 0. -1.
        -11    1    3    3    0    0 -0.92435383718E+01  0.47952689502E+01  0.21854784593E+02  0.24208866471E+02  0.51100000000E-03 0.  1.
        -12    1    3    3    0    0  0.90625774877E+01  0.41847525287E+01  0.89409338953E+01  0.13400849352E+02  0.00000000000E+00 0.  1.
</event>
<event>
 7    1  0.1369731E-013  0.5052886E+02  0.7816164E-02  0.1300439E+00
        -11   -1    0    0    0    0  0.00000000000E+00  0.00000000000E+00  0.45593999997E+02  0.45594000000E+02  0.51100000000E-03 0.  1.
         11   -1    0    0    0    0 -0.00000000000E+00 -0.00000000000E+00 -0.45593999997E+02  0.45594000000E+02  0.51100000000E-03 0. -1.
    9900012    2    1    2    0    0 -0.32310803458E+02  0.24362639045E+02 -0.39546326947E+01  0.50528864236E+02  0.30000013330E+02 0.  0.
        -12    1    1    2    0    0  0.32310803458E+02 -0.24362639045E+02  0.39546326947E+01  0.40659135764E+02  0.00000000000E+00 0.  1.
         11    1    3    3    0    0 -0.25506574620E+02  0.27628965721E+02 -0.86299546940E+01  0.38580062389E+02  0.51100000000E-03 0.  1.
        -11    1    3    3    0    0 -0.83036502076E+01 -0.24503699328E+01  0.21842185037E+01  0.89289266046E+01  0.51100000000E-03 0. -1.
        -12    1    3    3    0    0  0.14994213698E+01 -0.81595674280E+00  0.24911034957E+01  0.30198752419E+01  0.00000000000E+00 0.  1.
</event>
<event>
 7    1  0.1369731E-013  0.5052886E+02  0.7816164E-02  0.1300439E+00
        -11   -1    0    0    0    0  0.00000000000E+00  0.00000000000E+00  0.45593999997E+02  0.45594000000E+02  0.51100000000E-03 0. -1.
         11   -1    0    0    0    0 -0.00000000000E+00 -0.00000000000E+00 -0.45593999997E+02  0.45594000000E+02  0.51100000000E-03 0.  1.
    9900012    2    1    2    0    0 -0.11327354270E+02  0.31671677964E+02  0.22842104604E+02  0.50528857331E+02  0.29999992343E+02 0.  0.
        -12    1    1    2    0    0  0.11327354270E+02 -0.31671677964E+02 -0.22842104604E+02  0.40659142669E+02  0.00000000000E+00 0.  1.
         11    1    3    3    0    0 -0.26558382563E+01  0.15664326770E+02  0.19844531960E+02  0.25421055426E+02  0.51100000000E-03 0. -1.
        -11    1    3    3    0    0 -0.95813034392E+01  0.18584172957E+02 -0.18954123552E+00  0.20909538164E+02  0.51100000000E-03 0.  1.
        -12    1    3    3    0    0  0.90978742513E+00 -0.25768217627E+01  0.31871138800E+01  0.41982637411E+01  0.00000000000E+00 0.  1.
</event>
<event>
 7    1  0.1369731E-013  0.5052886E+02  0.7816164E-02  0.1300439E+00
        -11   -1    0    0    0    0  0.00000000000E+00  0.00000000000E+00  0.45593999997E+02  0.45594000000E+02  0.51100000000E-03 0. -1.
         11   -1    0    0    0    0 -0.00000000000E+00 -0.00000000000E+00 -0.45593999997E+02  0.45594000000E+02  0.51100000000E-03 0.  1.
    9900012    2    1    2    0    0  0.10841277412E+02  0.39103193895E+02 -0.25637351389E+01  0.50528858266E+02  0.29999995184E+02 0.  0.
         12    1    1    2    0    0 -0.10841277412E+02 -0.39103193895E+02  0.25637351389E+01  0.40659141734E+02  0.00000000000E+00 0. -1.
         11    1    3    3    0    0  0.14755825981E+02  0.25746271679E+02  0.13321190553E+01  0.29704872449E+02  0.51100000000E-03 0. -1.
        -11    1    3    3    0    0 -0.82928082524E+01  0.13569563618E+02 -0.19289717647E+01  0.16019508664E+02  0.51100000000E-03 0.  1.
         12    1    3    3    0    0  0.43782596838E+01 -0.21264140239E+00 -0.19668824296E+01  0.48044771533E+01  0.00000000000E+00 0. -1.
</event>
<event>
 7    1  0.1369731E-013  0.5052886E+02  0.7816164E-02  0.1300439E+00
        -11   -1    0    0    0    0  0.00000000000E+00  0.00000000000E+00  0.45593999997E+02  0.45594000000E+02  0.51100000000E-03 0. -1.
         11   -1    0    0    0    0 -0.00000000000E+00 -0.00000000000E+00 -0.45593999997E+02  0.45594000000E+02  0.51100000000E-03 0.  1.
    9900012    2    1    2    0    0  0.11357080721E+02 -0.22945869059E+02  0.31585900639E+02  0.50528864390E+02  0.30000013799E+02 0.  0.
        -12    1    1    2    0    0 -0.11357080721E+02  0.22945869059E+02 -0.31585900639E+02  0.40659135610E+02  0.00000000000E+00 0.  1.
         11    1    3    3    0    0  0.20780929206E+01 -0.55151194187E+00  0.35850003407E+01  0.41802946442E+01  0.51100000000E-03 0. -1.
        -11    1    3    3    0    0  0.79416423992E+01 -0.29959118546E+01 -0.36199240455E+01  0.92276227813E+01  0.51100000000E-03 0.  1.
        -12    1    3    3    0    0  0.13373454008E+01 -0.19398445263E+02  0.31620824344E+02  0.37120946964E+02  0.00000000000E+00 0.  1.
</event>
<event>
 7    1  0.1369731E-013  0.5052886E+02  0.7816164E-02  0.1300439E+00
        -11   -1    0    0    0    0  0.00000000000E+00  0.00000000000E+00  0.45593999997E+02  0.45594000000E+02  0.51100000000E-03 0. -1.
         11   -1    0    0    0    0 -0.00000000000E+00 -0.00000000000E+00 -0.45593999997E+02  0.45594000000E+02  0.51100000000E-03 0.  1.
    9900012    2    1    2    0    0  0.34381482762E+01  0.22434885697E+02  0.33734566276E+02  0.50528856850E+02  0.29999990883E+02 0.  0.
        -12    1    1    2    0    0 -0.34381482762E+01 -0.22434885697E+02 -0.33734566276E+02  0.40659143150E+02  0.00000000000E+00 0.  1.
         11    1    3    3    0    0  0.72504246899E+01  0.17902892892E+02  0.39267961895E+01  0.19710453081E+02  0.51100000000E-03 0. -1.
        -11    1    3    3    0    0 -0.16140983081E+01  0.32346720030E+00  0.18239861893E+02  0.18313997557E+02  0.51100000000E-03 0.  1.
         12    1    3    3    0    0 -0.21981781055E+01  0.42085256045E+01  0.11567908194E+02  0.12504406212E+02  0.00000000000E+00 0. -1.
</event>
<event>
 7    1  0.1369731E-013  0.5052887E+02  0.7816164E-02  0.1300439E+00
        -11   -1    0    0    0    0  0.00000000000E+00  0.00000000000E+00  0.45593999997E+02  0.45594000000E+02  0.51100000000E-03 0.  1.
         11   -1    0    0    0    0 -0.00000000000E+00 -0.00000000000E+00 -0.45593999997E+02  0.45594000000E+02  0.51100000000E-03 0. -1.
    9900012    2    1    2    0    0 -0.31437665540E+02  0.15442037034E+02 -0.20649012296E+02  0.50528867801E+02  0.30000024167E+02 0.  0.
         12    1    1    2    0    0  0.31437665540E+02 -0.15442037034E+02  0.20649012296E+02  0.40659132199E+02  0.00000000000E+00 0. -1.
         11    1    3    3    0    0 -0.44919460577E+01  0.10950599296E+02 -0.27113600998E+01  0.12142680024E+02  0.51100000000E-03 0. -1.
        -11    1    3    3    0    0 -0.28183290970E+02  0.83049714960E+01 -0.13287764775E+02  0.32246474760E+02  0.51100000000E-03 0.  1.
        -12    1    3    3    0    0  0.12375714871E+01 -0.38135337575E+01 -0.46498874204E+01  0.61397130167E+01  0.00000000000E+00 0.  1.
</event>
<event>
 7    1  0.1369731E-013  0.5052886E+02  0.7816164E-02  0.1300439E+00
        -11   -1    0    0    0    0  0.00000000000E+00  0.00000000000E+00  0.45593999997E+02  0.45594000000E+02  0.51100000000E-03 0.  1.
         11   -1    0    0    0    0 -0.00000000000E+00 -0.00000000000E+00 -0.45593999997E+02  0.45594000000E+02  0.51100000000E-03 0. -1.
    9900012    2    1    2    0    0 -0.28726532994E+02  0.84362359013E+01  0.27509669405E+02  0.50528859763E+02  0.29999999735E+02 0.  0.
        -12    1    1    2    0    0  0.28726532994E+02 -0.84362359013E+01 -0.27509669405E+02  0.40659140237E+02  0.00000000000E+00 0.  1.
         11    1    3    3    0    0 -0.24115237416E+02  0.13654791596E+02  0.97302980068E+01  0.29371358646E+02  0.51100000000E-03 0. -1.
        -11    1    3    3    0    0 -0.48563481946E+01  0.11536375493E+01  0.92118652052E+01  0.10477282959E+02  0.51100000000E-03 0.  1.
         12    1    3    3    0    0  0.24505261665E+00 -0.63721932438E+01  0.85675061932E+01  0.10680218158E+02  0.00000000000E+00 0. -1.
</event>
<event>
 7    1  0.1369731E-013  0.5052886E+02  0.7816164E-02  0.1300439E+00
        -11   -1    0    0    0    0  0.00000000000E+00  0.00000000000E+00  0.45593999997E+02  0.45594000000E+02  0.51100000000E-03 0.  1.
         11   -1    0    0    0    0 -0.00000000000E+00 -0.00000000000E+00 -0.45593999997E+02  0.45594000000E+02  0.51100000000E-03 0. -1.
    9900012    2    1    2    0    0 -0.14176302766E+02  0.28254000943E+02  0.25571661563E+02  0.50528855832E+02  0.29999987786E+02 0.  0.
        -12    1    1    2    0    0  0.14176302766E+02 -0.28254000943E+02 -0.25571661563E+02  0.40659144168E+02  0.00000000000E+00 0.  1.
         11    1    3    3    0    0 -0.54890827883E+01 -0.53468791616E+00  0.66857633004E+01  0.86669113411E+01  0.51100000000E-03 0. -1.
        -11    1    3    3    0    0 -0.15724417543E+02  0.22688927681E+02  0.16809786032E+02  0.32320483491E+02  0.51100000000E-03 0.  1.
        -12    1    3    3    0    0  0.70371975660E+01  0.60997611782E+01  0.20761122309E+01  0.95414609997E+01  0.00000000000E+00 0.  1.
</event>
<event>
 7    1  0.1369731E-013  0.5052886E+02  0.7816164E-02  0.1300439E+00
        -11   -1    0    0    0    0  0.00000000000E+00  0.00000000000E+00  0.45593999997E+02  0.45594000000E+02  0.51100000000E-03 0. -1.
         11   -1    0    0    0    0 -0.00000000000E+00 -0.00000000000E+00 -0.45593999997E+02  0.45594000000E+02  0.51100000000E-03 0.  1.
    9900012    2    1    2    0    0 -0.16447053408E+02 -0.18320399055E+02  0.32357739886E+02  0.50528856897E+02  0.29999991024E+02 0.  0.
        -12    1    1    2    0    0  0.16447053408E+02  0.18320399055E+02 -0.32357739886E+02  0.40659143103E+02  0.00000000000E+00 0.  1.
         11    1    3    3    0    0 -0.15874811790E+02 -0.10770620850E+02  0.19396348723E+02  0.27280657376E+02  0.51100000000E-03 0. -1.
        -11    1    3    3    0    0  0.21918955126E+01 -0.12445481986E+02  0.52013849253E+01  0.13665607678E+02  0.51100000000E-03 0.  1.
        -12    1    3    3    0    0 -0.27641371309E+01  0.48957037816E+01  0.77600062385E+01  0.95825918423E+01  0.00000000000E+00 0.  1.
</event>
<event>
 7    1  0.1369731E-013  0.5052886E+02  0.7816164E-02  0.1300439E+00
        -11   -1    0    0    0    0  0.00000000000E+00  0.00000000000E+00  0.45593999997E+02  0.45594000000E+02  0.51100000000E-03 0. -1.
         11   -1    0    0    0    0 -0.00000000000E+00 -0.00000000000E+00 -0.45593999997E+02  0.45594000000E+02  0.51100000000E-03 0.  1.
    9900012    2    1    2    0    0  0.18420056554E+02  0.87367275551E+01 -0.35178639969E+02  0.50528860782E+02  0.30000002834E+02 0.  0.
         12    1    1    2    0    0 -0.18420056554E+02 -0.87367275551E+01  0.35178639969E+02  0.40659139218E+02  0.00000000000E+00 0. -1.
         11    1    3    3    0    0  0.45048364553E+01  0.10415458316E+02  0.71178469079E+00  0.11370222563E+02  0.51100000000E-03 0. -1.
        -11    1    3    3    0    0  0.53911228568E+01  0.97850098457E+00 -0.21795598483E+02  0.22473757660E+02  0.51100000000E-03 0.  1.
         12    1    3    3    0    0  0.85240972416E+01 -0.26572317459E+01 -0.14094826177E+02  0.16684880560E+02  0.00000000000E+00 0. -1.
</event>
<event>
 7    1  0.1369731E-013  0.5052886E+02  0.7816164E-02  0.1300439E+00
        -11   -1    0    0    0    0  0.00000000000E+00  0.00000000000E+00  0.45593999997E+02  0.45594000000E+02  0.51100000000E-03 0. -1.
         11   -1    0    0    0    0 -0.00000000000E+00 -0.00000000000E+00 -0.45593999997E+02  0.45594000000E+02  0.51100000000E-03 0.  1.
    9900012    2    1    2    0    0 -0.10955022514E+02  0.25015888445E+02  0.30122390902E+02  0.50528860478E+02  0.30000001910E+02 0.  0.
        -12    1    1    2    0    0  0.10955022514E+02 -0.25015888445E+02 -0.30122390902E+02  0.40659139522E+02  0.00000000000E+00 0.  1.
         11    1    3    3    0    0  0.38667658429E+01  0.13191880440E+02  0.61874626602E+01  0.15075220796E+02  0.51100000000E-03 0.  1.
        -11    1    3    3    0    0 -0.12088805460E+02 -0.14853797537E+01  0.82949794095E+01  0.14736086798E+02  0.51100000000E-03 0. -1.
         12    1    3    3    0    0 -0.27329828973E+01  0.13309387759E+02  0.15639948832E+02  0.20717552884E+02  0.00000000000E+00 0. -1.
</event>
<event>
 7    1  0.1369731E-013  0.5052887E+02  0.7816164E-02  0.1300439E+00
        -11   -1    0    0    0    0  0.00000000000E+00  0.00000000000E+00  0.45593999997E+02  0.45594000000E+02  0.51100000000E-03 0. -1.
         11   -1    0    0    0    0 -0.00000000000E+00 -0.00000000000E+00 -0.45593999997E+02  0.45594000000E+02  0.51100000000E-03 0.  1.
    9900012    2    1    2    0    0  0.27674073953E+02  0.18574710579E+02 -0.23287127574E+02  0.50528873682E+02  0.30000042045E+02 0.  0.
         12    1    1    2    0    0 -0.27674073953E+02 -0.18574710579E+02  0.23287127574E+02  0.40659126318E+02  0.00000000000E+00 0. -1.
         11    1    3    3    0    0  0.79805915840E+01 -0.67775449289E+01 -0.11467074866E+02  0.15527999341E+02  0.51100000000E-03 0. -1.
        -11    1    3    3    0    0  0.93530868800E+01  0.17734697573E+02 -0.81539751067E+01  0.21644561499E+02  0.51100000000E-03 0.  1.
         12    1    3    3    0    0  0.10340395489E+02  0.76175579346E+01 -0.36660776014E+01  0.13356312842E+02  0.00000000000E+00 0. -1.
</event>
<event>
 7    1  0.1369731E-013  0.5052886E+02  0.7816164E-02  0.1300439E+00
        -11   -1    0    0    0    0  0.00000000000E+00  0.00000000000E+00  0.45593999997E+02  0.45594000000E+02  0.51100000000E-03 0.  1.
         11   -1    0    0    0    0 -0.00000000000E+00 -0.00000000000E+00 -0.45593999997E+02  0.45594000000E+02  0.51100000000E-03 0. -1.
    9900012    2    1    2    0    0  0.39421649816E+02  0.28555823311E+01  0.95364792013E+01  0.50528864985E+02  0.30000015607E+02 0.  0.
        -12    1    1    2    0    0 -0.39421649816E+02 -0.28555823311E+01 -0.95364792013E+01  0.40659135015E+02  0.00000000000E+00 0.  1.
         11    1    3    3    0    0  0.35167552776E+02 -0.16730195364E+01  0.44653587064E+01  0.35489367299E+02  0.51100000000E-03 0. -1.
        -11    1    3    3    0    0  0.12686772054E+01  0.80516305517E+01 -0.40238965123E-01  0.81510683857E+01  0.51100000000E-03 0.  1.
         12    1    3    3    0    0  0.29854198344E+01 -0.35230286842E+01  0.51113594600E+01  0.68884293005E+01  0.00000000000E+00 0. -1.
</event>
<event>
 7    1  0.1369731E-013  0.5052887E+02  0.7816164E-02  0.1300439E+00
        -11   -1    0    0    0    0  0.00000000000E+00  0.00000000000E+00  0.45593999997E+02  0.45594000000E+02  0.51100000000E-03 0. -1.
         11   -1    0    0    0    0 -0.00000000000E+00 -0.00000000000E+00 -0.45593999997E+02  0.45594000000E+02  0.51100000000E-03 0.  1.
    9900012    2    1    2    0    0 -0.14111069640E+02 -0.91942232737E+01 -0.37006873779E+02  0.50528871445E+02  0.30000035244E+02 0.  0.
         12    1    1    2    0    0  0.14111069640E+02  0.91942232737E+01  0.37006873779E+02  0.40659128555E+02  0.00000000000E+00 0. -1.
         11    1    3    3    0    0  0.25958766795E+01  0.41507868268E+01  0.22766215319E+01  0.53991307520E+01  0.51100000000E-03 0. -1.
        -11    1    3    3    0    0 -0.95184847033E+01 -0.11213243763E+02 -0.26606109563E+02  0.30401043618E+02  0.51100000000E-03 0.  1.
        -12    1    3    3    0    0 -0.71884616158E+01 -0.21317663371E+01 -0.12677385748E+02  0.14728697075E+02  0.00000000000E+00 0.  1.
</event>
<event>
 7    1  0.1369731E-013  0.5052886E+02  0.7816164E-02  0.1300439E+00
        -11   -1    0    0    0    0  0.00000000000E+00  0.00000000000E+00  0.45593999997E+02  0.45594000000E+02  0.51100000000E-03 0. -1.
         11   -1    0    0    0    0 -0.00000000000E+00 -0.00000000000E+00 -0.45593999997E+02  0.45594000000E+02  0.51100000000E-03 0.  1.
    9900012    2    1    2    0    0 -0.14881325734E+02  0.88788862778E+01 -0.36781481250E+02  0.50528857854E+02  0.29999993932E+02 0.  0.
         12    1    1    2    0    0  0.14881325734E+02 -0.88788862778E+01  0.36781481250E+02  0.40659142146E+02  0.00000000000E+00 0. -1.
         11    1    3    3    0    0 -0.71094083542E+01 -0.25473415973E+00 -0.22487906102E+02  0.23586320140E+02  0.51100000000E-03 0.  1.
        -11    1    3    3    0    0  0.25885945104E+01  0.55104428149E+01  0.27421457845E+01  0.66772123914E+01  0.51100000000E-03 0. -1.
        -12    1    3    3    0    0 -0.10360511890E+02  0.36231776226E+01 -0.17035720932E+02  0.20265325322E+02  0.00000000000E+00 0.  1.
</event>
<event>
 7    1  0.1369731E-013  0.5052887E+02  0.7816164E-02  0.1300439E+00
        -11   -1    0    0    0    0  0.00000000000E+00  0.00000000000E+00  0.45593999997E+02  0.45594000000E+02  0.51100000000E-03 0. -1.
         11   -1    0    0    0    0 -0.00000000000E+00 -0.00000000000E+00 -0.45593999997E+02  0.45594000000E+02  0.51100000000E-03 0.  1.
    9900012    2    1    2    0    0 -0.17360792030E+02  0.36155157853E+02  0.66762514593E+01  0.50528869748E+02  0.30000030087E+02 0.  0.
        -12    1    1    2    0    0  0.17360792030E+02 -0.36155157853E+02 -0.66762514593E+01  0.40659130252E+02  0.00000000000E+00 0.  1.
         11    1    3    3    0    0 -0.97742816164E+00  0.84231140294E+01  0.99025105207E+01  0.13037021540E+02  0.51100000000E-03 0. -1.
        -11    1    3    3    0    0 -0.14230564703E+02  0.29484007516E+02 -0.63119352541E+01  0.33341508633E+02  0.51100000000E-03 0.  1.
         12    1    3    3    0    0 -0.21527991654E+01 -0.17519636929E+01  0.30856761927E+01  0.41503395757E+01  0.00000000000E+00 0. -1.
</event>
<event>
 7    1  0.1369731E-013  0.5052886E+02  0.7816164E-02  0.1300439E+00
        -11   -1    0    0    0    0  0.00000000000E+00  0.00000000000E+00  0.45593999997E+02  0.45594000000E+02  0.51100000000E-03 0. -1.
         11   -1    0    0    0    0 -0.00000000000E+00 -0.00000000000E+00 -0.45593999997E+02  0.45594000000E+02  0.51100000000E-03 0.  1.
    9900012    2    1    2    0    0 -0.27407789846E+02  0.24487873088E+02 -0.17387431109E+02  0.50528860398E+02  0.30000001665E+02 0.  0.
         12    1    1    2    0    0  0.27407789846E+02 -0.24487873088E+02  0.17387431109E+02  0.40659139602E+02  0.00000000000E+00 0. -1.
         11    1    3    3    0    0 -0.26488146949E+02  0.10184927585E+02 -0.14283320841E+02  0.31770551353E+02  0.51100000000E-03 0.  1.
        -11    1    3    3    0    0  0.49376159257E+01  0.30872435983E+01 -0.14173792291E+01  0.59933369842E+01  0.51100000000E-03 0. -1.
        -12    1    3    3    0    0 -0.58572588223E+01  0.11215701904E+02 -0.16867310384E+01  0.12764972061E+02  0.00000000000E+00 0.  1.
</event>
<event>
 7    1  0.1369731E-013  0.5052885E+02  0.7816164E-02  0.1300439E+00
        -11   -1    0    0    0    0  0.00000000000E+00  0.00000000000E+00  0.45593999997E+02  0.45594000000E+02  0.51100000000E-03 0.  1.
         11   -1    0    0    0    0 -0.00000000000E+00 -0.00000000000E+00 -0.45593999997E+02  0.45594000000E+02  0.51100000000E-03 0. -1.
    9900012    2    1    2    0    0  0.40091501877E+02 -0.65093221831E+01  0.18618486238E+01  0.50528852464E+02  0.29999977549E+02 0.  0.
        -12    1    1    2    0    0 -0.40091501877E+02  0.65093221831E+01 -0.18618486238E+01  0.40659147536E+02  0.00000000000E+00 0.  1.
         11    1    3    3    0    0  0.23741721601E+02 -0.26720398779E+01 -0.11568045701E+01  0.23919601559E+02  0.51100000000E-03 0. -1.
        -11    1    3    3    0    0  0.62310367299E+01  0.53745342648E+01  0.85347086536E+01  0.11855491949E+02  0.51100000000E-03 0.  1.
        -12    1    3    3    0    0  0.10118743547E+02 -0.92118165699E+01 -0.55160554597E+01  0.14753758955E+02  0.00000000000E+00 0.  1.
</event>
<event>
 7    1  0.1369731E-013  0.5052884E+02  0.7816164E-02  0.1300439E+00
        -11   -1    0    0    0    0  0.00000000000E+00  0.00000000000E+00  0.45593999997E+02  0.45594000000E+02  0.51100000000E-03 0. -1.
         11   -1    0    0    0    0 -0.00000000000E+00 -0.00000000000E+00 -0.45593999997E+02  0.45594000000E+02  0.51100000000E-03 0.  1.
    9900012    2    1    2    0    0 -0.93981535105E+00  0.97576487764E+01  0.39459751245E+02  0.50528844440E+02  0.29999953161E+02 0.  0.
        -12    1    1    2    0    0  0.93981535105E+00 -0.97576487764E+01 -0.39459751245E+02  0.40659155560E+02  0.00000000000E+00 0.  1.
         11    1    3    3    0    0 -0.67679007083E+01  0.62802524547E+01  0.20726103874E+02  0.22689588646E+02  0.51100000000E-03 0. -1.
        -11    1    3    3    0    0  0.39143386876E+01 -0.68373657109E+01  0.20660410030E+01  0.81449458509E+01  0.51100000000E-03 0.  1.
        -12    1    3    3    0    0  0.19137466696E+01  0.10314762033E+02  0.16667606368E+02  0.19694309943E+02  0.00000000000E+00 0.  1.
</event>
<event>
 7    1  0.1369731E-013  0.5052887E+02  0.7816164E-02  0.1300439E+00
        -11   -1    0    0    0    0  0.00000000000E+00  0.00000000000E+00  0.45593999997E+02  0.45594000000E+02  0.51100000000E-03 0. -1.
         11   -1    0    0    0    0 -0.00000000000E+00 -0.00000000000E+00 -0.45593999997E+02  0.45594000000E+02  0.51100000000E-03 0.  1.
    9900012    2    1    2    0    0 -0.14952346934E+01  0.36634851132E+02 -0.17573180386E+02  0.50528871712E+02  0.30000036056E+02 0.  0.
         12    1    1    2    0    0  0.14952346934E+01 -0.36634851132E+02  0.17573180386E+02  0.40659128288E+02  0.00000000000E+00 0. -1.
         11    1    3    3    0    0  0.38382964418E+00  0.37039059597E+02 -0.93105232563E+01  0.38193259937E+02  0.51100000000E-03 0.  1.
        -11    1    3    3    0    0 -0.36854217999E+01 -0.91113788726E+00  0.67311223898E-01  0.37969773708E+01  0.51100000000E-03 0. -1.
         12    1    3    3    0    0  0.18063574623E+01  0.50692942226E+00 -0.83299683534E+01  0.85386344043E+01  0.00000000000E+00 0. -1.
</event>
<event>
 7    1  0.1369731E-013  0.5052886E+02  0.7816164E-02  0.1300439E+00
        -11   -1    0    0    0    0  0.00000000000E+00  0.00000000000E+00  0.45593999997E+02  0.45594000000E+02  0.51100000000E-03 0. -1.
         11   -1    0    0    0    0 -0.00000000000E+00 -0.00000000000E+00 -0.45593999997E+02  0.45594000000E+02  0.51100000000E-03 0.  1.
    9900012    2    1    2    0    0  0.17936075541E+02 -0.50740317159E+00  0.36485685929E+02  0.50528861525E+02  0.30000005092E+02 0.  0.
        -12    1    1    2    0    0 -0.17936075541E+02  0.50740317159E+00 -0.36485685929E+02  0.40659138475E+02  0.00000000000E+00 0.  1.
         11    1    3    3    0    0  0.32077567524E+01 -0.11603218031E+02  0.21384236301E+02  0.24539966066E+02  0.51100000000E-03 0. -1.
        -11    1    3    3    0    0  0.79162349549E+01  0.11062153351E+02  0.66722504489E+01  0.15151136556E+02  0.51100000000E-03 0.  1.
        -12    1    3    3    0    0  0.68120838333E+01  0.33661508316E-01  0.84291991794E+01  0.10837758904E+02  0.00000000000E+00 0.  1.
</event>
<event>
 7    1  0.1369731E-013  0.5052885E+02  0.7816164E-02  0.1300439E+00
        -11   -1    0    0    0    0  0.00000000000E+00  0.00000000000E+00  0.45593999997E+02  0.45594000000E+02  0.51100000000E-03 0. -1.
         11   -1    0    0    0    0 -0.00000000000E+00 -0.00000000000E+00 -0.45593999997E+02  0.45594000000E+02  0.51100000000E-03 0.  1.
    9900012    2    1    2    0    0  0.15692239391E+01  0.46327114323E+01 -0.40363868627E+02  0.50528851343E+02  0.29999974143E+02 0.  0.
         12    1    1    2    0    0 -0.15692239391E+01 -0.46327114323E+01  0.40363868627E+02  0.40659148657E+02  0.00000000000E+00 0. -1.
         11    1    3    3    0    0  0.16081565308E+01  0.86970250366E+01 -0.11948117514E+02  0.14865460784E+02  0.51100000000E-03 0. -1.
        -11    1    3    3    0    0 -0.30488177071E+01 -0.91974803208E+01 -0.39154485174E+01  0.10450821547E+02  0.51100000000E-03 0.  1.
        -12    1    3    3    0    0  0.30098851154E+01  0.51331667165E+01 -0.24500302595E+02  0.25212569012E+02  0.00000000000E+00 0.  1.
</event>
<event>
 7    1  0.1369731E-013  0.5052886E+02  0.7816164E-02  0.1300439E+00
        -11   -1    0    0    0    0  0.00000000000E+00  0.00000000000E+00  0.45593999997E+02  0.45594000000E+02  0.51100000000E-03 0. -1.
         11   -1    0    0    0    0 -0.00000000000E+00 -0.00000000000E+00 -0.45593999997E+02  0.45594000000E+02  0.51100000000E-03 0.  1.
    9900012    2    1    2    0    0  0.84545311768E+01 -0.39769854501E+02  0.21201756666E+00  0.50528863562E+02  0.30000011284E+02 0.  0.
         12    1    1    2    0    0 -0.84545311768E+01  0.39769854501E+02 -0.21201756666E+00  0.40659136438E+02  0.00000000000E+00 0. -1.
         11    1    3    3    0    0  0.10200445298E+02 -0.80470072882E+00  0.14946814020E+01  0.10340730163E+02  0.51100000000E-03 0. -1.
        -11    1    3    3    0    0  0.72059634106E+00 -0.21302249955E+02 -0.51758186861E+01  0.21933859933E+02  0.51100000000E-03 0.  1.
         12    1    3    3    0    0 -0.24665104622E+01 -0.17662903817E+02  0.38931548508E+01  0.18254273467E+02  0.00000000000E+00 0. -1.
</event>
<event>
 7    1  0.1383359E-013  0.5052882E+02  0.7816164E-02  0.1300439E+00
        -11   -1    0    0    0    0  0.00000000000E+00  0.00000000000E+00  0.45593999997E+02  0.45594000000E+02  0.51100000000E-03 0. -1.
         11   -1    0    0    0    0 -0.00000000000E+00 -0.00000000000E+00 -0.45593999997E+02  0.45594000000E+02  0.51100000000E-03 0.  1.
    9900012    2    1    2    0    0 -0.21097383590E+02 -0.24037454411E+02 -0.25105187347E+02  0.50528816036E+02  0.29999866822E+02 0.  0.
         12    1    1    2    0    0  0.21097383590E+02  0.24037454411E+02  0.25105187347E+02  0.40659183964E+02  0.00000000000E+00 0. -1.
         11    1    3    3    0    0 -0.47146907647E+01 -0.29483485248E+01  0.28306594628E+01  0.62396875952E+01  0.51100000000E-03 0. -1.
        -11    1    3    3    0    0 -0.10561200825E+02 -0.10400174155E+02 -0.28479240147E+02  0.32105602391E+02  0.51100000000E-03 0.  1.
        -12    1    3    3    0    0 -0.58214920006E+01 -0.10688931731E+02  0.54339333713E+00  0.12183526049E+02  0.00000000000E+00 0.  1.
</event>
<event>
 7    1  0.1369731E-013  0.5052886E+02  0.7816164E-02  0.1300439E+00
        -11   -1    0    0    0    0  0.00000000000E+00  0.00000000000E+00  0.45593999997E+02  0.45594000000E+02  0.51100000000E-03 0. -1.
         11   -1    0    0    0    0 -0.00000000000E+00 -0.00000000000E+00 -0.45593999997E+02  0.45594000000E+02  0.51100000000E-03 0.  1.
    9900012    2    1    2    0    0 -0.13451268287E+02  0.27213174898E+02 -0.27049436809E+02  0.50528861565E+02  0.30000005213E+02 0.  0.
         12    1    1    2    0    0  0.13451268287E+02 -0.27213174898E+02  0.27049436809E+02  0.40659138435E+02  0.00000000000E+00 0. -1.
         11    1    3    3    0    0  0.52853376229E+01  0.77095098209E+01  0.22526843173E+01  0.96148802573E+01  0.51100000000E-03 0. -1.
        -11    1    3    3    0    0 -0.93829173810E+01  0.75512551065E+01 -0.19257912930E+02  0.22714044178E+02  0.51100000000E-03 0.  1.
         12    1    3    3    0    0 -0.93536885287E+01  0.11952409971E+02 -0.10044208197E+02  0.18199937129E+02  0.00000000000E+00 0. -1.
</event>
<event>
 7    1  0.1369731E-013  0.5052885E+02  0.7816164E-02  0.1300439E+00
        -11   -1    0    0    0    0  0.00000000000E+00  0.00000000000E+00  0.45593999997E+02  0.45594000000E+02  0.51100000000E-03 0. -1.
         11   -1    0    0    0    0 -0.00000000000E+00 -0.00000000000E+00 -0.45593999997E+02  0.45594000000E+02  0.51100000000E-03 0.  1.
    9900012    2    1    2    0    0 -0.16043584774E+02  0.30914183265E+02  0.20978154138E+02  0.50528852316E+02  0.29999977101E+02 0.  0.
        -12    1    1    2    0    0  0.16043584774E+02 -0.30914183265E+02 -0.20978154138E+02  0.40659147684E+02  0.00000000000E+00 0.  1.
         11    1    3    3    0    0 -0.88950876315E+01  0.20950420643E+02  0.26764417328E+02  0.35133698129E+02  0.51100000000E-03 0. -1.
        -11    1    3    3    0    0 -0.61769677247E+01  0.85528828089E+01 -0.13457570194E+01  0.10635685066E+02  0.51100000000E-03 0.  1.
         12    1    3    3    0    0 -0.97152941763E+00  0.14108798132E+01 -0.44405061707E+01  0.47594691205E+01  0.00000000000E+00 0. -1.
</event>
<event>
 7    1  0.1369731E-013  0.5052886E+02  0.7816164E-02  0.1300439E+00
        -11   -1    0    0    0    0  0.00000000000E+00  0.00000000000E+00  0.45593999997E+02  0.45594000000E+02  0.51100000000E-03 0. -1.
         11   -1    0    0    0    0 -0.00000000000E+00 -0.00000000000E+00 -0.45593999997E+02  0.45594000000E+02  0.51100000000E-03 0.  1.
    9900012    2    1    2    0    0  0.20673333875E+02  0.54164872152E+01  0.34589599942E+02  0.50528862142E+02  0.30000006965E+02 0.  0.
        -12    1    1    2    0    0 -0.20673333875E+02 -0.54164872152E+01 -0.34589599942E+02  0.40659137858E+02  0.00000000000E+00 0.  1.
         11    1    3    3    0    0  0.48820042421E+01 -0.11997102817E+01  0.16887339792E+02  0.17619747890E+02  0.51100000000E-03 0. -1.
        -11    1    3    3    0    0  0.12015285286E+02  0.11499994198E+02  0.29154656718E+01  0.16885404567E+02  0.51100000000E-03 0.  1.
        -12    1    3    3    0    0  0.37760443462E+01 -0.48837967006E+01  0.14786794478E+02  0.16023709685E+02  0.00000000000E+00 0.  1.
</event>
<event>
 7    1  0.1369731E-013  0.5052885E+02  0.7816164E-02  0.1300439E+00
        -11   -1    0    0    0    0  0.00000000000E+00  0.00000000000E+00  0.45593999997E+02  0.45594000000E+02  0.51100000000E-03 0.  1.
         11   -1    0    0    0    0 -0.00000000000E+00 -0.00000000000E+00 -0.45593999997E+02  0.45594000000E+02  0.51100000000E-03 0. -1.
    9900012    2    1    2    0    0 -0.37684873462E+02  0.84352717317E-01  0.15264653403E+02  0.50528850393E+02  0.29999971254E+02 0.  0.
        -12    1    1    2    0    0  0.37684873462E+02 -0.84352717317E-01 -0.15264653403E+02  0.40659149607E+02  0.00000000000E+00 0.  1.
         11    1    3    3    0    0 -0.24271991192E+01  0.62809588032E+01 -0.25096154991E+01  0.71860913761E+01  0.51100000000E-03 0. -1.
        -11    1    3    3    0    0 -0.26158013705E+02 -0.77725477531E+01  0.52614167691E+01  0.27790946120E+02  0.51100000000E-03 0.  1.
        -12    1    3    3    0    0 -0.90996606376E+01  0.15759416672E+01  0.12512852133E+02  0.15551812896E+02  0.00000000000E+00 0.  1.
</event>
<event>
 7    1  0.1369731E-013  0.5052885E+02  0.7816164E-02  0.1300439E+00
        -11   -1    0    0    0    0  0.00000000000E+00  0.00000000000E+00  0.45593999997E+02  0.45594000000E+02  0.51100000000E-03 0. -1.
         11   -1    0    0    0    0 -0.00000000000E+00 -0.00000000000E+00 -0.45593999997E+02  0.45594000000E+02  0.51100000000E-03 0.  1.
    9900012    2    1    2    0    0 -0.29513616881E+02  0.90433381217E+01 -0.26463760340E+02  0.50528853955E+02  0.29999982081E+02 0.  0.
         12    1    1    2    0    0  0.29513616881E+02 -0.90433381217E+01  0.26463760340E+02  0.40659146045E+02  0.00000000000E+00 0. -1.
         11    1    3    3    0    0 -0.21110183085E+01  0.45180275230E+01  0.59382683905E+01  0.77544827510E+01  0.51100000000E-03 0. -1.
        -11    1    3    3    0    0 -0.20962876215E+02  0.40049298729E+01 -0.26482788697E+02  0.34012052862E+02  0.51100000000E-03 0.  1.
         12    1    3    3    0    0 -0.64397223574E+01  0.52038072581E+00 -0.59192400340E+01  0.87623183417E+01  0.00000000000E+00 0. -1.
</event>
<event>
 7    1  0.1369731E-013  0.5052887E+02  0.7816164E-02  0.1300439E+00
        -11   -1    0    0    0    0  0.00000000000E+00  0.00000000000E+00  0.45593999997E+02  0.45594000000E+02  0.51100000000E-03 0. -1.
         11   -1    0    0    0    0 -0.00000000000E+00 -0.00000000000E+00 -0.45593999997E+02  0.45594000000E+02  0.51100000000E-03 0.  1.
    9900012    2    1    2    0    0 -0.73837636100E+01  0.31614271047E+02  0.24478214165E+02  0.50528867353E+02  0.30000022807E+02 0.  0.
        -12    1    1    2    0    0  0.73837636100E+01 -0.31614271047E+02 -0.24478214165E+02  0.40659132647E+02  0.00000000000E+00 0.  1.
         11    1    3    3    0    0  0.39896765485E+01  0.83110772064E+01  0.12168631703E+02  0.15266535988E+02  0.51100000000E-03 0. -1.
        -11    1    3    3    0    0 -0.53279743637E+01  0.24349996478E+02  0.44968998288E+01  0.25328477010E+02  0.51100000000E-03 0.  1.
        -12    1    3    3    0    0 -0.60454657947E+01 -0.10468026368E+01  0.78126826331E+01  0.99338543558E+01  0.00000000000E+00 0.  1.
</event>
<event>
 7    1  0.1369731E-013  0.5052887E+02  0.7816164E-02  0.1300439E+00
        -11   -1    0    0    0    0  0.00000000000E+00  0.00000000000E+00  0.45593999997E+02  0.45594000000E+02  0.51100000000E-03 0. -1.
         11   -1    0    0    0    0 -0.00000000000E+00 -0.00000000000E+00 -0.45593999997E+02  0.45594000000E+02  0.51100000000E-03 0.  1.
    9900012    2    1    2    0    0 -0.70935198856E+01  0.81209432487E+01  0.39203281291E+02  0.50528868091E+02  0.30000025048E+02 0.  0.
        -12    1    1    2    0    0  0.70935198856E+01 -0.81209432487E+01 -0.39203281291E+02  0.40659131909E+02  0.00000000000E+00 0.  1.
         11    1    3    3    0    0 -0.88278890998E+01  0.71050866880E+01  0.37390039561E+02  0.39069539816E+02  0.51100000000E-03 0. -1.
        -11    1    3    3    0    0  0.62170726666E+01  0.11030022747E+01 -0.64341145820E+00  0.63468563183E+01  0.51100000000E-03 0.  1.
        -12    1    3    3    0    0 -0.44827034524E+01 -0.87145713961E-01  0.24566531888E+01  0.51124719566E+01  0.00000000000E+00 0.  1.
</event>
<event>
 7    1  0.1369731E-013  0.5052886E+02  0.7816164E-02  0.1300439E+00
        -11   -1    0    0    0    0  0.00000000000E+00  0.00000000000E+00  0.45593999997E+02  0.45594000000E+02  0.51100000000E-03 0. -1.
         11   -1    0    0    0    0 -0.00000000000E+00 -0.00000000000E+00 -0.45593999997E+02  0.45594000000E+02  0.51100000000E-03 0.  1.
    9900012    2    1    2    0    0  0.90969853954E+01 -0.36225839865E+02 -0.16065469145E+02  0.50528856919E+02  0.29999991092E+02 0.  0.
         12    1    1    2    0    0 -0.90969853954E+01  0.36225839865E+02  0.16065469145E+02  0.40659143081E+02  0.00000000000E+00 0. -1.
         11    1    3    3    0    0 -0.91670562964E+01 -0.63682536218E+01 -0.64396027742E+01  0.12886351675E+02  0.51100000000E-03 0. -1.
        -11    1    3    3    0    0  0.35543820075E+01 -0.13391290953E+02 -0.66330063384E+01  0.15360894446E+02  0.51100000000E-03 0.  1.
         12    1    3    3    0    0  0.14709659684E+02 -0.16466295290E+02 -0.29928600326E+01  0.22281610799E+02  0.00000000000E+00 0. -1.
</event>
<event>
 7    1  0.1369731E-013  0.5052893E+02  0.7816164E-02  0.1300439E+00
        -11   -1    0    0    0    0  0.00000000000E+00  0.00000000000E+00  0.45593999997E+02  0.45594000000E+02  0.51100000000E-03 0. -1.
         11   -1    0    0    0    0 -0.00000000000E+00 -0.00000000000E+00 -0.45593999997E+02  0.45594000000E+02  0.51100000000E-03 0.  1.
    9900012    2    1    2    0    0 -0.52652251102E+01 -0.32845906283E+02 -0.23379134088E+02  0.50528928863E+02  0.30000209771E+02 0.  0.
         12    1    1    2    0    0  0.52652251102E+01  0.32845906283E+02  0.23379134088E+02  0.40659071137E+02  0.00000000000E+00 0. -1.
         11    1    3    3    0    0 -0.51084749768E+01 -0.58952373357E+01  0.49687978320E+01  0.92487454279E+01  0.51100000000E-03 0. -1.
        -11    1    3    3    0    0  0.32637621796E+01 -0.15020075781E+02 -0.77054491143E+01  0.17193858391E+02  0.51100000000E-03 0.  1.
         12    1    3    3    0    0 -0.34205123129E+01 -0.11930593166E+02 -0.20642482805E+02  0.24086325044E+02  0.00000000000E+00 0. -1.
</event>
<event>
 7    1  0.1369731E-013  0.5052886E+02  0.7816164E-02  0.1300439E+00
        -11   -1    0    0    0    0  0.00000000000E+00  0.00000000000E+00  0.45593999997E+02  0.45594000000E+02  0.51100000000E-03 0. -1.
         11   -1    0    0    0    0 -0.00000000000E+00 -0.00000000000E+00 -0.45593999997E+02  0.45594000000E+02  0.51100000000E-03 0.  1.
    9900012    2    1    2    0    0  0.23845728231E+01 -0.18668780716E+02  0.36041032763E+02  0.50528860762E+02  0.30000002772E+02 0.  0.
        -12    1    1    2    0    0 -0.23845728231E+01  0.18668780716E+02 -0.36041032763E+02  0.40659139238E+02  0.00000000000E+00 0.  1.
         11    1    3    3    0    0 -0.45224562740E+01  0.14888301513E-01  0.13681985949E+02  0.14410051082E+02  0.51100000000E-03 0. -1.
        -11    1    3    3    0    0  0.10444708939E+02 -0.21226326125E+02  0.20771914034E+02  0.31482078688E+02  0.51100000000E-03 0.  1.
        -12    1    3    3    0    0 -0.35376798423E+01  0.25426571078E+01  0.15871327798E+01  0.46367309923E+01  0.00000000000E+00 0.  1.
</event>
<event>
 7    1  0.1369731E-013  0.5052886E+02  0.7816164E-02  0.1300439E+00
        -11   -1    0    0    0    0  0.00000000000E+00  0.00000000000E+00  0.45593999997E+02  0.45594000000E+02  0.51100000000E-03 0.  1.
         11   -1    0    0    0    0 -0.00000000000E+00 -0.00000000000E+00 -0.45593999997E+02  0.45594000000E+02  0.51100000000E-03 0. -1.
    9900012    2    1    2    0    0 -0.34799445021E+02 -0.20736567269E+02  0.34870235233E+01  0.50528856761E+02  0.29999990610E+02 0.  0.
         12    1    1    2    0    0  0.34799445021E+02  0.20736567269E+02 -0.34870235233E+01  0.40659143239E+02  0.00000000000E+00 0. -1.
         11    1    3    3    0    0 -0.21003456202E+02 -0.18898946750E+02  0.40848304383E+01  0.28548225876E+02  0.51100000000E-03 0. -1.
        -11    1    3    3    0    0 -0.31918893856E+01  0.23666226304E+01  0.71577657849E+01  0.81867375564E+01  0.51100000000E-03 0.  1.
         12    1    3    3    0    0 -0.10604099433E+02 -0.42042431492E+01 -0.77555726998E+01  0.13793893328E+02  0.00000000000E+00 0. -1.
</event>
<event>
 7    1  0.1369731E-013  0.5052886E+02  0.7816164E-02  0.1300439E+00
        -11   -1    0    0    0    0  0.00000000000E+00  0.00000000000E+00  0.45593999997E+02  0.45594000000E+02  0.51100000000E-03 0.  1.
         11   -1    0    0    0    0 -0.00000000000E+00 -0.00000000000E+00 -0.45593999997E+02  0.45594000000E+02  0.51100000000E-03 0. -1.
    9900012    2    1    2    0    0  0.30484191749E+02 -0.12699746505E+02  0.23719107502E+02  0.50528861193E+02  0.30000004082E+02 0.  0.
        -12    1    1    2    0    0 -0.30484191749E+02  0.12699746505E+02 -0.23719107502E+02  0.40659138807E+02  0.00000000000E+00 0.  1.
         11    1    3    3    0    0  0.15675225067E+02  0.52545975588E+01  0.80128773483E+01  0.18371980843E+02  0.51100000000E-03 0. -1.
        -11    1    3    3    0    0  0.13612674368E+02 -0.16130735185E+02  0.18871329292E+02  0.28313116935E+02  0.51100000000E-03 0.  1.
         12    1    3    3    0    0  0.11962923130E+01 -0.18236088784E+01 -0.31650991381E+01  0.38437634154E+01  0.00000000000E+00 0. -1.
</event>
<event>
 7    1  0.1369731E-013  0.5052886E+02  0.7816164E-02  0.1300439E+00
        -11   -1    0    0    0    0  0.00000000000E+00  0.00000000000E+00  0.45593999997E+02  0.45594000000E+02  0.51100000000E-03 0. -1.
         11   -1    0    0    0    0 -0.00000000000E+00 -0.00000000000E+00 -0.45593999997E+02  0.45594000000E+02  0.51100000000E-03 0.  1.
    9900012    2    1    2    0    0 -0.45123876256E+00 -0.20224976101E+01  0.40606299139E+02  0.50528860280E+02  0.30000001308E+02 0.  0.
        -12    1    1    2    0    0  0.45123876256E+00  0.20224976101E+01 -0.40606299139E+02  0.40659139720E+02  0.00000000000E+00 0.  1.
         11    1    3    3    0    0 -0.74458371237E+01  0.26374465383E+01  0.16836467687E+02  0.18597399258E+02  0.51100000000E-03 0. -1.
        -11    1    3    3    0    0  0.85926300689E+01  0.60206488837E+01  0.12563256165E+02  0.16368167589E+02  0.51100000000E-03 0.  1.
        -12    1    3    3    0    0 -0.15980317077E+01 -0.10680593032E+02  0.11206575286E+02  0.15563293434E+02  0.00000000000E+00 0.  1.
</event>
<event>
 7    1  0.1369731E-013  0.5052888E+02  0.7816164E-02  0.1300439E+00
        -11   -1    0    0    0    0  0.00000000000E+00  0.00000000000E+00  0.45593999997E+02  0.45594000000E+02  0.51100000000E-03 0. -1.
         11   -1    0    0    0    0 -0.00000000000E+00 -0.00000000000E+00 -0.45593999997E+02  0.45594000000E+02  0.51100000000E-03 0.  1.
    9900012    2    1    2    0    0 -0.67108661772E+01 -0.31844732950E+02  0.24372969055E+02  0.50528876029E+02  0.30000049179E+02 0.  0.
        -12    1    1    2    0    0  0.67108661772E+01  0.31844732950E+02 -0.24372969055E+02  0.40659123971E+02  0.00000000000E+00 0.  1.
         11    1    3    3    0    0 -0.10267872620E+02 -0.13751573634E+02  0.16261551665E+02  0.23642610862E+02  0.51100000000E-03 0. -1.
        -11    1    3    3    0    0  0.71585542740E+01 -0.24862536665E-01  0.30393752800E+01  0.77771022749E+01  0.51100000000E-03 0.  1.
         12    1    3    3    0    0 -0.36015478312E+01 -0.18068296779E+02  0.50720421100E+01  0.19109162893E+02  0.00000000000E+00 0. -1.
</event>
<event>
 7    1  0.1369731E-013  0.5052886E+02  0.7816164E-02  0.1300439E+00
        -11   -1    0    0    0    0  0.00000000000E+00  0.00000000000E+00  0.45593999997E+02  0.45594000000E+02  0.51100000000E-03 0. -1.
         11   -1    0    0    0    0 -0.00000000000E+00 -0.00000000000E+00 -0.45593999997E+02  0.45594000000E+02  0.51100000000E-03 0.  1.
    9900012    2    1    2    0    0  0.54418158587E+01  0.75506728813E+01  0.39579539035E+02  0.50528856736E+02  0.29999990533E+02 0.  0.
        -12    1    1    2    0    0 -0.54418158587E+01 -0.75506728813E+01 -0.39579539035E+02  0.40659143264E+02  0.00000000000E+00 0.  1.
         11    1    3    3    0    0  0.14765162586E+02  0.76086557805E+01  0.33241517538E+02  0.37160464980E+02  0.51100000000E-03 0. -1.
        -11    1    3    3    0    0 -0.46847708603E+01 -0.32109002873E+01  0.12936534061E+01  0.58249891043E+01  0.51100000000E-03 0.  1.
         12    1    3    3    0    0 -0.46385758675E+01  0.31529173881E+01  0.50443680902E+01  0.75434026516E+01  0.00000000000E+00 0. -1.
</event>
<event>
 7    1  0.1369731E-013  0.5052886E+02  0.7816164E-02  0.1300439E+00
        -11   -1    0    0    0    0  0.00000000000E+00  0.00000000000E+00  0.45593999997E+02  0.45594000000E+02  0.51100000000E-03 0. -1.
         11   -1    0    0    0    0 -0.00000000000E+00 -0.00000000000E+00 -0.45593999997E+02  0.45594000000E+02  0.51100000000E-03 0.  1.
    9900012    2    1    2    0    0 -0.23416756254E+02 -0.12328356382E+02 -0.30867996020E+02  0.50528855607E+02  0.29999987102E+02 0.  0.
         12    1    1    2    0    0  0.23416756254E+02  0.12328356382E+02  0.30867996020E+02  0.40659144393E+02  0.00000000000E+00 0. -1.
         11    1    3    3    0    0 -0.58162375479E+01 -0.61754610538E+01 -0.26282037774E+02  0.27617212898E+02  0.51100000000E-03 0.  1.
        -11    1    3    3    0    0  0.16117630883E+01 -0.10535862232E+01  0.11248600166E+01  0.22300525780E+01  0.51100000000E-03 0. -1.
         12    1    3    3    0    0 -0.19212281794E+02 -0.50993091050E+01 -0.57108182619E+01  0.20681590130E+02  0.00000000000E+00 0. -1.
</event>
<event>
 7    1  0.1369731E-013  0.5052891E+02  0.7816164E-02  0.1300439E+00
        -11   -1    0    0    0    0  0.00000000000E+00  0.00000000000E+00  0.45593999997E+02  0.45594000000E+02  0.51100000000E-03 0. -1.
         11   -1    0    0    0    0 -0.00000000000E+00 -0.00000000000E+00 -0.45593999997E+02  0.45594000000E+02  0.51100000000E-03 0.  1.
    9900012    2    1    2    0    0 -0.23745603547E+02  0.67361477595E+01  0.32309940184E+02  0.50528909883E+02  0.30000152080E+02 0.  0.
        -12    1    1    2    0    0  0.23745603547E+02 -0.67361477595E+01 -0.32309940184E+02  0.40659090117E+02  0.00000000000E+00 0.  1.
         11    1    3    3    0    0 -0.72627799570E+01 -0.72059377306E+01  0.28102706851E+01  0.10609954423E+02  0.51100000000E-03 0. -1.
        -11    1    3    3    0    0 -0.12140096892E+02  0.17486620082E+02  0.23477675629E+02  0.31691719543E+02  0.51100000000E-03 0.  1.
        -12    1    3    3    0    0 -0.43427266976E+01 -0.35445345919E+01  0.60219938707E+01  0.82272359162E+01  0.00000000000E+00 0.  1.
</event>
<event>
 7    1  0.1369731E-013  0.5052886E+02  0.7816164E-02  0.1300439E+00
        -11   -1    0    0    0    0  0.00000000000E+00  0.00000000000E+00  0.45593999997E+02  0.45594000000E+02  0.51100000000E-03 0. -1.
         11   -1    0    0    0    0 -0.00000000000E+00 -0.00000000000E+00 -0.45593999997E+02  0.45594000000E+02  0.51100000000E-03 0.  1.
    9900012    2    1    2    0    0 -0.97341163010E+00 -0.28629620714E+02  0.28854166437E+02  0.50528860398E+02  0.30000001666E+02 0.  0.
        -12    1    1    2    0    0  0.97341163010E+00  0.28629620714E+02 -0.28854166437E+02  0.40659139602E+02  0.00000000000E+00 0.  1.
         11    1    3    3    0    0 -0.11413773516E+01 -0.15837731198E+02  0.30544661184E+02  0.34425467301E+02  0.51100000000E-03 0. -1.
        -11    1    3    3    0    0  0.18386627936E+01 -0.95603782660E+01 -0.52097425380E+01  0.11041871718E+02  0.51100000000E-03 0.  1.
         12    1    3    3    0    0 -0.16706970721E+01 -0.32315112502E+01  0.35192477903E+01  0.50615213796E+01  0.00000000000E+00 0. -1.
</event>
<event>
 7    1  0.1369731E-013  0.5052886E+02  0.7816164E-02  0.1300439E+00
        -11   -1    0    0    0    0  0.00000000000E+00  0.00000000000E+00  0.45593999997E+02  0.45594000000E+02  0.51100000000E-03 0. -1.
         11   -1    0    0    0    0 -0.00000000000E+00 -0.00000000000E+00 -0.45593999997E+02  0.45594000000E+02  0.51100000000E-03 0.  1.
    9900012    2    1    2    0    0  0.22439604004E+01  0.27594227756E+02 -0.29777326068E+02  0.50528856975E+02  0.29999991261E+02 0.  0.
         12    1    1    2    0    0 -0.22439604004E+01 -0.27594227756E+02  0.29777326068E+02  0.40659143025E+02  0.00000000000E+00 0. -1.
         11    1    3    3    0    0 -0.15263313693E+01 -0.58274141715E+01 -0.76698598176E+01  0.97527018440E+01  0.51100000000E-03 0. -1.
        -11    1    3    3    0    0  0.43296045587E+01  0.10835724882E+02 -0.77097174330E+01  0.13985640940E+02  0.51100000000E-03 0.  1.
         12    1    3    3    0    0 -0.55931278913E+00  0.22585917046E+02 -0.14397748818E+02  0.26790514191E+02  0.00000000000E+00 0. -1.
</event>
<event>
 7    1  0.1460351E-013  0.5052886E+02  0.7816164E-02  0.1300439E+00
        -11   -1    0    0    0    0  0.00000000000E+00  0.00000000000E+00  0.45593999997E+02  0.45594000000E+02  0.51100000000E-03 0. -1.
         11   -1    0    0    0    0 -0.00000000000E+00 -0.00000000000E+00 -0.45593999997E+02  0.45594000000E+02  0.51100000000E-03 0.  1.
    9900012    2    1    2    0    0  0.50960592308E+01 -0.15119165970E+02 -0.37397950402E+02  0.50528859655E+02  0.29999999407E+02 0.  0.
         12    1    1    2    0    0 -0.50960592308E+01  0.15119165970E+02  0.37397950402E+02  0.40659140345E+02  0.00000000000E+00 0. -1.
         11    1    3    3    0    0  0.80733441511E+01 -0.70032857165E+01 -0.91905147205E+00  0.10727047706E+02  0.51100000000E-03 0. -1.
        -11    1    3    3    0    0 -0.80320411365E+01 -0.39279991362E+01 -0.25358058646E+02  0.26888175851E+02  0.51100000000E-03 0.  1.
        -12    1    3    3    0    0  0.50547562162E+01 -0.41878811169E+01 -0.11120840284E+02  0.12913636098E+02  0.00000000000E+00 0.  1.
</event>
<event>
 7    1  0.1369731E-013  0.5052886E+02  0.7816164E-02  0.1300439E+00
        -11   -1    0    0    0    0  0.00000000000E+00  0.00000000000E+00  0.45593999997E+02  0.45594000000E+02  0.51100000000E-03 0. -1.
         11   -1    0    0    0    0 -0.00000000000E+00 -0.00000000000E+00 -0.45593999997E+02  0.45594000000E+02  0.51100000000E-03 0.  1.
    9900012    2    1    2    0    0 -0.18991783292E+02 -0.19716508818E+02 -0.30062226540E+02  0.50528855676E+02  0.29999987313E+02 0.  0.
         12    1    1    2    0    0  0.18991783292E+02  0.19716508818E+02  0.30062226540E+02  0.40659144324E+02  0.00000000000E+00 0. -1.
         11    1    3    3    0    0 -0.66084944537E+01  0.89444921649E+00 -0.81324907368E+00  0.67181554509E+01  0.51100000000E-03 0. -1.
        -11    1    3    3    0    0 -0.74164096039E+01 -0.64909228249E+01 -0.26913657940E+02  0.28661475791E+02  0.51100000000E-03 0.  1.
        -12    1    3    3    0    0 -0.49668792347E+01 -0.14120035210E+02 -0.23353195260E+01  0.15149224434E+02  0.00000000000E+00 0.  1.
</event>
<event>
 7    1  0.1369731E-013  0.5052886E+02  0.7816164E-02  0.1300439E+00
        -11   -1    0    0    0    0  0.00000000000E+00  0.00000000000E+00  0.45593999997E+02  0.45594000000E+02  0.51100000000E-03 0. -1.
         11   -1    0    0    0    0 -0.00000000000E+00 -0.00000000000E+00 -0.45593999997E+02  0.45594000000E+02  0.51100000000E-03 0.  1.
    9900012    2    1    2    0    0 -0.27065418224E+02 -0.13447689146E+02  0.27199052652E+02  0.50528859918E+02  0.30000000208E+02 0.  0.
        -12    1    1    2    0    0  0.27065418224E+02  0.13447689146E+02 -0.27199052652E+02  0.40659140082E+02  0.00000000000E+00 0.  1.
         11    1    3    3    0    0 -0.12996714409E+02 -0.57073145908E+01  0.23643143988E+02  0.27576915766E+02  0.51100000000E-03 0. -1.
        -11    1    3    3    0    0 -0.14873275032E+02 -0.53867207840E+01 -0.28560255561E+01  0.16074450324E+02  0.51100000000E-03 0.  1.
        -12    1    3    3    0    0  0.80457121684E+00 -0.23536537709E+01  0.64119342200E+01  0.68774938283E+01  0.00000000000E+00 0.  1.
</event>
<event>
 7    1  0.1369731E-013  0.5052886E+02  0.7816164E-02  0.1300439E+00
        -11   -1    0    0    0    0  0.00000000000E+00  0.00000000000E+00  0.45593999997E+02  0.45594000000E+02  0.51100000000E-03 0. -1.
         11   -1    0    0    0    0 -0.00000000000E+00 -0.00000000000E+00 -0.45593999997E+02  0.45594000000E+02  0.51100000000E-03 0.  1.
    9900012    2    1    2    0    0 -0.78143370406E+01  0.82344796396E+01 -0.39042222010E+02  0.50528860587E+02  0.30000002240E+02 0.  0.
         12    1    1    2    0    0  0.78143370406E+01 -0.82344796396E+01  0.39042222010E+02  0.40659139413E+02  0.00000000000E+00 0. -1.
         11    1    3    3    0    0 -0.36156188281E+01  0.24421144841E+01  0.14520288101E+01  0.45983704276E+01  0.51100000000E-03 0. -1.
        -11    1    3    3    0    0 -0.76417303300E+01 -0.56761707643E+01 -0.20924328088E+02  0.22987876439E+02  0.51100000000E-03 0.  1.
        -12    1    3    3    0    0  0.34430121174E+01  0.11468535920E+02 -0.19569922732E+02  0.22942613720E+02  0.00000000000E+00 0.  1.
</event>
<event>
 7    1  0.1369731E-013  0.5052885E+02  0.7816164E-02  0.1300439E+00
        -11   -1    0    0    0    0  0.00000000000E+00  0.00000000000E+00  0.45593999997E+02  0.45594000000E+02  0.51100000000E-03 0. -1.
         11   -1    0    0    0    0 -0.00000000000E+00 -0.00000000000E+00 -0.45593999997E+02  0.45594000000E+02  0.51100000000E-03 0.  1.
    9900012    2    1    2    0    0 -0.62872613315E+00 -0.49123381538E+01  0.40356413687E+02  0.50528849881E+02  0.29999969698E+02 0.  0.
        -12    1    1    2    0    0  0.62872613315E+00  0.49123381538E+01 -0.40356413687E+02  0.40659150119E+02  0.00000000000E+00 0.  1.
         11    1    3    3    0    0 -0.49134943620E+01  0.17971886799E+01  0.59645121008E+01  0.79339598473E+01  0.51100000000E-03 0. -1.
        -11    1    3    3    0    0  0.87691176525E+01 -0.78129516494E+01  0.35871732276E+02  0.37745474095E+02  0.51100000000E-03 0.  1.
        -12    1    3    3    0    0 -0.44843494237E+01  0.11034248156E+01 -0.14798306898E+01  0.48494159389E+01  0.00000000000E+00 0.  1.
</event>
<event>
 7    1  0.1369731E-013  0.5052887E+02  0.7816164E-02  0.1300439E+00
        -11   -1    0    0    0    0  0.00000000000E+00  0.00000000000E+00  0.45593999997E+02  0.45594000000E+02  0.51100000000E-03 0. -1.
         11   -1    0    0    0    0 -0.00000000000E+00 -0.00000000000E+00 -0.45593999997E+02  0.45594000000E+02  0.51100000000E-03 0.  1.
    9900012    2    1    2    0    0  0.88730541571E+01 -0.16689888518E+02  0.35998352775E+02  0.50528869767E+02  0.30000030144E+02 0.  0.
        -12    1    1    2    0    0 -0.88730541571E+01  0.16689888518E+02 -0.35998352775E+02  0.40659130233E+02  0.00000000000E+00 0.  1.
         11    1    3    3    0    0  0.41993478295E+01 -0.22885450042E+02  0.26115612028E+02  0.34977185960E+02  0.51100000000E-03 0. -1.
        -11    1    3    3    0    0 -0.14490192808E+01  0.46008960910E+01  0.72292539189E+01  0.86908005501E+01  0.51100000000E-03 0.  1.
         12    1    3    3    0    0  0.61227256084E+01  0.15946654334E+01  0.26534868284E+01  0.68608832572E+01  0.00000000000E+00 0. -1.
</event>
<event>
 7    1  0.1369731E-013  0.5052873E+02  0.7816164E-02  0.1300439E+00
        -11   -1    0    0    0    0  0.00000000000E+00  0.00000000000E+00  0.45593999997E+02  0.45594000000E+02  0.51100000000E-03 0. -1.
         11   -1    0    0    0    0 -0.00000000000E+00 -0.00000000000E+00 -0.45593999997E+02  0.45594000000E+02  0.51100000000E-03 0.  1.
    9900012    2    1    2    0    0 -0.16842277884E+01 -0.17531590138E+02 -0.36646734605E+02  0.50528727586E+02  0.29999597967E+02 0.  0.
         12    1    1    2    0    0  0.16842277884E+01  0.17531590138E+02  0.36646734605E+02  0.40659272414E+02  0.00000000000E+00 0. -1.
         11    1    3    3    0    0 -0.12350936961E+01  0.51563143099E+01 -0.15983601784E+02  0.16840087884E+02  0.51100000000E-03 0. -1.
        -11    1    3    3    0    0 -0.44476658449E+01 -0.14152739542E+02 -0.19019559583E+02  0.24121057502E+02  0.51100000000E-03 0.  1.
         12    1    3    3    0    0  0.39985317526E+01 -0.85351649065E+01 -0.16435732386E+01  0.95675821997E+01  0.00000000000E+00 0. -1.
</event>
<event>
 7    1  0.1369731E-013  0.5052886E+02  0.7816164E-02  0.1300439E+00
        -11   -1    0    0    0    0  0.00000000000E+00  0.00000000000E+00  0.45593999997E+02  0.45594000000E+02  0.51100000000E-03 0. -1.
         11   -1    0    0    0    0 -0.00000000000E+00 -0.00000000000E+00 -0.45593999997E+02  0.45594000000E+02  0.51100000000E-03 0.  1.
    9900012    2    1    2    0    0  0.13991929751E+02 -0.33669288279E+02  0.17993615490E+02  0.50528864867E+02  0.30000015249E+02 0.  0.
        -12    1    1    2    0    0 -0.13991929751E+02  0.33669288279E+02 -0.17993615490E+02  0.40659135133E+02  0.00000000000E+00 0.  1.
         11    1    3    3    0    0 -0.92338045202E+01 -0.12538001793E+02  0.54062019751E+01  0.16483071769E+02  0.51100000000E-03 0. -1.
        -11    1    3    3    0    0  0.82982007064E+01 -0.10046239359E+02  0.47677228438E+01  0.13875094291E+02  0.51100000000E-03 0.  1.
         12    1    3    3    0    0  0.14927533565E+02 -0.11085047128E+02  0.78196906707E+01  0.20170698807E+02  0.00000000000E+00 0. -1.
</event>
<event>
 7    1  0.1369731E-013  0.5052886E+02  0.7816164E-02  0.1300439E+00
        -11   -1    0    0    0    0  0.00000000000E+00  0.00000000000E+00  0.45593999997E+02  0.45594000000E+02  0.51100000000E-03 0. -1.
         11   -1    0    0    0    0 -0.00000000000E+00 -0.00000000000E+00 -0.45593999997E+02  0.45594000000E+02  0.51100000000E-03 0.  1.
    9900012    2    1    2    0    0  0.40704099449E+01  0.19605623734E+02  0.35386681011E+02  0.50528856968E+02  0.29999991240E+02 0.  0.
        -12    1    1    2    0    0 -0.40704099449E+01 -0.19605623734E+02 -0.35386681011E+02  0.40659143032E+02  0.00000000000E+00 0.  1.
         11    1    3    3    0    0 -0.20629130065E+01  0.77373831718E+01  0.27531656347E+02  0.28672544532E+02  0.51100000000E-03 0. -1.
        -11    1    3    3    0    0  0.16883113297E+01  0.13804445966E+01 -0.45311651274E+01  0.50286658373E+01  0.51100000000E-03 0.  1.
        -12    1    3    3    0    0  0.44450116217E+01  0.10487795966E+02  0.12386189791E+02  0.16827646599E+02  0.00000000000E+00 0.  1.
</event>
<event>
 7    1  0.1620824E-013  0.5052885E+02  0.7816164E-02  0.1300439E+00
        -11   -1    0    0    0    0  0.00000000000E+00  0.00000000000E+00  0.45593999997E+02  0.45594000000E+02  0.51100000000E-03 0. -1.
         11   -1    0    0    0    0 -0.00000000000E+00 -0.00000000000E+00 -0.45593999997E+02  0.45594000000E+02  0.51100000000E-03 0.  1.
    9900012    2    1    2    0    0  0.20993826681E+02 -0.76173798676E+01 -0.33976480655E+02  0.50528850077E+02  0.29999970294E+02 0.  0.
         12    1    1    2    0    0 -0.20993826681E+02  0.76173798676E+01  0.33976480655E+02  0.40659149923E+02  0.00000000000E+00 0. -1.
         11    1    3    3    0    0  0.19827310526E+01 -0.19510108907E+01  0.28430434297E+01  0.39775070242E+01  0.51100000000E-03 0. -1.
        -11    1    3    3    0    0  0.91036616297E+01 -0.19579138581E+00 -0.33560692843E+02  0.34774057768E+02  0.51100000000E-03 0.  1.
        -12    1    3    3    0    0  0.99074339982E+01 -0.54705775911E+01 -0.32588312424E+01  0.11777285285E+02  0.00000000000E+00 0.  1.
</event>
<event>
 7    1  0.1369731E-013  0.5052885E+02  0.7816164E-02  0.1300439E+00
        -11   -1    0    0    0    0  0.00000000000E+00  0.00000000000E+00  0.45593999997E+02  0.45594000000E+02  0.51100000000E-03 0. -1.
         11   -1    0    0    0    0 -0.00000000000E+00 -0.00000000000E+00 -0.45593999997E+02  0.45594000000E+02  0.51100000000E-03 0.  1.
    9900012    2    1    2    0    0 -0.13461135163E+02 -0.29162881607E+02 -0.24929706510E+02  0.50528854778E+02  0.29999984583E+02 0.  0.
         12    1    1    2    0    0  0.13461135163E+02  0.29162881607E+02  0.24929706510E+02  0.40659145222E+02  0.00000000000E+00 0. -1.
         11    1    3    3    0    0 -0.14243005359E+02 -0.13691246360E+02 -0.65420664224E+00  0.19767180252E+02  0.51100000000E-03 0. -1.
        -11    1    3    3    0    0 -0.27721458546E+01 -0.14779630754E+02 -0.17450203382E+02  0.23035448253E+02  0.51100000000E-03 0.  1.
         12    1    3    3    0    0  0.35540160503E+01 -0.69200449293E+00 -0.68252964853E+01  0.77262262726E+01  0.00000000000E+00 0. -1.
</event>
<event>
 7    1  0.1369731E-013  0.5052886E+02  0.7816164E-02  0.1300439E+00
        -11   -1    0    0    0    0  0.00000000000E+00  0.00000000000E+00  0.45593999997E+02  0.45594000000E+02  0.51100000000E-03 0. -1.
         11   -1    0    0    0    0 -0.00000000000E+00 -0.00000000000E+00 -0.45593999997E+02  0.45594000000E+02  0.51100000000E-03 0.  1.
    9900012    2    1    2    0    0  0.14919879923E+02  0.11811189586E+00 -0.37822599935E+02  0.50528857938E+02  0.29999994189E+02 0.  0.
         12    1    1    2    0    0 -0.14919879923E+02 -0.11811189586E+00  0.37822599935E+02  0.40659142062E+02  0.00000000000E+00 0. -1.
         11    1    3    3    0    0 -0.80355108441E+01  0.39398246736E+01 -0.50127244742E+01  0.10257634225E+02  0.51100000000E-03 0. -1.
        -11    1    3    3    0    0  0.13228223456E+02 -0.30981977901E+01 -0.18484253399E+02  0.22940190699E+02  0.51100000000E-03 0.  1.
         12    1    3    3    0    0  0.97271673119E+01 -0.72351498771E+00 -0.14325622062E+02  0.17331033014E+02  0.00000000000E+00 0. -1.
</event>
<event>
 7    1  0.1369731E-013  0.5052885E+02  0.7816164E-02  0.1300439E+00
        -11   -1    0    0    0    0  0.00000000000E+00  0.00000000000E+00  0.45593999997E+02  0.45594000000E+02  0.51100000000E-03 0. -1.
         11   -1    0    0    0    0 -0.00000000000E+00 -0.00000000000E+00 -0.45593999997E+02  0.45594000000E+02  0.51100000000E-03 0.  1.
    9900012    2    1    2    0    0 -0.89844494779E+00  0.27575027137E+02  0.29865992665E+02  0.50528845522E+02  0.29999956450E+02 0.  0.
        -12    1    1    2    0    0  0.89844494779E+00 -0.27575027137E+02 -0.29865992665E+02  0.40659154478E+02  0.00000000000E+00 0.  1.
         11    1    3    3    0    0  0.12160404548E+01  0.15959090537E+02  0.36247408035E+01  0.16410669435E+02  0.51100000000E-03 0. -1.
        -11    1    3    3    0    0  0.30105606961E+01  0.66593146101E+01  0.25974861405E+02  0.26983390670E+02  0.51100000000E-03 0.  1.
        -12    1    3    3    0    0 -0.51250460987E+01  0.49566219899E+01  0.26639045664E+00  0.71347854165E+01  0.00000000000E+00 0.  1.
</event>
<event>
 7    1  0.1369731E-013  0.5052883E+02  0.7816164E-02  0.1300439E+00
        -11   -1    0    0    0    0  0.00000000000E+00  0.00000000000E+00  0.45593999997E+02  0.45594000000E+02  0.51100000000E-03 0. -1.
         11   -1    0    0    0    0 -0.00000000000E+00 -0.00000000000E+00 -0.45593999997E+02  0.45594000000E+02  0.51100000000E-03 0.  1.
    9900012    2    1    2    0    0  0.83819152592E+01  0.98439162181E+01 -0.38548786746E+02  0.50528829454E+02  0.29999907607E+02 0.  0.
         12    1    1    2    0    0 -0.83819152592E+01 -0.98439162181E+01  0.38548786746E+02  0.40659170546E+02  0.00000000000E+00 0. -1.
         11    1    3    3    0    0  0.12779122619E+02  0.15827579333E+02 -0.33554276627E+02  0.39239109606E+02  0.51100000000E-03 0.  1.
        -11    1    3    3    0    0  0.83534662347E+00 -0.15448871165E+01  0.11332611646E+01  0.20901582027E+01  0.51100000000E-03 0. -1.
         12    1    3    3    0    0 -0.52325539835E+01 -0.44387759982E+01 -0.61277712838E+01  0.91995616449E+01  0.00000000000E+00 0. -1.
</event>
<event>
 7    1  0.1369731E-013  0.5052886E+02  0.7816164E-02  0.1300439E+00
        -11   -1    0    0    0    0  0.00000000000E+00  0.00000000000E+00  0.45593999997E+02  0.45594000000E+02  0.51100000000E-03 0. -1.
         11   -1    0    0    0    0 -0.00000000000E+00 -0.00000000000E+00 -0.45593999997E+02  0.45594000000E+02  0.51100000000E-03 0.  1.
    9900012    2    1    2    0    0 -0.16810892090E+02 -0.12069748170E+02 -0.34998291960E+02  0.50528863833E+02  0.30000012105E+02 0.  0.
         12    1    1    2    0    0  0.16810892090E+02  0.12069748170E+02  0.34998291960E+02  0.40659136167E+02  0.00000000000E+00 0. -1.
         11    1    3    3    0    0 -0.37761387240E+01 -0.15015147346E+02 -0.51377566028E+01  0.16312891119E+02  0.51100000000E-03 0. -1.
        -11    1    3    3    0    0 -0.67185988430E+01  0.62985491577E+01 -0.20166138224E+02  0.22169447964E+02  0.51100000000E-03 0.  1.
        -12    1    3    3    0    0 -0.63161545228E+01 -0.33531499810E+01 -0.96943971336E+01  0.12046524749E+02  0.00000000000E+00 0.  1.
</event>
<event>
 7    1  0.1369731E-013  0.5052886E+02  0.7816164E-02  0.1300439E+00
        -11   -1    0    0    0    0  0.00000000000E+00  0.00000000000E+00  0.45593999997E+02  0.45594000000E+02  0.51100000000E-03 0. -1.
         11   -1    0    0    0    0 -0.00000000000E+00 -0.00000000000E+00 -0.45593999997E+02  0.45594000000E+02  0.51100000000E-03 0.  1.
    9900012    2    1    2    0    0  0.90808936673E+01  0.96278287716E+01 -0.38444868223E+02  0.50528860691E+02  0.30000002558E+02 0.  0.
         12    1    1    2    0    0 -0.90808936673E+01 -0.96278287716E+01  0.38444868223E+02  0.40659139309E+02  0.00000000000E+00 0. -1.
         11    1    3    3    0    0 -0.76399329976E+01  0.43787045412E+01 -0.23797438254E+02  0.25374390582E+02  0.51100000000E-03 0. -1.
        -11    1    3    3    0    0  0.63411721616E+01  0.73732682913E+01 -0.84297721035E+01  0.12869988642E+02  0.51100000000E-03 0.  1.
         12    1    3    3    0    0  0.10379654503E+02 -0.21241440608E+01 -0.62176578650E+01  0.12284481467E+02  0.00000000000E+00 0. -1.
</event>
<event>
 7    1  0.1369731E-013  0.5052886E+02  0.7816164E-02  0.1300439E+00
        -11   -1    0    0    0    0  0.00000000000E+00  0.00000000000E+00  0.45593999997E+02  0.45594000000E+02  0.51100000000E-03 0. -1.
         11   -1    0    0    0    0 -0.00000000000E+00 -0.00000000000E+00 -0.45593999997E+02  0.45594000000E+02  0.51100000000E-03 0.  1.
    9900012    2    1    2    0    0 -0.27443649728E+02  0.22497304644E+02  0.19846482744E+02  0.50528861987E+02  0.30000006496E+02 0.  0.
        -12    1    1    2    0    0  0.27443649728E+02 -0.22497304644E+02 -0.19846482744E+02  0.40659138013E+02  0.00000000000E+00 0.  1.
         11    1    3    3    0    0 -0.22473660276E+01  0.25886231996E+01  0.34109871965E+01  0.48359547193E+01  0.51100000000E-03 0. -1.
        -11    1    3    3    0    0  0.26570204383E+01 -0.17666678349E+01  0.91027394437E+01  0.96457627220E+01  0.51100000000E-03 0.  1.
        -12    1    3    3    0    0 -0.27853304139E+02  0.21675349279E+02  0.73327561041E+01  0.36047144546E+02  0.00000000000E+00 0.  1.
</event>
<event>
 7    1  0.1369731E-013  0.5052886E+02  0.7816164E-02  0.1300439E+00
        -11   -1    0    0    0    0  0.00000000000E+00  0.00000000000E+00  0.45593999997E+02  0.45594000000E+02  0.51100000000E-03 0. -1.
         11   -1    0    0    0    0 -0.00000000000E+00 -0.00000000000E+00 -0.45593999997E+02  0.45594000000E+02  0.51100000000E-03 0.  1.
    9900012    2    1    2    0    0 -0.24449871022E+02  0.13810105000E+02 -0.29404944030E+02  0.50528856791E+02  0.29999990701E+02 0.  0.
         12    1    1    2    0    0  0.24449871022E+02 -0.13810105000E+02  0.29404944030E+02  0.40659143209E+02  0.00000000000E+00 0. -1.
         11    1    3    3    0    0 -0.49000419573E+00  0.15047503829E+02 -0.12130448610E+02  0.19334302660E+02  0.51100000000E-03 0. -1.
        -11    1    3    3    0    0 -0.24722711177E+02 -0.13028282383E+01 -0.17586622671E+02  0.30367731337E+02  0.51100000000E-03 0.  1.
        -12    1    3    3    0    0  0.76284435080E+00  0.65429409783E-01  0.31212725108E+00  0.82682279364E+00  0.00000000000E+00 0.  1.
</event>
<event>
 7    1  0.1369731E-013  0.5052884E+02  0.7816164E-02  0.1300439E+00
        -11   -1    0    0    0    0  0.00000000000E+00  0.00000000000E+00  0.45593999997E+02  0.45594000000E+02  0.51100000000E-03 0. -1.
         11   -1    0    0    0    0 -0.00000000000E+00 -0.00000000000E+00 -0.45593999997E+02  0.45594000000E+02  0.51100000000E-03 0.  1.
    9900012    2    1    2    0    0 -0.37364017530E+02 -0.10579833902E+02 -0.12048421853E+02  0.50528841616E+02  0.29999944576E+02 0.  0.
         12    1    1    2    0    0  0.37364017530E+02  0.10579833902E+02  0.12048421853E+02  0.40659158384E+02  0.00000000000E+00 0. -1.
         11    1    3    3    0    0 -0.23169181285E+02 -0.16381947874E+02  0.18768250808E+01  0.28437680113E+02  0.51100000000E-03 0. -1.
        -11    1    3    3    0    0 -0.11872936265E+02  0.11940727507E+01 -0.10528118170E+02  0.15913318251E+02  0.51100000000E-03 0.  1.
         12    1    3    3    0    0 -0.23218999797E+01  0.46080412215E+01 -0.33971287634E+01  0.61778432523E+01  0.00000000000E+00 0. -1.
</event>
<event>
 7    1  0.1369731E-013  0.5052886E+02  0.7816164E-02  0.1300439E+00
        -11   -1    0    0    0    0  0.00000000000E+00  0.00000000000E+00  0.45593999997E+02  0.45594000000E+02  0.51100000000E-03 0. -1.
         11   -1    0    0    0    0 -0.00000000000E+00 -0.00000000000E+00 -0.45593999997E+02  0.45594000000E+02  0.51100000000E-03 0.  1.
    9900012    2    1    2    0    0  0.20140795627E+02  0.27191251720E+01  0.35215345553E+02  0.50528857700E+02  0.29999993463E+02 0.  0.
        -12    1    1    2    0    0 -0.20140795627E+02 -0.27191251720E+01 -0.35215345553E+02  0.40659142300E+02  0.00000000000E+00 0.  1.
         11    1    3    3    0    0  0.37028869787E+01 -0.20666267287E+01  0.29281202763E+02  0.29586671890E+02  0.51100000000E-03 0. -1.
        -11    1    3    3    0    0  0.10430840558E+02 -0.23153554526E+01  0.42012959470E+01  0.11481036256E+02  0.51100000000E-03 0.  1.
         12    1    3    3    0    0  0.60070680900E+01  0.71011073534E+01  0.17328468428E+01  0.94611495529E+01  0.00000000000E+00 0. -1.
</event>
<event>
 7    1  0.1369731E-013  0.5052886E+02  0.7816164E-02  0.1300439E+00
        -11   -1    0    0    0    0  0.00000000000E+00  0.00000000000E+00  0.45593999997E+02  0.45594000000E+02  0.51100000000E-03 0. -1.
         11   -1    0    0    0    0 -0.00000000000E+00 -0.00000000000E+00 -0.45593999997E+02  0.45594000000E+02  0.51100000000E-03 0.  1.
    9900012    2    1    2    0    0  0.22241493337E+01  0.22964073529E+02 -0.33479403641E+02  0.50528856114E+02  0.29999988646E+02 0.  0.
         12    1    1    2    0    0 -0.22241493337E+01 -0.22964073529E+02  0.33479403641E+02  0.40659143886E+02  0.00000000000E+00 0. -1.
         11    1    3    3    0    0  0.30953442092E+00  0.89204946040E+01  0.36001559437E+01  0.96245601779E+01  0.51100000000E-03 0. -1.
        -11    1    3    3    0    0  0.23810409493E+01  0.19065669077E+01 -0.18209259242E+02  0.18462975811E+02  0.51100000000E-03 0.  1.
         12    1    3    3    0    0 -0.46642603647E+00  0.12137012018E+02 -0.18870300343E+02  0.22441320126E+02  0.00000000000E+00 0. -1.
</event>
<event>
 7    1  0.1369731E-013  0.5052885E+02  0.7816164E-02  0.1300439E+00
        -11   -1    0    0    0    0  0.00000000000E+00  0.00000000000E+00  0.45593999997E+02  0.45594000000E+02  0.51100000000E-03 0. -1.
         11   -1    0    0    0    0 -0.00000000000E+00 -0.00000000000E+00 -0.45593999997E+02  0.45594000000E+02  0.51100000000E-03 0.  1.
    9900012    2    1    2    0    0 -0.57961412463E+01  0.26780681222E+02 -0.30039409246E+02  0.50528852838E+02  0.29999978687E+02 0.  0.
         12    1    1    2    0    0  0.57961412463E+01 -0.26780681222E+02  0.30039409246E+02  0.40659147162E+02  0.00000000000E+00 0. -1.
         11    1    3    3    0    0 -0.90235271897E+01  0.10259919308E+02 -0.14931746597E+01  0.13744801125E+02  0.51100000000E-03 0. -1.
        -11    1    3    3    0    0  0.93891400293E+01  0.12172541545E+02 -0.16330532213E+02  0.22427951328E+02  0.51100000000E-03 0.  1.
        -12    1    3    3    0    0 -0.61617540859E+01  0.43482203696E+01 -0.12215702373E+02  0.14356100385E+02  0.00000000000E+00 0.  1.
</event>
<event>
 7    1  0.1369731E-013  0.5052886E+02  0.7816164E-02  0.1300439E+00
        -11   -1    0    0    0    0  0.00000000000E+00  0.00000000000E+00  0.45593999997E+02  0.45594000000E+02  0.51100000000E-03 0. -1.
         11   -1    0    0    0    0 -0.00000000000E+00 -0.00000000000E+00 -0.45593999997E+02  0.45594000000E+02  0.51100000000E-03 0.  1.
    9900012    2    1    2    0    0  0.49892553531E+01  0.10528627490E+02 -0.38954088208E+02  0.50528860143E+02  0.30000000890E+02 0.  0.
         12    1    1    2    0    0 -0.49892553531E+01 -0.10528627490E+02  0.38954088208E+02  0.40659139857E+02  0.00000000000E+00 0. -1.
         11    1    3    3    0    0 -0.12126585996E+02  0.35025559654E+00 -0.14611797596E+02  0.18991613837E+02  0.51100000000E-03 0. -1.
        -11    1    3    3    0    0  0.77352300275E+01  0.43396541481E+01 -0.90574961115E+01  0.12676932507E+02  0.51100000000E-03 0.  1.
         12    1    3    3    0    0  0.93806113215E+01  0.58387177455E+01 -0.15284794500E+02  0.18860313799E+02  0.00000000000E+00 0. -1.
</event>
<event>
 7    1  0.1369731E-013  0.5052885E+02  0.7816164E-02  0.1300439E+00
        -11   -1    0    0    0    0  0.00000000000E+00  0.00000000000E+00  0.45593999997E+02  0.45594000000E+02  0.51100000000E-03 0. -1.
         11   -1    0    0    0    0 -0.00000000000E+00 -0.00000000000E+00 -0.45593999997E+02  0.45594000000E+02  0.51100000000E-03 0.  1.
    9900012    2    1    2    0    0  0.75949183482E+01  0.89755900048E+01 -0.38922004742E+02  0.50528850306E+02  0.29999970991E+02 0.  0.
         12    1    1    2    0    0 -0.75949183482E+01 -0.89755900048E+01  0.38922004742E+02  0.40659149694E+02  0.00000000000E+00 0. -1.
         11    1    3    3    0    0  0.10591855390E+02  0.80034651912E+01 -0.77283921901E+01  0.15361344400E+02  0.51100000000E-03 0. -1.
        -11    1    3    3    0    0 -0.76576539749E+01 -0.32191207511E+01 -0.25047164285E+02  0.26388687762E+02  0.51100000000E-03 0.  1.
        -12    1    3    3    0    0  0.46607169330E+01  0.41912455647E+01 -0.61464482675E+01  0.87788181447E+01  0.00000000000E+00 0.  1.
</event>
<event>
 7    1  0.1369731E-013  0.5052885E+02  0.7816164E-02  0.1300439E+00
        -11   -1    0    0    0    0  0.00000000000E+00  0.00000000000E+00  0.45593999997E+02  0.45594000000E+02  0.51100000000E-03 0. -1.
         11   -1    0    0    0    0 -0.00000000000E+00 -0.00000000000E+00 -0.45593999997E+02  0.45594000000E+02  0.51100000000E-03 0.  1.
    9900012    2    1    2    0    0 -0.25398312296E+02 -0.19286344272E+02  0.25221598093E+02  0.50528851543E+02  0.29999974750E+02 0.  0.
        -12    1    1    2    0    0  0.25398312296E+02  0.19286344272E+02 -0.25221598093E+02  0.40659148457E+02  0.00000000000E+00 0.  1.
         11    1    3    3    0    0 -0.15496993882E+02 -0.16025749165E+02  0.70563149850E+01  0.23383178508E+02  0.51100000000E-03 0. -1.
        -11    1    3    3    0    0 -0.91740634679E+01  0.56927696404E+01  0.72303482357E+01  0.12994191108E+02  0.51100000000E-03 0.  1.
         12    1    3    3    0    0 -0.72725494622E+00 -0.89533647474E+01  0.10934934872E+02  0.14151481927E+02  0.00000000000E+00 0. -1.
</event>
<event>
 7    1  0.1369731E-013  0.5052885E+02  0.7816164E-02  0.1300439E+00
        -11   -1    0    0    0    0  0.00000000000E+00  0.00000000000E+00  0.45593999997E+02  0.45594000000E+02  0.51100000000E-03 0. -1.
         11   -1    0    0    0    0 -0.00000000000E+00 -0.00000000000E+00 -0.45593999997E+02  0.45594000000E+02  0.51100000000E-03 0.  1.
    9900012    2    1    2    0    0  0.13396238972E+02 -0.23014970763E+02 -0.30724885483E+02  0.50528847454E+02  0.29999962322E+02 0.  0.
         12    1    1    2    0    0 -0.13396238972E+02  0.23014970763E+02  0.30724885483E+02  0.40659152546E+02  0.00000000000E+00 0. -1.
         11    1    3    3    0    0  0.95779457731E+01 -0.16062230676E+01 -0.18975917022E+02  0.21316717028E+02  0.51100000000E-03 0. -1.
        -11    1    3    3    0    0  0.44042982959E+01 -0.23726205715E+02 -0.95128539009E+01  0.25938871809E+02  0.51100000000E-03 0.  1.
        -12    1    3    3    0    0 -0.58600509739E+00  0.23174580199E+01 -0.22361145603E+01  0.32732586172E+01  0.00000000000E+00 0.  1.
</event>
<event>
 7    1  0.1369731E-013  0.5052888E+02  0.7816164E-02  0.1300439E+00
        -11   -1    0    0    0    0  0.00000000000E+00  0.00000000000E+00  0.45593999997E+02  0.45594000000E+02  0.51100000000E-03 0.  1.
         11   -1    0    0    0    0 -0.00000000000E+00 -0.00000000000E+00 -0.45593999997E+02  0.45594000000E+02  0.51100000000E-03 0. -1.
    9900012    2    1    2    0    0  0.32565123264E+02  0.18848514661E+02  0.15408136547E+02  0.50528875194E+02  0.30000046639E+02 0.  0.
         12    1    1    2    0    0 -0.32565123264E+02 -0.18848514661E+02 -0.15408136547E+02  0.40659124806E+02  0.00000000000E+00 0. -1.
         11    1    3    3    0    0 -0.37443223143E+01  0.13827732967E+01 -0.14454013976E+01  0.42451380478E+01  0.51100000000E-03 0. -1.
        -11    1    3    3    0    0  0.32581218865E+02  0.96426368263E+01  0.16056957808E+02  0.37581141042E+02  0.51100000000E-03 0.  1.
         12    1    3    3    0    0  0.37282267130E+01  0.78231045383E+01  0.79658013726E+00  0.87025961043E+01  0.00000000000E+00 0. -1.
</event>
<event>
 7    1  0.1369731E-013  0.5052886E+02  0.7816164E-02  0.1300439E+00
        -11   -1    0    0    0    0  0.00000000000E+00  0.00000000000E+00  0.45593999997E+02  0.45594000000E+02  0.51100000000E-03 0.  1.
         11   -1    0    0    0    0 -0.00000000000E+00 -0.00000000000E+00 -0.45593999997E+02  0.45594000000E+02  0.51100000000E-03 0. -1.
    9900012    2    1    2    0    0 -0.27824169586E+02 -0.28733478408E+02  0.73053918839E+01  0.50528856561E+02  0.29999990004E+02 0.  0.
        -12    1    1    2    0    0  0.27824169586E+02  0.28733478408E+02 -0.73053918839E+01  0.40659143439E+02  0.00000000000E+00 0.  1.
         11    1    3    3    0    0 -0.20440626033E+02 -0.17994419966E+02  0.79141541872E-01  0.27232785502E+02  0.51100000000E-03 0. -1.
        -11    1    3    3    0    0 -0.41139485431E+01  0.46250791284E+01  0.50567681396E+00  0.62106069639E+01  0.51100000000E-03 0.  1.
         12    1    3    3    0    0 -0.32695950097E+01 -0.15364137570E+02  0.67205735281E+01  0.17085464095E+02  0.00000000000E+00 0. -1.
</event>
<event>
 7    1  0.1369731E-013  0.5052886E+02  0.7816164E-02  0.1300439E+00
        -11   -1    0    0    0    0  0.00000000000E+00  0.00000000000E+00  0.45593999997E+02  0.45594000000E+02  0.51100000000E-03 0. -1.
         11   -1    0    0    0    0 -0.00000000000E+00 -0.00000000000E+00 -0.45593999997E+02  0.45594000000E+02  0.51100000000E-03 0.  1.
    9900012    2    1    2    0    0  0.35692829387E+00  0.40083394285E+02  0.68087738457E+01  0.50528864538E+02  0.30000014251E+02 0.  0.
        -12    1    1    2    0    0 -0.35692829387E+00 -0.40083394285E+02 -0.68087738457E+01  0.40659135462E+02  0.00000000000E+00 0.  1.
         11    1    3    3    0    0  0.48854902930E+00 -0.32130308338E+01  0.94605551825E+00  0.33848587264E+01  0.51100000000E-03 0. -1.
        -11    1    3    3    0    0  0.14437765147E+01  0.31062405833E+02 -0.39981590472E+01  0.31351918965E+02  0.51100000000E-03 0.  1.
        -12    1    3    3    0    0 -0.15753972501E+01  0.12234019285E+02  0.98608773746E+01  0.15792086846E+02  0.00000000000E+00 0.  1.
</event>
<event>
 7    1  0.1369731E-013  0.5052886E+02  0.7816164E-02  0.1300439E+00
        -11   -1    0    0    0    0  0.00000000000E+00  0.00000000000E+00  0.45593999997E+02  0.45594000000E+02  0.51100000000E-03 0.  1.
         11   -1    0    0    0    0 -0.00000000000E+00 -0.00000000000E+00 -0.45593999997E+02  0.45594000000E+02  0.51100000000E-03 0. -1.
    9900012    2    1    2    0    0  0.30097502930E+02  0.15630995258E+02 -0.22427175021E+02  0.50528857427E+02  0.29999992635E+02 0.  0.
         12    1    1    2    0    0 -0.30097502930E+02 -0.15630995258E+02  0.22427175021E+02  0.40659142573E+02  0.00000000000E+00 0. -1.
         11    1    3    3    0    0  0.13165185585E+02  0.11770533163E+02 -0.12230400145E+02  0.21481393120E+02  0.51100000000E-03 0. -1.
        -11    1    3    3    0    0  0.24567065432E+01  0.74393251511E+01  0.37000911703E+01  0.86642738110E+01  0.51100000000E-03 0.  1.
        -12    1    3    3    0    0  0.14475610802E+02 -0.35788630566E+01 -0.13896866047E+02  0.20383190496E+02  0.00000000000E+00 0.  1.
</event>
<event>
 7    1  0.1369731E-013  0.5052886E+02  0.7816164E-02  0.1300439E+00
        -11   -1    0    0    0    0  0.00000000000E+00  0.00000000000E+00  0.45593999997E+02  0.45594000000E+02  0.51100000000E-03 0. -1.
         11   -1    0    0    0    0 -0.00000000000E+00 -0.00000000000E+00 -0.45593999997E+02  0.45594000000E+02  0.51100000000E-03 0.  1.
    9900012    2    1    2    0    0  0.35689884879E+00  0.19617730977E+02  0.35611552290E+02  0.50528863241E+02  0.30000010308E+02 0.  0.
        -12    1    1    2    0    0 -0.35689884879E+00 -0.19617730977E+02 -0.35611552290E+02  0.40659136759E+02  0.00000000000E+00 0.  1.
         11    1    3    3    0    0 -0.95043145904E+00  0.91976882443E+01  0.13762152234E+02  0.16580036893E+02  0.51100000000E-03 0. -1.
        -11    1    3    3    0    0  0.87743810802E+01 -0.17747177077E+01  0.14985346342E+01  0.90766179050E+01  0.51100000000E-03 0.  1.
        -12    1    3    3    0    0 -0.74670507724E+01  0.12194760440E+02  0.20350865422E+02  0.24872208443E+02  0.00000000000E+00 0.  1.
</event>
<event>
 7    1  0.1369731E-013  0.5052886E+02  0.7816164E-02  0.1300439E+00
        -11   -1    0    0    0    0  0.00000000000E+00  0.00000000000E+00  0.45593999997E+02  0.45594000000E+02  0.51100000000E-03 0. -1.
         11   -1    0    0    0    0 -0.00000000000E+00 -0.00000000000E+00 -0.45593999997E+02  0.45594000000E+02  0.51100000000E-03 0.  1.
    9900012    2    1    2    0    0  0.36310105392E+02 -0.19029633854E+01 -0.18196724295E+02  0.50528858368E+02  0.29999995494E+02 0.  0.
         12    1    1    2    0    0 -0.36310105392E+02  0.19029633854E+01  0.18196724295E+02  0.40659141632E+02  0.00000000000E+00 0. -1.
         11    1    3    3    0    0  0.57650859524E+01  0.10046041029E+02 -0.21916730731E+01  0.11788239373E+02  0.51100000000E-03 0. -1.
        -11    1    3    3    0    0  0.22011613229E+02 -0.13476017895E+02 -0.82130736195E+01  0.27084474405E+02  0.51100000000E-03 0.  1.
         12    1    3    3    0    0  0.85334062102E+01  0.15270134805E+01 -0.77919776028E+01  0.11656144589E+02  0.00000000000E+00 0. -1.
</event>
<event>
 7    1  0.1369731E-013  0.5052885E+02  0.7816164E-02  0.1300439E+00
        -11   -1    0    0    0    0  0.00000000000E+00  0.00000000000E+00  0.45593999997E+02  0.45594000000E+02  0.51100000000E-03 0. -1.
         11   -1    0    0    0    0 -0.00000000000E+00 -0.00000000000E+00 -0.45593999997E+02  0.45594000000E+02  0.51100000000E-03 0.  1.
    9900012    2    1    2    0    0 -0.24982359820E+02 -0.70599805597E+00 -0.32071011279E+02  0.50528849740E+02  0.29999969269E+02 0.  0.
         12    1    1    2    0    0  0.24982359820E+02  0.70599805597E+00  0.32071011279E+02  0.40659150260E+02  0.00000000000E+00 0. -1.
         11    1    3    3    0    0 -0.28151670290E+01 -0.10166888689E+02 -0.16870004739E+01  0.10683480794E+02  0.51100000000E-03 0. -1.
        -11    1    3    3    0    0 -0.14377976137E+02  0.80171216483E+01 -0.13856964434E+02  0.21517804277E+02  0.51100000000E-03 0.  1.
        -12    1    3    3    0    0 -0.77892166544E+01  0.14437689844E+01 -0.16527046371E+02  0.18327564669E+02  0.00000000000E+00 0.  1.
</event>
<event>
 7    1  0.1369731E-013  0.5052888E+02  0.7816164E-02  0.1300439E+00
        -11   -1    0    0    0    0  0.00000000000E+00  0.00000000000E+00  0.45593999997E+02  0.45594000000E+02  0.51100000000E-03 0. -1.
         11   -1    0    0    0    0 -0.00000000000E+00 -0.00000000000E+00 -0.45593999997E+02  0.45594000000E+02  0.51100000000E-03 0.  1.
    9900012    2    1    2    0    0  0.29792028927E+02 -0.27341666149E+02  0.42464702738E+01  0.50528877959E+02  0.30000055043E+02 0.  0.
        -12    1    1    2    0    0 -0.29792028927E+02  0.27341666149E+02 -0.42464702738E+01  0.40659122041E+02  0.00000000000E+00 0.  1.
         11    1    3    3    0    0  0.12929032857E+02 -0.17303254614E+02 -0.96173318986E+01  0.23644356281E+02  0.51100000000E-03 0. -1.
        -11    1    3    3    0    0  0.14776210788E+02 -0.12671303624E+02  0.13027184083E+02  0.23422336907E+02  0.51100000000E-03 0.  1.
        -12    1    3    3    0    0  0.20867852809E+01  0.26328920881E+01  0.83661808897E+00  0.34621847702E+01  0.00000000000E+00 0.  1.
</event>
<event>
 7    1  0.1369731E-013  0.5052886E+02  0.7816164E-02  0.1300439E+00
        -11   -1    0    0    0    0  0.00000000000E+00  0.00000000000E+00  0.45593999997E+02  0.45594000000E+02  0.51100000000E-03 0.  1.
         11   -1    0    0    0    0 -0.00000000000E+00 -0.00000000000E+00 -0.45593999997E+02  0.45594000000E+02  0.51100000000E-03 0. -1.
    9900012    2    1    2    0    0  0.28429621381E+02  0.29016068706E+02 -0.17292385277E+01  0.50528857351E+02  0.29999992405E+02 0.  0.
         12    1    1    2    0    0 -0.28429621381E+02 -0.29016068706E+02  0.17292385277E+01  0.40659142649E+02  0.00000000000E+00 0. -1.
         11    1    3    3    0    0  0.12484854491E+02  0.14211286257E+02  0.13729989900E+02  0.23374021298E+02  0.51100000000E-03 0. -1.
        -11    1    3    3    0    0  0.11370540917E+02  0.74484267619E+01 -0.10474205745E+02  0.17160339397E+02  0.51100000000E-03 0.  1.
         12    1    3    3    0    0  0.45742259740E+01  0.73563556875E+01 -0.49850226827E+01  0.99944966562E+01  0.00000000000E+00 0. -1.
</event>
<event>
 7    1  0.1369731E-013  0.5052886E+02  0.7816164E-02  0.1300439E+00
        -11   -1    0    0    0    0  0.00000000000E+00  0.00000000000E+00  0.45593999997E+02  0.45594000000E+02  0.51100000000E-03 0. -1.
         11   -1    0    0    0    0 -0.00000000000E+00 -0.00000000000E+00 -0.45593999997E+02  0.45594000000E+02  0.51100000000E-03 0.  1.
    9900012    2    1    2    0    0 -0.13979795338E+02 -0.36627097025E+02  0.10778982085E+02  0.50528863647E+02  0.30000011541E+02 0.  0.
        -12    1    1    2    0    0  0.13979795338E+02  0.36627097025E+02 -0.10778982085E+02  0.40659136353E+02  0.00000000000E+00 0.  1.
         11    1    3    3    0    0 -0.17029602998E+02 -0.25040531793E+02 -0.35002844391E+01  0.30484218904E+02  0.51100000000E-03 0. -1.
        -11    1    3    3    0    0 -0.20082889462E+01 -0.82764737159E+00  0.19884116805E+01  0.29448269788E+01  0.51100000000E-03 0.  1.
         12    1    3    3    0    0  0.50580966056E+01 -0.10758917860E+02  0.12290854843E+02  0.17099817764E+02  0.00000000000E+00 0. -1.
</event>
<event>
 7    1  0.1369731E-013  0.5052888E+02  0.7816164E-02  0.1300439E+00
        -11   -1    0    0    0    0  0.00000000000E+00  0.00000000000E+00  0.45593999997E+02  0.45594000000E+02  0.51100000000E-03 0. -1.
         11   -1    0    0    0    0 -0.00000000000E+00 -0.00000000000E+00 -0.45593999997E+02  0.45594000000E+02  0.51100000000E-03 0.  1.
    9900012    2    1    2    0    0 -0.14890158817E+00  0.13827737194E+02 -0.38235261449E+02  0.50528884101E+02  0.30000073713E+02 0.  0.
         12    1    1    2    0    0  0.14890158817E+00 -0.13827737194E+02  0.38235261449E+02  0.40659115899E+02  0.00000000000E+00 0. -1.
         11    1    3    3    0    0 -0.28661837832E+00 -0.35347571996E+01 -0.41235631284E+00  0.35702516080E+01  0.51100000000E-03 0. -1.
        -11    1    3    3    0    0  0.63170963401E+01  0.17106898577E+02 -0.36247827919E+02  0.40576553750E+02  0.51100000000E-03 0.  1.
        -12    1    3    3    0    0 -0.61793795500E+01  0.25559581630E+00 -0.15750772176E+01  0.63820787433E+01  0.00000000000E+00 0.  1.
</event>
<event>
 7    1  0.1369731E-013  0.5052886E+02  0.7816164E-02  0.1300439E+00
        -11   -1    0    0    0    0  0.00000000000E+00  0.00000000000E+00  0.45593999997E+02  0.45594000000E+02  0.51100000000E-03 0. -1.
         11   -1    0    0    0    0 -0.00000000000E+00 -0.00000000000E+00 -0.45593999997E+02  0.45594000000E+02  0.51100000000E-03 0.  1.
    9900012    2    1    2    0    0 -0.24429513950E+02  0.11498904599E+02 -0.30399671686E+02  0.50528855919E+02  0.29999988051E+02 0.  0.
         12    1    1    2    0    0  0.24429513950E+02 -0.11498904599E+02  0.30399671686E+02  0.40659144081E+02  0.00000000000E+00 0. -1.
         11    1    3    3    0    0 -0.90862234078E+01  0.15016488248E+02 -0.35317842755E+01  0.17903292311E+02  0.51100000000E-03 0. -1.
        -11    1    3    3    0    0 -0.20078141419E+01  0.29060621199E+01 -0.70996380368E+01  0.79297777515E+01  0.51100000000E-03 0.  1.
         12    1    3    3    0    0 -0.13335476400E+02 -0.64236457693E+01 -0.19768249374E+02  0.24695785857E+02  0.00000000000E+00 0. -1.
</event>
<event>
 7    1  0.1369731E-013  0.5052886E+02  0.7816164E-02  0.1300439E+00
        -11   -1    0    0    0    0  0.00000000000E+00  0.00000000000E+00  0.45593999997E+02  0.45594000000E+02  0.51100000000E-03 0. -1.
         11   -1    0    0    0    0 -0.00000000000E+00 -0.00000000000E+00 -0.45593999997E+02  0.45594000000E+02  0.51100000000E-03 0.  1.
    9900012    2    1    2    0    0  0.45319176079E+01 -0.26715532150E+02  0.30313495765E+02  0.50528856370E+02  0.29999989421E+02 0.  0.
        -12    1    1    2    0    0 -0.45319176079E+01  0.26715532150E+02 -0.30313495765E+02  0.40659143630E+02  0.00000000000E+00 0.  1.
         11    1    3    3    0    0  0.26591915357E+01 -0.10625062564E+02  0.29929286387E+02  0.31870447722E+02  0.51100000000E-03 0. -1.
        -11    1    3    3    0    0 -0.31554196604E+01 -0.54453210466E+01 -0.20839495658E+01  0.66295580990E+01  0.51100000000E-03 0.  1.
         12    1    3    3    0    0  0.50281457326E+01 -0.10645148540E+02  0.24681589434E+01  0.12028850548E+02  0.00000000000E+00 0. -1.
</event>
<event>
 7    1  0.1369731E-013  0.5052886E+02  0.7816164E-02  0.1300439E+00
        -11   -1    0    0    0    0  0.00000000000E+00  0.00000000000E+00  0.45593999997E+02  0.45594000000E+02  0.51100000000E-03 0. -1.
         11   -1    0    0    0    0 -0.00000000000E+00 -0.00000000000E+00 -0.45593999997E+02  0.45594000000E+02  0.51100000000E-03 0.  1.
    9900012    2    1    2    0    0 -0.17501022239E+02  0.86134728590E+01 -0.35674754909E+02  0.50528857954E+02  0.29999994237E+02 0.  0.
         12    1    1    2    0    0  0.17501022239E+02 -0.86134728590E+01  0.35674754909E+02  0.40659142046E+02  0.00000000000E+00 0. -1.
         11    1    3    3    0    0 -0.89812742019E+01 -0.64703041177E+01 -0.19628145023E+02  0.22534245028E+02  0.51100000000E-03 0. -1.
        -11    1    3    3    0    0  0.33438147008E+01  0.89762555013E+01 -0.72378214463E+01  0.12005845207E+02  0.51100000000E-03 0.  1.
         12    1    3    3    0    0 -0.11863562738E+02  0.61075214754E+01 -0.88087884399E+01  0.15988767719E+02  0.00000000000E+00 0. -1.
</event>
<event>
 7    1  0.1369731E-013  0.5052888E+02  0.7816164E-02  0.1300439E+00
        -11   -1    0    0    0    0  0.00000000000E+00  0.00000000000E+00  0.45593999997E+02  0.45594000000E+02  0.51100000000E-03 0. -1.
         11   -1    0    0    0    0 -0.00000000000E+00 -0.00000000000E+00 -0.45593999997E+02  0.45594000000E+02  0.51100000000E-03 0.  1.
    9900012    2    1    2    0    0  0.30930374924E+02 -0.40777705267E+00  0.26387678743E+02  0.50528880919E+02  0.30000064040E+02 0.  0.
        -12    1    1    2    0    0 -0.30930374924E+02  0.40777705267E+00 -0.26387678743E+02  0.40659119081E+02  0.00000000000E+00 0.  1.
         11    1    3    3    0    0 -0.41236966657E+01 -0.42829905386E+01  0.88069173550E+01  0.10625943521E+02  0.51100000000E-03 0. -1.
        -11    1    3    3    0    0  0.16364511372E+02  0.42651516588E+01  0.61685492369E+01  0.18001104163E+02  0.51100000000E-03 0.  1.
         12    1    3    3    0    0  0.18689560217E+02 -0.38993817287E+00  0.11412212151E+02  0.21901833235E+02  0.00000000000E+00 0. -1.
</event>
<event>
 7    1  0.1369731E-013  0.5052887E+02  0.7816164E-02  0.1300439E+00
        -11   -1    0    0    0    0  0.00000000000E+00  0.00000000000E+00  0.45593999997E+02  0.45594000000E+02  0.51100000000E-03 0. -1.
         11   -1    0    0    0    0 -0.00000000000E+00 -0.00000000000E+00 -0.45593999997E+02  0.45594000000E+02  0.51100000000E-03 0.  1.
    9900012    2    1    2    0    0 -0.15413772743E+02  0.37083161429E+01 -0.37441009611E+02  0.50528865732E+02  0.30000017878E+02 0.  0.
         12    1    1    2    0    0  0.15413772743E+02 -0.37083161429E+01  0.37441009611E+02  0.40659134268E+02  0.00000000000E+00 0. -1.
         11    1    3    3    0    0  0.34518617801E+01  0.53589770240E+01 -0.28903570746E+01  0.69991534325E+01  0.51100000000E-03 0.  1.
        -11    1    3    3    0    0 -0.18614762467E+02 -0.51021869956E+01 -0.35069762964E+02  0.40030363082E+02  0.51100000000E-03 0. -1.
         12    1    3    3    0    0 -0.25087205593E+00  0.34515261146E+01  0.51911042828E+00  0.34993492173E+01  0.00000000000E+00 0. -1.
</event>
<event>
 7    1  0.1369731E-013  0.5052886E+02  0.7816164E-02  0.1300439E+00
        -11   -1    0    0    0    0  0.00000000000E+00  0.00000000000E+00  0.45593999997E+02  0.45594000000E+02  0.51100000000E-03 0. -1.
         11   -1    0    0    0    0 -0.00000000000E+00 -0.00000000000E+00 -0.45593999997E+02  0.45594000000E+02  0.51100000000E-03 0.  1.
    9900012    2    1    2    0    0 -0.12631864769E+02 -0.11583667541E+02  0.36870315146E+02  0.50528862033E+02  0.30000006636E+02 0.  0.
        -12    1    1    2    0    0  0.12631864769E+02  0.11583667541E+02 -0.36870315146E+02  0.40659137967E+02  0.00000000000E+00 0.  1.
         11    1    3    3    0    0 -0.60670573975E+01 -0.14232419510E+02  0.39761281273E+02  0.42665330648E+02  0.51100000000E-03 0. -1.
        -11    1    3    3    0    0 -0.31680776713E+01  0.36800253361E+00 -0.16328223252E+01  0.35830505164E+01  0.51100000000E-03 0.  1.
         12    1    3    3    0    0 -0.33967297003E+01  0.22807494354E+01 -0.12581438019E+01  0.42804808690E+01  0.00000000000E+00 0. -1.
</event>
<event>
 7    1  0.1369731E-013  0.5052887E+02  0.7816164E-02  0.1300439E+00
        -11   -1    0    0    0    0  0.00000000000E+00  0.00000000000E+00  0.45593999997E+02  0.45594000000E+02  0.51100000000E-03 0. -1.
         11   -1    0    0    0    0 -0.00000000000E+00 -0.00000000000E+00 -0.45593999997E+02  0.45594000000E+02  0.51100000000E-03 0.  1.
    9900012    2    1    2    0    0  0.11706540518E+01  0.91791840312E+01  0.39592135904E+02  0.50528867252E+02  0.30000022499E+02 0.  0.
        -12    1    1    2    0    0 -0.11706540518E+01 -0.91791840312E+01 -0.39592135904E+02  0.40659132748E+02  0.00000000000E+00 0.  1.
         11    1    3    3    0    0 -0.11279435888E+02  0.18436882270E+01  0.20341298026E+02  0.23332236624E+02  0.51100000000E-03 0. -1.
        -11    1    3    3    0    0  0.14904197527E+02  0.49958364059E+01  0.14701420512E+02  0.21522668298E+02  0.51100000000E-03 0.  1.
        -12    1    3    3    0    0 -0.24541075872E+01  0.23396593982E+01  0.45494173666E+01  0.56739623302E+01  0.00000000000E+00 0.  1.
</event>
<event>
 7    1  0.1369731E-013  0.5052889E+02  0.7816164E-02  0.1300439E+00
        -11   -1    0    0    0    0  0.00000000000E+00  0.00000000000E+00  0.45593999997E+02  0.45594000000E+02  0.51100000000E-03 0.  1.
         11   -1    0    0    0    0 -0.00000000000E+00 -0.00000000000E+00 -0.45593999997E+02  0.45594000000E+02  0.51100000000E-03 0. -1.
    9900012    2    1    2    0    0  0.25974182425E+02  0.26170480739E+02  0.17135092784E+02  0.50528885161E+02  0.30000076935E+02 0.  0.
        -12    1    1    2    0    0 -0.25974182425E+02 -0.26170480739E+02 -0.17135092784E+02  0.40659114839E+02  0.00000000000E+00 0.  1.
         11    1    3    3    0    0  0.17613957513E+02  0.10917316173E+02  0.58385824812E+01  0.21529708250E+02  0.51100000000E-03 0. -1.
        -11    1    3    3    0    0 -0.39088738993E+01  0.62217719111E+01  0.11634735585E+02  0.13760698139E+02  0.51100000000E-03 0.  1.
        -12    1    3    3    0    0  0.12269098812E+02  0.90313926555E+01 -0.33822528170E+00  0.15238478772E+02  0.00000000000E+00 0.  1.
</event>
<event>
 7    1  0.1369731E-013  0.5052886E+02  0.7816164E-02  0.1300439E+00
        -11   -1    0    0    0    0  0.00000000000E+00  0.00000000000E+00  0.45593999997E+02  0.45594000000E+02  0.51100000000E-03 0.  1.
         11   -1    0    0    0    0 -0.00000000000E+00 -0.00000000000E+00 -0.45593999997E+02  0.45594000000E+02  0.51100000000E-03 0. -1.
    9900012    2    1    2    0    0  0.12474308120E+02 -0.29943766854E+02  0.24513841222E+02  0.50528856527E+02  0.29999989900E+02 0.  0.
         12    1    1    2    0    0 -0.12474308120E+02  0.29943766854E+02 -0.24513841222E+02  0.40659143473E+02  0.00000000000E+00 0. -1.
         11    1    3    3    0    0 -0.44982220426E+01 -0.53957212486E-02  0.58247330488E+01  0.73594528336E+01  0.51100000000E-03 0. -1.
        -11    1    3    3    0    0  0.16375939089E+02 -0.10527978050E+02  0.85602970699E+01  0.21267072884E+02  0.51100000000E-03 0.  1.
         12    1    3    3    0    0  0.59659107444E+00 -0.19410393083E+02  0.10128811103E+02  0.21902330810E+02  0.00000000000E+00 0. -1.
</event>
<event>
 7    1  0.1369731E-013  0.5052886E+02  0.7816164E-02  0.1300439E+00
        -11   -1    0    0    0    0  0.00000000000E+00  0.00000000000E+00  0.45593999997E+02  0.45594000000E+02  0.51100000000E-03 0. -1.
         11   -1    0    0    0    0 -0.00000000000E+00 -0.00000000000E+00 -0.45593999997E+02  0.45594000000E+02  0.51100000000E-03 0.  1.
    9900012    2    1    2    0    0  0.34349097416E+02 -0.92250360760E+01  0.19702886484E+02  0.50528861793E+02  0.30000005907E+02 0.  0.
        -12    1    1    2    0    0 -0.34349097416E+02  0.92250360760E+01 -0.19702886484E+02  0.40659138207E+02  0.00000000000E+00 0.  1.
         11    1    3    3    0    0  0.27619571889E+02 -0.99866630915E+01  0.12601075719E+02  0.31958743726E+02  0.51100000000E-03 0. -1.
        -11    1    3    3    0    0  0.56156722813E+01  0.79040316758E+01  0.25425032346E+01  0.10023662747E+02  0.51100000000E-03 0.  1.
        -12    1    3    3    0    0  0.11138532459E+01 -0.71424046602E+01  0.45593075303E+01  0.85464553202E+01  0.00000000000E+00 0.  1.
</event>
<event>
 7    1  0.1369731E-013  0.5052887E+02  0.7816164E-02  0.1300439E+00
        -11   -1    0    0    0    0  0.00000000000E+00  0.00000000000E+00  0.45593999997E+02  0.45594000000E+02  0.51100000000E-03 0. -1.
         11   -1    0    0    0    0 -0.00000000000E+00 -0.00000000000E+00 -0.45593999997E+02  0.45594000000E+02  0.51100000000E-03 0.  1.
    9900012    2    1    2    0    0 -0.66946966222E+01 -0.13836735336E+02 -0.37641613291E+02  0.50528865002E+02  0.30000015659E+02 0.  0.
         12    1    1    2    0    0  0.66946966222E+01  0.13836735336E+02  0.37641613291E+02  0.40659134998E+02  0.00000000000E+00 0. -1.
         11    1    3    3    0    0 -0.58357632366E+01 -0.42525853588E+01  0.20267302361E+00  0.72236895976E+01  0.51100000000E-03 0. -1.
        -11    1    3    3    0    0 -0.19569656412E+01 -0.13003095607E+01 -0.34044566620E+02  0.34125548143E+02  0.51100000000E-03 0.  1.
        -12    1    3    3    0    0  0.10980322556E+01 -0.82838404169E+01 -0.37997196949E+01  0.91796272608E+01  0.00000000000E+00 0.  1.
</event>
<event>
 7    1  0.1369731E-013  0.5052885E+02  0.7816164E-02  0.1300439E+00
        -11   -1    0    0    0    0  0.00000000000E+00  0.00000000000E+00  0.45593999997E+02  0.45594000000E+02  0.51100000000E-03 0. -1.
         11   -1    0    0    0    0 -0.00000000000E+00 -0.00000000000E+00 -0.45593999997E+02  0.45594000000E+02  0.51100000000E-03 0.  1.
    9900012    2    1    2    0    0 -0.25535763486E+02 -0.30173977695E+02 -0.95195587042E+01  0.50528854108E+02  0.29999982547E+02 0.  0.
         12    1    1    2    0    0  0.25535763486E+02  0.30173977695E+02  0.95195587042E+01  0.40659145892E+02  0.00000000000E+00 0. -1.
         11    1    3    3    0    0 -0.87261009742E+01  0.53669600624E+01 -0.13955067867E+01  0.10339078198E+02  0.51100000000E-03 0. -1.
        -11    1    3    3    0    0 -0.13190120272E+02 -0.26117361852E+02 -0.57281036382E+01  0.29814544009E+02  0.51100000000E-03 0.  1.
         12    1    3    3    0    0 -0.36195422399E+01 -0.94235759048E+01 -0.23959482793E+01  0.10375231902E+02  0.00000000000E+00 0. -1.
</event>
<event>
 7    1  0.1369731E-013  0.5052887E+02  0.7816164E-02  0.1300439E+00
        -11   -1    0    0    0    0  0.00000000000E+00  0.00000000000E+00  0.45593999997E+02  0.45594000000E+02  0.51100000000E-03 0. -1.
         11   -1    0    0    0    0 -0.00000000000E+00 -0.00000000000E+00 -0.45593999997E+02  0.45594000000E+02  0.51100000000E-03 0.  1.
    9900012    2    1    2    0    0  0.19503570154E+02 -0.13647722568E+02  0.32962336301E+02  0.50528865793E+02  0.30000018065E+02 0.  0.
        -12    1    1    2    0    0 -0.19503570154E+02  0.13647722568E+02 -0.32962336301E+02  0.40659134207E+02  0.00000000000E+00 0.  1.
         11    1    3    3    0    0  0.14730483250E+02 -0.15035428770E+02  0.23265390761E+02  0.31374028472E+02  0.51100000000E-03 0. -1.
        -11    1    3    3    0    0  0.76434482909E+01  0.31584596142E+01 -0.62692214676E+00  0.82940460904E+01  0.51100000000E-03 0.  1.
        -12    1    3    3    0    0 -0.28703613865E+01 -0.17707534117E+01  0.10323867687E+02  0.10860791230E+02  0.00000000000E+00 0.  1.
</event>
<event>
 7    1  0.1369731E-013  0.5052886E+02  0.7816164E-02  0.1300439E+00
        -11   -1    0    0    0    0  0.00000000000E+00  0.00000000000E+00  0.45593999997E+02  0.45594000000E+02  0.51100000000E-03 0. -1.
         11   -1    0    0    0    0 -0.00000000000E+00 -0.00000000000E+00 -0.45593999997E+02  0.45594000000E+02  0.51100000000E-03 0.  1.
    9900012    2    1    2    0    0  0.40008667189E+01  0.71267736877E+01 -0.39829230227E+02  0.50528863042E+02  0.30000009704E+02 0.  0.
         12    1    1    2    0    0 -0.40008667189E+01 -0.71267736877E+01  0.39829230227E+02  0.40659136958E+02  0.00000000000E+00 0. -1.
         11    1    3    3    0    0  0.59283443459E+01 -0.79544007496E+01 -0.13478293554E+02  0.16735655212E+02  0.51100000000E-03 0. -1.
        -11    1    3    3    0    0 -0.75379782259E+01  0.98060284323E+01 -0.21148127038E+02  0.24499440541E+02  0.51100000000E-03 0.  1.
         12    1    3    3    0    0  0.56105005989E+01  0.52751460050E+01 -0.52028096343E+01  0.92937672897E+01  0.00000000000E+00 0. -1.
</event>
<event>
 7    1  0.1369731E-013  0.5052886E+02  0.7816164E-02  0.1300439E+00
        -11   -1    0    0    0    0  0.00000000000E+00  0.00000000000E+00  0.45593999997E+02  0.45594000000E+02  0.51100000000E-03 0. -1.
         11   -1    0    0    0    0 -0.00000000000E+00 -0.00000000000E+00 -0.45593999997E+02  0.45594000000E+02  0.51100000000E-03 0.  1.
    9900012    2    1    2    0    0  0.15982492848E+02 -0.37208723809E+01  0.37200548936E+02  0.50528858223E+02  0.29999995054E+02 0.  0.
        -12    1    1    2    0    0 -0.15982492848E+02  0.37208723809E+01 -0.37200548936E+02  0.40659141777E+02  0.00000000000E+00 0.  1.
         11    1    3    3    0    0  0.56432355758E+01 -0.14019751123E+02  0.71809531912E+01  0.16732173149E+02  0.51100000000E-03 0. -1.
        -11    1    3    3    0    0  0.44916149655E+01  0.67029390460E+01  0.20737031884E+02  0.22251482838E+02  0.51100000000E-03 0.  1.
         12    1    3    3    0    0  0.58476423062E+01  0.35959396956E+01  0.92825638607E+01  0.11545202236E+02  0.00000000000E+00 0. -1.
</event>
<event>
 7    1  0.1369731E-013  0.5052886E+02  0.7816164E-02  0.1300439E+00
        -11   -1    0    0    0    0  0.00000000000E+00  0.00000000000E+00  0.45593999997E+02  0.45594000000E+02  0.51100000000E-03 0.  1.
         11   -1    0    0    0    0 -0.00000000000E+00 -0.00000000000E+00 -0.45593999997E+02  0.45594000000E+02  0.51100000000E-03 0. -1.
    9900012    2    1    2    0    0 -0.35701111185E+02  0.12804924020E+02 -0.14650251905E+02  0.50528864497E+02  0.30000014125E+02 0.  0.
         12    1    1    2    0    0  0.35701111185E+02 -0.12804924020E+02  0.14650251905E+02  0.40659135503E+02  0.00000000000E+00 0. -1.
         11    1    3    3    0    0  0.18856093961E+00  0.13679318134E+01 -0.81494365058E+01  0.82655978790E+01  0.51100000000E-03 0. -1.
        -11    1    3    3    0    0 -0.19734601735E+02 -0.31229930270E+01 -0.22861078454E+01  0.20110541525E+02  0.51100000000E-03 0.  1.
        -12    1    3    3    0    0 -0.16155070389E+02  0.14559985234E+02 -0.42147075536E+01  0.22152725093E+02  0.00000000000E+00 0.  1.
</event>
<event>
 7    1  0.1401744E-013  0.5052879E+02  0.7816164E-02  0.1300439E+00
        -11   -1    0    0    0    0  0.00000000000E+00  0.00000000000E+00  0.45593999997E+02  0.45594000000E+02  0.51100000000E-03 0. -1.
         11   -1    0    0    0    0 -0.00000000000E+00 -0.00000000000E+00 -0.45593999997E+02  0.45594000000E+02  0.51100000000E-03 0.  1.
    9900012    2    1    2    0    0 -0.18777875041E+02  0.87982869718E+01 -0.34973598797E+02  0.50528793693E+02  0.29999798910E+02 0.  0.
         12    1    1    2    0    0  0.18777875041E+02 -0.87982869718E+01  0.34973598797E+02  0.40659206307E+02  0.00000000000E+00 0. -1.
         11    1    3    3    0    0 -0.12132455274E+01  0.89804948503E+01 -0.67200107549E+01  0.11281834836E+02  0.51100000000E-03 0. -1.
        -11    1    3    3    0    0 -0.17515048560E+01 -0.88405078931E+01 -0.11725667651E+02  0.14788969917E+02  0.51100000000E-03 0.  1.
        -12    1    3    3    0    0 -0.15813124657E+02  0.86583000147E+01 -0.16527920391E+02  0.24457988940E+02  0.00000000000E+00 0.  1.
</event>
<event>
 7    1  0.1369731E-013  0.5052886E+02  0.7816164E-02  0.1300439E+00
        -11   -1    0    0    0    0  0.00000000000E+00  0.00000000000E+00  0.45593999997E+02  0.45594000000E+02  0.51100000000E-03 0. -1.
         11   -1    0    0    0    0 -0.00000000000E+00 -0.00000000000E+00 -0.45593999997E+02  0.45594000000E+02  0.51100000000E-03 0.  1.
    9900012    2    1    2    0    0  0.32346111256E+02 -0.14685234385E+02  0.19779747347E+02  0.50528862928E+02  0.30000009355E+02 0.  0.
        -12    1    1    2    0    0 -0.32346111256E+02  0.14685234385E+02 -0.19779747347E+02  0.40659137072E+02  0.00000000000E+00 0.  1.
         11    1    3    3    0    0  0.91910393324E+01 -0.15229471765E+02  0.82104934163E+01  0.19591432225E+02  0.51100000000E-03 0. -1.
        -11    1    3    3    0    0  0.14866694443E+02  0.47930965153E+01 -0.57731961820E+00  0.15630920512E+02  0.51100000000E-03 0.  1.
         12    1    3    3    0    0  0.82883774812E+01 -0.42488591352E+01  0.12146573549E+02  0.15306510190E+02  0.00000000000E+00 0. -1.
</event>
<event>
 7    1  0.1369731E-013  0.5052891E+02  0.7816164E-02  0.1300439E+00
        -11   -1    0    0    0    0  0.00000000000E+00  0.00000000000E+00  0.45593999997E+02  0.45594000000E+02  0.51100000000E-03 0. -1.
         11   -1    0    0    0    0 -0.00000000000E+00 -0.00000000000E+00 -0.45593999997E+02  0.45594000000E+02  0.51100000000E-03 0.  1.
    9900012    2    1    2    0    0  0.26114550193E+01  0.35214862825E+02 -0.20155779365E+02  0.50528908730E+02  0.30000148574E+02 0.  0.
         12    1    1    2    0    0 -0.26114550193E+01 -0.35214862825E+02  0.20155779365E+02  0.40659091270E+02  0.00000000000E+00 0. -1.
         11    1    3    3    0    0  0.20156827491E+01  0.82485747124E+01 -0.12568943922E+02  0.15168398509E+02  0.51100000000E-03 0. -1.
        -11    1    3    3    0    0  0.80476904081E+01  0.13500346044E+02  0.38550975269E+01  0.16182905840E+02  0.51100000000E-03 0.  1.
        -12    1    3    3    0    0 -0.74519181379E+01  0.13465942069E+02 -0.11441932969E+02  0.19177604382E+02  0.00000000000E+00 0.  1.
</event>
<event>
 7    1  0.1369731E-013  0.5052884E+02  0.7816164E-02  0.1300439E+00
        -11   -1    0    0    0    0  0.00000000000E+00  0.00000000000E+00  0.45593999997E+02  0.45594000000E+02  0.51100000000E-03 0. -1.
         11   -1    0    0    0    0 -0.00000000000E+00 -0.00000000000E+00 -0.45593999997E+02  0.45594000000E+02  0.51100000000E-03 0.  1.
    9900012    2    1    2    0    0  0.13026482384E+02  0.25796159319E+02 -0.28601339058E+02  0.50528835291E+02  0.29999925350E+02 0.  0.
         12    1    1    2    0    0 -0.13026482384E+02 -0.25796159319E+02  0.28601339058E+02  0.40659164709E+02  0.00000000000E+00 0. -1.
         11    1    3    3    0    0 -0.19528733247E+01 -0.95693012825E-01  0.30222643090E+01  0.35995768070E+01  0.51100000000E-03 0. -1.
        -11    1    3    3    0    0  0.13585669968E+02  0.22853491587E+02 -0.33752558331E+02  0.42966122706E+02  0.51100000000E-03 0.  1.
         12    1    3    3    0    0  0.13936857401E+01  0.30383607451E+01  0.21289549634E+01  0.39631357781E+01  0.00000000000E+00 0. -1.
</event>
<event>
 7    1  0.1369731E-013  0.5052884E+02  0.7816164E-02  0.1300439E+00
        -11   -1    0    0    0    0  0.00000000000E+00  0.00000000000E+00  0.45593999997E+02  0.45594000000E+02  0.51100000000E-03 0. -1.
         11   -1    0    0    0    0 -0.00000000000E+00 -0.00000000000E+00 -0.45593999997E+02  0.45594000000E+02  0.51100000000E-03 0.  1.
    9900012    2    1    2    0    0 -0.24675757752E+02  0.15090683586E+02 -0.28575256151E+02  0.50528843395E+02  0.29999949985E+02 0.  0.
         12    1    1    2    0    0  0.24675757752E+02 -0.15090683586E+02  0.28575256151E+02  0.40659156605E+02  0.00000000000E+00 0. -1.
         11    1    3    3    0    0 -0.71474934167E+01  0.91333900583E+01  0.26105439282E+01  0.11887826377E+02  0.51100000000E-03 0. -1.
        -11    1    3    3    0    0 -0.63785997506E+01 -0.21340597474E+00 -0.22066349040E+02  0.22970760482E+02  0.51100000000E-03 0.  1.
        -12    1    3    3    0    0 -0.11149664584E+02  0.61706995023E+01 -0.91194510390E+01  0.15670256537E+02  0.00000000000E+00 0.  1.
</event>
<event>
 7    1  0.1369731E-013  0.5052887E+02  0.7816164E-02  0.1300439E+00
        -11   -1    0    0    0    0  0.00000000000E+00  0.00000000000E+00  0.45593999997E+02  0.45594000000E+02  0.51100000000E-03 0. -1.
         11   -1    0    0    0    0 -0.00000000000E+00 -0.00000000000E+00 -0.45593999997E+02  0.45594000000E+02  0.51100000000E-03 0.  1.
    9900012    2    1    2    0    0  0.54788498116E+01  0.11117246917E+02 -0.38724073551E+02  0.50528870070E+02  0.30000031065E+02 0.  0.
         12    1    1    2    0    0 -0.54788498116E+01 -0.11117246917E+02  0.38724073551E+02  0.40659129930E+02  0.00000000000E+00 0. -1.
         11    1    3    3    0    0 -0.39799541430E+01 -0.40353281664E+01 -0.64481009942E+01  0.85849819501E+01  0.51100000000E-03 0. -1.
        -11    1    3    3    0    0  0.24611259821E+01  0.17641662570E+02 -0.28508599170E+02  0.33615853793E+02  0.51100000000E-03 0.  1.
        -12    1    3    3    0    0  0.69976779725E+01 -0.24890874861E+01 -0.37673733862E+01  0.83280343270E+01  0.00000000000E+00 0.  1.
</event>
<event>
 7    1  0.1369731E-013  0.5052885E+02  0.7816164E-02  0.1300439E+00
        -11   -1    0    0    0    0  0.00000000000E+00  0.00000000000E+00  0.45593999997E+02  0.45594000000E+02  0.51100000000E-03 0. -1.
         11   -1    0    0    0    0 -0.00000000000E+00 -0.00000000000E+00 -0.45593999997E+02  0.45594000000E+02  0.51100000000E-03 0.  1.
    9900012    2    1    2    0    0 -0.26311122147E+02 -0.97153100943E+01  0.29436436289E+02  0.50528853670E+02  0.29999981215E+02 0.  0.
        -12    1    1    2    0    0  0.26311122147E+02  0.97153100943E+01 -0.29436436289E+02  0.40659146330E+02  0.00000000000E+00 0.  1.
         11    1    3    3    0    0 -0.18237453268E+02 -0.89980840595E+01  0.24303018929E+02  0.31689224474E+02  0.51100000000E-03 0. -1.
        -11    1    3    3    0    0 -0.10363294164E+02 -0.41067935903E+01 -0.12927535063E+01  0.11222068946E+02  0.51100000000E-03 0.  1.
         12    1    3    3    0    0  0.22896252851E+01  0.33895675556E+01  0.64261708665E+01  0.76175602502E+01  0.00000000000E+00 0. -1.
</event>
<event>
 7    1  0.1369731E-013  0.5052886E+02  0.7816164E-02  0.1300439E+00
        -11   -1    0    0    0    0  0.00000000000E+00  0.00000000000E+00  0.45593999997E+02  0.45594000000E+02  0.51100000000E-03 0.  1.
         11   -1    0    0    0    0 -0.00000000000E+00 -0.00000000000E+00 -0.45593999997E+02  0.45594000000E+02  0.51100000000E-03 0. -1.
    9900012    2    1    2    0    0  0.27954998934E+01  0.39345223701E+02  0.98642762513E+01  0.50528863343E+02  0.30000010617E+02 0.  0.
         12    1    1    2    0    0 -0.27954998934E+01 -0.39345223701E+02 -0.98642762513E+01  0.40659136657E+02  0.00000000000E+00 0. -1.
         11    1    3    3    0    0  0.13733347896E+02  0.15264676539E+02  0.98104762478E+01  0.22756551557E+02  0.51100000000E-03 0. -1.
        -11    1    3    3    0    0 -0.56413070185E+01  0.19774518112E+02  0.20366783044E+01  0.20664074386E+02  0.51100000000E-03 0.  1.
         12    1    3    3    0    0 -0.52965409846E+01  0.43060290497E+01 -0.19828783009E+01  0.71082373999E+01  0.00000000000E+00 0. -1.
</event>
<event>
 7    1  0.1369731E-013  0.5052886E+02  0.7816164E-02  0.1300439E+00
        -11   -1    0    0    0    0  0.00000000000E+00  0.00000000000E+00  0.45593999997E+02  0.45594000000E+02  0.51100000000E-03 0. -1.
         11   -1    0    0    0    0 -0.00000000000E+00 -0.00000000000E+00 -0.45593999997E+02  0.45594000000E+02  0.51100000000E-03 0.  1.
    9900012    2    1    2    0    0  0.48704712932E+01  0.32686509586E+02 -0.23686210225E+02  0.50528856448E+02  0.29999989660E+02 0.  0.
         12    1    1    2    0    0 -0.48704712932E+01 -0.32686509586E+02  0.23686210225E+02  0.40659143552E+02  0.00000000000E+00 0. -1.
         11    1    3    3    0    0  0.14341354540E+02  0.79042214824E+01 -0.11956452574E+02  0.20275796549E+02  0.51100000000E-03 0.  1.
        -11    1    3    3    0    0 -0.66984380232E+01  0.15237567490E+02 -0.27745159262E+01  0.16874551071E+02  0.51100000000E-03 0. -1.
        -12    1    3    3    0    0 -0.27724452239E+01  0.95447206131E+01 -0.89552417253E+01  0.13378508828E+02  0.00000000000E+00 0.  1.
</event>
<event>
 7    1  0.1381418E-013  0.5052886E+02  0.7816164E-02  0.1300439E+00
        -11   -1    0    0    0    0  0.00000000000E+00  0.00000000000E+00  0.45593999997E+02  0.45594000000E+02  0.51100000000E-03 0.  1.
         11   -1    0    0    0    0 -0.00000000000E+00 -0.00000000000E+00 -0.45593999997E+02  0.45594000000E+02  0.51100000000E-03 0. -1.
    9900012    2    1    2    0    0 -0.15606038794E+02 -0.87465052181E+01 -0.36511860561E+02  0.50528858814E+02  0.29999996851E+02 0.  0.
         12    1    1    2    0    0  0.15606038794E+02  0.87465052181E+01  0.36511860561E+02  0.40659141186E+02  0.00000000000E+00 0. -1.
         11    1    3    3    0    0 -0.18717007955E+01 -0.48019244961E+01  0.24003141479E+01  0.56853540790E+01  0.51100000000E-03 0. -1.
        -11    1    3    3    0    0 -0.42462799101E+01  0.32779629689E+00 -0.32156334812E+02  0.32437142481E+02  0.51100000000E-03 0.  1.
        -12    1    3    3    0    0 -0.94880580885E+01 -0.42723770190E+01 -0.67558398965E+01  0.12406362254E+02  0.00000000000E+00 0.  1.
</event>
<event>
 7    1  0.1369731E-013  0.5052885E+02  0.7816164E-02  0.1300439E+00
        -11   -1    0    0    0    0  0.00000000000E+00  0.00000000000E+00  0.45593999997E+02  0.45594000000E+02  0.51100000000E-03 0. -1.
         11   -1    0    0    0    0 -0.00000000000E+00 -0.00000000000E+00 -0.45593999997E+02  0.45594000000E+02  0.51100000000E-03 0.  1.
    9900012    2    1    2    0    0 -0.26067881469E+02 -0.46142559589E+01 -0.30860012981E+02  0.50528853384E+02  0.29999980346E+02 0.  0.
         12    1    1    2    0    0  0.26067881469E+02  0.46142559589E+01  0.30860012981E+02  0.40659146616E+02  0.00000000000E+00 0. -1.
         11    1    3    3    0    0  0.90493716287E+00 -0.90079789290E+01 -0.15695074128E+02  0.18118994117E+02  0.51100000000E-03 0.  1.
        -11    1    3    3    0    0 -0.26370768198E+02  0.42120300221E+01 -0.12166013175E+02  0.29345706485E+02  0.51100000000E-03 0. -1.
         12    1    3    3    0    0 -0.60205043437E+00  0.18169294801E+00 -0.29989256782E+01  0.30641527828E+01  0.00000000000E+00 0. -1.
</event>
<event>
 7    1  0.1369731E-013  0.5052887E+02  0.7816164E-02  0.1300439E+00
        -11   -1    0    0    0    0  0.00000000000E+00  0.00000000000E+00  0.45593999997E+02  0.45594000000E+02  0.51100000000E-03 0. -1.
         11   -1    0    0    0    0 -0.00000000000E+00 -0.00000000000E+00 -0.45593999997E+02  0.45594000000E+02  0.51100000000E-03 0.  1.
    9900012    2    1    2    0    0 -0.20512053362E+02 -0.29606559578E+01 -0.34980782926E+02  0.50528868295E+02  0.30000025670E+02 0.  0.
         12    1    1    2    0    0  0.20512053362E+02  0.29606559578E+01  0.34980782926E+02  0.40659131705E+02  0.00000000000E+00 0. -1.
         11    1    3    3    0    0  0.24188476614E+00 -0.31142950311E+01  0.83872937159E+00  0.32343173933E+01  0.51100000000E-03 0. -1.
        -11    1    3    3    0    0 -0.71483252211E+01  0.94991456086E+01 -0.62527117917E+01  0.13432376028E+02  0.51100000000E-03 0.  1.
        -12    1    3    3    0    0 -0.13605612908E+02 -0.93455065353E+01 -0.29566800506E+02  0.33862174873E+02  0.00000000000E+00 0.  1.
</event>
<event>
 7    1  0.1369731E-013  0.5052889E+02  0.7816164E-02  0.1300439E+00
        -11   -1    0    0    0    0  0.00000000000E+00  0.00000000000E+00  0.45593999997E+02  0.45594000000E+02  0.51100000000E-03 0. -1.
         11   -1    0    0    0    0 -0.00000000000E+00 -0.00000000000E+00 -0.45593999997E+02  0.45594000000E+02  0.51100000000E-03 0.  1.
    9900012    2    1    2    0    0 -0.11384071267E+02  0.26575182295E+02 -0.28588915329E+02  0.50528886971E+02  0.30000082438E+02 0.  0.
         12    1    1    2    0    0  0.11384071267E+02 -0.26575182295E+02  0.28588915329E+02  0.40659113029E+02  0.00000000000E+00 0. -1.
         11    1    3    3    0    0  0.48398458771E+01  0.26063438658E+00 -0.26156865864E+01  0.55076179041E+01  0.51100000000E-03 0. -1.
        -11    1    3    3    0    0 -0.18144603450E+02  0.26419683253E+02 -0.27756176208E+02  0.42398486005E+02  0.51100000000E-03 0.  1.
        -12    1    3    3    0    0  0.19206863061E+01 -0.10513534507E+00  0.17829474657E+01  0.26227830624E+01  0.00000000000E+00 0.  1.
</event>
<event>
 7    1  0.1369731E-013  0.5052886E+02  0.7816164E-02  0.1300439E+00
        -11   -1    0    0    0    0  0.00000000000E+00  0.00000000000E+00  0.45593999997E+02  0.45594000000E+02  0.51100000000E-03 0. -1.
         11   -1    0    0    0    0 -0.00000000000E+00 -0.00000000000E+00 -0.45593999997E+02  0.45594000000E+02  0.51100000000E-03 0.  1.
    9900012    2    1    2    0    0  0.75098108312E+01 -0.10319442616E+02 -0.38604110999E+02  0.50528861536E+02  0.30000005125E+02 0.  0.
         12    1    1    2    0    0 -0.75098108312E+01  0.10319442616E+02  0.38604110999E+02  0.40659138464E+02  0.00000000000E+00 0. -1.
         11    1    3    3    0    0 -0.32333964303E+01  0.33134301432E+01  0.38920677143E+00  0.46459825615E+01  0.51100000000E-03 0. -1.
        -11    1    3    3    0    0 -0.21195306836E+00 -0.13170485159E+02 -0.19884526447E+02  0.23851645555E+02  0.51100000000E-03 0.  1.
         12    1    3    3    0    0  0.10955160330E+02 -0.46238760048E+00 -0.19108791323E+02  0.22031233420E+02  0.00000000000E+00 0. -1.
</event>
<event>
 7    1  0.1369731E-013  0.5052885E+02  0.7816164E-02  0.1300439E+00
        -11   -1    0    0    0    0  0.00000000000E+00  0.00000000000E+00  0.45593999997E+02  0.45594000000E+02  0.51100000000E-03 0.  1.
         11   -1    0    0    0    0 -0.00000000000E+00 -0.00000000000E+00 -0.45593999997E+02  0.45594000000E+02  0.51100000000E-03 0. -1.
    9900012    2    1    2    0    0  0.16246212357E+01 -0.25686350949E+02  0.31475993056E+02  0.50528853943E+02  0.29999982045E+02 0.  0.
        -12    1    1    2    0    0 -0.16246212357E+01  0.25686350949E+02 -0.31475993056E+02  0.40659146057E+02  0.00000000000E+00 0.  1.
         11    1    3    3    0    0 -0.64569576319E+01 -0.12275248905E+02 -0.17178597567E+00  0.13870960609E+02  0.51100000000E-03 0. -1.
        -11    1    3    3    0    0  0.46721243970E+01 -0.23794153511E+01  0.36952891943E+01  0.64144778653E+01  0.51100000000E-03 0.  1.
         12    1    3    3    0    0  0.34094544706E+01 -0.11031686693E+02  0.27952489838E+02  0.30243415469E+02  0.00000000000E+00 0. -1.
</event>
<event>
 7    1  0.1369731E-013  0.5052887E+02  0.7816164E-02  0.1300439E+00
        -11   -1    0    0    0    0  0.00000000000E+00  0.00000000000E+00  0.45593999997E+02  0.45594000000E+02  0.51100000000E-03 0. -1.
         11   -1    0    0    0    0 -0.00000000000E+00 -0.00000000000E+00 -0.45593999997E+02  0.45594000000E+02  0.51100000000E-03 0.  1.
    9900012    2    1    2    0    0 -0.51285403079E+01  0.29692548541E+02  0.27298637157E+02  0.50528868736E+02  0.30000027009E+02 0.  0.
        -12    1    1    2    0    0  0.51285403079E+01 -0.29692548541E+02 -0.27298637157E+02  0.40659131264E+02  0.00000000000E+00 0.  1.
         11    1    3    3    0    0 -0.60222281160E+01  0.22888024601E+02  0.82513714085E+01  0.25064198211E+02  0.51100000000E-03 0. -1.
        -11    1    3    3    0    0 -0.54381377099E+01 -0.13685233756E+01  0.11058384756E+02  0.12398954458E+02  0.51100000000E-03 0.  1.
        -12    1    3    3    0    0  0.63318255180E+01  0.81730473158E+01  0.79888809927E+01  0.13065716067E+02  0.00000000000E+00 0.  1.
</event>
<event>
 7    1  0.1369731E-013  0.5052887E+02  0.7816164E-02  0.1300439E+00
        -11   -1    0    0    0    0  0.00000000000E+00  0.00000000000E+00  0.45593999997E+02  0.45594000000E+02  0.51100000000E-03 0. -1.
         11   -1    0    0    0    0 -0.00000000000E+00 -0.00000000000E+00 -0.45593999997E+02  0.45594000000E+02  0.51100000000E-03 0.  1.
    9900012    2    1    2    0    0 -0.24747702740E+02 -0.17627946215E+02 -0.27017984545E+02  0.50528871043E+02  0.30000034023E+02 0.  0.
         12    1    1    2    0    0  0.24747702740E+02  0.17627946215E+02  0.27017984545E+02  0.40659128957E+02  0.00000000000E+00 0. -1.
         11    1    3    3    0    0 -0.65259537191E+01 -0.19711076120E+02 -0.13838659999E+02  0.24952416809E+02  0.51100000000E-03 0. -1.
        -11    1    3    3    0    0 -0.10815321400E+02  0.22661669498E+01 -0.14312209818E+02  0.18081649255E+02  0.51100000000E-03 0.  1.
         12    1    3    3    0    0 -0.74064276201E+01 -0.18303704414E+00  0.11328852714E+01  0.74948049801E+01  0.00000000000E+00 0. -1.
</event>
<event>
 7    1  0.1369731E-013  0.5052886E+02  0.7816164E-02  0.1300439E+00
        -11   -1    0    0    0    0  0.00000000000E+00  0.00000000000E+00  0.45593999997E+02  0.45594000000E+02  0.51100000000E-03 0. -1.
         11   -1    0    0    0    0 -0.00000000000E+00 -0.00000000000E+00 -0.45593999997E+02  0.45594000000E+02  0.51100000000E-03 0.  1.
    9900012    2    1    2    0    0  0.17940657811E+02 -0.72310355672E+01  0.35763256050E+02  0.50528861281E+02  0.30000004350E+02 0.  0.
        -12    1    1    2    0    0 -0.17940657811E+02  0.72310355672E+01 -0.35763256050E+02  0.40659138719E+02  0.00000000000E+00 0.  1.
         11    1    3    3    0    0 -0.61239225603E+01 -0.32309420007E+00  0.43194303365E+00  0.61476330756E+01  0.51100000000E-03 0. -1.
        -11    1    3    3    0    0  0.11524427573E+02  0.16990664528E+01  0.15324475697E+02  0.19249384752E+02  0.51100000000E-03 0.  1.
         12    1    3    3    0    0  0.12540152798E+02 -0.86070078199E+01  0.20006837320E+02  0.25131843453E+02  0.00000000000E+00 0. -1.
</event>
<event>
 7    1  0.1369731E-013  0.5052884E+02  0.7816164E-02  0.1300439E+00
        -11   -1    0    0    0    0  0.00000000000E+00  0.00000000000E+00  0.45593999997E+02  0.45594000000E+02  0.51100000000E-03 0. -1.
         11   -1    0    0    0    0 -0.00000000000E+00 -0.00000000000E+00 -0.45593999997E+02  0.45594000000E+02  0.51100000000E-03 0.  1.
    9900012    2    1    2    0    0  0.39814972576E+02  0.82137595336E+01 -0.68486461130E+00  0.50528844495E+02  0.29999953326E+02 0.  0.
        -12    1    1    2    0    0 -0.39814972576E+02 -0.82137595336E+01  0.68486461130E+00  0.40659155505E+02  0.00000000000E+00 0.  1.
         11    1    3    3    0    0  0.19563717464E+02  0.16827874546E+02  0.17638378098E+01  0.25865566432E+02  0.51100000000E-03 0. -1.
        -11    1    3    3    0    0  0.14339684353E+02 -0.75788063351E+01  0.30732653099E+01  0.16507871236E+02  0.51100000000E-03 0.  1.
        -12    1    3    3    0    0  0.59115707584E+01 -0.10353086776E+01 -0.55219677310E+01  0.81554068268E+01  0.00000000000E+00 0.  1.
</event>
<event>
 7    1  0.1369731E-013  0.5052885E+02  0.7816164E-02  0.1300439E+00
        -11   -1    0    0    0    0  0.00000000000E+00  0.00000000000E+00  0.45593999997E+02  0.45594000000E+02  0.51100000000E-03 0. -1.
         11   -1    0    0    0    0 -0.00000000000E+00 -0.00000000000E+00 -0.45593999997E+02  0.45594000000E+02  0.51100000000E-03 0.  1.
    9900012    2    1    2    0    0 -0.34272184020E+01  0.84273010427E+01  0.39628284000E+02  0.50528854391E+02  0.29999983408E+02 0.  0.
        -12    1    1    2    0    0  0.34272184020E+01 -0.84273010427E+01 -0.39628284000E+02  0.40659145609E+02  0.00000000000E+00 0.  1.
         11    1    3    3    0    0  0.67349539114E+01  0.81824810189E+00  0.20903548905E+02  0.21976976389E+02  0.51100000000E-03 0. -1.
        -11    1    3    3    0    0 -0.13963155531E+02  0.64739918850E+01  0.19143149293E+02  0.24563030115E+02  0.51100000000E-03 0.  1.
        -12    1    3    3    0    0  0.38009832179E+01  0.11350610558E+01 -0.41841419804E+00  0.39888478868E+01  0.00000000000E+00 0.  1.
</event>
<event>
 7    1  0.1369731E-013  0.5052885E+02  0.7816164E-02  0.1300439E+00
        -11   -1    0    0    0    0  0.00000000000E+00  0.00000000000E+00  0.45593999997E+02  0.45594000000E+02  0.51100000000E-03 0. -1.
         11   -1    0    0    0    0 -0.00000000000E+00 -0.00000000000E+00 -0.45593999997E+02  0.45594000000E+02  0.51100000000E-03 0.  1.
    9900012    2    1    2    0    0  0.33927325775E+02 -0.54093164345E+01 -0.21744939114E+02  0.50528849546E+02  0.29999968681E+02 0.  0.
         12    1    1    2    0    0 -0.33927325775E+02  0.54093164345E+01  0.21744939114E+02  0.40659150454E+02  0.00000000000E+00 0. -1.
         11    1    3    3    0    0  0.42130781788E+01  0.56423000853E+01 -0.16387953097E+02  0.17836776193E+02  0.51100000000E-03 0.  1.
        -11    1    3    3    0    0  0.43724220854E+01 -0.33733307013E+01  0.58721919737E+00  0.55535809673E+01  0.51100000000E-03 0. -1.
         12    1    3    3    0    0  0.25341825511E+02 -0.76782858185E+01 -0.59442052144E+01  0.27138492386E+02  0.00000000000E+00 0. -1.
</event>
<event>
 7    1  0.1369731E-013  0.5052886E+02  0.7816164E-02  0.1300439E+00
        -11   -1    0    0    0    0  0.00000000000E+00  0.00000000000E+00  0.45593999997E+02  0.45594000000E+02  0.51100000000E-03 0. -1.
         11   -1    0    0    0    0 -0.00000000000E+00 -0.00000000000E+00 -0.45593999997E+02  0.45594000000E+02  0.51100000000E-03 0.  1.
    9900012    2    1    2    0    0 -0.31955614323E+02 -0.17805367053E+02 -0.17747494475E+02  0.50528856590E+02  0.29999990091E+02 0.  0.
         12    1    1    2    0    0  0.31955614323E+02  0.17805367053E+02  0.17747494475E+02  0.40659143410E+02  0.00000000000E+00 0. -1.
         11    1    3    3    0    0 -0.43068493208E+01  0.37908504415E+01  0.42972625903E+01  0.71684003915E+01  0.51100000000E-03 0. -1.
        -11    1    3    3    0    0 -0.12909586699E+02 -0.17789020819E+02 -0.11192932229E+02  0.24665531062E+02  0.51100000000E-03 0.  1.
        -12    1    3    3    0    0 -0.14739178303E+02 -0.38071966763E+01 -0.10851824837E+02  0.18694925137E+02  0.00000000000E+00 0.  1.
</event>
<event>
 7    1  0.1369731E-013  0.5052885E+02  0.7816164E-02  0.1300439E+00
        -11   -1    0    0    0    0  0.00000000000E+00  0.00000000000E+00  0.45593999997E+02  0.45594000000E+02  0.51100000000E-03 0.  1.
         11   -1    0    0    0    0 -0.00000000000E+00 -0.00000000000E+00 -0.45593999997E+02  0.45594000000E+02  0.51100000000E-03 0. -1.
    9900012    2    1    2    0    0  0.30866362348E+02 -0.25776533947E+02  0.60003675220E+01  0.50528850509E+02  0.29999971606E+02 0.  0.
         12    1    1    2    0    0 -0.30866362348E+02  0.25776533947E+02 -0.60003675220E+01  0.40659149491E+02  0.00000000000E+00 0. -1.
         11    1    3    3    0    0  0.31307360013E+02 -0.11437707455E+02 -0.10513340726E+01  0.33347822214E+02  0.51100000000E-03 0. -1.
        -11    1    3    3    0    0  0.17598391551E+01 -0.12537631241E+02  0.47496509268E+01  0.13522145361E+02  0.51100000000E-03 0.  1.
         12    1    3    3    0    0 -0.22008368201E+01 -0.18011952517E+01  0.23020506678E+01  0.36588829334E+01  0.00000000000E+00 0. -1.
</event>
<event>
 7    1  0.1369731E-013  0.5052886E+02  0.7816164E-02  0.1300439E+00
        -11   -1    0    0    0    0  0.00000000000E+00  0.00000000000E+00  0.45593999997E+02  0.45594000000E+02  0.51100000000E-03 0. -1.
         11   -1    0    0    0    0 -0.00000000000E+00 -0.00000000000E+00 -0.45593999997E+02  0.45594000000E+02  0.51100000000E-03 0.  1.
    9900012    2    1    2    0    0 -0.12811468779E+02 -0.32360672942E+01  0.38452042532E+02  0.50528862789E+02  0.30000008934E+02 0.  0.
        -12    1    1    2    0    0  0.12811468779E+02  0.32360672942E+01 -0.38452042532E+02  0.40659137211E+02  0.00000000000E+00 0.  1.
         11    1    3    3    0    0  0.53930725109E+00  0.69064419271E+01  0.29116213808E+02  0.29928977584E+02  0.51100000000E-03 0. -1.
        -11    1    3    3    0    0 -0.10816353364E+02 -0.63175834400E+01  0.31824891137E+01  0.12924147857E+02  0.51100000000E-03 0.  1.
         12    1    3    3    0    0 -0.25344226657E+01 -0.38249257813E+01  0.61533396103E+01  0.76757373483E+01  0.00000000000E+00 0. -1.
</event>
<event>
 7    1  0.1369731E-013  0.5052886E+02  0.7816164E-02  0.1300439E+00
        -11   -1    0    0    0    0  0.00000000000E+00  0.00000000000E+00  0.45593999997E+02  0.45594000000E+02  0.51100000000E-03 0. -1.
         11   -1    0    0    0    0 -0.00000000000E+00 -0.00000000000E+00 -0.45593999997E+02  0.45594000000E+02  0.51100000000E-03 0.  1.
    9900012    2    1    2    0    0 -0.18869118818E+02 -0.15937470394E+02  0.32297349734E+02  0.50528863175E+02  0.30000010108E+02 0.  0.
        -12    1    1    2    0    0  0.18869118818E+02  0.15937470394E+02 -0.32297349734E+02  0.40659136825E+02  0.00000000000E+00 0.  1.
         11    1    3    3    0    0 -0.14178867313E+01  0.20918019823E+01  0.11555218150E+02  0.11828317931E+02  0.51100000000E-03 0. -1.
        -11    1    3    3    0    0 -0.37332122031E+01 -0.18097753702E+02  0.86057498408E+01  0.20384417897E+02  0.51100000000E-03 0.  1.
        -12    1    3    3    0    0 -0.13718019883E+02  0.68481325650E-01  0.12136381742E+02  0.18316127347E+02  0.00000000000E+00 0.  1.
</event>
<event>
 7    1  0.1369731E-013  0.5052886E+02  0.7816164E-02  0.1300439E+00
        -11   -1    0    0    0    0  0.00000000000E+00  0.00000000000E+00  0.45593999997E+02  0.45594000000E+02  0.51100000000E-03 0. -1.
         11   -1    0    0    0    0 -0.00000000000E+00 -0.00000000000E+00 -0.45593999997E+02  0.45594000000E+02  0.51100000000E-03 0.  1.
    9900012    2    1    2    0    0  0.38441449243E+02 -0.42760686523E+01  0.12535372465E+02  0.50528863931E+02  0.30000012405E+02 0.  0.
        -12    1    1    2    0    0 -0.38441449243E+02  0.42760686523E+01 -0.12535372465E+02  0.40659136069E+02  0.00000000000E+00 0.  1.
         11    1    3    3    0    0  0.83421943340E+01 -0.39815876394E+01  0.92666157303E+01  0.13088751422E+02  0.51100000000E-03 0. -1.
        -11    1    3    3    0    0 -0.28534841713E+01 -0.50205136244E+00 -0.26885601896E+01  0.39525667155E+01  0.51100000000E-03 0.  1.
        -12    1    3    3    0    0  0.32952739080E+02  0.20757034952E+00  0.59573169248E+01  0.33487545794E+02  0.00000000000E+00 0.  1.
</event>
<event>
 7    1  0.1369731E-013  0.5052886E+02  0.7816164E-02  0.1300439E+00
        -11   -1    0    0    0    0  0.00000000000E+00  0.00000000000E+00  0.45593999997E+02  0.45594000000E+02  0.51100000000E-03 0. -1.
         11   -1    0    0    0    0 -0.00000000000E+00 -0.00000000000E+00 -0.45593999997E+02  0.45594000000E+02  0.51100000000E-03 0.  1.
    9900012    2    1    2    0    0  0.19780708181E+02  0.36964344508E+01  0.35330231523E+02  0.50528864455E+02  0.30000013998E+02 0.  0.
        -12    1    1    2    0    0 -0.19780708181E+02 -0.36964344508E+01 -0.35330231523E+02  0.40659135545E+02  0.00000000000E+00 0.  1.
         11    1    3    3    0    0 -0.45267844147E+00  0.71361457841E+01  0.19987080787E+02  0.21227644549E+02  0.51100000000E-03 0. -1.
        -11    1    3    3    0    0  0.80094276346E+01 -0.38461144438E+01 -0.94183832964E+00  0.89347964190E+01  0.51100000000E-03 0.  1.
        -12    1    3    3    0    0  0.12223958988E+02  0.40640311047E+00  0.16284989065E+02  0.20366423488E+02  0.00000000000E+00 0.  1.
</event>
<event>
 7    1  0.1369731E-013  0.5052885E+02  0.7816164E-02  0.1300439E+00
        -11   -1    0    0    0    0  0.00000000000E+00  0.00000000000E+00  0.45593999997E+02  0.45594000000E+02  0.51100000000E-03 0.  1.
         11   -1    0    0    0    0 -0.00000000000E+00 -0.00000000000E+00 -0.45593999997E+02  0.45594000000E+02  0.51100000000E-03 0. -1.
    9900012    2    1    2    0    0 -0.17870998977E+02  0.36470240703E+02 -0.19274455163E+01  0.50528854564E+02  0.29999983933E+02 0.  0.
         12    1    1    2    0    0  0.17870998977E+02 -0.36470240703E+02  0.19274455163E+01  0.40659145436E+02  0.00000000000E+00 0. -1.
         11    1    3    3    0    0  0.40276853116E+01  0.99109668488E+01  0.88629221225E+01  0.13892476441E+02  0.51100000000E-03 0. -1.
        -11    1    3    3    0    0 -0.70980725570E+01  0.50935676889E+01 -0.44423701499E+01  0.98011080310E+01  0.51100000000E-03 0.  1.
         12    1    3    3    0    0 -0.14800611732E+02  0.21465706165E+02 -0.63479974889E+01  0.26835270092E+02  0.00000000000E+00 0. -1.
</event>
<event>
 7    1  0.1369731E-013  0.5052886E+02  0.7816164E-02  0.1300439E+00
        -11   -1    0    0    0    0  0.00000000000E+00  0.00000000000E+00  0.45593999997E+02  0.45594000000E+02  0.51100000000E-03 0. -1.
         11   -1    0    0    0    0 -0.00000000000E+00 -0.00000000000E+00 -0.45593999997E+02  0.45594000000E+02  0.51100000000E-03 0.  1.
    9900012    2    1    2    0    0 -0.81569639122E+01 -0.15274614315E+02 -0.36787435886E+02  0.50528863981E+02  0.30000012558E+02 0.  0.
         12    1    1    2    0    0  0.81569639122E+01  0.15274614315E+02  0.36787435886E+02  0.40659136019E+02  0.00000000000E+00 0. -1.
         11    1    3    3    0    0  0.69466110937E+01  0.44814370353E+01 -0.12559384659E+02  0.15035851385E+02  0.51100000000E-03 0. -1.
        -11    1    3    3    0    0 -0.28563712271E+01 -0.62318791640E+01 -0.10982990967E+02  0.12946863147E+02  0.51100000000E-03 0.  1.
         12    1    3    3    0    0 -0.12247203779E+02 -0.13524172186E+02 -0.13245060260E+02  0.22546149450E+02  0.00000000000E+00 0. -1.
</event>
<event>
 7    1  0.1369731E-013  0.5052885E+02  0.7816164E-02  0.1300439E+00
        -11   -1    0    0    0    0  0.00000000000E+00  0.00000000000E+00  0.45593999997E+02  0.45594000000E+02  0.51100000000E-03 0. -1.
         11   -1    0    0    0    0 -0.00000000000E+00 -0.00000000000E+00 -0.45593999997E+02  0.45594000000E+02  0.51100000000E-03 0.  1.
    9900012    2    1    2    0    0  0.69723459319E+01  0.14494399461E+02  0.37342538042E+02  0.50528851325E+02  0.29999974089E+02 0.  0.
        -12    1    1    2    0    0 -0.69723459319E+01 -0.14494399461E+02 -0.37342538042E+02  0.40659148675E+02  0.00000000000E+00 0.  1.
         11    1    3    3    0    0  0.12067303584E+02  0.19889819998E+01  0.31780935302E+02  0.34052954558E+02  0.51100000000E-03 0. -1.
        -11    1    3    3    0    0  0.12857162126E+00 -0.71738529604E+00 -0.63534521704E+00  0.96686924178E+00  0.51100000000E-03 0.  1.
         12    1    3    3    0    0 -0.52235292731E+01  0.13222802757E+02  0.61969479570E+01  0.15509027526E+02  0.00000000000E+00 0. -1.
</event>
<event>
 7    1  0.1369731E-013  0.5052884E+02  0.7816164E-02  0.1300439E+00
        -11   -1    0    0    0    0  0.00000000000E+00  0.00000000000E+00  0.45593999997E+02  0.45594000000E+02  0.51100000000E-03 0. -1.
         11   -1    0    0    0    0 -0.00000000000E+00 -0.00000000000E+00 -0.45593999997E+02  0.45594000000E+02  0.51100000000E-03 0.  1.
    9900012    2    1    2    0    0 -0.74937759596E+01  0.13586553095E+02 -0.37582121792E+02  0.50528843817E+02  0.29999951266E+02 0.  0.
         12    1    1    2    0    0  0.74937759596E+01 -0.13586553095E+02  0.37582121792E+02  0.40659156183E+02  0.00000000000E+00 0. -1.
         11    1    3    3    0    0 -0.92187906499E+01  0.23455003679E+01 -0.44801845177E+00  0.95230349057E+01  0.51100000000E-03 0. -1.
        -11    1    3    3    0    0  0.41596914471E+01  0.96290098449E+01 -0.36553491908E+02  0.38028655439E+02  0.51100000000E-03 0.  1.
        -12    1    3    3    0    0 -0.24346767568E+01  0.16120428819E+01 -0.58061143197E+00  0.29771534724E+01  0.00000000000E+00 0.  1.
</event>
<event>
 7    1  0.1369731E-013  0.5052883E+02  0.7816164E-02  0.1300439E+00
        -11   -1    0    0    0    0  0.00000000000E+00  0.00000000000E+00  0.45593999997E+02  0.45594000000E+02  0.51100000000E-03 0.  1.
         11   -1    0    0    0    0 -0.00000000000E+00 -0.00000000000E+00 -0.45593999997E+02  0.45594000000E+02  0.51100000000E-03 0. -1.
    9900012    2    1    2    0    0  0.11880347202E+02 -0.24902378819E+02  0.29864638300E+02  0.50528834474E+02  0.29999922868E+02 0.  0.
        -12    1    1    2    0    0 -0.11880347202E+02  0.24902378819E+02 -0.29864638300E+02  0.40659165526E+02  0.00000000000E+00 0.  1.
         11    1    3    3    0    0  0.93164162870E+01 -0.28081564073E+02  0.29981226179E+02  0.42121773190E+02  0.51100000000E-03 0. -1.
        -11    1    3    3    0    0 -0.23554411776E+01  0.52717692368E+00 -0.12292357851E+01  0.27086970164E+01  0.51100000000E-03 0.  1.
         12    1    3    3    0    0  0.49193720925E+01  0.26520083302E+01  0.11126479062E+01  0.56983642681E+01  0.00000000000E+00 0. -1.
</event>
<event>
 7    1  0.1369731E-013  0.5052900E+02  0.7816164E-02  0.1300438E+00
        -11   -1    0    0    0    0  0.00000000000E+00  0.00000000000E+00  0.45593999997E+02  0.45594000000E+02  0.51100000000E-03 0. -1.
         11   -1    0    0    0    0 -0.00000000000E+00 -0.00000000000E+00 -0.45593999997E+02  0.45594000000E+02  0.51100000000E-03 0.  1.
    9900012    2    1    2    0    0 -0.35525173596E+02  0.18725746245E+02 -0.63610283710E+01  0.50529000831E+02  0.30000428524E+02 0.  0.
         12    1    1    2    0    0  0.35525173596E+02 -0.18725746245E+02  0.63610283710E+01  0.40658999169E+02  0.00000000000E+00 0. -1.
         11    1    3    3    0    0 -0.23466012320E+01  0.20843205240E+01  0.82325475770E+01  0.88105487489E+01  0.51100000000E-03 0. -1.
        -11    1    3    3    0    0 -0.16746189871E+02  0.53786741884E+01 -0.12725236006E+02  0.21709367630E+02  0.51100000000E-03 0.  1.
         12    1    3    3    0    0 -0.16432382493E+02  0.11262751533E+02 -0.18683399421E+01  0.20009084452E+02  0.00000000000E+00 0. -1.
</event>
<event>
 7    1  0.1369731E-013  0.5052884E+02  0.7816164E-02  0.1300439E+00
        -11   -1    0    0    0    0  0.00000000000E+00  0.00000000000E+00  0.45593999997E+02  0.45594000000E+02  0.51100000000E-03 0. -1.
         11   -1    0    0    0    0 -0.00000000000E+00 -0.00000000000E+00 -0.45593999997E+02  0.45594000000E+02  0.51100000000E-03 0.  1.
    9900012    2    1    2    0    0 -0.14715676234E+02  0.35496211152E+01  0.37736136833E+02  0.50528844079E+02  0.29999952063E+02 0.  0.
        -12    1    1    2    0    0  0.14715676234E+02 -0.35496211152E+01 -0.37736136833E+02  0.40659155921E+02  0.00000000000E+00 0.  1.
         11    1    3    3    0    0 -0.13001297152E+02  0.63208740980E+01  0.14546590708E+02  0.20508302672E+02  0.51100000000E-03 0. -1.
        -11    1    3    3    0    0 -0.47874612098E+01 -0.10000772018E+02  0.11877523601E+02  0.16248408936E+02  0.51100000000E-03 0.  1.
         12    1    3    3    0    0  0.30730821272E+01  0.72295190349E+01  0.11312022524E+02  0.13772132472E+02  0.00000000000E+00 0. -1.
</event>
<event>
 7    1  0.1369731E-013  0.5052877E+02  0.7816164E-02  0.1300439E+00
        -11   -1    0    0    0    0  0.00000000000E+00  0.00000000000E+00  0.45593999997E+02  0.45594000000E+02  0.51100000000E-03 0. -1.
         11   -1    0    0    0    0 -0.00000000000E+00 -0.00000000000E+00 -0.45593999997E+02  0.45594000000E+02  0.51100000000E-03 0.  1.
    9900012    2    1    2    0    0 -0.17055217121E+01 -0.25337122868E+02  0.31753654707E+02  0.50528767509E+02  0.29999719319E+02 0.  0.
        -12    1    1    2    0    0  0.17055217121E+01  0.25337122868E+02 -0.31753654707E+02  0.40659232491E+02  0.00000000000E+00 0.  1.
         11    1    3    3    0    0  0.11755471242E+02 -0.57879909980E+01  0.98250667678E+01  0.16377541975E+02  0.51100000000E-03 0. -1.
        -11    1    3    3    0    0 -0.11264769665E+02 -0.11516013354E+02  0.81556521068E+01  0.18056252677E+02  0.51100000000E-03 0.  1.
         12    1    3    3    0    0 -0.21962232887E+01 -0.80331185155E+01  0.13772935832E+02  0.16094972857E+02  0.00000000000E+00 0. -1.
</event>
<event>
 7    1  0.1369731E-013  0.5052884E+02  0.7816164E-02  0.1300439E+00
        -11   -1    0    0    0    0  0.00000000000E+00  0.00000000000E+00  0.45593999997E+02  0.45594000000E+02  0.51100000000E-03 0. -1.
         11   -1    0    0    0    0 -0.00000000000E+00 -0.00000000000E+00 -0.45593999997E+02  0.45594000000E+02  0.51100000000E-03 0.  1.
    9900012    2    1    2    0    0 -0.27023896183E+02  0.23980913923E+02 -0.18649175828E+02  0.50528844124E+02  0.29999952198E+02 0.  0.
         12    1    1    2    0    0  0.27023896183E+02 -0.23980913923E+02  0.18649175828E+02  0.40659155876E+02  0.00000000000E+00 0. -1.
         11    1    3    3    0    0 -0.22886092535E+02  0.16884939343E+02 -0.47838401006E+01  0.28840241582E+02  0.51100000000E-03 0.  1.
        -11    1    3    3    0    0  0.74156437308E+00 -0.37923973986E+01 -0.71105021083E+00  0.39290951136E+01  0.51100000000E-03 0. -1.
        -12    1    3    3    0    0 -0.48793680211E+01  0.10888371979E+02 -0.13154285517E+02  0.17759507428E+02  0.00000000000E+00 0.  1.
</event>
<event>
 7    1  0.1369731E-013  0.5052886E+02  0.7816164E-02  0.1300439E+00
        -11   -1    0    0    0    0  0.00000000000E+00  0.00000000000E+00  0.45593999997E+02  0.45594000000E+02  0.51100000000E-03 0. -1.
         11   -1    0    0    0    0 -0.00000000000E+00 -0.00000000000E+00 -0.45593999997E+02  0.45594000000E+02  0.51100000000E-03 0.  1.
    9900012    2    1    2    0    0  0.15953860161E+01 -0.35681224491E+02  0.19428598190E+02  0.50528862462E+02  0.30000007939E+02 0.  0.
        -12    1    1    2    0    0 -0.15953860161E+01  0.35681224491E+02 -0.19428598190E+02  0.40659137538E+02  0.00000000000E+00 0.  1.
         11    1    3    3    0    0 -0.22414527899E+01 -0.11320169923E+02  0.13326678789E+02  0.17628690407E+02  0.51100000000E-03 0. -1.
        -11    1    3    3    0    0  0.94076534056E+01 -0.25580809380E+01  0.28908707775E+01  0.10168817768E+02  0.51100000000E-03 0.  1.
        -12    1    3    3    0    0 -0.55708145996E+01 -0.21802973630E+02  0.32110486238E+01  0.22731354286E+02  0.00000000000E+00 0.  1.
</event>
<event>
 7    1  0.1369731E-013  0.5052886E+02  0.7816164E-02  0.1300439E+00
        -11   -1    0    0    0    0  0.00000000000E+00  0.00000000000E+00  0.45593999997E+02  0.45594000000E+02  0.51100000000E-03 0. -1.
         11   -1    0    0    0    0 -0.00000000000E+00 -0.00000000000E+00 -0.45593999997E+02  0.45594000000E+02  0.51100000000E-03 0.  1.
    9900012    2    1    2    0    0 -0.28213101773E+02 -0.15647991480E+02 -0.24745237342E+02  0.50528861788E+02  0.30000005891E+02 0.  0.
         12    1    1    2    0    0  0.28213101773E+02  0.15647991480E+02  0.24745237342E+02  0.40659138212E+02  0.00000000000E+00 0. -1.
         11    1    3    3    0    0  0.84086716079E+00 -0.12320020940E+02 -0.14017512239E+02  0.18681023077E+02  0.51100000000E-03 0. -1.
        -11    1    3    3    0    0 -0.25702290118E+02 -0.13838972565E+01 -0.10938631688E+02  0.27967419480E+02  0.51100000000E-03 0.  1.
         12    1    3    3    0    0 -0.33516788165E+01 -0.19440732837E+01  0.21090658568E+00  0.38804192311E+01  0.00000000000E+00 0. -1.
</event>
<event>
 7    1  0.1369731E-013  0.5052886E+02  0.7816164E-02  0.1300439E+00
        -11   -1    0    0    0    0  0.00000000000E+00  0.00000000000E+00  0.45593999997E+02  0.45594000000E+02  0.51100000000E-03 0. -1.
         11   -1    0    0    0    0 -0.00000000000E+00 -0.00000000000E+00 -0.45593999997E+02  0.45594000000E+02  0.51100000000E-03 0.  1.
    9900012    2    1    2    0    0 -0.34644791460E+02  0.56760419932E+01 -0.20510646011E+02  0.50528860464E+02  0.30000001867E+02 0.  0.
         12    1    1    2    0    0  0.34644791460E+02 -0.56760419932E+01  0.20510646011E+02  0.40659139536E+02  0.00000000000E+00 0. -1.
         11    1    3    3    0    0 -0.21659412379E+02 -0.70327584117E+01 -0.24546906930E+00  0.22773890551E+02  0.51100000000E-03 0. -1.
        -11    1    3    3    0    0 -0.94008289036E+01  0.10660644414E+02 -0.12356972776E+02  0.18834003819E+02  0.51100000000E-03 0.  1.
         12    1    3    3    0    0 -0.35845501772E+01  0.20481559908E+01 -0.79082041654E+01  0.89209660944E+01  0.00000000000E+00 0. -1.
</event>
<event>
 7    1  0.1369731E-013  0.5052892E+02  0.7816164E-02  0.1300439E+00
        -11   -1    0    0    0    0  0.00000000000E+00  0.00000000000E+00  0.45593999997E+02  0.45594000000E+02  0.51100000000E-03 0. -1.
         11   -1    0    0    0    0 -0.00000000000E+00 -0.00000000000E+00 -0.45593999997E+02  0.45594000000E+02  0.51100000000E-03 0.  1.
    9900012    2    1    2    0    0  0.37275717000E+01  0.57103451035E+01  0.40083133826E+02  0.50528924146E+02  0.30000195434E+02 0.  0.
        -12    1    1    2    0    0 -0.37275717000E+01 -0.57103451035E+01 -0.40083133826E+02  0.40659075854E+02  0.00000000000E+00 0.  1.
         11    1    3    3    0    0  0.93432246340E+01 -0.80810536799E+01  0.17238341976E+02  0.21207538978E+02  0.51100000000E-03 0. -1.
        -11    1    3    3    0    0  0.45543445155E+00  0.10833958646E+02  0.97252007399E+01  0.14565768438E+02  0.51100000000E-03 0.  1.
         12    1    3    3    0    0 -0.60710873856E+01  0.29574401370E+01  0.13119591110E+02  0.14755616731E+02  0.00000000000E+00 0. -1.
</event>
<event>
 7    1  0.1369731E-013  0.5052886E+02  0.7816164E-02  0.1300439E+00
        -11   -1    0    0    0    0  0.00000000000E+00  0.00000000000E+00  0.45593999997E+02  0.45594000000E+02  0.51100000000E-03 0. -1.
         11   -1    0    0    0    0 -0.00000000000E+00 -0.00000000000E+00 -0.45593999997E+02  0.45594000000E+02  0.51100000000E-03 0.  1.
    9900012    2    1    2    0    0 -0.29733448892E+02 -0.65159803301E+01 -0.26956065736E+02  0.50528862495E+02  0.30000008040E+02 0.  0.
         12    1    1    2    0    0  0.29733448892E+02  0.65159803301E+01  0.26956065736E+02  0.40659137505E+02  0.00000000000E+00 0. -1.
         11    1    3    3    0    0  0.28512683277E+01 -0.39538050608E+01 -0.11351371392E+01  0.50050816298E+01  0.51100000000E-03 0. -1.
        -11    1    3    3    0    0 -0.25877784035E+02 -0.80213155093E+01 -0.24952511276E+02  0.36832445321E+02  0.51100000000E-03 0.  1.
         12    1    3    3    0    0 -0.67069331848E+01  0.54591402400E+01 -0.86841732091E+00  0.86913355446E+01  0.00000000000E+00 0. -1.
</event>
<event>
 7    1  0.1369731E-013  0.5052887E+02  0.7816164E-02  0.1300439E+00
        -11   -1    0    0    0    0  0.00000000000E+00  0.00000000000E+00  0.45593999997E+02  0.45594000000E+02  0.51100000000E-03 0. -1.
         11   -1    0    0    0    0 -0.00000000000E+00 -0.00000000000E+00 -0.45593999997E+02  0.45594000000E+02  0.51100000000E-03 0.  1.
    9900012    2    1    2    0    0 -0.94380212884E+01  0.15364121355E+02  0.36442181626E+02  0.50528867293E+02  0.30000022623E+02 0.  0.
        -12    1    1    2    0    0  0.94380212884E+01 -0.15364121355E+02 -0.36442181626E+02  0.40659132707E+02  0.00000000000E+00 0.  1.
         11    1    3    3    0    0 -0.13969687929E+02  0.19256273185E+02  0.19220977124E+02  0.30584345664E+02  0.51100000000E-03 0. -1.
        -11    1    3    3    0    0  0.61332468749E+01 -0.30243507208E+01  0.79071591045E+01  0.10454022186E+02  0.51100000000E-03 0.  1.
        -12    1    3    3    0    0 -0.16015802346E+01 -0.86780110931E+00  0.93140453970E+01  0.94904994427E+01  0.00000000000E+00 0.  1.
</event>
<event>
 7    1  0.1369731E-013  0.5052886E+02  0.7816164E-02  0.1300439E+00
        -11   -1    0    0    0    0  0.00000000000E+00  0.00000000000E+00  0.45593999997E+02  0.45594000000E+02  0.51100000000E-03 0. -1.
         11   -1    0    0    0    0 -0.00000000000E+00 -0.00000000000E+00 -0.45593999997E+02  0.45594000000E+02  0.51100000000E-03 0.  1.
    9900012    2    1    2    0    0  0.58097695187E+01 -0.27867203233E+02 -0.29031550476E+02  0.50528863746E+02  0.30000011843E+02 0.  0.
         12    1    1    2    0    0 -0.58097695187E+01  0.27867203233E+02  0.29031550476E+02  0.40659136254E+02  0.00000000000E+00 0. -1.
         11    1    3    3    0    0 -0.16638790652E+01 -0.48875958645E+01 -0.16965204719E+02  0.17733450265E+02  0.51100000000E-03 0. -1.
        -11    1    3    3    0    0  0.66720517634E+00 -0.22894019186E+02 -0.59977037922E+01  0.23676015887E+02  0.51100000000E-03 0.  1.
         12    1    3    3    0    0  0.68064434076E+01 -0.85588182714E-01 -0.60686419646E+01  0.91193975949E+01  0.00000000000E+00 0. -1.
</event>
<event>
 7    1  0.1369731E-013  0.5052886E+02  0.7816164E-02  0.1300439E+00
        -11   -1    0    0    0    0  0.00000000000E+00  0.00000000000E+00  0.45593999997E+02  0.45594000000E+02  0.51100000000E-03 0. -1.
         11   -1    0    0    0    0 -0.00000000000E+00 -0.00000000000E+00 -0.45593999997E+02  0.45594000000E+02  0.51100000000E-03 0.  1.
    9900012    2    1    2    0    0  0.34208934272E+02  0.18121714951E+02 -0.12430520283E+02  0.50528861159E+02  0.30000003979E+02 0.  0.
         12    1    1    2    0    0 -0.34208934272E+02 -0.18121714951E+02  0.12430520283E+02  0.40659138841E+02  0.00000000000E+00 0. -1.
         11    1    3    3    0    0 -0.37261477540E+01 -0.20429545844E+01  0.80753806084E+00  0.43255009536E+01  0.51100000000E-03 0. -1.
        -11    1    3    3    0    0  0.30822487503E+02  0.18189499956E+02 -0.68452044568E+01  0.36438173237E+02  0.51100000000E-03 0.  1.
         12    1    3    3    0    0  0.71125945227E+01  0.19751695799E+01 -0.63928538870E+01  0.97651869688E+01  0.00000000000E+00 0. -1.
</event>
<event>
 7    1  0.1369731E-013  0.5052887E+02  0.7816164E-02  0.1300439E+00
        -11   -1    0    0    0    0  0.00000000000E+00  0.00000000000E+00  0.45593999997E+02  0.45594000000E+02  0.51100000000E-03 0. -1.
         11   -1    0    0    0    0 -0.00000000000E+00 -0.00000000000E+00 -0.45593999997E+02  0.45594000000E+02  0.51100000000E-03 0.  1.
    9900012    2    1    2    0    0 -0.36096477377E+02 -0.18713256870E+02 -0.15290649703E+00  0.50528867666E+02  0.30000023758E+02 0.  0.
         12    1    1    2    0    0  0.36096477377E+02  0.18713256870E+02  0.15290649703E+00  0.40659132334E+02  0.00000000000E+00 0. -1.
         11    1    3    3    0    0 -0.15785857958E+01 -0.12967408675E+02 -0.37675798253E+01  0.13595597775E+02  0.51100000000E-03 0. -1.
        -11    1    3    3    0    0 -0.23673503966E+02  0.13073131202E+01  0.97003083047E+00  0.23729408288E+02  0.51100000000E-03 0.  1.
         12    1    3    3    0    0 -0.10844387616E+02 -0.70531613153E+01  0.26446424978E+01  0.13203861603E+02  0.00000000000E+00 0. -1.
</event>
<event>
 7    1  0.1369731E-013  0.5052886E+02  0.7816164E-02  0.1300439E+00
        -11   -1    0    0    0    0  0.00000000000E+00  0.00000000000E+00  0.45593999997E+02  0.45594000000E+02  0.51100000000E-03 0. -1.
         11   -1    0    0    0    0 -0.00000000000E+00 -0.00000000000E+00 -0.45593999997E+02  0.45594000000E+02  0.51100000000E-03 0.  1.
    9900012    2    1    2    0    0 -0.17801958808E+02  0.12463255176E+02  0.34364557846E+02  0.50528864459E+02  0.30000014009E+02 0.  0.
        -12    1    1    2    0    0  0.17801958808E+02 -0.12463255176E+02 -0.34364557846E+02  0.40659135541E+02  0.00000000000E+00 0.  1.
         11    1    3    3    0    0 -0.19110184008E+02  0.15879278117E+01  0.26289589472E+02  0.32540177664E+02  0.51100000000E-03 0. -1.
        -11    1    3    3    0    0 -0.53742743940E+00  0.12860105675E+02  0.47989402126E+01  0.13736847297E+02  0.51100000000E-03 0.  1.
         12    1    3    3    0    0  0.18456526387E+01 -0.19847783105E+01  0.32760281608E+01  0.42518394977E+01  0.00000000000E+00 0. -1.
</event>
<event>
 7    1  0.1369731E-013  0.5052889E+02  0.7816164E-02  0.1300439E+00
        -11   -1    0    0    0    0  0.00000000000E+00  0.00000000000E+00  0.45593999997E+02  0.45594000000E+02  0.51100000000E-03 0. -1.
         11   -1    0    0    0    0 -0.00000000000E+00 -0.00000000000E+00 -0.45593999997E+02  0.45594000000E+02  0.51100000000E-03 0.  1.
    9900012    2    1    2    0    0  0.35467210379E+02 -0.11166817938E+02 -0.16448170779E+02  0.50528890849E+02  0.30000094225E+02 0.  0.
         12    1    1    2    0    0 -0.35467210379E+02  0.11166817938E+02  0.16448170779E+02  0.40659109151E+02  0.00000000000E+00 0. -1.
         11    1    3    3    0    0  0.53671443454E+01  0.83131288605E+01 -0.44938695670E+01  0.10867806302E+02  0.51100000000E-03 0. -1.
        -11    1    3    3    0    0  0.27248632703E+02 -0.14457373839E+02 -0.13516675788E+02  0.33677947787E+02  0.51100000000E-03 0.  1.
         12    1    3    3    0    0  0.28514333307E+01 -0.50225729596E+01  0.15623745758E+01  0.59831367600E+01  0.00000000000E+00 0. -1.
</event>
<event>
 7    1  0.1369731E-013  0.5052891E+02  0.7816164E-02  0.1300439E+00
        -11   -1    0    0    0    0  0.00000000000E+00  0.00000000000E+00  0.45593999997E+02  0.45594000000E+02  0.51100000000E-03 0. -1.
         11   -1    0    0    0    0 -0.00000000000E+00 -0.00000000000E+00 -0.45593999997E+02  0.45594000000E+02  0.51100000000E-03 0.  1.
    9900012    2    1    2    0    0 -0.68162371574E+01 -0.33394786902E+02 -0.22169544811E+02  0.50528910016E+02  0.30000152484E+02 0.  0.
         12    1    1    2    0    0  0.68162371574E+01  0.33394786902E+02  0.22169544811E+02  0.40659089984E+02  0.00000000000E+00 0. -1.
         11    1    3    3    0    0 -0.12854602470E+02 -0.76226741959E+01 -0.18142106284E+02  0.23504935380E+02  0.51100000000E-03 0. -1.
        -11    1    3    3    0    0  0.15967260645E+01 -0.14637518591E+02 -0.18516168775E+01  0.14840315696E+02  0.51100000000E-03 0.  1.
         12    1    3    3    0    0  0.44416392477E+01 -0.11134594115E+02 -0.21758216492E+01  0.12183658940E+02  0.00000000000E+00 0. -1.
</event>
<event>
 7    1  0.1369731E-013  0.5052887E+02  0.7816164E-02  0.1300439E+00
        -11   -1    0    0    0    0  0.00000000000E+00  0.00000000000E+00  0.45593999997E+02  0.45594000000E+02  0.51100000000E-03 0. -1.
         11   -1    0    0    0    0 -0.00000000000E+00 -0.00000000000E+00 -0.45593999997E+02  0.45594000000E+02  0.51100000000E-03 0.  1.
    9900012    2    1    2    0    0 -0.24974667177E+02 -0.16479124464E+01  0.32042393666E+02  0.50528873007E+02  0.30000039991E+02 0.  0.
        -12    1    1    2    0    0  0.24974667177E+02  0.16479124464E+01 -0.32042393666E+02  0.40659126993E+02  0.00000000000E+00 0.  1.
         11    1    3    3    0    0 -0.10427202030E+02 -0.10447390842E+02  0.50867337942E+01  0.15612475093E+02  0.51100000000E-03 0. -1.
        -11    1    3    3    0    0 -0.65916154393E+01  0.53926384018E+01  0.24473371088E+02  0.25912850783E+02  0.51100000000E-03 0.  1.
         12    1    3    3    0    0 -0.79558497080E+01  0.34068399939E+01  0.24822887833E+01  0.90035471301E+01  0.00000000000E+00 0. -1.
</event>
<event>
 7    1  0.1369731E-013  0.5052886E+02  0.7816164E-02  0.1300439E+00
        -11   -1    0    0    0    0  0.00000000000E+00  0.00000000000E+00  0.45593999997E+02  0.45594000000E+02  0.51100000000E-03 0. -1.
         11   -1    0    0    0    0 -0.00000000000E+00 -0.00000000000E+00 -0.45593999997E+02  0.45594000000E+02  0.51100000000E-03 0.  1.
    9900012    2    1    2    0    0  0.23982355931E+02 -0.17127549950E+02 -0.28011773399E+02  0.50528858196E+02  0.29999994974E+02 0.  0.
         12    1    1    2    0    0 -0.23982355931E+02  0.17127549950E+02  0.28011773399E+02  0.40659141804E+02  0.00000000000E+00 0. -1.
         11    1    3    3    0    0 -0.14421462420E+01 -0.10795358059E+02 -0.11295580245E+02  0.15691069904E+02  0.51100000000E-03 0.  1.
        -11    1    3    3    0    0  0.14522261361E+02  0.18242623404E+01 -0.19722987033E+01  0.14768682086E+02  0.51100000000E-03 0. -1.
        -12    1    3    3    0    0  0.10902240811E+02 -0.81564542315E+01 -0.14743894451E+02  0.20069106206E+02  0.00000000000E+00 0.  1.
</event>
<event>
 7    1  0.1369731E-013  0.5052885E+02  0.7816164E-02  0.1300439E+00
        -11   -1    0    0    0    0  0.00000000000E+00  0.00000000000E+00  0.45593999997E+02  0.45594000000E+02  0.51100000000E-03 0. -1.
         11   -1    0    0    0    0 -0.00000000000E+00 -0.00000000000E+00 -0.45593999997E+02  0.45594000000E+02  0.51100000000E-03 0.  1.
    9900012    2    1    2    0    0 -0.36800712655E+02 -0.77361806260E+01 -0.15460441936E+02  0.50528853336E+02  0.29999980201E+02 0.  0.
         12    1    1    2    0    0  0.36800712655E+02  0.77361806260E+01  0.15460441936E+02  0.40659146664E+02  0.00000000000E+00 0. -1.
         11    1    3    3    0    0  0.17296640543E+01 -0.22270569736E+01 -0.36194570016E+01  0.45882447354E+01  0.51100000000E-03 0. -1.
        -11    1    3    3    0    0 -0.32132834453E+02 -0.42382779457E+01  0.12404373322E-01  0.32411143208E+02  0.51100000000E-03 0.  1.
        -12    1    3    3    0    0 -0.63975422557E+01 -0.12708457066E+01 -0.11853389308E+02  0.13529465392E+02  0.00000000000E+00 0.  1.
</event>
<event>
 7    1  0.1369731E-013  0.5052886E+02  0.7816164E-02  0.1300439E+00
        -11   -1    0    0    0    0  0.00000000000E+00  0.00000000000E+00  0.45593999997E+02  0.45594000000E+02  0.51100000000E-03 0. -1.
         11   -1    0    0    0    0 -0.00000000000E+00 -0.00000000000E+00 -0.45593999997E+02  0.45594000000E+02  0.51100000000E-03 0.  1.
    9900012    2    1    2    0    0  0.23622896651E+02  0.29173707089E+02  0.15621109834E+02  0.50528861987E+02  0.30000006497E+02 0.  0.
        -12    1    1    2    0    0 -0.23622896651E+02 -0.29173707089E+02 -0.15621109834E+02  0.40659138013E+02  0.00000000000E+00 0.  1.
         11    1    3    3    0    0 -0.42681776304E+01  0.77281333492E+01  0.83263561434E+01  0.12135468357E+02  0.51100000000E-03 0. -1.
        -11    1    3    3    0    0  0.22677431497E+02  0.14499044400E+02  0.10833556627E+02  0.29014722767E+02  0.51100000000E-03 0.  1.
         12    1    3    3    0    0  0.52136427842E+01  0.69465293397E+01 -0.35388029357E+01  0.93786708635E+01  0.00000000000E+00 0. -1.
</event>
<event>
 7    1  0.1369731E-013  0.5052886E+02  0.7816164E-02  0.1300439E+00
        -11   -1    0    0    0    0  0.00000000000E+00  0.00000000000E+00  0.45593999997E+02  0.45594000000E+02  0.51100000000E-03 0. -1.
         11   -1    0    0    0    0 -0.00000000000E+00 -0.00000000000E+00 -0.45593999997E+02  0.45594000000E+02  0.51100000000E-03 0.  1.
    9900012    2    1    2    0    0 -0.16381866847E+02  0.31293520267E+02  0.20137418048E+02  0.50528861080E+02  0.30000003737E+02 0.  0.
        -12    1    1    2    0    0  0.16381866847E+02 -0.31293520267E+02 -0.20137418048E+02  0.40659138920E+02  0.00000000000E+00 0.  1.
         11    1    3    3    0    0 -0.23218410553E+01 -0.27330640668E+01  0.22462921028E+01  0.42315970451E+01  0.51100000000E-03 0. -1.
        -11    1    3    3    0    0 -0.89987237709E+01  0.31474650649E+02  0.62185182412E+01  0.33321173934E+02  0.51100000000E-03 0.  1.
        -12    1    3    3    0    0 -0.50613020206E+01  0.25519336852E+01  0.11672607704E+02  0.12976090100E+02  0.00000000000E+00 0.  1.
</event>
<event>
 7    1  0.1369731E-013  0.5052886E+02  0.7816164E-02  0.1300439E+00
        -11   -1    0    0    0    0  0.00000000000E+00  0.00000000000E+00  0.45593999997E+02  0.45594000000E+02  0.51100000000E-03 0. -1.
         11   -1    0    0    0    0 -0.00000000000E+00 -0.00000000000E+00 -0.45593999997E+02  0.45594000000E+02  0.51100000000E-03 0.  1.
    9900012    2    1    2    0    0 -0.19325047180E+02 -0.33130657081E+02  0.13493245393E+02  0.50528861318E+02  0.30000004463E+02 0.  0.
        -12    1    1    2    0    0  0.19325047180E+02  0.33130657081E+02 -0.13493245393E+02  0.40659138682E+02  0.00000000000E+00 0.  1.
         11    1    3    3    0    0  0.34104502943E+01 -0.80312418575E+01  0.11557158188E+02  0.14481019392E+02  0.51100000000E-03 0.  1.
        -11    1    3    3    0    0 -0.17296379567E+02 -0.18443280530E+02 -0.40032182682E+01  0.25599708975E+02  0.51100000000E-03 0. -1.
         12    1    3    3    0    0 -0.54391179075E+01 -0.66561346931E+01  0.59393054736E+01  0.10448132952E+02  0.00000000000E+00 0. -1.
</event>
<event>
 7    1  0.1369731E-013  0.5052885E+02  0.7816164E-02  0.1300439E+00
        -11   -1    0    0    0    0  0.00000000000E+00  0.00000000000E+00  0.45593999997E+02  0.45594000000E+02  0.51100000000E-03 0. -1.
         11   -1    0    0    0    0 -0.00000000000E+00 -0.00000000000E+00 -0.45593999997E+02  0.45594000000E+02  0.51100000000E-03 0.  1.
    9900012    2    1    2    0    0 -0.19738838336E+02  0.76259619012E+00  0.35538190175E+02  0.50528852779E+02  0.29999978508E+02 0.  0.
        -12    1    1    2    0    0  0.19738838336E+02 -0.76259619012E+00 -0.35538190175E+02  0.40659147221E+02  0.00000000000E+00 0.  1.
         11    1    3    3    0    0  0.68579661727E+00 -0.14276120409E+01  0.25300068858E+02  0.25349593244E+02  0.51100000000E-03 0. -1.
        -11    1    3    3    0    0 -0.12914151289E+02 -0.18889543123E+01  0.18109867909E+01  0.13176612817E+02  0.51100000000E-03 0.  1.
         12    1    3    3    0    0 -0.75104836642E+01  0.40791625433E+01  0.84271345256E+01  0.12002646718E+02  0.00000000000E+00 0. -1.
</event>
<event>
 7    1  0.1369731E-013  0.5052889E+02  0.7816164E-02  0.1300439E+00
        -11   -1    0    0    0    0  0.00000000000E+00  0.00000000000E+00  0.45593999997E+02  0.45594000000E+02  0.51100000000E-03 0. -1.
         11   -1    0    0    0    0 -0.00000000000E+00 -0.00000000000E+00 -0.45593999997E+02  0.45594000000E+02  0.51100000000E-03 0.  1.
    9900012    2    1    2    0    0  0.17962128392E+02 -0.62540925567E+01  0.35936215786E+02  0.50528888659E+02  0.30000087567E+02 0.  0.
        -12    1    1    2    0    0 -0.17962128392E+02  0.62540925567E+01 -0.35936215786E+02  0.40659111341E+02  0.00000000000E+00 0.  1.
         11    1    3    3    0    0  0.29199059261E+00  0.68441145296E+01  0.12703952153E+02  0.14433210411E+02  0.51100000000E-03 0. -1.
        -11    1    3    3    0    0  0.11886941143E+02 -0.15179574119E+02  0.22906964846E+02  0.29940739452E+02  0.51100000000E-03 0.  1.
        -12    1    3    3    0    0  0.57831966561E+01  0.20813670331E+01  0.32529878688E+00  0.61549387966E+01  0.00000000000E+00 0.  1.
</event>
<event>
 7    1  0.1369731E-013  0.5052886E+02  0.7816164E-02  0.1300439E+00
        -11   -1    0    0    0    0  0.00000000000E+00  0.00000000000E+00  0.45593999997E+02  0.45594000000E+02  0.51100000000E-03 0. -1.
         11   -1    0    0    0    0 -0.00000000000E+00 -0.00000000000E+00 -0.45593999997E+02  0.45594000000E+02  0.51100000000E-03 0.  1.
    9900012    2    1    2    0    0  0.19861546824E+01 -0.52469763953E+01 -0.40270215224E+02  0.50528858274E+02  0.29999995211E+02 0.  0.
         12    1    1    2    0    0 -0.19861546824E+01  0.52469763953E+01  0.40270215224E+02  0.40659141726E+02  0.00000000000E+00 0. -1.
         11    1    3    3    0    0  0.11861961119E+02 -0.11007143630E+02 -0.17311497788E+02  0.23697073414E+02  0.51100000000E-03 0. -1.
        -11    1    3    3    0    0 -0.53201099511E+01 -0.78227668639E+00 -0.13047211151E+02  0.14111883141E+02  0.51100000000E-03 0.  1.
         12    1    3    3    0    0 -0.45556964851E+01  0.65424439207E+01 -0.99115062842E+01  0.12719901719E+02  0.00000000000E+00 0. -1.
</event>
<event>
 7    1  0.1369731E-013  0.5052887E+02  0.7816164E-02  0.1300439E+00
        -11   -1    0    0    0    0  0.00000000000E+00  0.00000000000E+00  0.45593999997E+02  0.45594000000E+02  0.51100000000E-03 0. -1.
         11   -1    0    0    0    0 -0.00000000000E+00 -0.00000000000E+00 -0.45593999997E+02  0.45594000000E+02  0.51100000000E-03 0.  1.
    9900012    2    1    2    0    0  0.80881351794E+00  0.19438559919E+02  0.35702281277E+02  0.50528872127E+02  0.30000037317E+02 0.  0.
        -12    1    1    2    0    0 -0.80881351794E+00 -0.19438559919E+02 -0.35702281277E+02  0.40659127873E+02  0.00000000000E+00 0.  1.
         11    1    3    3    0    0  0.11506183290E+02  0.83000018508E+01  0.11204453573E+02  0.18078220730E+02  0.51100000000E-03 0. -1.
        -11    1    3    3    0    0 -0.39005685470E+01  0.13158338297E+02  0.19194059141E+02  0.23595936267E+02  0.51100000000E-03 0.  1.
         12    1    3    3    0    0 -0.67968012252E+01 -0.20197802295E+01  0.53037685627E+01  0.88547151302E+01  0.00000000000E+00 0. -1.
</event>
<event>
 7    1  0.1369731E-013  0.5052886E+02  0.7816164E-02  0.1300439E+00
        -11   -1    0    0    0    0  0.00000000000E+00  0.00000000000E+00  0.45593999997E+02  0.45594000000E+02  0.51100000000E-03 0. -1.
         11   -1    0    0    0    0 -0.00000000000E+00 -0.00000000000E+00 -0.45593999997E+02  0.45594000000E+02  0.51100000000E-03 0.  1.
    9900012    2    1    2    0    0  0.95902602481E+01 -0.94612804065E+01 -0.38362434494E+02  0.50528864509E+02  0.30000014161E+02 0.  0.
         12    1    1    2    0    0 -0.95902602481E+01  0.94612804065E+01  0.38362434494E+02  0.40659135491E+02  0.00000000000E+00 0. -1.
         11    1    3    3    0    0 -0.78763344999E+01 -0.57151965661E+01 -0.10427925052E+02  0.14263300393E+02  0.51100000000E-03 0. -1.
        -11    1    3    3    0    0  0.94118348963E+01  0.54491840363E+01 -0.14031118066E+02  0.17752422855E+02  0.51100000000E-03 0.  1.
         12    1    3    3    0    0  0.80547598517E+01 -0.91952678767E+01 -0.13903391376E+02  0.18513141261E+02  0.00000000000E+00 0. -1.
</event>
<event>
 7    1  0.1369731E-013  0.5052885E+02  0.7816164E-02  0.1300439E+00
        -11   -1    0    0    0    0  0.00000000000E+00  0.00000000000E+00  0.45593999997E+02  0.45594000000E+02  0.51100000000E-03 0. -1.
         11   -1    0    0    0    0 -0.00000000000E+00 -0.00000000000E+00 -0.45593999997E+02  0.45594000000E+02  0.51100000000E-03 0.  1.
    9900012    2    1    2    0    0  0.41921086975E+01 -0.38235261008E+02  0.13177921502E+02  0.50528848818E+02  0.29999966468E+02 0.  0.
        -12    1    1    2    0    0 -0.41921086975E+01  0.38235261008E+02 -0.13177921502E+02  0.40659151182E+02  0.00000000000E+00 0.  1.
         11    1    3    3    0    0  0.91728964670E+01 -0.35603686665E+02  0.99928118640E+01  0.38100142033E+02  0.51100000000E-03 0. -1.
        -11    1    3    3    0    0  0.12252516315E+01  0.19364645249E+01  0.40713564064E+01  0.46719460256E+01  0.51100000000E-03 0.  1.
         12    1    3    3    0    0 -0.62060394010E+01 -0.45680388681E+01 -0.88624676846E+00  0.77567607596E+01  0.00000000000E+00 0. -1.
</event>
<event>
 7    1  0.1369731E-013  0.5052886E+02  0.7816164E-02  0.1300439E+00
        -11   -1    0    0    0    0  0.00000000000E+00  0.00000000000E+00  0.45593999997E+02  0.45594000000E+02  0.51100000000E-03 0. -1.
         11   -1    0    0    0    0 -0.00000000000E+00 -0.00000000000E+00 -0.45593999997E+02  0.45594000000E+02  0.51100000000E-03 0.  1.
    9900012    2    1    2    0    0 -0.20476073630E+00  0.89502930696E+01  0.39661264804E+02  0.50528860820E+02  0.30000002949E+02 0.  0.
        -12    1    1    2    0    0  0.20476073630E+00 -0.89502930696E+01 -0.39661264804E+02  0.40659139180E+02  0.00000000000E+00 0.  1.
         11    1    3    3    0    0  0.47145035757E+01  0.95129073004E+01  0.19479163901E+02  0.22184674346E+02  0.51100000000E-03 0. -1.
        -11    1    3    3    0    0  0.64840220449E+00 -0.79402569160E+00 -0.36902929012E+01  0.38300344875E+01  0.51100000000E-03 0.  1.
        -12    1    3    3    0    0 -0.55676665165E+01  0.23141146083E+00  0.23872393804E+02  0.24514151987E+02  0.00000000000E+00 0.  1.
</event>
<event>
 7    1  0.1369731E-013  0.5052886E+02  0.7816164E-02  0.1300439E+00
        -11   -1    0    0    0    0  0.00000000000E+00  0.00000000000E+00  0.45593999997E+02  0.45594000000E+02  0.51100000000E-03 0.  1.
         11   -1    0    0    0    0 -0.00000000000E+00 -0.00000000000E+00 -0.45593999997E+02  0.45594000000E+02  0.51100000000E-03 0. -1.
    9900012    2    1    2    0    0  0.32213681664E+02  0.24698813598E+02  0.23265215691E+01  0.50528863486E+02  0.30000011051E+02 0.  0.
         12    1    1    2    0    0 -0.32213681664E+02 -0.24698813598E+02 -0.23265215691E+01  0.40659136514E+02  0.00000000000E+00 0. -1.
         11    1    3    3    0    0  0.27081372763E+01 -0.46667363243E+01  0.24327859311E+00  0.54010758338E+01  0.51100000000E-03 0. -1.
        -11    1    3    3    0    0  0.15664543232E+02  0.21701470320E+02 -0.58993201508E+01  0.27406818626E+02  0.51100000000E-03 0.  1.
        -12    1    3    3    0    0  0.13841001155E+02  0.76640796028E+01  0.79825631268E+01  0.17720969026E+02  0.00000000000E+00 0.  1.
</event>
<event>
 7    1  0.1369731E-013  0.5052885E+02  0.7816164E-02  0.1300439E+00
        -11   -1    0    0    0    0  0.00000000000E+00  0.00000000000E+00  0.45593999997E+02  0.45594000000E+02  0.51100000000E-03 0. -1.
         11   -1    0    0    0    0 -0.00000000000E+00 -0.00000000000E+00 -0.45593999997E+02  0.45594000000E+02  0.51100000000E-03 0.  1.
    9900012    2    1    2    0    0  0.11845535523E+01  0.20917107040E+02 -0.34845911461E+02  0.50528854908E+02  0.29999984979E+02 0.  0.
         12    1    1    2    0    0 -0.11845535523E+01 -0.20917107040E+02  0.34845911461E+02  0.40659145092E+02  0.00000000000E+00 0. -1.
         11    1    3    3    0    0  0.10409456973E+01  0.15355294084E+02 -0.47974752514E+01  0.16120930289E+02  0.51100000000E-03 0. -1.
        -11    1    3    3    0    0 -0.11752312758E+01  0.92151545163E+00 -0.29516897580E+02  0.29554654495E+02  0.51100000000E-03 0.  1.
        -12    1    3    3    0    0  0.13188391309E+01  0.46402975047E+01 -0.53153862947E+00  0.48532701244E+01  0.00000000000E+00 0.  1.
</event>
<event>
 7    1  0.1369731E-013  0.5052886E+02  0.7816164E-02  0.1300439E+00
        -11   -1    0    0    0    0  0.00000000000E+00  0.00000000000E+00  0.45593999997E+02  0.45594000000E+02  0.51100000000E-03 0. -1.
         11   -1    0    0    0    0 -0.00000000000E+00 -0.00000000000E+00 -0.45593999997E+02  0.45594000000E+02  0.51100000000E-03 0.  1.
    9900012    2    1    2    0    0  0.62426755411E+01  0.36570466941E+02 -0.16637178351E+02  0.50528858916E+02  0.29999997162E+02 0.  0.
         12    1    1    2    0    0 -0.62426755411E+01 -0.36570466941E+02  0.16637178351E+02  0.40659141084E+02  0.00000000000E+00 0. -1.
         11    1    3    3    0    0  0.13043326077E+02  0.66098358736E+01 -0.94240233886E+01  0.17396278410E+02  0.51100000000E-03 0. -1.
        -11    1    3    3    0    0 -0.70642133500E+01  0.95629352488E+01 -0.35409743432E+01  0.12405294853E+02  0.51100000000E-03 0.  1.
         12    1    3    3    0    0  0.26356281377E+00  0.20397695819E+02 -0.36721806188E+01  0.20727285653E+02  0.00000000000E+00 0. -1.
</event>
<event>
 7    1  0.1369731E-013  0.5052886E+02  0.7816164E-02  0.1300439E+00
        -11   -1    0    0    0    0  0.00000000000E+00  0.00000000000E+00  0.45593999997E+02  0.45594000000E+02  0.51100000000E-03 0. -1.
         11   -1    0    0    0    0 -0.00000000000E+00 -0.00000000000E+00 -0.45593999997E+02  0.45594000000E+02  0.51100000000E-03 0.  1.
    9900012    2    1    2    0    0 -0.26830917322E+02 -0.12785644677E+02 -0.27745176837E+02  0.50528859922E+02  0.30000000220E+02 0.  0.
         12    1    1    2    0    0  0.26830917322E+02  0.12785644677E+02  0.27745176837E+02  0.40659140078E+02  0.00000000000E+00 0. -1.
         11    1    3    3    0    0  0.55430306153E-01 -0.43036992170E+01 -0.72492104793E+01  0.84306555086E+01  0.51100000000E-03 0. -1.
        -11    1    3    3    0    0 -0.30044487099E+02 -0.83074497143E+01 -0.22418970004E+02  0.38396551174E+02  0.51100000000E-03 0.  1.
         12    1    3    3    0    0  0.31581394707E+01 -0.17449574534E+00  0.19230036464E+01  0.37016532396E+01  0.00000000000E+00 0. -1.
</event>
<event>
 7    1  0.1656934E-013  0.5052884E+02  0.7816164E-02  0.1300439E+00
        -11   -1    0    0    0    0  0.00000000000E+00  0.00000000000E+00  0.45593999997E+02  0.45594000000E+02  0.51100000000E-03 0. -1.
         11   -1    0    0    0    0 -0.00000000000E+00 -0.00000000000E+00 -0.45593999997E+02  0.45594000000E+02  0.51100000000E-03 0.  1.
    9900012    2    1    2    0    0  0.64235834615E+01  0.15860368670E+02 -0.36882966107E+02  0.50528844725E+02  0.29999954027E+02 0.  0.
         12    1    1    2    0    0 -0.64235834615E+01 -0.15860368670E+02  0.36882966107E+02  0.40659155275E+02  0.00000000000E+00 0. -1.
         11    1    3    3    0    0 -0.86792924887E+00 -0.23860283634E+01 -0.17788206367E+02  0.17968492384E+02  0.51100000000E-03 0.  1.
        -11    1    3    3    0    0  0.12827010089E+02  0.10234586331E+02 -0.13998348340E+02  0.21569253620E+02  0.51100000000E-03 0. -1.
        -12    1    3    3    0    0 -0.55354973789E+01  0.80118107020E+01 -0.50964114000E+01  0.10991098722E+02  0.00000000000E+00 0.  1.
</event>
<event>
 7    1  0.1369731E-013  0.5052886E+02  0.7816164E-02  0.1300439E+00
        -11   -1    0    0    0    0  0.00000000000E+00  0.00000000000E+00  0.45593999997E+02  0.45594000000E+02  0.51100000000E-03 0. -1.
         11   -1    0    0    0    0 -0.00000000000E+00 -0.00000000000E+00 -0.45593999997E+02  0.45594000000E+02  0.51100000000E-03 0.  1.
    9900012    2    1    2    0    0  0.85025028775E+01 -0.17722806122E+02 -0.35591783412E+02  0.50528862547E+02  0.30000008197E+02 0.  0.
         12    1    1    2    0    0 -0.85025028775E+01  0.17722806122E+02  0.35591783412E+02  0.40659137453E+02  0.00000000000E+00 0. -1.
         11    1    3    3    0    0  0.40600261382E+01 -0.60843748398E+01  0.42985664944E+01  0.84841678202E+01  0.51100000000E-03 0. -1.
        -11    1    3    3    0    0  0.41072220254E+01 -0.58307755812E+01 -0.26547261581E+02  0.27488621543E+02  0.51100000000E-03 0.  1.
         12    1    3    3    0    0  0.33525471391E+00 -0.58076557006E+01 -0.13343088326E+02  0.14556073184E+02  0.00000000000E+00 0. -1.
</event>
<event>
 7    1  0.1369731E-013  0.5052884E+02  0.7816164E-02  0.1300439E+00
        -11   -1    0    0    0    0  0.00000000000E+00  0.00000000000E+00  0.45593999997E+02  0.45594000000E+02  0.51100000000E-03 0.  1.
         11   -1    0    0    0    0 -0.00000000000E+00 -0.00000000000E+00 -0.45593999997E+02  0.45594000000E+02  0.51100000000E-03 0. -1.
    9900012    2    1    2    0    0 -0.62467946704E+01  0.32178526249E+02  0.24055922074E+02  0.50528838892E+02  0.29999936295E+02 0.  0.
        -12    1    1    2    0    0  0.62467946704E+01 -0.32178526249E+02 -0.24055922074E+02  0.40659161108E+02  0.00000000000E+00 0.  1.
         11    1    3    3    0    0 -0.50213995121E+01  0.16800069913E+02  0.15059221727E+02  0.23113566610E+02  0.51100000000E-03 0. -1.
        -11    1    3    3    0    0  0.37246379010E+01  0.71602253872E+01 -0.56883033802E+01  0.98741354404E+01  0.51100000000E-03 0.  1.
        -12    1    3    3    0    0 -0.49500330593E+01  0.82182309491E+01  0.14685003727E+02  0.17541136841E+02  0.00000000000E+00 0.  1.
</event>
<event>
 7    1  0.1369731E-013  0.5052886E+02  0.7816164E-02  0.1300439E+00
        -11   -1    0    0    0    0  0.00000000000E+00  0.00000000000E+00  0.45593999997E+02  0.45594000000E+02  0.51100000000E-03 0. -1.
         11   -1    0    0    0    0 -0.00000000000E+00 -0.00000000000E+00 -0.45593999997E+02  0.45594000000E+02  0.51100000000E-03 0.  1.
    9900012    2    1    2    0    0 -0.15957396715E+02 -0.17784711825E+02  0.32897276787E+02  0.50528864439E+02  0.30000013948E+02 0.  0.
        -12    1    1    2    0    0  0.15957396715E+02  0.17784711825E+02 -0.32897276787E+02  0.40659135561E+02  0.00000000000E+00 0.  1.
         11    1    3    3    0    0 -0.21129840743E+02 -0.13001702966E+02  0.28072360337E+02  0.37464274516E+02  0.51100000000E-03 0. -1.
        -11    1    3    3    0    0  0.77194593309E+01 -0.13317688273E+01  0.27739852225E+01  0.83101537198E+01  0.51100000000E-03 0.  1.
        -12    1    3    3    0    0 -0.25470153028E+01 -0.34512400321E+01  0.20509312273E+01  0.47544362032E+01  0.00000000000E+00 0.  1.
</event>
<event>
 7    1  0.1369731E-013  0.5052889E+02  0.7816164E-02  0.1300439E+00
        -11   -1    0    0    0    0  0.00000000000E+00  0.00000000000E+00  0.45593999997E+02  0.45594000000E+02  0.51100000000E-03 0. -1.
         11   -1    0    0    0    0 -0.00000000000E+00 -0.00000000000E+00 -0.45593999997E+02  0.45594000000E+02  0.51100000000E-03 0.  1.
    9900012    2    1    2    0    0  0.17839324227E+02  0.55116214594E+01  0.36118464848E+02  0.50528893235E+02  0.30000101477E+02 0.  0.
        -12    1    1    2    0    0 -0.17839324227E+02 -0.55116214594E+01 -0.36118464848E+02  0.40659106765E+02  0.00000000000E+00 0.  1.
         11    1    3    3    0    0  0.18244874531E+02  0.13514647097E+02  0.13414375708E+02  0.26371700906E+02  0.51100000000E-03 0. -1.
        -11    1    3    3    0    0 -0.20869065432E+00 -0.63839275887E+01  0.15378297833E+02  0.16652030739E+02  0.51100000000E-03 0.  1.
         12    1    3    3    0    0 -0.19685964933E+00 -0.16190980486E+01  0.73257913065E+01  0.75051615891E+01  0.00000000000E+00 0. -1.
</event>
<event>
 7    1  0.1369731E-013  0.5052886E+02  0.7816164E-02  0.1300439E+00
        -11   -1    0    0    0    0  0.00000000000E+00  0.00000000000E+00  0.45593999997E+02  0.45594000000E+02  0.51100000000E-03 0. -1.
         11   -1    0    0    0    0 -0.00000000000E+00 -0.00000000000E+00 -0.45593999997E+02  0.45594000000E+02  0.51100000000E-03 0.  1.
    9900012    2    1    2    0    0  0.39168969237E+01  0.24394386891E+01  0.40396445812E+02  0.50528858631E+02  0.29999996294E+02 0.  0.
        -12    1    1    2    0    0 -0.39168969237E+01 -0.24394386891E+01 -0.40396445812E+02  0.40659141369E+02  0.00000000000E+00 0.  1.
         11    1    3    3    0    0 -0.10436061327E-01  0.84514636801E+01 -0.31502050165E+00  0.84573391457E+01  0.51100000000E-03 0. -1.
        -11    1    3    3    0    0  0.23263215747E+01 -0.70785183974E+01  0.21312795018E+02  0.22577697547E+02  0.51100000000E-03 0.  1.
         12    1    3    3    0    0  0.16010114104E+01  0.10664934064E+01  0.19398671295E+02  0.19493821938E+02  0.00000000000E+00 0. -1.
</event>
<event>
 7    1  0.1369731E-013  0.5052886E+02  0.7816164E-02  0.1300439E+00
        -11   -1    0    0    0    0  0.00000000000E+00  0.00000000000E+00  0.45593999997E+02  0.45594000000E+02  0.51100000000E-03 0. -1.
         11   -1    0    0    0    0 -0.00000000000E+00 -0.00000000000E+00 -0.45593999997E+02  0.45594000000E+02  0.51100000000E-03 0.  1.
    9900012    2    1    2    0    0  0.39893648414E+00  0.95262772211E+01 -0.39525396141E+02  0.50528855296E+02  0.29999986157E+02 0.  0.
         12    1    1    2    0    0 -0.39893648414E+00 -0.95262772211E+01  0.39525396141E+02  0.40659144704E+02  0.00000000000E+00 0. -1.
         11    1    3    3    0    0 -0.39437950259E+01 -0.41004492367E+01 -0.30642742847E+02  0.31166406476E+02  0.51100000000E-03 0. -1.
        -11    1    3    3    0    0  0.62851542000E+01  0.47554091154E+01 -0.25223796325E+01  0.82752328333E+01  0.51100000000E-03 0.  1.
         12    1    3    3    0    0 -0.19424226900E+01  0.88713173424E+01 -0.63602736609E+01  0.11087215987E+02  0.00000000000E+00 0. -1.
</event>
<event>
 7    1  0.1369731E-013  0.5052877E+02  0.7816164E-02  0.1300439E+00
        -11   -1    0    0    0    0  0.00000000000E+00  0.00000000000E+00  0.45593999997E+02  0.45594000000E+02  0.51100000000E-03 0.  1.
         11   -1    0    0    0    0 -0.00000000000E+00 -0.00000000000E+00 -0.45593999997E+02  0.45594000000E+02  0.51100000000E-03 0. -1.
    9900012    2    1    2    0    0  0.31876703197E+02  0.20137832150E+02 -0.15215666840E+02  0.50528769710E+02  0.29999726009E+02 0.  0.
        -12    1    1    2    0    0 -0.31876703197E+02 -0.20137832150E+02  0.15215666840E+02  0.40659230290E+02  0.00000000000E+00 0.  1.
         11    1    3    3    0    0  0.24452787360E+02  0.17850881373E+02 -0.68722080483E+01  0.31045450862E+02  0.51100000000E-03 0. -1.
        -11    1    3    3    0    0 -0.54842389550E+00  0.77096642929E+01 -0.53032060448E+01  0.93735631908E+01  0.51100000000E-03 0.  1.
        -12    1    3    3    0    0  0.79723397323E+01 -0.54227135161E+01 -0.30402527471E+01  0.10109755657E+02  0.00000000000E+00 0.  1.
</event>
<event>
 7    1  0.1369731E-013  0.5052885E+02  0.7816164E-02  0.1300439E+00
        -11   -1    0    0    0    0  0.00000000000E+00  0.00000000000E+00  0.45593999997E+02  0.45594000000E+02  0.51100000000E-03 0. -1.
         11   -1    0    0    0    0 -0.00000000000E+00 -0.00000000000E+00 -0.45593999997E+02  0.45594000000E+02  0.51100000000E-03 0.  1.
    9900012    2    1    2    0    0  0.32369500712E+02 -0.14322510727E+02 -0.20006183207E+02  0.50528852734E+02  0.29999978370E+02 0.  0.
         12    1    1    2    0    0 -0.32369500712E+02  0.14322510727E+02  0.20006183207E+02  0.40659147266E+02  0.00000000000E+00 0. -1.
         11    1    3    3    0    0  0.29453484629E+02 -0.12067931346E+02 -0.71910396016E+01  0.32632097306E+02  0.51100000000E-03 0. -1.
        -11    1    3    3    0    0  0.67331708037E+00 -0.42210375253E+01 -0.14037070037E+02  0.14673440263E+02  0.51100000000E-03 0.  1.
         12    1    3    3    0    0  0.22426990025E+01  0.19664581440E+01  0.12219264311E+01  0.32233151647E+01  0.00000000000E+00 0. -1.
</event>
<event>
 7    1  0.1369731E-013  0.5052887E+02  0.7816164E-02  0.1300439E+00
        -11   -1    0    0    0    0  0.00000000000E+00  0.00000000000E+00  0.45593999997E+02  0.45594000000E+02  0.51100000000E-03 0. -1.
         11   -1    0    0    0    0 -0.00000000000E+00 -0.00000000000E+00 -0.45593999997E+02  0.45594000000E+02  0.51100000000E-03 0.  1.
    9900012    2    1    2    0    0  0.39642675438E+02  0.19114512005E+01  0.88300499624E+01  0.50528866414E+02  0.30000019953E+02 0.  0.
        -12    1    1    2    0    0 -0.39642675438E+02 -0.19114512005E+01 -0.88300499624E+01  0.40659133586E+02  0.00000000000E+00 0.  1.
         11    1    3    3    0    0  0.12455566443E+02 -0.11821000511E+01  0.17120156313E+02  0.21204675154E+02  0.51100000000E-03 0. -1.
        -11    1    3    3    0    0  0.15576276106E+02  0.43381776216E+01 -0.68429518021E+01  0.17557509847E+02  0.51100000000E-03 0.  1.
         12    1    3    3    0    0  0.11610832890E+02 -0.12446263700E+01 -0.14471545484E+01  0.11766681413E+02  0.00000000000E+00 0. -1.
</event>
<event>
 7    1  0.1369731E-013  0.5052886E+02  0.7816164E-02  0.1300439E+00
        -11   -1    0    0    0    0  0.00000000000E+00  0.00000000000E+00  0.45593999997E+02  0.45594000000E+02  0.51100000000E-03 0. -1.
         11   -1    0    0    0    0 -0.00000000000E+00 -0.00000000000E+00 -0.45593999997E+02  0.45594000000E+02  0.51100000000E-03 0.  1.
    9900012    2    1    2    0    0  0.17075923683E+02 -0.18417629329E+01  0.36853578602E+02  0.50528861837E+02  0.30000006041E+02 0.  0.
        -12    1    1    2    0    0 -0.17075923683E+02  0.18417629329E+01 -0.36853578602E+02  0.40659138163E+02  0.00000000000E+00 0.  1.
         11    1    3    3    0    0 -0.30186937407E+01  0.83394843500E+01  0.16797077185E+02  0.18994770684E+02  0.51100000000E-03 0. -1.
        -11    1    3    3    0    0  0.98481035099E+01 -0.24218746949E+01  0.38457058102E+01  0.10846200866E+02  0.51100000000E-03 0.  1.
        -12    1    3    3    0    0  0.10246513913E+02 -0.77593725879E+01  0.16210795607E+02  0.20687890288E+02  0.00000000000E+00 0.  1.
</event>
<event>
 7    1  0.1369731E-013  0.5052885E+02  0.7816164E-02  0.1300439E+00
        -11   -1    0    0    0    0  0.00000000000E+00  0.00000000000E+00  0.45593999997E+02  0.45594000000E+02  0.51100000000E-03 0. -1.
         11   -1    0    0    0    0 -0.00000000000E+00 -0.00000000000E+00 -0.45593999997E+02  0.45594000000E+02  0.51100000000E-03 0.  1.
    9900012    2    1    2    0    0 -0.28617348338E+02 -0.26061889639E+02  0.12449563781E+02  0.50528851512E+02  0.29999974655E+02 0.  0.
        -12    1    1    2    0    0  0.28617348338E+02  0.26061889639E+02 -0.12449563781E+02  0.40659148488E+02  0.00000000000E+00 0.  1.
         11    1    3    3    0    0 -0.11618830291E+01  0.19040273147E+01  0.80497751117E+00  0.23713458716E+01  0.51100000000E-03 0.  1.
        -11    1    3    3    0    0 -0.10749749511E+02 -0.23311070282E+02 -0.24819049861E+01  0.25789977993E+02  0.51100000000E-03 0. -1.
        -12    1    3    3    0    0 -0.16705715798E+02 -0.46548466711E+01  0.14126491256E+02  0.22367527647E+02  0.00000000000E+00 0.  1.
</event>
<event>
 7    1  0.1369731E-013  0.5052886E+02  0.7816164E-02  0.1300439E+00
        -11   -1    0    0    0    0  0.00000000000E+00  0.00000000000E+00  0.45593999997E+02  0.45594000000E+02  0.51100000000E-03 0.  1.
         11   -1    0    0    0    0 -0.00000000000E+00 -0.00000000000E+00 -0.45593999997E+02  0.45594000000E+02  0.51100000000E-03 0. -1.
    9900012    2    1    2    0    0  0.31143255963E+02 -0.23547513516E+02 -0.11348021872E+02  0.50528863448E+02  0.30000010937E+02 0.  0.
         12    1    1    2    0    0 -0.31143255963E+02  0.23547513516E+02  0.11348021872E+02  0.40659136552E+02  0.00000000000E+00 0. -1.
         11    1    3    3    0    0  0.14749021593E+00 -0.19380382815E+01 -0.97847511433E+01  0.99759260694E+01  0.51100000000E-03 0. -1.
        -11    1    3    3    0    0  0.15263425191E+02 -0.11852805501E+02  0.64608850191E+01  0.20376559628E+02  0.51100000000E-03 0.  1.
         12    1    3    3    0    0  0.15732340556E+02 -0.97566697333E+01 -0.80241557479E+01  0.20176377750E+02  0.00000000000E+00 0. -1.
</event>
<event>
 7    1  0.1369731E-013  0.5052886E+02  0.7816164E-02  0.1300439E+00
        -11   -1    0    0    0    0  0.00000000000E+00  0.00000000000E+00  0.45593999997E+02  0.45594000000E+02  0.51100000000E-03 0. -1.
         11   -1    0    0    0    0 -0.00000000000E+00 -0.00000000000E+00 -0.45593999997E+02  0.45594000000E+02  0.51100000000E-03 0.  1.
    9900012    2    1    2    0    0 -0.25843322269E+02 -0.27360522116E+02  0.15384748975E+02  0.50528856165E+02  0.29999988799E+02 0.  0.
        -12    1    1    2    0    0  0.25843322269E+02  0.27360522116E+02 -0.15384748975E+02  0.40659143835E+02  0.00000000000E+00 0.  1.
         11    1    3    3    0    0 -0.13327790796E+02 -0.14217409530E+01  0.55444171551E+01  0.14504892854E+02  0.51100000000E-03 0. -1.
        -11    1    3    3    0    0 -0.47944705123E+01 -0.18325205777E+02 -0.30427709430E+01  0.19184852607E+02  0.51100000000E-03 0.  1.
        -12    1    3    3    0    0 -0.77210609606E+01 -0.76135753857E+01  0.12883102763E+02  0.16839110705E+02  0.00000000000E+00 0.  1.
</event>
<event>
 7    1  0.1369731E-013  0.5052887E+02  0.7816164E-02  0.1300439E+00
        -11   -1    0    0    0    0  0.00000000000E+00  0.00000000000E+00  0.45593999997E+02  0.45594000000E+02  0.51100000000E-03 0. -1.
         11   -1    0    0    0    0 -0.00000000000E+00 -0.00000000000E+00 -0.45593999997E+02  0.45594000000E+02  0.51100000000E-03 0.  1.
    9900012    2    1    2    0    0  0.91540005925E+01  0.14152033329E+02  0.37001208105E+02  0.50528866027E+02  0.30000018775E+02 0.  0.
        -12    1    1    2    0    0 -0.91540005925E+01 -0.14152033329E+02 -0.37001208105E+02  0.40659133973E+02  0.00000000000E+00 0.  1.
         11    1    3    3    0    0  0.49838196081E+00 -0.78720776767E+01  0.12454405517E+02  0.14742123612E+02  0.51100000000E-03 0. -1.
        -11    1    3    3    0    0  0.30849208125E+01  0.19268618549E+02  0.20841513195E+02  0.28551095771E+02  0.51100000000E-03 0.  1.
        -12    1    3    3    0    0  0.55706978192E+01  0.27554924561E+01  0.37052893932E+01  0.72356466439E+01  0.00000000000E+00 0.  1.
</event>
<event>
 7    1  0.1369731E-013  0.5052887E+02  0.7816164E-02  0.1300439E+00
        -11   -1    0    0    0    0  0.00000000000E+00  0.00000000000E+00  0.45593999997E+02  0.45594000000E+02  0.51100000000E-03 0. -1.
         11   -1    0    0    0    0 -0.00000000000E+00 -0.00000000000E+00 -0.45593999997E+02  0.45594000000E+02  0.51100000000E-03 0.  1.
    9900012    2    1    2    0    0 -0.18445737199E+01 -0.31130489818E+02 -0.26089365349E+02  0.50528870240E+02  0.30000031582E+02 0.  0.
         12    1    1    2    0    0  0.18445737199E+01  0.31130489818E+02  0.26089365349E+02  0.40659129760E+02  0.00000000000E+00 0. -1.
         11    1    3    3    0    0  0.20944038455E+01 -0.90091457654E+01  0.60261419216E+01  0.11039276317E+02  0.51100000000E-03 0. -1.
        -11    1    3    3    0    0 -0.36786275370E+01 -0.12122332804E+02 -0.14694756584E+02  0.19401523767E+02  0.51100000000E-03 0.  1.
         12    1    3    3    0    0 -0.26035002832E+00 -0.99990112488E+01 -0.17420750687E+02  0.20088070156E+02  0.00000000000E+00 0. -1.
</event>
<event>
 7    1  0.1369731E-013  0.5052885E+02  0.7816164E-02  0.1300439E+00
        -11   -1    0    0    0    0  0.00000000000E+00  0.00000000000E+00  0.45593999997E+02  0.45594000000E+02  0.51100000000E-03 0. -1.
         11   -1    0    0    0    0 -0.00000000000E+00 -0.00000000000E+00 -0.45593999997E+02  0.45594000000E+02  0.51100000000E-03 0.  1.
    9900012    2    1    2    0    0  0.19412647745E+02 -0.13697676905E+01 -0.35699287730E+02  0.50528852193E+02  0.29999976725E+02 0.  0.
         12    1    1    2    0    0 -0.19412647745E+02  0.13697676905E+01  0.35699287730E+02  0.40659147807E+02  0.00000000000E+00 0. -1.
         11    1    3    3    0    0  0.15553279297E+02  0.90019007446E+01 -0.29570733770E+02  0.34602991342E+02  0.51100000000E-03 0. -1.
        -11    1    3    3    0    0  0.65007725622E+01 -0.91666585859E+01 -0.65263988398E+01  0.12995443648E+02  0.51100000000E-03 0.  1.
         12    1    3    3    0    0 -0.26414041140E+01 -0.12050098491E+01  0.39784487972E+00  0.29304172021E+01  0.00000000000E+00 0. -1.
</event>
<event>
 7    1  0.1369731E-013  0.5052886E+02  0.7816164E-02  0.1300439E+00
        -11   -1    0    0    0    0  0.00000000000E+00  0.00000000000E+00  0.45593999997E+02  0.45594000000E+02  0.51100000000E-03 0. -1.
         11   -1    0    0    0    0 -0.00000000000E+00 -0.00000000000E+00 -0.45593999997E+02  0.45594000000E+02  0.51100000000E-03 0.  1.
    9900012    2    1    2    0    0  0.23849734946E+02  0.50276443820E+01 -0.32543484697E+02  0.50528862512E+02  0.30000008092E+02 0.  0.
         12    1    1    2    0    0 -0.23849734946E+02 -0.50276443820E+01  0.32543484697E+02  0.40659137488E+02  0.00000000000E+00 0. -1.
         11    1    3    3    0    0  0.39973207185E+01 -0.34735975045E+01  0.22522574682E+01  0.57547473023E+01  0.51100000000E-03 0. -1.
        -11    1    3    3    0    0  0.22419745545E+02  0.94260747942E+01 -0.34224956709E+02  0.41986230342E+02  0.51100000000E-03 0.  1.
        -12    1    3    3    0    0 -0.25673313173E+01 -0.92483290774E+00 -0.57078545617E+00  0.27878848680E+01  0.00000000000E+00 0.  1.
</event>
<event>
 7    1  0.1369731E-013  0.5052886E+02  0.7816164E-02  0.1300439E+00
        -11   -1    0    0    0    0  0.00000000000E+00  0.00000000000E+00  0.45593999997E+02  0.45594000000E+02  0.51100000000E-03 0. -1.
         11   -1    0    0    0    0 -0.00000000000E+00 -0.00000000000E+00 -0.45593999997E+02  0.45594000000E+02  0.51100000000E-03 0.  1.
    9900012    2    1    2    0    0  0.20423589419E+02 -0.10946988776E+02  0.33409670253E+02  0.50528860382E+02  0.30000001617E+02 0.  0.
        -12    1    1    2    0    0 -0.20423589419E+02  0.10946988776E+02 -0.33409670253E+02  0.40659139618E+02  0.00000000000E+00 0.  1.
         11    1    3    3    0    0  0.13031755444E+02 -0.16970324441E+02  0.31264201897E+02  0.37884942683E+02  0.51100000000E-03 0. -1.
        -11    1    3    3    0    0  0.72074727190E+01  0.13611598520E+01  0.29561840160E+01  0.79081883725E+01  0.51100000000E-03 0.  1.
         12    1    3    3    0    0  0.18436125645E+00  0.46621758124E+01 -0.81071565930E+00  0.47357293270E+01  0.00000000000E+00 0. -1.
</event>
<event>
 7    1  0.1369731E-013  0.5052886E+02  0.7816164E-02  0.1300439E+00
        -11   -1    0    0    0    0  0.00000000000E+00  0.00000000000E+00  0.45593999997E+02  0.45594000000E+02  0.51100000000E-03 0. -1.
         11   -1    0    0    0    0 -0.00000000000E+00 -0.00000000000E+00 -0.45593999997E+02  0.45594000000E+02  0.51100000000E-03 0.  1.
    9900012    2    1    2    0    0 -0.31797498271E+01 -0.19808424103E+02 -0.35364976059E+02  0.50528855813E+02  0.29999987728E+02 0.  0.
         12    1    1    2    0    0  0.31797498271E+01  0.19808424103E+02  0.35364976059E+02  0.40659144187E+02  0.00000000000E+00 0. -1.
         11    1    3    3    0    0  0.17671428057E+01  0.50369464408E+01  0.95645436233E+00  0.54229538401E+01  0.51100000000E-03 0. -1.
        -11    1    3    3    0    0  0.23209340326E+01 -0.56816165122E+01 -0.10191395349E+02  0.11896723935E+02  0.51100000000E-03 0.  1.
         12    1    3    3    0    0 -0.72678266654E+01 -0.19163754032E+02 -0.26130035072E+02  0.33209178037E+02  0.00000000000E+00 0. -1.
</event>
<event>
 7    1  0.1369731E-013  0.5052885E+02  0.7816164E-02  0.1300439E+00
        -11   -1    0    0    0    0  0.00000000000E+00  0.00000000000E+00  0.45593999997E+02  0.45594000000E+02  0.51100000000E-03 0.  1.
         11   -1    0    0    0    0 -0.00000000000E+00 -0.00000000000E+00 -0.45593999997E+02  0.45594000000E+02  0.51100000000E-03 0. -1.
    9900012    2    1    2    0    0  0.17670054058E+02 -0.33905806251E+02 -0.13832278200E+02  0.50528850622E+02  0.29999971952E+02 0.  0.
         12    1    1    2    0    0 -0.17670054058E+02  0.33905806251E+02  0.13832278200E+02  0.40659149378E+02  0.00000000000E+00 0. -1.
         11    1    3    3    0    0 -0.66420065473E+01 -0.11859043367E+02 -0.35360398066E+01  0.14044811794E+02  0.51100000000E-03 0. -1.
        -11    1    3    3    0    0  0.19784581647E+02 -0.22949607647E+02 -0.97749105667E+01  0.31838075302E+02  0.51100000000E-03 0.  1.
         12    1    3    3    0    0  0.45274789580E+01  0.90284476341E+00 -0.52132782669E+00  0.46459635260E+01  0.00000000000E+00 0. -1.
</event>
<event>
 7    1  0.1369731E-013  0.5052886E+02  0.7816164E-02  0.1300439E+00
        -11   -1    0    0    0    0  0.00000000000E+00  0.00000000000E+00  0.45593999997E+02  0.45594000000E+02  0.51100000000E-03 0. -1.
         11   -1    0    0    0    0 -0.00000000000E+00 -0.00000000000E+00 -0.45593999997E+02  0.45594000000E+02  0.51100000000E-03 0.  1.
    9900012    2    1    2    0    0 -0.14411921574E+02 -0.81440477143E+00 -0.38010508498E+02  0.50528862099E+02  0.30000006836E+02 0.  0.
         12    1    1    2    0    0  0.14411921574E+02  0.81440477143E+00  0.38010508498E+02  0.40659137901E+02  0.00000000000E+00 0. -1.
         11    1    3    3    0    0  0.65792648113E+01  0.14955526409E-02 -0.11305808141E+01  0.66756977862E+01  0.51100000000E-03 0. -1.
        -11    1    3    3    0    0 -0.14275913750E+02 -0.57492620304E+01 -0.23527745703E+02  0.28114240972E+02  0.51100000000E-03 0.  1.
         12    1    3    3    0    0 -0.67152726356E+01  0.49333617064E+01 -0.13352181980E+02  0.15738923341E+02  0.00000000000E+00 0. -1.
</event>
<event>
 7    1  0.1369731E-013  0.5052886E+02  0.7816164E-02  0.1300439E+00
        -11   -1    0    0    0    0  0.00000000000E+00  0.00000000000E+00  0.45593999997E+02  0.45594000000E+02  0.51100000000E-03 0. -1.
         11   -1    0    0    0    0 -0.00000000000E+00 -0.00000000000E+00 -0.45593999997E+02  0.45594000000E+02  0.51100000000E-03 0.  1.
    9900012    2    1    2    0    0  0.25138046179E+02 -0.61880042214E+01 -0.31352077410E+02  0.50528861791E+02  0.30000005901E+02 0.  0.
         12    1    1    2    0    0 -0.25138046179E+02  0.61880042214E+01  0.31352077410E+02  0.40659138209E+02  0.00000000000E+00 0. -1.
         11    1    3    3    0    0  0.97993560889E+00  0.24762764837E+00  0.27034954544E+01  0.28862572967E+01  0.51100000000E-03 0. -1.
        -11    1    3    3    0    0  0.13433705003E+02  0.44614951882E+01 -0.27656064896E+02  0.31068107364E+02  0.51100000000E-03 0.  1.
        -12    1    3    3    0    0  0.10724405568E+02 -0.10897127058E+02 -0.63995079684E+01  0.16574497131E+02  0.00000000000E+00 0.  1.
</event>
<event>
 7    1  0.1369731E-013  0.5052885E+02  0.7816164E-02  0.1300439E+00
        -11   -1    0    0    0    0  0.00000000000E+00  0.00000000000E+00  0.45593999997E+02  0.45594000000E+02  0.51100000000E-03 0. -1.
         11   -1    0    0    0    0 -0.00000000000E+00 -0.00000000000E+00 -0.45593999997E+02  0.45594000000E+02  0.51100000000E-03 0.  1.
    9900012    2    1    2    0    0 -0.17259876617E+01  0.85262907640E+01 -0.39717628024E+02  0.50528847974E+02  0.29999963903E+02 0.  0.
         12    1    1    2    0    0  0.17259876617E+01 -0.85262907640E+01  0.39717628024E+02  0.40659152026E+02  0.00000000000E+00 0. -1.
         11    1    3    3    0    0 -0.61640690177E+01  0.90352059929E+01 -0.61752083413E+01  0.12560409727E+02  0.51100000000E-03 0. -1.
        -11    1    3    3    0    0  0.61257160284E+01 -0.49089074741E+01 -0.56279212659E+01  0.96589475351E+01  0.51100000000E-03 0.  1.
         12    1    3    3    0    0 -0.16876346724E+01  0.43999922452E+01 -0.27914498417E+02  0.28309490712E+02  0.00000000000E+00 0. -1.
</event>
<event>
 7    1  0.1369731E-013  0.5052886E+02  0.7816164E-02  0.1300439E+00
        -11   -1    0    0    0    0  0.00000000000E+00  0.00000000000E+00  0.45593999997E+02  0.45594000000E+02  0.51100000000E-03 0. -1.
         11   -1    0    0    0    0 -0.00000000000E+00 -0.00000000000E+00 -0.45593999997E+02  0.45594000000E+02  0.51100000000E-03 0.  1.
    9900012    2    1    2    0    0 -0.19950608889E+02 -0.18040297501E+02  0.30490760676E+02  0.50528860615E+02  0.30000002325E+02 0.  0.
        -12    1    1    2    0    0  0.19950608889E+02  0.18040297501E+02 -0.30490760676E+02  0.40659139385E+02  0.00000000000E+00 0.  1.
         11    1    3    3    0    0 -0.68758452052E+01 -0.46301542958E+01  0.18751078678E+02  0.20501671345E+02  0.51100000000E-03 0. -1.
        -11    1    3    3    0    0  0.14346827209E+01 -0.48592765264E+01 -0.43926326547E+01  0.67056770553E+01  0.51100000000E-03 0.  1.
        -12    1    3    3    0    0 -0.14509446405E+02 -0.85508666789E+01  0.16132314652E+02  0.23321512215E+02  0.00000000000E+00 0.  1.
</event>
<event>
 7    1  0.1369731E-013  0.5052888E+02  0.7816164E-02  0.1300439E+00
        -11   -1    0    0    0    0  0.00000000000E+00  0.00000000000E+00  0.45593999997E+02  0.45594000000E+02  0.51100000000E-03 0. -1.
         11   -1    0    0    0    0 -0.00000000000E+00 -0.00000000000E+00 -0.45593999997E+02  0.45594000000E+02  0.51100000000E-03 0.  1.
    9900012    2    1    2    0    0 -0.29639499294E+02  0.10216658250E+02 -0.25889844804E+02  0.50528879398E+02  0.30000059418E+02 0.  0.
         12    1    1    2    0    0  0.29639499294E+02 -0.10216658250E+02  0.25889844804E+02  0.40659120602E+02  0.00000000000E+00 0. -1.
         11    1    3    3    0    0 -0.10329033315E+01  0.10581114931E+02 -0.16790308912E+01  0.10763179245E+02  0.51100000000E-03 0. -1.
        -11    1    3    3    0    0 -0.26716022952E+02  0.83341963321E+00 -0.25697886762E+02  0.37078590250E+02  0.51100000000E-03 0.  1.
        -12    1    3    3    0    0 -0.18905730103E+01 -0.11978763135E+01  0.14870728494E+01  0.26871099027E+01  0.00000000000E+00 0.  1.
</event>
<event>
 7    1  0.1369731E-013  0.5052883E+02  0.7816164E-02  0.1300439E+00
        -11   -1    0    0    0    0  0.00000000000E+00  0.00000000000E+00  0.45593999997E+02  0.45594000000E+02  0.51100000000E-03 0.  1.
         11   -1    0    0    0    0 -0.00000000000E+00 -0.00000000000E+00 -0.45593999997E+02  0.45594000000E+02  0.51100000000E-03 0. -1.
    9900012    2    1    2    0    0  0.29385757994E+02  0.14375733919E+02  0.24145052378E+02  0.50528830642E+02  0.29999911218E+02 0.  0.
        -12    1    1    2    0    0 -0.29385757994E+02 -0.14375733919E+02 -0.24145052378E+02  0.40659169358E+02  0.00000000000E+00 0.  1.
         11    1    3    3    0    0  0.12746860915E+02 -0.15292603375E+01 -0.33202458680E+01  0.13260661117E+02  0.51100000000E-03 0. -1.
        -11    1    3    3    0    0  0.12498139896E+02  0.60842106707E+01  0.11341511329E+02  0.17940206237E+02  0.51100000000E-03 0.  1.
         12    1    3    3    0    0  0.41407571822E+01  0.98207835861E+01  0.16123786917E+02  0.19327963287E+02  0.00000000000E+00 0. -1.
</event>
<event>
 7    1  0.1369731E-013  0.5052887E+02  0.7816164E-02  0.1300439E+00
        -11   -1    0    0    0    0  0.00000000000E+00  0.00000000000E+00  0.45593999997E+02  0.45594000000E+02  0.51100000000E-03 0. -1.
         11   -1    0    0    0    0 -0.00000000000E+00 -0.00000000000E+00 -0.45593999997E+02  0.45594000000E+02  0.51100000000E-03 0.  1.
    9900012    2    1    2    0    0 -0.25002488651E+02  0.35409214576E+01 -0.31866951604E+02  0.50528866118E+02  0.30000019052E+02 0.  0.
         12    1    1    2    0    0  0.25002488651E+02 -0.35409214576E+01  0.31866951604E+02  0.40659133882E+02  0.00000000000E+00 0. -1.
         11    1    3    3    0    0 -0.15910870373E+02 -0.31113962374E+01 -0.13623890606E+02  0.21176566720E+02  0.51100000000E-03 0. -1.
        -11    1    3    3    0    0  0.48416950630E+01 -0.13820893847E+01 -0.47112620852E-02  0.50350972789E+01  0.51100000000E-03 0.  1.
        -12    1    3    3    0    0 -0.13933313341E+02  0.80344070797E+01 -0.18238349736E+02  0.24317202119E+02  0.00000000000E+00 0.  1.
</event>
<event>
 7    1  0.1369731E-013  0.5052881E+02  0.7816164E-02  0.1300439E+00
        -11   -1    0    0    0    0  0.00000000000E+00  0.00000000000E+00  0.45593999997E+02  0.45594000000E+02  0.51100000000E-03 0. -1.
         11   -1    0    0    0    0 -0.00000000000E+00 -0.00000000000E+00 -0.45593999997E+02  0.45594000000E+02  0.51100000000E-03 0.  1.
    9900012    2    1    2    0    0 -0.57914775821E+00 -0.21417635713E+01 -0.40598612435E+02  0.50528807989E+02  0.29999842364E+02 0.  0.
         12    1    1    2    0    0  0.57914775821E+00  0.21417635713E+01  0.40598612435E+02  0.40659192011E+02  0.00000000000E+00 0. -1.
         11    1    3    3    0    0 -0.11479551309E+02 -0.18014342493E+00 -0.31113209575E+02  0.33163901463E+02  0.51100000000E-03 0. -1.
        -11    1    3    3    0    0  0.22600095071E+01  0.32155384972E+01 -0.68549718534E+00  0.39896412685E+01  0.51100000000E-03 0.  1.
         12    1    3    3    0    0  0.86403940434E+01 -0.51771586435E+01 -0.87999056744E+01  0.13375265258E+02  0.00000000000E+00 0. -1.
</event>
<event>
 7    1  0.1817126E-013  0.5052887E+02  0.7816164E-02  0.1300439E+00
        -11   -1    0    0    0    0  0.00000000000E+00  0.00000000000E+00  0.45593999997E+02  0.45594000000E+02  0.51100000000E-03 0. -1.
         11   -1    0    0    0    0 -0.00000000000E+00 -0.00000000000E+00 -0.45593999997E+02  0.45594000000E+02  0.51100000000E-03 0.  1.
    9900012    2    1    2    0    0 -0.32729428438E+01 -0.44169347885E+01  0.40285768362E+02  0.50528873099E+02  0.30000040273E+02 0.  0.
        -12    1    1    2    0    0  0.32729428438E+01  0.44169347885E+01 -0.40285768362E+02  0.40659126901E+02  0.00000000000E+00 0.  1.
         11    1    3    3    0    0  0.48243814641E+01 -0.19623385321E+00  0.36221807007E+02  0.36542201184E+02  0.51100000000E-03 0. -1.
        -11    1    3    3    0    0 -0.72991895897E+00 -0.67476459057E+00 -0.30131581467E+01  0.31728868902E+01  0.51100000000E-03 0.  1.
         12    1    3    3    0    0 -0.73674053489E+01 -0.35459363447E+01  0.70771195021E+01  0.10813785026E+02  0.00000000000E+00 0. -1.
</event>
<event>
 7    1  0.1369731E-013  0.5052885E+02  0.7816164E-02  0.1300439E+00
        -11   -1    0    0    0    0  0.00000000000E+00  0.00000000000E+00  0.45593999997E+02  0.45594000000E+02  0.51100000000E-03 0. -1.
         11   -1    0    0    0    0 -0.00000000000E+00 -0.00000000000E+00 -0.45593999997E+02  0.45594000000E+02  0.51100000000E-03 0.  1.
    9900012    2    1    2    0    0  0.34778969940E+01 -0.40497630494E+02  0.10062378480E+01  0.50528851488E+02  0.29999974583E+02 0.  0.
         12    1    1    2    0    0 -0.34778969940E+01  0.40497630494E+02 -0.10062378480E+01  0.40659148512E+02  0.00000000000E+00 0. -1.
         11    1    3    3    0    0 -0.54056907027E+01 -0.14676688768E+02  0.56291333866E+01  0.16622690158E+02  0.51100000000E-03 0. -1.
        -11    1    3    3    0    0  0.14789987302E+02 -0.15297636011E+02 -0.97995410830E+00  0.21300744171E+02  0.51100000000E-03 0.  1.
        -12    1    3    3    0    0 -0.59063996055E+01 -0.10523305715E+02 -0.36429414304E+01  0.12605417158E+02  0.00000000000E+00 0.  1.
</event>
<event>
 7    1  0.1369731E-013  0.5052887E+02  0.7816164E-02  0.1300439E+00
        -11   -1    0    0    0    0  0.00000000000E+00  0.00000000000E+00  0.45593999997E+02  0.45594000000E+02  0.51100000000E-03 0. -1.
         11   -1    0    0    0    0 -0.00000000000E+00 -0.00000000000E+00 -0.45593999997E+02  0.45594000000E+02  0.51100000000E-03 0.  1.
    9900012    2    1    2    0    0 -0.15277643024E+02  0.23856081963E+01  0.37604089166E+02  0.50528867879E+02  0.30000024405E+02 0.  0.
        -12    1    1    2    0    0  0.15277643024E+02 -0.23856081963E+01 -0.37604089166E+02  0.40659132121E+02  0.00000000000E+00 0.  1.
         11    1    3    3    0    0 -0.14411523036E+01 -0.37222944500E+01  0.33840628459E+02  0.34075218718E+02  0.51100000000E-03 0. -1.
        -11    1    3    3    0    0 -0.71365470779E+01  0.79191697192E+00  0.32610680089E+01  0.78861905572E+01  0.51100000000E-03 0.  1.
         12    1    3    3    0    0 -0.66999436422E+01  0.53159856743E+01  0.50239269793E+00  0.85674586034E+01  0.00000000000E+00 0. -1.
</event>
<event>
 7    1  0.1369731E-013  0.5052886E+02  0.7816164E-02  0.1300439E+00
        -11   -1    0    0    0    0  0.00000000000E+00  0.00000000000E+00  0.45593999997E+02  0.45594000000E+02  0.51100000000E-03 0.  1.
         11   -1    0    0    0    0 -0.00000000000E+00 -0.00000000000E+00 -0.45593999997E+02  0.45594000000E+02  0.51100000000E-03 0. -1.
    9900012    2    1    2    0    0 -0.29861309559E+02 -0.21057173289E+02  0.17834331020E+02  0.50528859350E+02  0.29999998479E+02 0.  0.
        -12    1    1    2    0    0  0.29861309559E+02  0.21057173289E+02 -0.17834331020E+02  0.40659140650E+02  0.00000000000E+00 0.  1.
         11    1    3    3    0    0 -0.88180946708E+01 -0.19106735418E+01 -0.67656756780E+00  0.90480501182E+01  0.51100000000E-03 0. -1.
        -11    1    3    3    0    0 -0.18238918120E+02 -0.10324629015E+02  0.23064543891E+02  0.31164551716E+02  0.51100000000E-03 0.  1.
        -12    1    3    3    0    0 -0.28042967685E+01 -0.88218707321E+01 -0.45536453035E+01  0.10316257516E+02  0.00000000000E+00 0.  1.
</event>
<event>
 7    1  0.1695322E-013  0.5052886E+02  0.7816164E-02  0.1300439E+00
        -11   -1    0    0    0    0  0.00000000000E+00  0.00000000000E+00  0.45593999997E+02  0.45594000000E+02  0.51100000000E-03 0. -1.
         11   -1    0    0    0    0 -0.00000000000E+00 -0.00000000000E+00 -0.45593999997E+02  0.45594000000E+02  0.51100000000E-03 0.  1.
    9900012    2    1    2    0    0  0.80410197323E+01 -0.19976274100E+02 -0.34488490186E+02  0.50528862275E+02  0.30000007371E+02 0.  0.
         12    1    1    2    0    0 -0.80410197323E+01  0.19976274100E+02  0.34488490186E+02  0.40659137725E+02  0.00000000000E+00 0. -1.
         11    1    3    3    0    0 -0.21899653557E+01 -0.37889767497E+00  0.40102395611E+01  0.45849245693E+01  0.51100000000E-03 0. -1.
        -11    1    3    3    0    0  0.17216141268E+01 -0.15262014826E+02 -0.21121295837E+02  0.26115171641E+02  0.51100000000E-03 0.  1.
         12    1    3    3    0    0  0.85093709613E+01 -0.43353615985E+01 -0.17377433910E+02  0.19828766064E+02  0.00000000000E+00 0. -1.
</event>
<event>
 7    1  0.1369731E-013  0.5052886E+02  0.7816164E-02  0.1300439E+00
        -11   -1    0    0    0    0  0.00000000000E+00  0.00000000000E+00  0.45593999997E+02  0.45594000000E+02  0.51100000000E-03 0. -1.
         11   -1    0    0    0    0 -0.00000000000E+00 -0.00000000000E+00 -0.45593999997E+02  0.45594000000E+02  0.51100000000E-03 0.  1.
    9900012    2    1    2    0    0 -0.11808829701E+02  0.43133602894E+01 -0.38666675470E+02  0.50528864153E+02  0.30000013081E+02 0.  0.
         12    1    1    2    0    0  0.11808829701E+02 -0.43133602894E+01  0.38666675470E+02  0.40659135847E+02  0.00000000000E+00 0. -1.
         11    1    3    3    0    0 -0.14247229739E+01  0.14428317772E+01 -0.12155780195E+01  0.23641550864E+01  0.51100000000E-03 0. -1.
        -11    1    3    3    0    0 -0.78958985933E+01 -0.34077361883E+01  0.14156408777E+01  0.87156135687E+01  0.51100000000E-03 0.  1.
        -12    1    3    3    0    0 -0.24882081336E+01  0.62782647005E+01 -0.38866738328E+02  0.39449095498E+02  0.00000000000E+00 0.  1.
</event>
<event>
 7    1  0.1369731E-013  0.5052886E+02  0.7816164E-02  0.1300439E+00
        -11   -1    0    0    0    0  0.00000000000E+00  0.00000000000E+00  0.45593999997E+02  0.45594000000E+02  0.51100000000E-03 0. -1.
         11   -1    0    0    0    0 -0.00000000000E+00 -0.00000000000E+00 -0.45593999997E+02  0.45594000000E+02  0.51100000000E-03 0.  1.
    9900012    2    1    2    0    0 -0.73732330128E+01 -0.13624440116E+02  0.37592232754E+02  0.50528857154E+02  0.29999991806E+02 0.  0.
        -12    1    1    2    0    0  0.73732330128E+01  0.13624440116E+02 -0.37592232754E+02  0.40659142846E+02  0.00000000000E+00 0.  1.
         11    1    3    3    0    0  0.20736738360E+01 -0.34724734744E+01 -0.29793427288E+01  0.50234130395E+01  0.51100000000E-03 0.  1.
        -11    1    3    3    0    0 -0.33073341990E+01  0.26643843062E+01  0.20358074262E+02  0.20796360046E+02  0.51100000000E-03 0. -1.
         12    1    3    3    0    0 -0.61395726498E+01 -0.12816350948E+02  0.20213501220E+02  0.24709084069E+02  0.00000000000E+00 0. -1.
</event>
<event>
 7    1  0.1369731E-013  0.5052886E+02  0.7816164E-02  0.1300439E+00
        -11   -1    0    0    0    0  0.00000000000E+00  0.00000000000E+00  0.45593999997E+02  0.45594000000E+02  0.51100000000E-03 0. -1.
         11   -1    0    0    0    0 -0.00000000000E+00 -0.00000000000E+00 -0.45593999997E+02  0.45594000000E+02  0.51100000000E-03 0.  1.
    9900012    2    1    2    0    0 -0.11283039960E+02 -0.18714925819E+01  0.39017381919E+02  0.50528861212E+02  0.30000004139E+02 0.  0.
        -12    1    1    2    0    0  0.11283039960E+02  0.18714925819E+01 -0.39017381919E+02  0.40659138788E+02  0.00000000000E+00 0.  1.
         11    1    3    3    0    0 -0.12026754207E+02 -0.79241308324E+01  0.96353264886E+01  0.17328421250E+02  0.51100000000E-03 0. -1.
        -11    1    3    3    0    0 -0.62424848910E+00  0.10337822573E+02  0.24291928935E+02  0.26407538192E+02  0.51100000000E-03 0.  1.
         12    1    3    3    0    0  0.13679627358E+01 -0.42851843220E+01  0.50901264952E+01  0.67929017701E+01  0.00000000000E+00 0. -1.
</event>
<event>
 7    1  0.1369731E-013  0.5052887E+02  0.7816164E-02  0.1300439E+00
        -11   -1    0    0    0    0  0.00000000000E+00  0.00000000000E+00  0.45593999997E+02  0.45594000000E+02  0.51100000000E-03 0. -1.
         11   -1    0    0    0    0 -0.00000000000E+00 -0.00000000000E+00 -0.45593999997E+02  0.45594000000E+02  0.51100000000E-03 0.  1.
    9900012    2    1    2    0    0  0.35794820401E+02  0.94057315679E+01  0.16835314546E+02  0.50528871016E+02  0.30000033941E+02 0.  0.
        -12    1    1    2    0    0 -0.35794820401E+02 -0.94057315679E+01 -0.16835314546E+02  0.40659128984E+02  0.00000000000E+00 0.  1.
         11    1    3    3    0    0  0.19351882020E+02 -0.34549557614E-01 -0.49955173305E+01  0.19986288426E+02  0.51100000000E-03 0. -1.
        -11    1    3    3    0    0 -0.85705618492E+00 -0.27880229244E+00  0.31977485305E+01  0.33223292955E+01  0.51100000000E-03 0.  1.
         12    1    3    3    0    0  0.17299994566E+02  0.97190834179E+01  0.18633083346E+02  0.27220253295E+02  0.00000000000E+00 0. -1.
</event>
<event>
 7    1  0.1369731E-013  0.5052887E+02  0.7816164E-02  0.1300439E+00
        -11   -1    0    0    0    0  0.00000000000E+00  0.00000000000E+00  0.45593999997E+02  0.45594000000E+02  0.51100000000E-03 0. -1.
         11   -1    0    0    0    0 -0.00000000000E+00 -0.00000000000E+00 -0.45593999997E+02  0.45594000000E+02  0.51100000000E-03 0.  1.
    9900012    2    1    2    0    0 -0.15845847884E+02 -0.23095222671E+02  0.29473458692E+02  0.50528868520E+02  0.30000026355E+02 0.  0.
        -12    1    1    2    0    0  0.15845847884E+02  0.23095222671E+02 -0.29473458692E+02  0.40659131480E+02  0.00000000000E+00 0.  1.
         11    1    3    3    0    0 -0.62548217643E+01 -0.55858726654E+01  0.10525371291E+02  0.13457645032E+02  0.51100000000E-03 0. -1.
        -11    1    3    3    0    0  0.17458415312E+01 -0.16344613670E+02  0.18754100074E+01  0.16544229255E+02  0.51100000000E-03 0.  1.
        -12    1    3    3    0    0 -0.11336867651E+02 -0.11647363353E+01  0.17072677394E+02  0.20526994234E+02  0.00000000000E+00 0.  1.
</event>
<event>
 7    1  0.1369731E-013  0.5052886E+02  0.7816164E-02  0.1300439E+00
        -11   -1    0    0    0    0  0.00000000000E+00  0.00000000000E+00  0.45593999997E+02  0.45594000000E+02  0.51100000000E-03 0. -1.
         11   -1    0    0    0    0 -0.00000000000E+00 -0.00000000000E+00 -0.45593999997E+02  0.45594000000E+02  0.51100000000E-03 0.  1.
    9900012    2    1    2    0    0 -0.31639579387E+02  0.94089723426E+01 -0.23739710198E+02  0.50528860995E+02  0.30000003480E+02 0.  0.
         12    1    1    2    0    0  0.31639579387E+02 -0.94089723426E+01  0.23739710198E+02  0.40659139005E+02  0.00000000000E+00 0. -1.
         11    1    3    3    0    0 -0.13499226037E+02 -0.93209261635E+01 -0.10568274106E+02  0.19514025366E+02  0.51100000000E-03 0. -1.
        -11    1    3    3    0    0 -0.18071944798E+02  0.13251996105E+02 -0.90907355183E+01  0.24183714812E+02  0.51100000000E-03 0.  1.
         12    1    3    3    0    0 -0.68408551888E-01  0.54779024010E+01 -0.40807005739E+01  0.68311208172E+01  0.00000000000E+00 0. -1.
</event>
<event>
 7    1  0.1369731E-013  0.5052886E+02  0.7816164E-02  0.1300439E+00
        -11   -1    0    0    0    0  0.00000000000E+00  0.00000000000E+00  0.45593999997E+02  0.45594000000E+02  0.51100000000E-03 0. -1.
         11   -1    0    0    0    0 -0.00000000000E+00 -0.00000000000E+00 -0.45593999997E+02  0.45594000000E+02  0.51100000000E-03 0.  1.
    9900012    2    1    2    0    0  0.15133194571E+02 -0.10714382478E+02  0.36184998484E+02  0.50528859759E+02  0.29999999724E+02 0.  0.
        -12    1    1    2    0    0 -0.15133194571E+02  0.10714382478E+02 -0.36184998484E+02  0.40659140241E+02  0.00000000000E+00 0.  1.
         11    1    3    3    0    0 -0.84179902433E+01  0.12094154653E+01  0.66111788755E+01  0.10771858330E+02  0.51100000000E-03 0. -1.
        -11    1    3    3    0    0  0.21530404079E+02 -0.11781219884E+02  0.27184784106E+02  0.36624690154E+02  0.51100000000E-03 0.  1.
         12    1    3    3    0    0  0.20207807354E+01 -0.14257805944E+00  0.23890355034E+01  0.31323112744E+01  0.00000000000E+00 0. -1.
</event>
<event>
 7    1  0.1369731E-013  0.5052886E+02  0.7816164E-02  0.1300439E+00
        -11   -1    0    0    0    0  0.00000000000E+00  0.00000000000E+00  0.45593999997E+02  0.45594000000E+02  0.51100000000E-03 0. -1.
         11   -1    0    0    0    0 -0.00000000000E+00 -0.00000000000E+00 -0.45593999997E+02  0.45594000000E+02  0.51100000000E-03 0.  1.
    9900012    2    1    2    0    0  0.22318997125E+02 -0.11700324953E+02 -0.31908159955E+02  0.50528857013E+02  0.29999991378E+02 0.  0.
         12    1    1    2    0    0 -0.22318997125E+02  0.11700324953E+02  0.31908159955E+02  0.40659142987E+02  0.00000000000E+00 0. -1.
         11    1    3    3    0    0 -0.11355674408E+01 -0.31446951723E+01 -0.76457264958E+01  0.83448040749E+01  0.51100000000E-03 0. -1.
        -11    1    3    3    0    0  0.26555811832E+02 -0.28650306883E+01 -0.23648027643E+02  0.35674202929E+02  0.51100000000E-03 0.  1.
        -12    1    3    3    0    0 -0.31012472665E+01 -0.56905990926E+01 -0.61440581599E+00  0.65098500096E+01  0.00000000000E+00 0.  1.
</event>
<event>
 7    1  0.1369731E-013  0.5052883E+02  0.7816164E-02  0.1300439E+00
        -11   -1    0    0    0    0  0.00000000000E+00  0.00000000000E+00  0.45593999997E+02  0.45594000000E+02  0.51100000000E-03 0. -1.
         11   -1    0    0    0    0 -0.00000000000E+00 -0.00000000000E+00 -0.45593999997E+02  0.45594000000E+02  0.51100000000E-03 0.  1.
    9900012    2    1    2    0    0  0.13212951312E+02  0.40326106768E+01  0.38240345293E+02  0.50528830808E+02  0.29999911723E+02 0.  0.
        -12    1    1    2    0    0 -0.13212951312E+02 -0.40326106768E+01 -0.38240345293E+02  0.40659169192E+02  0.00000000000E+00 0.  1.
         11    1    3    3    0    0 -0.32260168144E+01  0.55733782485E+01  0.21143790344E+01  0.67779295179E+01  0.51100000000E-03 0.  1.
        -11    1    3    3    0    0  0.60702479390E+01 -0.60033816651E+01  0.34995606142E+01  0.92268860517E+01  0.51100000000E-03 0. -1.
        -12    1    3    3    0    0  0.10368720187E+02  0.44626140934E+01  0.32626405645E+02  0.34524015238E+02  0.00000000000E+00 0.  1.
</event>
<event>
 7    1  0.1369731E-013  0.5052886E+02  0.7816164E-02  0.1300439E+00
        -11   -1    0    0    0    0  0.00000000000E+00  0.00000000000E+00  0.45593999997E+02  0.45594000000E+02  0.51100000000E-03 0. -1.
         11   -1    0    0    0    0 -0.00000000000E+00 -0.00000000000E+00 -0.45593999997E+02  0.45594000000E+02  0.51100000000E-03 0.  1.
    9900012    2    1    2    0    0  0.10391636739E+02  0.35766709756E+02  0.16307127239E+02  0.50528855399E+02  0.29999986470E+02 0.  0.
        -12    1    1    2    0    0 -0.10391636739E+02 -0.35766709756E+02 -0.16307127239E+02  0.40659144601E+02  0.00000000000E+00 0.  1.
         11    1    3    3    0    0  0.82612077524E+01  0.95840179121E+01  0.79933824218E+01  0.14966466372E+02  0.51100000000E-03 0. -1.
        -11    1    3    3    0    0 -0.19118527475E+01  0.81971775155E+01 -0.75006496982E+01  0.11274247039E+02  0.51100000000E-03 0.  1.
        -12    1    3    3    0    0  0.40422817341E+01  0.17985514329E+02  0.15814394516E+02  0.24288141987E+02  0.00000000000E+00 0.  1.
</event>
<event>
 7    1  0.1369731E-013  0.5052886E+02  0.7816164E-02  0.1300439E+00
        -11   -1    0    0    0    0  0.00000000000E+00  0.00000000000E+00  0.45593999997E+02  0.45594000000E+02  0.51100000000E-03 0. -1.
         11   -1    0    0    0    0 -0.00000000000E+00 -0.00000000000E+00 -0.45593999997E+02  0.45594000000E+02  0.51100000000E-03 0.  1.
    9900012    2    1    2    0    0 -0.32940635909E+02  0.14278328643E+02  0.19084273085E+02  0.50528860288E+02  0.30000001330E+02 0.  0.
        -12    1    1    2    0    0  0.32940635909E+02 -0.14278328643E+02 -0.19084273085E+02  0.40659139712E+02  0.00000000000E+00 0.  1.
         11    1    3    3    0    0 -0.32853695607E+02  0.10029558212E+01  0.15696988197E+02  0.36424808499E+02  0.51100000000E-03 0. -1.
        -11    1    3    3    0    0 -0.16148700295E+01  0.45784108784E+01  0.99837724025E+00  0.49564512263E+01  0.51100000000E-03 0.  1.
         12    1    3    3    0    0  0.15279297274E+01  0.86969619437E+01  0.23889076478E+01  0.91476005626E+01  0.00000000000E+00 0. -1.
</event>
<event>
 7    1  0.1369731E-013  0.5052887E+02  0.7816164E-02  0.1300439E+00
        -11   -1    0    0    0    0  0.00000000000E+00  0.00000000000E+00  0.45593999997E+02  0.45594000000E+02  0.51100000000E-03 0. -1.
         11   -1    0    0    0    0 -0.00000000000E+00 -0.00000000000E+00 -0.45593999997E+02  0.45594000000E+02  0.51100000000E-03 0.  1.
    9900012    2    1    2    0    0 -0.25740505892E+02  0.11752437408E+02 -0.29197119364E+02  0.50528865630E+02  0.30000017568E+02 0.  0.
         12    1    1    2    0    0  0.25740505892E+02 -0.11752437408E+02  0.29197119364E+02  0.40659134370E+02  0.00000000000E+00 0. -1.
         11    1    3    3    0    0 -0.59938364217E+01 -0.68138188851E+01 -0.15725212553E+02  0.18155894716E+02  0.51100000000E-03 0. -1.
        -11    1    3    3    0    0 -0.20140034433E+02  0.13282301396E+02 -0.10678696542E+02  0.26383234779E+02  0.51100000000E-03 0.  1.
         12    1    3    3    0    0  0.39336496247E+00  0.52839548972E+01 -0.27932102689E+01  0.59897361340E+01  0.00000000000E+00 0. -1.
</event>
<event>
 7    1  0.1369731E-013  0.5052879E+02  0.7816164E-02  0.1300439E+00
        -11   -1    0    0    0    0  0.00000000000E+00  0.00000000000E+00  0.45593999997E+02  0.45594000000E+02  0.51100000000E-03 0. -1.
         11   -1    0    0    0    0 -0.00000000000E+00 -0.00000000000E+00 -0.45593999997E+02  0.45594000000E+02  0.51100000000E-03 0.  1.
    9900012    2    1    2    0    0 -0.27033076690E+01 -0.18099135102E+02 -0.36308196722E+02  0.50528785632E+02  0.29999774407E+02 0.  0.
         12    1    1    2    0    0  0.27033076690E+01  0.18099135102E+02  0.36308196722E+02  0.40659214368E+02  0.00000000000E+00 0. -1.
         11    1    3    3    0    0  0.29675407884E+01  0.20400484744E+01 -0.21249241597E+01  0.41813154694E+01  0.51100000000E-03 0. -1.
        -11    1    3    3    0    0 -0.11381280127E+01 -0.22501170503E+02 -0.16460646769E+02  0.27902525006E+02  0.51100000000E-03 0.  1.
        -12    1    3    3    0    0 -0.45327204448E+01  0.23619869262E+01 -0.17722625793E+02  0.18444945158E+02  0.00000000000E+00 0.  1.
</event>
<event>
 7    1  0.1369731E-013  0.5052887E+02  0.7816164E-02  0.1300439E+00
        -11   -1    0    0    0    0  0.00000000000E+00  0.00000000000E+00  0.45593999997E+02  0.45594000000E+02  0.51100000000E-03 0. -1.
         11   -1    0    0    0    0 -0.00000000000E+00 -0.00000000000E+00 -0.45593999997E+02  0.45594000000E+02  0.51100000000E-03 0.  1.
    9900012    2    1    2    0    0  0.21399025479E+02 -0.32390615713E+02  0.12086974113E+02  0.50528865467E+02  0.30000017075E+02 0.  0.
        -12    1    1    2    0    0 -0.21399025479E+02  0.32390615713E+02 -0.12086974113E+02  0.40659134533E+02  0.00000000000E+00 0.  1.
         11    1    3    3    0    0  0.62768380434E+01 -0.82786025356E+01  0.34445231126E+01  0.10945259042E+02  0.51100000000E-03 0. -1.
        -11    1    3    3    0    0  0.33879522555E+01 -0.11247518497E+02 -0.89981027206E+01  0.14796984343E+02  0.51100000000E-03 0.  1.
        -12    1    3    3    0    0  0.11734235180E+02 -0.12864494681E+02  0.17640553721E+02  0.24786622082E+02  0.00000000000E+00 0.  1.
</event>
<event>
 7    1  0.1369731E-013  0.5052887E+02  0.7816164E-02  0.1300439E+00
        -11   -1    0    0    0    0  0.00000000000E+00  0.00000000000E+00  0.45593999997E+02  0.45594000000E+02  0.51100000000E-03 0.  1.
         11   -1    0    0    0    0 -0.00000000000E+00 -0.00000000000E+00 -0.45593999997E+02  0.45594000000E+02  0.51100000000E-03 0. -1.
    9900012    2    1    2    0    0  0.37754635654E+02  0.14031951503E+02  0.55548937524E+01  0.50528867927E+02  0.30000024550E+02 0.  0.
         12    1    1    2    0    0 -0.37754635654E+02 -0.14031951503E+02 -0.55548937524E+01  0.40659132073E+02  0.00000000000E+00 0. -1.
         11    1    3    3    0    0  0.14700482245E+02  0.20122380792E+02 -0.31229854093E+01  0.25115083617E+02  0.51100000000E-03 0. -1.
        -11    1    3    3    0    0  0.18686797154E+02 -0.45899906737E+01  0.74622800913E+01  0.20638556798E+02  0.51100000000E-03 0.  1.
         12    1    3    3    0    0  0.43673562552E+01 -0.15004386147E+01  0.12155990704E+01  0.47752275125E+01  0.00000000000E+00 0. -1.
</event>
<event>
 7    1  0.1515160E-013  0.5052886E+02  0.7816164E-02  0.1300439E+00
        -11   -1    0    0    0    0  0.00000000000E+00  0.00000000000E+00  0.45593999997E+02  0.45594000000E+02  0.51100000000E-03 0. -1.
         11   -1    0    0    0    0 -0.00000000000E+00 -0.00000000000E+00 -0.45593999997E+02  0.45594000000E+02  0.51100000000E-03 0.  1.
    9900012    2    1    2    0    0  0.11606745008E+02 -0.57971309504E+01  0.38533652342E+02  0.50528860563E+02  0.30000002168E+02 0.  0.
        -12    1    1    2    0    0 -0.11606745008E+02  0.57971309504E+01 -0.38533652342E+02  0.40659139437E+02  0.00000000000E+00 0.  1.
         11    1    3    3    0    0  0.15170655671E+02 -0.89264614257E+01  0.21889959466E+02  0.28089158634E+02  0.51100000000E-03 0. -1.
        -11    1    3    3    0    0 -0.23223800168E+01 -0.27997457625E+01 -0.10103413919E+01  0.37752900904E+01  0.51100000000E-03 0.  1.
         12    1    3    3    0    0 -0.12415306463E+01  0.59290762378E+01  0.17654034267E+02  0.18664411839E+02  0.00000000000E+00 0. -1.
</event>
<event>
 7    1  0.1369731E-013  0.5052884E+02  0.7816164E-02  0.1300439E+00
        -11   -1    0    0    0    0  0.00000000000E+00  0.00000000000E+00  0.45593999997E+02  0.45594000000E+02  0.51100000000E-03 0. -1.
         11   -1    0    0    0    0 -0.00000000000E+00 -0.00000000000E+00 -0.45593999997E+02  0.45594000000E+02  0.51100000000E-03 0.  1.
    9900012    2    1    2    0    0 -0.14464830216E+02 -0.21996206340E+02  0.30985525784E+02  0.50528840951E+02  0.29999942553E+02 0.  0.
        -12    1    1    2    0    0  0.14464830216E+02  0.21996206340E+02 -0.30985525784E+02  0.40659159049E+02  0.00000000000E+00 0.  1.
         11    1    3    3    0    0  0.31160444169E+01  0.42596162864E+01  0.29651282567E+01  0.60535980669E+01  0.51100000000E-03 0.  1.
        -11    1    3    3    0    0 -0.18172384727E+02 -0.22518280819E+02  0.18796497437E+02  0.34505316313E+02  0.51100000000E-03 0. -1.
        -12    1    3    3    0    0  0.59151009400E+00 -0.37375418069E+01  0.92239000898E+01  0.99699265702E+01  0.00000000000E+00 0.  1.
</event>
<event>
 7    1  0.1369731E-013  0.5052887E+02  0.7816164E-02  0.1300439E+00
        -11   -1    0    0    0    0  0.00000000000E+00  0.00000000000E+00  0.45593999997E+02  0.45594000000E+02  0.51100000000E-03 0. -1.
         11   -1    0    0    0    0 -0.00000000000E+00 -0.00000000000E+00 -0.45593999997E+02  0.45594000000E+02  0.51100000000E-03 0.  1.
    9900012    2    1    2    0    0  0.24515488721E+02  0.25566221467E+01  0.32336042147E+02  0.50528866638E+02  0.30000020633E+02 0.  0.
        -12    1    1    2    0    0 -0.24515488721E+02 -0.25566221467E+01 -0.32336042147E+02  0.40659133362E+02  0.00000000000E+00 0.  1.
         11    1    3    3    0    0  0.28823003456E+01  0.63066970239E+01  0.24317268058E+02  0.25286589503E+02  0.51100000000E-03 0. -1.
        -11    1    3    3    0    0  0.11522163697E+02  0.15631482233E+01  0.64241388135E+00  0.11645444796E+02  0.51100000000E-03 0.  1.
         12    1    3    3    0    0  0.10111024678E+02 -0.53132231005E+01  0.73763602075E+01  0.13596832340E+02  0.00000000000E+00 0. -1.
</event>
<event>
 7    1  0.1369731E-013  0.5052881E+02  0.7816164E-02  0.1300439E+00
        -11   -1    0    0    0    0  0.00000000000E+00  0.00000000000E+00  0.45593999997E+02  0.45594000000E+02  0.51100000000E-03 0. -1.
         11   -1    0    0    0    0 -0.00000000000E+00 -0.00000000000E+00 -0.45593999997E+02  0.45594000000E+02  0.51100000000E-03 0.  1.
    9900012    2    1    2    0    0  0.30058730166E+02 -0.32208643515E+01  0.27189499257E+02  0.50528805514E+02  0.29999834840E+02 0.  0.
        -12    1    1    2    0    0 -0.30058730166E+02  0.32208643515E+01 -0.27189499257E+02  0.40659194486E+02  0.00000000000E+00 0.  1.
         11    1    3    3    0    0  0.20095145376E+02 -0.44470012903E+01  0.13663295427E+02  0.24703771582E+02  0.51100000000E-03 0. -1.
        -11    1    3    3    0    0 -0.37182046807E+01 -0.20175788470E+01  0.10668393162E+02  0.11476510070E+02  0.51100000000E-03 0.  1.
        -12    1    3    3    0    0  0.13681789471E+02  0.32437157858E+01  0.28578106673E+01  0.14348523863E+02  0.00000000000E+00 0.  1.
</event>
<event>
 7    1  0.1369731E-013  0.5052888E+02  0.7816164E-02  0.1300439E+00
        -11   -1    0    0    0    0  0.00000000000E+00  0.00000000000E+00  0.45593999997E+02  0.45594000000E+02  0.51100000000E-03 0. -1.
         11   -1    0    0    0    0 -0.00000000000E+00 -0.00000000000E+00 -0.45593999997E+02  0.45594000000E+02  0.51100000000E-03 0.  1.
    9900012    2    1    2    0    0  0.34807933810E+02  0.20963255685E+02 -0.14538524292E+01  0.50528880089E+02  0.30000061518E+02 0.  0.
        -12    1    1    2    0    0 -0.34807933810E+02 -0.20963255685E+02  0.14538524292E+01  0.40659119911E+02  0.00000000000E+00 0.  1.
         11    1    3    3    0    0  0.13784144664E+01 -0.33974173725E+01  0.64290930804E+01  0.74010613659E+01  0.51100000000E-03 0. -1.
        -11    1    3    3    0    0  0.50402698876E+01  0.68824744692E+01 -0.44268924221E+01  0.96109391912E+01  0.51100000000E-03 0.  1.
         12    1    3    3    0    0  0.28389249456E+02  0.17478198589E+02 -0.34560530875E+01  0.33516879532E+02  0.00000000000E+00 0. -1.
</event>
<event>
 7    1  0.1369731E-013  0.5052888E+02  0.7816164E-02  0.1300439E+00
        -11   -1    0    0    0    0  0.00000000000E+00  0.00000000000E+00  0.45593999997E+02  0.45594000000E+02  0.51100000000E-03 0.  1.
         11   -1    0    0    0    0 -0.00000000000E+00 -0.00000000000E+00 -0.45593999997E+02  0.45594000000E+02  0.51100000000E-03 0. -1.
    9900012    2    1    2    0    0  0.34913611345E+02  0.10726360249E+02  0.17864752264E+02  0.50528875134E+02  0.30000046458E+02 0.  0.
        -12    1    1    2    0    0 -0.34913611345E+02 -0.10726360249E+02 -0.17864752264E+02  0.40659124866E+02  0.00000000000E+00 0.  1.
         11    1    3    3    0    0  0.32195138410E+02  0.19606563534E+02  0.12555652326E+02  0.39731457014E+02  0.51100000000E-03 0. -1.
        -11    1    3    3    0    0  0.75213726170E+00 -0.49400456637E+01  0.29174122075E+01  0.57862816964E+01  0.51100000000E-03 0.  1.
         12    1    3    3    0    0  0.19663356739E+01 -0.39401576211E+01  0.23916877303E+01  0.50111364241E+01  0.00000000000E+00 0. -1.
</event>
<event>
 7    1  0.1369731E-013  0.5052893E+02  0.7816164E-02  0.1300439E+00
        -11   -1    0    0    0    0  0.00000000000E+00  0.00000000000E+00  0.45593999997E+02  0.45594000000E+02  0.51100000000E-03 0. -1.
         11   -1    0    0    0    0 -0.00000000000E+00 -0.00000000000E+00 -0.45593999997E+02  0.45594000000E+02  0.51100000000E-03 0.  1.
    9900012    2    1    2    0    0 -0.17953663761E+02  0.11489586289E+02  0.34623915155E+02  0.50528927997E+02  0.30000207138E+02 0.  0.
        -12    1    1    2    0    0  0.17953663761E+02 -0.11489586289E+02 -0.34623915155E+02  0.40659072003E+02  0.00000000000E+00 0.  1.
         11    1    3    3    0    0  0.15329596309E+01  0.29508741262E+01  0.44712646834E+01  0.55722375639E+01  0.51100000000E-03 0.  1.
        -11    1    3    3    0    0 -0.11691150062E+02 -0.10648161292E+01 -0.65588603149E+00  0.11757848864E+02  0.51100000000E-03 0. -1.
        -12    1    3    3    0    0 -0.77954733306E+01  0.96035282919E+01  0.30808536503E+02  0.33198841569E+02  0.00000000000E+00 0.  1.
</event>
<event>
 7    1  0.1369731E-013  0.5052883E+02  0.7816164E-02  0.1300439E+00
        -11   -1    0    0    0    0  0.00000000000E+00  0.00000000000E+00  0.45593999997E+02  0.45594000000E+02  0.51100000000E-03 0.  1.
         11   -1    0    0    0    0 -0.00000000000E+00 -0.00000000000E+00 -0.45593999997E+02  0.45594000000E+02  0.51100000000E-03 0. -1.
    9900012    2    1    2    0    0 -0.29713259168E+02  0.69231168698E+01  0.26876767076E+02  0.50528832202E+02  0.29999915960E+02 0.  0.
        -12    1    1    2    0    0  0.29713259168E+02 -0.69231168698E+01 -0.26876767076E+02  0.40659167798E+02  0.00000000000E+00 0.  1.
         11    1    3    3    0    0 -0.70629677767E+01 -0.48135224005E+01  0.93558579783E+01  0.12672315909E+02  0.51100000000E-03 0. -1.
        -11    1    3    3    0    0 -0.94966488316E+01  0.91019915755E+01 -0.28556042352E+01  0.13460574486E+02  0.51100000000E-03 0.  1.
        -12    1    3    3    0    0 -0.13153642560E+02  0.26346476947E+01  0.20376513333E+02  0.24395941808E+02  0.00000000000E+00 0.  1.
</event>
<event>
 7    1  0.1369731E-013  0.5052894E+02  0.7816164E-02  0.1300439E+00
        -11   -1    0    0    0    0  0.00000000000E+00  0.00000000000E+00  0.45593999997E+02  0.45594000000E+02  0.51100000000E-03 0. -1.
         11   -1    0    0    0    0 -0.00000000000E+00 -0.00000000000E+00 -0.45593999997E+02  0.45594000000E+02  0.51100000000E-03 0.  1.
    9900012    2    1    2    0    0  0.13334240332E+02  0.24434400003E+02 -0.29636419750E+02  0.50528938964E+02  0.30000240475E+02 0.  0.
         12    1    1    2    0    0 -0.13334240332E+02 -0.24434400003E+02  0.29636419750E+02  0.40659061036E+02  0.00000000000E+00 0. -1.
         11    1    3    3    0    0  0.19414673585E+01  0.72882655216E+01  0.30664372211E+01  0.81419375649E+01  0.51100000000E-03 0. -1.
        -11    1    3    3    0    0  0.40890252501E+01  0.38329262058E+01 -0.24490235970E+02  0.25123357836E+02  0.51100000000E-03 0.  1.
        -12    1    3    3    0    0  0.73037477237E+01  0.13313208275E+02 -0.82126210003E+01  0.17263643564E+02  0.00000000000E+00 0.  1.
</event>
<event>
 7    1  0.1369731E-013  0.5052886E+02  0.7816164E-02  0.1300439E+00
        -11   -1    0    0    0    0  0.00000000000E+00  0.00000000000E+00  0.45593999997E+02  0.45594000000E+02  0.51100000000E-03 0. -1.
         11   -1    0    0    0    0 -0.00000000000E+00 -0.00000000000E+00 -0.45593999997E+02  0.45594000000E+02  0.51100000000E-03 0.  1.
    9900012    2    1    2    0    0 -0.19322439525E+02 -0.15832331340E+02 -0.32080310753E+02  0.50528859295E+02  0.29999998313E+02 0.  0.
         12    1    1    2    0    0  0.19322439525E+02  0.15832331340E+02  0.32080310753E+02  0.40659140705E+02  0.00000000000E+00 0. -1.
         11    1    3    3    0    0 -0.15476492901E+02 -0.20285851410E+02 -0.23034631937E+02  0.34374872635E+02  0.51100000000E-03 0. -1.
        -11    1    3    3    0    0  0.31766580695E+01  0.48523738196E+01 -0.64051853369E+01  0.86407804993E+01  0.51100000000E-03 0.  1.
        -12    1    3    3    0    0 -0.70226046940E+01 -0.39885374995E+00 -0.26404934791E+01  0.75132061608E+01  0.00000000000E+00 0.  1.
</event>
<event>
 7    1  0.1369731E-013  0.5052885E+02  0.7816164E-02  0.1300439E+00
        -11   -1    0    0    0    0  0.00000000000E+00  0.00000000000E+00  0.45593999997E+02  0.45594000000E+02  0.51100000000E-03 0. -1.
         11   -1    0    0    0    0 -0.00000000000E+00 -0.00000000000E+00 -0.45593999997E+02  0.45594000000E+02  0.51100000000E-03 0.  1.
    9900012    2    1    2    0    0 -0.13576076314E+02  0.35480608973E+02 -0.14490801623E+02  0.50528846137E+02  0.29999958319E+02 0.  0.
         12    1    1    2    0    0  0.13576076314E+02 -0.35480608973E+02  0.14490801623E+02  0.40659153863E+02  0.00000000000E+00 0. -1.
         11    1    3    3    0    0 -0.64755674165E+01  0.90994392631E+00  0.51520970280E+01  0.83249669886E+01  0.51100000000E-03 0. -1.
        -11    1    3    3    0    0 -0.73593535257E+01  0.15608332317E+02 -0.14539871539E+02  0.22565194142E+02  0.51100000000E-03 0.  1.
         12    1    3    3    0    0  0.25884462864E+00  0.18962332730E+02 -0.51030271119E+01  0.19638685007E+02  0.00000000000E+00 0. -1.
</event>
<event>
 7    1  0.1369731E-013  0.5052886E+02  0.7816164E-02  0.1300439E+00
        -11   -1    0    0    0    0  0.00000000000E+00  0.00000000000E+00  0.45593999997E+02  0.45594000000E+02  0.51100000000E-03 0. -1.
         11   -1    0    0    0    0 -0.00000000000E+00 -0.00000000000E+00 -0.45593999997E+02  0.45594000000E+02  0.51100000000E-03 0.  1.
    9900012    2    1    2    0    0  0.40219978535E+02 -0.46552716323E+01 -0.37211774422E+01  0.50528863402E+02  0.30000010797E+02 0.  0.
         12    1    1    2    0    0 -0.40219978535E+02  0.46552716323E+01  0.37211774422E+01  0.40659136598E+02  0.00000000000E+00 0. -1.
         11    1    3    3    0    0  0.36753987334E+02 -0.98403878898E+01 -0.10532848436E+01  0.38063082218E+02  0.51100000000E-03 0. -1.
        -11    1    3    3    0    0 -0.32021128127E+01  0.92624613892E+00  0.13446320995E+01  0.35943697806E+01  0.51100000000E-03 0.  1.
        -12    1    3    3    0    0  0.66681040142E+01  0.42588701186E+01 -0.40125246981E+01  0.88714114032E+01  0.00000000000E+00 0.  1.
</event>
<event>
 7    1  0.1369731E-013  0.5052888E+02  0.7816164E-02  0.1300439E+00
        -11   -1    0    0    0    0  0.00000000000E+00  0.00000000000E+00  0.45593999997E+02  0.45594000000E+02  0.51100000000E-03 0. -1.
         11   -1    0    0    0    0 -0.00000000000E+00 -0.00000000000E+00 -0.45593999997E+02  0.45594000000E+02  0.51100000000E-03 0.  1.
    9900012    2    1    2    0    0 -0.11672879458E+02  0.20054602049E+02  0.33387430906E+02  0.50528883917E+02  0.30000073153E+02 0.  0.
        -12    1    1    2    0    0  0.11672879458E+02 -0.20054602049E+02 -0.33387430906E+02  0.40659116083E+02  0.00000000000E+00 0.  1.
         11    1    3    3    0    0 -0.51185295902E+01  0.10503972160E+02  0.10820220397E+02  0.15925135667E+02  0.51100000000E-03 0. -1.
        -11    1    3    3    0    0 -0.94027484244E+00 -0.78536448698E+01  0.76506350627E+01  0.11004366026E+02  0.51100000000E-03 0.  1.
        -12    1    3    3    0    0 -0.56140750256E+01  0.17404274759E+02  0.14916575446E+02  0.23599382223E+02  0.00000000000E+00 0.  1.
</event>
<event>
 7    1  0.1369731E-013  0.5052886E+02  0.7816164E-02  0.1300439E+00
        -11   -1    0    0    0    0  0.00000000000E+00  0.00000000000E+00  0.45593999997E+02  0.45594000000E+02  0.51100000000E-03 0. -1.
         11   -1    0    0    0    0 -0.00000000000E+00 -0.00000000000E+00 -0.45593999997E+02  0.45594000000E+02  0.51100000000E-03 0.  1.
    9900012    2    1    2    0    0 -0.36192318289E+02 -0.14352086610E+02 -0.11717470347E+02  0.50528863209E+02  0.30000010211E+02 0.  0.
         12    1    1    2    0    0  0.36192318289E+02  0.14352086610E+02  0.11717470347E+02  0.40659136791E+02  0.00000000000E+00 0. -1.
         11    1    3    3    0    0 -0.14541070011E+02  0.80406071290E+01 -0.79415789279E+01  0.18416371960E+02  0.51100000000E-03 0. -1.
        -11    1    3    3    0    0 -0.20012203154E+02 -0.17878531556E+02 -0.17257032329E+01  0.26890671572E+02  0.51100000000E-03 0.  1.
        -12    1    3    3    0    0 -0.16390451247E+01 -0.45141621827E+01 -0.20501881866E+01  0.52218196764E+01  0.00000000000E+00 0.  1.
</event>
<event>
 7    1  0.1767325E-013  0.5052885E+02  0.7816164E-02  0.1300439E+00
        -11   -1    0    0    0    0  0.00000000000E+00  0.00000000000E+00  0.45593999997E+02  0.45594000000E+02  0.51100000000E-03 0. -1.
         11   -1    0    0    0    0 -0.00000000000E+00 -0.00000000000E+00 -0.45593999997E+02  0.45594000000E+02  0.51100000000E-03 0.  1.
    9900012    2    1    2    0    0  0.26308289396E+02  0.20837074485E+01 -0.30930543652E+02  0.50528850251E+02  0.29999970823E+02 0.  0.
         12    1    1    2    0    0 -0.26308289396E+02 -0.20837074485E+01  0.30930543652E+02  0.40659149749E+02  0.00000000000E+00 0. -1.
         11    1    3    3    0    0 -0.30777945797E+01 -0.12502894452E+01  0.14912970199E+01  0.36414296964E+01  0.51100000000E-03 0. -1.
        -11    1    3    3    0    0  0.27569864946E+02 -0.16903218570E+00 -0.20576930902E+02  0.34402559652E+02  0.51100000000E-03 0.  1.
        -12    1    3    3    0    0  0.18162190297E+01  0.35030290794E+01 -0.11844909770E+02  0.12484860902E+02  0.00000000000E+00 0.  1.
</event>
<event>
 7    1  0.1849761E-013  0.5052890E+02  0.7816164E-02  0.1300439E+00
        -11   -1    0    0    0    0  0.00000000000E+00  0.00000000000E+00  0.45593999997E+02  0.45594000000E+02  0.51100000000E-03 0. -1.
         11   -1    0    0    0    0 -0.00000000000E+00 -0.00000000000E+00 -0.45593999997E+02  0.45594000000E+02  0.51100000000E-03 0.  1.
    9900012    2    1    2    0    0  0.24146326613E+02  0.21840574762E+01  0.32639655464E+02  0.50528901329E+02  0.30000126078E+02 0.  0.
        -12    1    1    2    0    0 -0.24146326613E+02 -0.21840574762E+01 -0.32639655464E+02  0.40659098671E+02  0.00000000000E+00 0.  1.
         11    1    3    3    0    0  0.24904969301E+02  0.46690145344E+01  0.21691368452E+02  0.33355249335E+02  0.51100000000E-03 0. -1.
        -11    1    3    3    0    0 -0.20627612623E+01 -0.38466025220E+01 -0.14756392729E+01  0.46074772395E+01  0.51100000000E-03 0.  1.
         12    1    3    3    0    0  0.13041185742E+01  0.13616454638E+01  0.12423926284E+02  0.12566174754E+02  0.00000000000E+00 0. -1.
</event>
<event>
 7    1  0.1369731E-013  0.5052886E+02  0.7816164E-02  0.1300439E+00
        -11   -1    0    0    0    0  0.00000000000E+00  0.00000000000E+00  0.45593999997E+02  0.45594000000E+02  0.51100000000E-03 0. -1.
         11   -1    0    0    0    0 -0.00000000000E+00 -0.00000000000E+00 -0.45593999997E+02  0.45594000000E+02  0.51100000000E-03 0.  1.
    9900012    2    1    2    0    0 -0.37237057202E+02 -0.29479995001E+01  0.16058538816E+02  0.50528858358E+02  0.29999995466E+02 0.  0.
        -12    1    1    2    0    0  0.37237057202E+02  0.29479995001E+01 -0.16058538816E+02  0.40659141642E+02  0.00000000000E+00 0.  1.
         11    1    3    3    0    0 -0.16777907524E+02  0.47702289486E+00  0.16294028249E+02  0.23392757182E+02  0.51100000000E-03 0. -1.
        -11    1    3    3    0    0 -0.88570395972E+01 -0.95087434252E+01 -0.38374879923E+01  0.13549526424E+02  0.51100000000E-03 0.  1.
        -12    1    3    3    0    0 -0.11602110081E+02  0.60837210302E+01  0.36019985594E+01  0.13586574753E+02  0.00000000000E+00 0.  1.
</event>
<event>
 7    1  0.1369731E-013  0.5052883E+02  0.7816164E-02  0.1300439E+00
        -11   -1    0    0    0    0  0.00000000000E+00  0.00000000000E+00  0.45593999997E+02  0.45594000000E+02  0.51100000000E-03 0. -1.
         11   -1    0    0    0    0 -0.00000000000E+00 -0.00000000000E+00 -0.45593999997E+02  0.45594000000E+02  0.51100000000E-03 0.  1.
    9900012    2    1    2    0    0  0.13365425520E+01  0.34528276537E+02  0.21428484124E+02  0.50528829344E+02  0.29999907273E+02 0.  0.
        -12    1    1    2    0    0 -0.13365425520E+01 -0.34528276537E+02 -0.21428484124E+02  0.40659170656E+02  0.00000000000E+00 0.  1.
         11    1    3    3    0    0 -0.99905442288E+01  0.22304036056E+02  0.72721309811E+01  0.25498331075E+02  0.51100000000E-03 0. -1.
        -11    1    3    3    0    0  0.29638751596E+01 -0.70224187529E+00 -0.12106888965E+01  0.32777229106E+01  0.51100000000E-03 0.  1.
         12    1    3    3    0    0  0.83632116211E+01  0.12926482357E+02  0.15367042039E+02  0.21752775358E+02  0.00000000000E+00 0. -1.
</event>
<event>
 7    1  0.1369731E-013  0.5052886E+02  0.7816164E-02  0.1300439E+00
        -11   -1    0    0    0    0  0.00000000000E+00  0.00000000000E+00  0.45593999997E+02  0.45594000000E+02  0.51100000000E-03 0.  1.
         11   -1    0    0    0    0 -0.00000000000E+00 -0.00000000000E+00 -0.45593999997E+02  0.45594000000E+02  0.51100000000E-03 0. -1.
    9900012    2    1    2    0    0 -0.13911440544E+02 -0.31234297429E+02 -0.22001281961E+02  0.50528856848E+02  0.29999990877E+02 0.  0.
         12    1    1    2    0    0  0.13911440544E+02  0.31234297429E+02  0.22001281961E+02  0.40659143152E+02  0.00000000000E+00 0. -1.
         11    1    3    3    0    0  0.59149095460E+01 -0.17949225110E+02 -0.93273448845E+01  0.21075108537E+02  0.51100000000E-03 0. -1.
        -11    1    3    3    0    0 -0.70483247754E+01 -0.34366465070E+01  0.14943173757E+01  0.79826315231E+01  0.51100000000E-03 0.  1.
         12    1    3    3    0    0 -0.12778025314E+02 -0.98484258116E+01 -0.14168254453E+02  0.21471116788E+02  0.00000000000E+00 0. -1.
</event>
<event>
 7    1  0.1369731E-013  0.5052886E+02  0.7816164E-02  0.1300439E+00
        -11   -1    0    0    0    0  0.00000000000E+00  0.00000000000E+00  0.45593999997E+02  0.45594000000E+02  0.51100000000E-03 0.  1.
         11   -1    0    0    0    0 -0.00000000000E+00 -0.00000000000E+00 -0.45593999997E+02  0.45594000000E+02  0.51100000000E-03 0. -1.
    9900012    2    1    2    0    0  0.17105353737E+02  0.27088269292E+02  0.25035933365E+02  0.50528863030E+02  0.30000009666E+02 0.  0.
         12    1    1    2    0    0 -0.17105353737E+02 -0.27088269292E+02 -0.25035933365E+02  0.40659136970E+02  0.00000000000E+00 0. -1.
         11    1    3    3    0    0  0.14286375755E+02  0.22526226267E+02  0.52790156980E+01  0.27191899695E+02  0.51100000000E-03 0. -1.
        -11    1    3    3    0    0  0.54456438730E+01  0.52989328037E+00  0.16847319428E+02  0.17713497573E+02  0.51100000000E-03 0.  1.
        -12    1    3    3    0    0 -0.26266658912E+01  0.40321497443E+01  0.29095982393E+01  0.56234657622E+01  0.00000000000E+00 0.  1.
</event>
<event>
 7    1  0.1369731E-013  0.5052886E+02  0.7816164E-02  0.1300439E+00
        -11   -1    0    0    0    0  0.00000000000E+00  0.00000000000E+00  0.45593999997E+02  0.45594000000E+02  0.51100000000E-03 0. -1.
         11   -1    0    0    0    0 -0.00000000000E+00 -0.00000000000E+00 -0.45593999997E+02  0.45594000000E+02  0.51100000000E-03 0.  1.
    9900012    2    1    2    0    0 -0.82369473964E+01  0.18214699849E+02  0.35405410485E+02  0.50528859766E+02  0.29999999743E+02 0.  0.
        -12    1    1    2    0    0  0.82369473964E+01 -0.18214699849E+02 -0.35405410485E+02  0.40659140234E+02  0.00000000000E+00 0.  1.
         11    1    3    3    0    0  0.11655128992E+01 -0.47978346945E+01 -0.20429673538E+01  0.53433466988E+01  0.51100000000E-03 0.  1.
        -11    1    3    3    0    0 -0.39283129962E+01  0.14984736247E+02  0.24710147798E+02  0.29164453841E+02  0.51100000000E-03 0. -1.
        -12    1    3    3    0    0 -0.54741472994E+01  0.80277982962E+01  0.12738230041E+02  0.16021059226E+02  0.00000000000E+00 0.  1.
</event>
<event>
 7    1  0.1369731E-013  0.5052886E+02  0.7816164E-02  0.1300439E+00
        -11   -1    0    0    0    0  0.00000000000E+00  0.00000000000E+00  0.45593999997E+02  0.45594000000E+02  0.51100000000E-03 0. -1.
         11   -1    0    0    0    0 -0.00000000000E+00 -0.00000000000E+00 -0.45593999997E+02  0.45594000000E+02  0.51100000000E-03 0.  1.
    9900012    2    1    2    0    0 -0.32284592252E+02  0.15692571891E+02  0.19094865929E+02  0.50528860630E+02  0.30000002372E+02 0.  0.
        -12    1    1    2    0    0  0.32284592252E+02 -0.15692571891E+02 -0.19094865929E+02  0.40659139370E+02  0.00000000000E+00 0.  1.
         11    1    3    3    0    0 -0.23147996753E+02  0.20387797963E+01  0.70009040286E+01  0.24269302301E+02  0.51100000000E-03 0. -1.
        -11    1    3    3    0    0 -0.52389725785E-02  0.56670042944E+01 -0.33789382871E+01  0.65978927946E+01  0.51100000000E-03 0.  1.
         12    1    3    3    0    0 -0.91313565271E+01  0.79867878003E+01  0.15472900187E+02  0.19661665535E+02  0.00000000000E+00 0. -1.
</event>
<event>
 7    1  0.1369731E-013  0.5052886E+02  0.7816164E-02  0.1300439E+00
        -11   -1    0    0    0    0  0.00000000000E+00  0.00000000000E+00  0.45593999997E+02  0.45594000000E+02  0.51100000000E-03 0. -1.
         11   -1    0    0    0    0 -0.00000000000E+00 -0.00000000000E+00 -0.45593999997E+02  0.45594000000E+02  0.51100000000E-03 0.  1.
    9900012    2    1    2    0    0 -0.23564395519E+02 -0.27633906005E+02  0.18282559098E+02  0.50528862473E+02  0.30000007974E+02 0.  0.
        -12    1    1    2    0    0  0.23564395519E+02  0.27633906005E+02 -0.18282559098E+02  0.40659137527E+02  0.00000000000E+00 0.  1.
         11    1    3    3    0    0 -0.75657374575E+01 -0.11663576285E+02  0.18128684145E+02  0.22845756370E+02  0.51100000000E-03 0. -1.
        -11    1    3    3    0    0 -0.98958452837E+01 -0.15167366920E+02 -0.59025487420E+01  0.19047751969E+02  0.51100000000E-03 0.  1.
        -12    1    3    3    0    0 -0.61028127775E+01 -0.80296279996E+00  0.60564236951E+01  0.86353541346E+01  0.00000000000E+00 0.  1.
</event>
<event>
 7    1  0.1369731E-013  0.5052886E+02  0.7816164E-02  0.1300439E+00
        -11   -1    0    0    0    0  0.00000000000E+00  0.00000000000E+00  0.45593999997E+02  0.45594000000E+02  0.51100000000E-03 0. -1.
         11   -1    0    0    0    0 -0.00000000000E+00 -0.00000000000E+00 -0.45593999997E+02  0.45594000000E+02  0.51100000000E-03 0.  1.
    9900012    2    1    2    0    0  0.20268327623E+02  0.27114306625E+02 -0.22520541048E+02  0.50528862066E+02  0.30000006737E+02 0.  0.
         12    1    1    2    0    0 -0.20268327623E+02 -0.27114306625E+02  0.22520541048E+02  0.40659137934E+02  0.00000000000E+00 0. -1.
         11    1    3    3    0    0  0.23225944560E+02  0.24119462698E+02 -0.21954695491E+02  0.40040000449E+02  0.51100000000E-03 0. -1.
        -11    1    3    3    0    0 -0.98264305956E+00  0.30398372583E+01  0.42307104991E+01  0.53014252355E+01  0.51100000000E-03 0.  1.
         12    1    3    3    0    0 -0.19749738778E+01 -0.44993330997E-01 -0.47965560559E+01  0.51874363818E+01  0.00000000000E+00 0. -1.
</event>
<event>
 7    1  0.1369731E-013  0.5052886E+02  0.7816164E-02  0.1300439E+00
        -11   -1    0    0    0    0  0.00000000000E+00  0.00000000000E+00  0.45593999997E+02  0.45594000000E+02  0.51100000000E-03 0.  1.
         11   -1    0    0    0    0 -0.00000000000E+00 -0.00000000000E+00 -0.45593999997E+02  0.45594000000E+02  0.51100000000E-03 0. -1.
    9900012    2    1    2    0    0  0.30090756786E+02  0.19550359068E+02  0.19117940674E+02  0.50528857863E+02  0.29999993962E+02 0.  0.
        -12    1    1    2    0    0 -0.30090756786E+02 -0.19550359068E+02 -0.19117940674E+02  0.40659142137E+02  0.00000000000E+00 0.  1.
         11    1    3    3    0    0  0.12601629291E+02  0.79996033924E+01  0.23628918560E+02  0.27948533196E+02  0.51100000000E-03 0.  1.
        -11    1    3    3    0    0  0.16851239880E+02  0.91109628287E+01 -0.54054408389E+01  0.19904590428E+02  0.51100000000E-03 0. -1.
        -12    1    3    3    0    0  0.63788761446E+00  0.24397928474E+01  0.89446295305E+00  0.26757342396E+01  0.00000000000E+00 0.  1.
</event>
<event>
 7    1  0.1369731E-013  0.5052885E+02  0.7816164E-02  0.1300439E+00
        -11   -1    0    0    0    0  0.00000000000E+00  0.00000000000E+00  0.45593999997E+02  0.45594000000E+02  0.51100000000E-03 0. -1.
         11   -1    0    0    0    0 -0.00000000000E+00 -0.00000000000E+00 -0.45593999997E+02  0.45594000000E+02  0.51100000000E-03 0.  1.
    9900012    2    1    2    0    0 -0.33271677622E+02 -0.96494051080E+01  0.21284985562E+02  0.50528853906E+02  0.29999981932E+02 0.  0.
        -12    1    1    2    0    0  0.33271677622E+02  0.96494051080E+01 -0.21284985562E+02  0.40659146094E+02  0.00000000000E+00 0.  1.
         11    1    3    3    0    0 -0.17349939938E+01 -0.58857776091E+01  0.13574934794E+02  0.14897363429E+02  0.51100000000E-03 0. -1.
        -11    1    3    3    0    0 -0.13810338241E+02  0.51705050520E+01  0.14515825616E+01  0.14817781784E+02  0.51100000000E-03 0.  1.
         12    1    3    3    0    0 -0.17726345388E+02 -0.89341325509E+01  0.62584682068E+01  0.20813708693E+02  0.00000000000E+00 0. -1.
</event>
<event>
 7    1  0.1369731E-013  0.5052889E+02  0.7816164E-02  0.1300439E+00
        -11   -1    0    0    0    0  0.00000000000E+00  0.00000000000E+00  0.45593999997E+02  0.45594000000E+02  0.51100000000E-03 0. -1.
         11   -1    0    0    0    0 -0.00000000000E+00 -0.00000000000E+00 -0.45593999997E+02  0.45594000000E+02  0.51100000000E-03 0.  1.
    9900012    2    1    2    0    0 -0.34405916179E+01  0.12712272297E+02 -0.38467175519E+02  0.50528891180E+02  0.30000095231E+02 0.  0.
         12    1    1    2    0    0  0.34405916179E+01 -0.12712272297E+02  0.38467175519E+02  0.40659108820E+02  0.00000000000E+00 0. -1.
         11    1    3    3    0    0 -0.85727913810E+01 -0.34340535909E+01 -0.24430759696E+02  0.26117953513E+02  0.51100000000E-03 0. -1.
        -11    1    3    3    0    0 -0.18255732708E+01  0.70760512909E+01 -0.15281596512E+01  0.74658215770E+01  0.51100000000E-03 0.  1.
         12    1    3    3    0    0  0.69577730339E+01  0.90702745969E+01 -0.12508256171E+02  0.16945116090E+02  0.00000000000E+00 0. -1.
</event>
<event>
 7    1  0.1369731E-013  0.5052886E+02  0.7816164E-02  0.1300439E+00
        -11   -1    0    0    0    0  0.00000000000E+00  0.00000000000E+00  0.45593999997E+02  0.45594000000E+02  0.51100000000E-03 0. -1.
         11   -1    0    0    0    0 -0.00000000000E+00 -0.00000000000E+00 -0.45593999997E+02  0.45594000000E+02  0.51100000000E-03 0.  1.
    9900012    2    1    2    0    0 -0.15473870940E+02 -0.23105968426E+02  0.29662084635E+02  0.50528859285E+02  0.29999998282E+02 0.  0.
        -12    1    1    2    0    0  0.15473870940E+02  0.23105968426E+02 -0.29662084635E+02  0.40659140715E+02  0.00000000000E+00 0.  1.
         11    1    3    3    0    0 -0.16446309227E+02 -0.17558981863E+02  0.20408145266E+02  0.31548238060E+02  0.51100000000E-03 0. -1.
        -11    1    3    3    0    0  0.55829606732E+01  0.27976964251E+01  0.65964936909E+01  0.90835171845E+01  0.51100000000E-03 0.  1.
        -12    1    3    3    0    0 -0.46105223864E+01 -0.83446829880E+01  0.26574456789E+01  0.98971040402E+01  0.00000000000E+00 0.  1.
</event>
<event>
 7    1  0.1369731E-013  0.5052886E+02  0.7816164E-02  0.1300439E+00
        -11   -1    0    0    0    0  0.00000000000E+00  0.00000000000E+00  0.45593999997E+02  0.45594000000E+02  0.51100000000E-03 0. -1.
         11   -1    0    0    0    0 -0.00000000000E+00 -0.00000000000E+00 -0.45593999997E+02  0.45594000000E+02  0.51100000000E-03 0.  1.
    9900012    2    1    2    0    0 -0.21930419990E+02  0.35551969413E+01  0.34052645084E+02  0.50528863469E+02  0.30000011001E+02 0.  0.
        -12    1    1    2    0    0  0.21930419990E+02 -0.35551969413E+01 -0.34052645084E+02  0.40659136531E+02  0.00000000000E+00 0.  1.
         11    1    3    3    0    0 -0.58887415848E+01  0.17156627882E+01  0.14496525296E+02  0.15740712251E+02  0.51100000000E-03 0. -1.
        -11    1    3    3    0    0 -0.10082256935E+02  0.59178759523E+01 -0.21725915985E+01  0.11890892112E+02  0.51100000000E-03 0.  1.
        -12    1    3    3    0    0 -0.59594214695E+01 -0.40783417992E+01  0.21728711386E+02  0.22897259107E+02  0.00000000000E+00 0.  1.
</event>
<event>
 7    1  0.1369731E-013  0.5052890E+02  0.7816164E-02  0.1300439E+00
        -11   -1    0    0    0    0  0.00000000000E+00  0.00000000000E+00  0.45593999997E+02  0.45594000000E+02  0.51100000000E-03 0. -1.
         11   -1    0    0    0    0 -0.00000000000E+00 -0.00000000000E+00 -0.45593999997E+02  0.45594000000E+02  0.51100000000E-03 0.  1.
    9900012    2    1    2    0    0  0.13549838099E+02  0.55147807165E+01  0.37936155378E+02  0.50528895193E+02  0.30000107428E+02 0.  0.
        -12    1    1    2    0    0 -0.13549838099E+02 -0.55147807165E+01 -0.37936155378E+02  0.40659104807E+02  0.00000000000E+00 0.  1.
         11    1    3    3    0    0  0.19132194168E+02  0.50712525595E+01  0.39436026934E+02  0.44124354690E+02  0.51100000000E-03 0. -1.
        -11    1    3    3    0    0 -0.24916312785E+01 -0.85415737864E+00  0.20850389071E+00  0.26422122149E+01  0.51100000000E-03 0.  1.
         12    1    3    3    0    0 -0.30907247908E+01  0.12976855356E+01 -0.17083754463E+01  0.37623282881E+01  0.00000000000E+00 0. -1.
</event>
<event>
 7    1  0.1369731E-013  0.5052886E+02  0.7816164E-02  0.1300439E+00
        -11   -1    0    0    0    0  0.00000000000E+00  0.00000000000E+00  0.45593999997E+02  0.45594000000E+02  0.51100000000E-03 0.  1.
         11   -1    0    0    0    0 -0.00000000000E+00 -0.00000000000E+00 -0.45593999997E+02  0.45594000000E+02  0.51100000000E-03 0. -1.
    9900012    2    1    2    0    0  0.33782118786E+02  0.10496077106E+02 -0.20044111642E+02  0.50528860857E+02  0.30000003062E+02 0.  0.
         12    1    1    2    0    0 -0.33782118786E+02 -0.10496077106E+02  0.20044111642E+02  0.40659139143E+02  0.00000000000E+00 0. -1.
         11    1    3    3    0    0  0.17035151891E+02  0.43440991890E+01 -0.93358243606E+01  0.19905406664E+02  0.51100000000E-03 0. -1.
        -11    1    3    3    0    0 -0.53438659896E+01 -0.65181620043E+00 -0.34571470157E+01  0.63979398109E+01  0.51100000000E-03 0.  1.
        -12    1    3    3    0    0  0.22090832885E+02  0.68037941175E+01 -0.72511402656E+01  0.24225514382E+02  0.00000000000E+00 0.  1.
</event>
<event>
 7    1  0.1369731E-013  0.5052887E+02  0.7816164E-02  0.1300439E+00
        -11   -1    0    0    0    0  0.00000000000E+00  0.00000000000E+00  0.45593999997E+02  0.45594000000E+02  0.51100000000E-03 0. -1.
         11   -1    0    0    0    0 -0.00000000000E+00 -0.00000000000E+00 -0.45593999997E+02  0.45594000000E+02  0.51100000000E-03 0.  1.
    9900012    2    1    2    0    0 -0.15229506714E+02 -0.19305989297E+02  0.32380642906E+02  0.50528866556E+02  0.30000020382E+02 0.  0.
        -12    1    1    2    0    0  0.15229506714E+02  0.19305989297E+02 -0.32380642906E+02  0.40659133444E+02  0.00000000000E+00 0.  1.
         11    1    3    3    0    0 -0.10385250566E+02 -0.28872765750E+00  0.12858597070E+01  0.10468535161E+02  0.51100000000E-03 0. -1.
        -11    1    3    3    0    0 -0.11324320980E+01 -0.20315728505E+02  0.29455444536E+02  0.35799922349E+02  0.51100000000E-03 0.  1.
         12    1    3    3    0    0 -0.37118240497E+01  0.12984668659E+01  0.16393386627E+01  0.42604090448E+01  0.00000000000E+00 0. -1.
</event>
<event>
 7    1  0.1369731E-013  0.5052887E+02  0.7816164E-02  0.1300439E+00
        -11   -1    0    0    0    0  0.00000000000E+00  0.00000000000E+00  0.45593999997E+02  0.45594000000E+02  0.51100000000E-03 0.  1.
         11   -1    0    0    0    0 -0.00000000000E+00 -0.00000000000E+00 -0.45593999997E+02  0.45594000000E+02  0.51100000000E-03 0. -1.
    9900012    2    1    2    0    0  0.18381044679E+02  0.32866135928E+02  0.15333598483E+02  0.50528868962E+02  0.30000027698E+02 0.  0.
        -12    1    1    2    0    0 -0.18381044679E+02 -0.32866135928E+02 -0.15333598483E+02  0.40659131038E+02  0.00000000000E+00 0.  1.
         11    1    3    3    0    0  0.90789176086E+01  0.77084809525E+01 -0.90865062608E+00  0.11944583281E+02  0.51100000000E-03 0. -1.
        -11    1    3    3    0    0  0.11862966673E+01  0.26085574229E+02  0.15536888899E+02  0.30385183883E+02  0.51100000000E-03 0.  1.
        -12    1    3    3    0    0  0.81158304032E+01 -0.92791925404E+00  0.70536020922E+00  0.81991017984E+01  0.00000000000E+00 0.  1.
</event>
<event>
 7    1  0.1369731E-013  0.5052886E+02  0.7816164E-02  0.1300439E+00
        -11   -1    0    0    0    0  0.00000000000E+00  0.00000000000E+00  0.45593999997E+02  0.45594000000E+02  0.51100000000E-03 0. -1.
         11   -1    0    0    0    0 -0.00000000000E+00 -0.00000000000E+00 -0.45593999997E+02  0.45594000000E+02  0.51100000000E-03 0.  1.
    9900012    2    1    2    0    0  0.77366556610E+01  0.24506875648E+02 -0.31507504740E+02  0.50528860194E+02  0.30000001046E+02 0.  0.
         12    1    1    2    0    0 -0.77366556610E+01 -0.24506875648E+02  0.31507504740E+02  0.40659139806E+02  0.00000000000E+00 0. -1.
         11    1    3    3    0    0  0.94865402580E+01  0.14147191193E+02 -0.14550269332E+01  0.17095454611E+02  0.51100000000E-03 0. -1.
        -11    1    3    3    0    0 -0.52583495445E+00  0.43556784598E-01 -0.15736432052E+02  0.15745275278E+02  0.51100000000E-03 0.  1.
        -12    1    3    3    0    0 -0.12240496425E+01  0.10316127670E+02 -0.14316045755E+02  0.17688130305E+02  0.00000000000E+00 0.  1.
</event>
<event>
 7    1  0.1369731E-013  0.5052889E+02  0.7816164E-02  0.1300439E+00
        -11   -1    0    0    0    0  0.00000000000E+00  0.00000000000E+00  0.45593999997E+02  0.45594000000E+02  0.51100000000E-03 0.  1.
         11   -1    0    0    0    0 -0.00000000000E+00 -0.00000000000E+00 -0.45593999997E+02  0.45594000000E+02  0.51100000000E-03 0. -1.
    9900012    2    1    2    0    0 -0.28723118209E+02  0.32121842747E+01  0.28597681818E+02  0.50528892129E+02  0.30000098116E+02 0.  0.
        -12    1    1    2    0    0  0.28723118209E+02 -0.32121842747E+01 -0.28597681818E+02  0.40659107871E+02  0.00000000000E+00 0.  1.
         11    1    3    3    0    0 -0.27057489649E+02  0.70146056832E+01  0.18159715067E+02  0.33332982023E+02  0.51100000000E-03 0. -1.
        -11    1    3    3    0    0  0.33367653931E+01  0.22775481343E+01  0.79857547486E+01  0.89494976372E+01  0.51100000000E-03 0.  1.
        -12    1    3    3    0    0 -0.50023939530E+01 -0.60799695428E+01  0.24522120032E+01  0.82464124691E+01  0.00000000000E+00 0.  1.
</event>
<event>
 7    1  0.1369731E-013  0.5052886E+02  0.7816164E-02  0.1300439E+00
        -11   -1    0    0    0    0  0.00000000000E+00  0.00000000000E+00  0.45593999997E+02  0.45594000000E+02  0.51100000000E-03 0. -1.
         11   -1    0    0    0    0 -0.00000000000E+00 -0.00000000000E+00 -0.45593999997E+02  0.45594000000E+02  0.51100000000E-03 0.  1.
    9900012    2    1    2    0    0 -0.25571230474E+02 -0.26828308863E+02  0.16718845803E+02  0.50528858478E+02  0.29999995828E+02 0.  0.
        -12    1    1    2    0    0  0.25571230474E+02  0.26828308863E+02 -0.16718845803E+02  0.40659141522E+02  0.00000000000E+00 0.  1.
         11    1    3    3    0    0 -0.23459125143E+02 -0.13395423479E+02  0.11201988778E+02  0.29244699956E+02  0.51100000000E-03 0. -1.
        -11    1    3    3    0    0  0.48112696687E+01 -0.10958997054E+02 -0.20105372010E+00  0.11970311404E+02  0.51100000000E-03 0.  1.
         12    1    3    3    0    0 -0.69233749997E+01 -0.24738883297E+01  0.57179107444E+01  0.93138471179E+01  0.00000000000E+00 0. -1.
</event>
<event>
 7    1  0.1369731E-013  0.5052885E+02  0.7816164E-02  0.1300439E+00
        -11   -1    0    0    0    0  0.00000000000E+00  0.00000000000E+00  0.45593999997E+02  0.45594000000E+02  0.51100000000E-03 0.  1.
         11   -1    0    0    0    0 -0.00000000000E+00 -0.00000000000E+00 -0.45593999997E+02  0.45594000000E+02  0.51100000000E-03 0. -1.
    9900012    2    1    2    0    0  0.29715127454E+02  0.58530264358E+01 -0.27127838133E+02  0.50528851954E+02  0.29999976000E+02 0.  0.
         12    1    1    2    0    0 -0.29715127454E+02 -0.58530264358E+01  0.27127838133E+02  0.40659148046E+02  0.00000000000E+00 0. -1.
         11    1    3    3    0    0 -0.22856890478E+01  0.95220902629E+00 -0.12634527496E+02  0.12874873272E+02  0.51100000000E-03 0. -1.
        -11    1    3    3    0    0  0.16899809207E+02 -0.37987472917E+01 -0.69464018627E+01  0.18662436372E+02  0.51100000000E-03 0.  1.
         12    1    3    3    0    0  0.15101007294E+02  0.86995647012E+01 -0.75469087743E+01  0.18991542311E+02  0.00000000000E+00 0. -1.
</event>
<event>
 7    1  0.1369731E-013  0.5052887E+02  0.7816164E-02  0.1300439E+00
        -11   -1    0    0    0    0  0.00000000000E+00  0.00000000000E+00  0.45593999997E+02  0.45594000000E+02  0.51100000000E-03 0. -1.
         11   -1    0    0    0    0 -0.00000000000E+00 -0.00000000000E+00 -0.45593999997E+02  0.45594000000E+02  0.51100000000E-03 0.  1.
    9900012    2    1    2    0    0 -0.23986797809E+02 -0.16118579259E+02 -0.28600519890E+02  0.50528870589E+02  0.30000032644E+02 0.  0.
         12    1    1    2    0    0  0.23986797809E+02  0.16118579259E+02  0.28600519890E+02  0.40659129411E+02  0.00000000000E+00 0. -1.
         11    1    3    3    0    0 -0.14089925094E+02 -0.59193473409E+01  0.25299465394E-01  0.15282843401E+02  0.51100000000E-03 0. -1.
        -11    1    3    3    0    0  0.17184979139E+01  0.99634041395E+00 -0.11685112056E+02  0.11852753829E+02  0.51100000000E-03 0.  1.
        -12    1    3    3    0    0 -0.11615370629E+02 -0.11195572333E+02 -0.16940707299E+02  0.23393273360E+02  0.00000000000E+00 0.  1.
</event>
<event>
 7    1  0.1369731E-013  0.5052887E+02  0.7816164E-02  0.1300439E+00
        -11   -1    0    0    0    0  0.00000000000E+00  0.00000000000E+00  0.45593999997E+02  0.45594000000E+02  0.51100000000E-03 0. -1.
         11   -1    0    0    0    0 -0.00000000000E+00 -0.00000000000E+00 -0.45593999997E+02  0.45594000000E+02  0.51100000000E-03 0.  1.
    9900012    2    1    2    0    0 -0.18786510301E+01  0.24879044999E+02 -0.32104034735E+02  0.50528865036E+02  0.30000015764E+02 0.  0.
         12    1    1    2    0    0  0.18786510301E+01 -0.24879044999E+02  0.32104034735E+02  0.40659134964E+02  0.00000000000E+00 0. -1.
         11    1    3    3    0    0 -0.60571060431E+01  0.20775723175E+02 -0.17736193250E+02  0.27980202971E+02  0.51100000000E-03 0. -1.
        -11    1    3    3    0    0  0.78272097057E+01 -0.36143227992E+01 -0.54292447460E+01  0.10188485650E+02  0.51100000000E-03 0.  1.
        -12    1    3    3    0    0 -0.36487546928E+01  0.77176446225E+01 -0.89385967394E+01  0.12360176414E+02  0.00000000000E+00 0.  1.
</event>
<event>
 7    1  0.1369731E-013  0.5052886E+02  0.7816164E-02  0.1300439E+00
        -11   -1    0    0    0    0  0.00000000000E+00  0.00000000000E+00  0.45593999997E+02  0.45594000000E+02  0.51100000000E-03 0. -1.
         11   -1    0    0    0    0 -0.00000000000E+00 -0.00000000000E+00 -0.45593999997E+02  0.45594000000E+02  0.51100000000E-03 0.  1.
    9900012    2    1    2    0    0  0.17913492379E+02 -0.21793123559E+02 -0.29280231593E+02  0.50528863194E+02  0.30000010165E+02 0.  0.
         12    1    1    2    0    0 -0.17913492379E+02  0.21793123559E+02  0.29280231593E+02  0.40659136806E+02  0.00000000000E+00 0. -1.
         11    1    3    3    0    0 -0.18542585638E+01  0.21771225201E+00  0.46531784380E+00  0.19241087296E+01  0.51100000000E-03 0.  1.
        -11    1    3    3    0    0  0.15897624641E+02 -0.93300390008E+01 -0.30152156484E+02  0.35340297649E+02  0.51100000000E-03 0. -1.
        -12    1    3    3    0    0  0.38701263017E+01 -0.12680796810E+02  0.40660704732E+00  0.13264456816E+02  0.00000000000E+00 0.  1.
</event>
<event>
 7    1  0.1369731E-013  0.5052886E+02  0.7816164E-02  0.1300439E+00
        -11   -1    0    0    0    0  0.00000000000E+00  0.00000000000E+00  0.45593999997E+02  0.45594000000E+02  0.51100000000E-03 0. -1.
         11   -1    0    0    0    0 -0.00000000000E+00 -0.00000000000E+00 -0.45593999997E+02  0.45594000000E+02  0.51100000000E-03 0.  1.
    9900012    2    1    2    0    0 -0.28229468511E+02 -0.62484114903E+01  0.28587066782E+02  0.50528856800E+02  0.29999990728E+02 0.  0.
        -12    1    1    2    0    0  0.28229468511E+02  0.62484114903E+01 -0.28587066782E+02  0.40659143200E+02  0.00000000000E+00 0.  1.
         11    1    3    3    0    0 -0.23498775310E+02  0.22080724297E+01  0.24008708845E+02  0.33667285688E+02  0.51100000000E-03 0. -1.
        -11    1    3    3    0    0 -0.67322744522E+01 -0.74354266000E+01 -0.17178331033E+01  0.10176445296E+02  0.51100000000E-03 0.  1.
        -12    1    3    3    0    0  0.20015812514E+01 -0.10210573200E+01  0.62961910405E+01  0.66851258159E+01  0.00000000000E+00 0.  1.
</event>
<event>
 7    1  0.1369731E-013  0.5052886E+02  0.7816164E-02  0.1300439E+00
        -11   -1    0    0    0    0  0.00000000000E+00  0.00000000000E+00  0.45593999997E+02  0.45594000000E+02  0.51100000000E-03 0. -1.
         11   -1    0    0    0    0 -0.00000000000E+00 -0.00000000000E+00 -0.45593999997E+02  0.45594000000E+02  0.51100000000E-03 0.  1.
    9900012    2    1    2    0    0 -0.28218525122E+02  0.27288068398E+02  0.10594431454E+02  0.50528858165E+02  0.29999994877E+02 0.  0.
        -12    1    1    2    0    0  0.28218525122E+02 -0.27288068398E+02 -0.10594431454E+02  0.40659141835E+02  0.00000000000E+00 0.  1.
         11    1    3    3    0    0 -0.22942753486E+02  0.25814558185E+02  0.18057541132E+02  0.38972248380E+02  0.51100000000E-03 0. -1.
        -11    1    3    3    0    0 -0.54665629239E+01  0.23602254050E+01 -0.24113344414E+01  0.64240569901E+01  0.51100000000E-03 0.  1.
         12    1    3    3    0    0  0.19079128808E+00 -0.88671519250E+00 -0.50517752361E+01  0.51325527941E+01  0.00000000000E+00 0. -1.
</event>
<event>
 7    1  0.1369731E-013  0.5052880E+02  0.7816164E-02  0.1300439E+00
        -11   -1    0    0    0    0  0.00000000000E+00  0.00000000000E+00  0.45593999997E+02  0.45594000000E+02  0.51100000000E-03 0. -1.
         11   -1    0    0    0    0 -0.00000000000E+00 -0.00000000000E+00 -0.45593999997E+02  0.45594000000E+02  0.51100000000E-03 0.  1.
    9900012    2    1    2    0    0  0.54875987482E+01 -0.24033967924E+01  0.40215424332E+02  0.50528801651E+02  0.29999823099E+02 0.  0.
        -12    1    1    2    0    0 -0.54875987482E+01  0.24033967924E+01 -0.40215424332E+02  0.40659198349E+02  0.00000000000E+00 0.  1.
         11    1    3    3    0    0  0.31945067184E+01  0.45225542438E+01  0.10403636958E+02  0.11785331234E+02  0.51100000000E-03 0. -1.
        -11    1    3    3    0    0 -0.74693760855E+01 -0.31009712788E+01  0.26562606299E+02  0.27766520409E+02  0.51100000000E-03 0.  1.
        -12    1    3    3    0    0  0.97624681153E+01 -0.38249797574E+01  0.32491810748E+01  0.10976950009E+02  0.00000000000E+00 0.  1.
</event>
<event>
 7    1  0.1369731E-013  0.5052886E+02  0.7816164E-02  0.1300439E+00
        -11   -1    0    0    0    0  0.00000000000E+00  0.00000000000E+00  0.45593999997E+02  0.45594000000E+02  0.51100000000E-03 0. -1.
         11   -1    0    0    0    0 -0.00000000000E+00 -0.00000000000E+00 -0.45593999997E+02  0.45594000000E+02  0.51100000000E-03 0.  1.
    9900012    2    1    2    0    0  0.12058689538E+02 -0.32567840093E+02  0.21144491688E+02  0.50528859202E+02  0.29999998031E+02 0.  0.
        -12    1    1    2    0    0 -0.12058689538E+02  0.32567840093E+02 -0.21144491688E+02  0.40659140798E+02  0.00000000000E+00 0.  1.
         11    1    3    3    0    0  0.81809816796E+01  0.38010810177E+01  0.35623451062E+01  0.96988133842E+01  0.51100000000E-03 0. -1.
        -11    1    3    3    0    0  0.20844222615E+01 -0.12404200906E+02  0.38624703576E+01  0.13157799732E+02  0.51100000000E-03 0.  1.
         12    1    3    3    0    0  0.17932855965E+01 -0.23964720205E+02  0.13719676224E+02  0.27672246086E+02  0.00000000000E+00 0. -1.
</event>
<event>
 7    1  0.1369731E-013  0.5052886E+02  0.7816164E-02  0.1300439E+00
        -11   -1    0    0    0    0  0.00000000000E+00  0.00000000000E+00  0.45593999997E+02  0.45594000000E+02  0.51100000000E-03 0. -1.
         11   -1    0    0    0    0 -0.00000000000E+00 -0.00000000000E+00 -0.45593999997E+02  0.45594000000E+02  0.51100000000E-03 0.  1.
    9900012    2    1    2    0    0  0.14680425996E+02 -0.12342878598E+01  0.37896267854E+02  0.50528862144E+02  0.30000006973E+02 0.  0.
        -12    1    1    2    0    0 -0.14680425996E+02  0.12342878598E+01 -0.37896267854E+02  0.40659137856E+02  0.00000000000E+00 0.  1.
         11    1    3    3    0    0  0.13398175395E+02  0.85713571234E+01  0.86840005809E+01  0.18121565418E+02  0.51100000000E-03 0. -1.
        -11    1    3    3    0    0  0.43418830290E+00 -0.79301887636E-01 -0.76335419032E+00  0.88176989785E+00  0.51100000000E-03 0.  1.
         12    1    3    3    0    0  0.84806229828E+00 -0.97263430956E+01  0.29975621463E+02  0.31525526828E+02  0.00000000000E+00 0. -1.
</event>
<event>
 7    1  0.1369731E-013  0.5052886E+02  0.7816164E-02  0.1300439E+00
        -11   -1    0    0    0    0  0.00000000000E+00  0.00000000000E+00  0.45593999997E+02  0.45594000000E+02  0.51100000000E-03 0. -1.
         11   -1    0    0    0    0 -0.00000000000E+00 -0.00000000000E+00 -0.45593999997E+02  0.45594000000E+02  0.51100000000E-03 0.  1.
    9900012    2    1    2    0    0 -0.23950156545E+02  0.17769455748E+02  0.27636974125E+02  0.50528857180E+02  0.29999991884E+02 0.  0.
        -12    1    1    2    0    0  0.23950156545E+02 -0.17769455748E+02 -0.27636974125E+02  0.40659142820E+02  0.00000000000E+00 0.  1.
         11    1    3    3    0    0 -0.79933899214E+01 -0.38214205117E+00  0.20260162784E+02  0.21783353995E+02  0.51100000000E-03 0. -1.
        -11    1    3    3    0    0 -0.16836217796E+02  0.11463978583E+02  0.81858210066E+01  0.21951963476E+02  0.51100000000E-03 0.  1.
         12    1    3    3    0    0  0.87945117251E+00  0.66876192154E+01 -0.80900966604E+00  0.67935397088E+01  0.00000000000E+00 0. -1.
</event>
<event>
 7    1  0.1369731E-013  0.5052887E+02  0.7816164E-02  0.1300439E+00
        -11   -1    0    0    0    0  0.00000000000E+00  0.00000000000E+00  0.45593999997E+02  0.45594000000E+02  0.51100000000E-03 0. -1.
         11   -1    0    0    0    0 -0.00000000000E+00 -0.00000000000E+00 -0.45593999997E+02  0.45594000000E+02  0.51100000000E-03 0.  1.
    9900012    2    1    2    0    0 -0.18487333448E+02 -0.11961573431E+02  0.34180465676E+02  0.50528868544E+02  0.30000026426E+02 0.  0.
        -12    1    1    2    0    0  0.18487333448E+02  0.11961573431E+02 -0.34180465676E+02  0.40659131456E+02  0.00000000000E+00 0.  1.
         11    1    3    3    0    0 -0.17808293219E+02 -0.55874789769E+01  0.89844753985E+01  0.20714150409E+02  0.51100000000E-03 0. -1.
        -11    1    3    3    0    0  0.61823190628E+01 -0.55285521004E+01  0.91873975744E+01  0.12377165741E+02  0.51100000000E-03 0.  1.
        -12    1    3    3    0    0 -0.68613592913E+01 -0.84554235406E+00  0.16008592703E+02  0.17437552395E+02  0.00000000000E+00 0.  1.
</event>
<event>
 7    1  0.1369731E-013  0.5052887E+02  0.7816164E-02  0.1300439E+00
        -11   -1    0    0    0    0  0.00000000000E+00  0.00000000000E+00  0.45593999997E+02  0.45594000000E+02  0.51100000000E-03 0. -1.
         11   -1    0    0    0    0 -0.00000000000E+00 -0.00000000000E+00 -0.45593999997E+02  0.45594000000E+02  0.51100000000E-03 0.  1.
    9900012    2    1    2    0    0  0.49775125722E+00  0.21220849540E+02  0.34678422225E+02  0.50528865976E+02  0.30000018621E+02 0.  0.
        -12    1    1    2    0    0 -0.49775125722E+00 -0.21220849540E+02 -0.34678422225E+02  0.40659134024E+02  0.00000000000E+00 0.  1.
         11    1    3    3    0    0  0.54317253631E+01  0.70029819646E+01  0.13785008840E+02  0.16388162367E+02  0.51100000000E-03 0. -1.
        -11    1    3    3    0    0 -0.10392825406E+02  0.15471808441E+01  0.19197952304E+01  0.10681301534E+02  0.51100000000E-03 0.  1.
        -12    1    3    3    0    0  0.54588513000E+01  0.12670686732E+02  0.18973618156E+02  0.23459402074E+02  0.00000000000E+00 0.  1.
</event>
<event>
 7    1  0.1369731E-013  0.5052883E+02  0.7816164E-02  0.1300439E+00
        -11   -1    0    0    0    0  0.00000000000E+00  0.00000000000E+00  0.45593999997E+02  0.45594000000E+02  0.51100000000E-03 0. -1.
         11   -1    0    0    0    0 -0.00000000000E+00 -0.00000000000E+00 -0.45593999997E+02  0.45594000000E+02  0.51100000000E-03 0.  1.
    9900012    2    1    2    0    0  0.26086271100E+02  0.21230517454E+02  0.22845995769E+02  0.50528832104E+02  0.29999915664E+02 0.  0.
        -12    1    1    2    0    0 -0.26086271100E+02 -0.21230517454E+02 -0.22845995769E+02  0.40659167896E+02  0.00000000000E+00 0.  1.
         11    1    3    3    0    0  0.64801538778E+01  0.65881609441E+01  0.71290412209E+01  0.11671310462E+02  0.51100000000E-03 0. -1.
        -11    1    3    3    0    0  0.15153626968E+02 -0.34004017759E+01  0.17882325090E+01  0.15633071300E+02  0.51100000000E-03 0.  1.
        -12    1    3    3    0    0  0.44524902547E+01  0.18042758286E+02  0.13928722039E+02  0.23224450342E+02  0.00000000000E+00 0.  1.
</event>
<event>
 7    1  0.1369731E-013  0.5052888E+02  0.7816164E-02  0.1300439E+00
        -11   -1    0    0    0    0  0.00000000000E+00  0.00000000000E+00  0.45593999997E+02  0.45594000000E+02  0.51100000000E-03 0. -1.
         11   -1    0    0    0    0 -0.00000000000E+00 -0.00000000000E+00 -0.45593999997E+02  0.45594000000E+02  0.51100000000E-03 0.  1.
    9900012    2    1    2    0    0 -0.12145429695E+02  0.25587180897E+01  0.38718288960E+02  0.50528875554E+02  0.30000047734E+02 0.  0.
        -12    1    1    2    0    0  0.12145429695E+02 -0.25587180897E+01 -0.38718288960E+02  0.40659124446E+02  0.00000000000E+00 0.  1.
         11    1    3    3    0    0 -0.30348514279E+01  0.12997479810E+01  0.57993144179E+01  0.66732088220E+01  0.51100000000E-03 0.  1.
        -11    1    3    3    0    0 -0.17028118602E+02  0.62302003788E+01  0.14563589154E+02  0.23256619471E+02  0.51100000000E-03 0. -1.
        -12    1    3    3    0    0  0.79175403349E+01 -0.49712302700E+01  0.18355385387E+02  0.20599047261E+02  0.00000000000E+00 0.  1.
</event>
<event>
 7    1  0.1369731E-013  0.5052886E+02  0.7816164E-02  0.1300439E+00
        -11   -1    0    0    0    0  0.00000000000E+00  0.00000000000E+00  0.45593999997E+02  0.45594000000E+02  0.51100000000E-03 0. -1.
         11   -1    0    0    0    0 -0.00000000000E+00 -0.00000000000E+00 -0.45593999997E+02  0.45594000000E+02  0.51100000000E-03 0.  1.
    9900012    2    1    2    0    0 -0.29868992162E+02 -0.11257224201E+02 -0.25184985565E+02  0.50528864651E+02  0.30000014592E+02 0.  0.
         12    1    1    2    0    0  0.29868992162E+02  0.11257224201E+02  0.25184985565E+02  0.40659135349E+02  0.00000000000E+00 0. -1.
         11    1    3    3    0    0 -0.16097191804E+01  0.32333488304E+01  0.42854364630E+01  0.56045255320E+01  0.51100000000E-03 0. -1.
        -11    1    3    3    0    0 -0.20157286176E+02 -0.68934135158E+01 -0.12675804008E+02  0.24789339309E+02  0.51100000000E-03 0.  1.
        -12    1    3    3    0    0 -0.81019868052E+01 -0.75971595153E+01 -0.16794618020E+02  0.20134999809E+02  0.00000000000E+00 0.  1.
</event>
<event>
 7    1  0.1369731E-013  0.5052886E+02  0.7816164E-02  0.1300439E+00
        -11   -1    0    0    0    0  0.00000000000E+00  0.00000000000E+00  0.45593999997E+02  0.45594000000E+02  0.51100000000E-03 0. -1.
         11   -1    0    0    0    0 -0.00000000000E+00 -0.00000000000E+00 -0.45593999997E+02  0.45594000000E+02  0.51100000000E-03 0.  1.
    9900012    2    1    2    0    0  0.62926354353E+01 -0.26042628727E+02  0.30583485847E+02  0.50528863532E+02  0.30000011193E+02 0.  0.
        -12    1    1    2    0    0 -0.62926354353E+01  0.26042628727E+02 -0.30583485847E+02  0.40659136468E+02  0.00000000000E+00 0.  1.
         11    1    3    3    0    0  0.56282680508E+01 -0.46099732640E+01  0.85674450025E+00  0.73255215614E+01  0.51100000000E-03 0. -1.
        -11    1    3    3    0    0 -0.66074164722E+01 -0.22973301302E+02  0.23190885572E+02  0.33305370423E+02  0.51100000000E-03 0.  1.
        -12    1    3    3    0    0  0.72717838566E+01  0.15406458384E+01  0.65358557750E+01  0.98979715482E+01  0.00000000000E+00 0.  1.
</event>
<event>
 7    1  0.1369731E-013  0.5052886E+02  0.7816164E-02  0.1300439E+00
        -11   -1    0    0    0    0  0.00000000000E+00  0.00000000000E+00  0.45593999997E+02  0.45594000000E+02  0.51100000000E-03 0. -1.
         11   -1    0    0    0    0 -0.00000000000E+00 -0.00000000000E+00 -0.45593999997E+02  0.45594000000E+02  0.51100000000E-03 0.  1.
    9900012    2    1    2    0    0 -0.96613955696E+01  0.19824427375E+02  0.34158676565E+02  0.50528859948E+02  0.30000000298E+02 0.  0.
        -12    1    1    2    0    0  0.96613955696E+01 -0.19824427375E+02 -0.34158676565E+02  0.40659140052E+02  0.00000000000E+00 0.  1.
         11    1    3    3    0    0 -0.91823588743E+01  0.23751916958E+01  0.30122175255E+02  0.31580099627E+02  0.51100000000E-03 0. -1.
        -11    1    3    3    0    0  0.19529836790E+01  0.54387583838E+01  0.33404068435E+01  0.66747701196E+01  0.51100000000E-03 0.  1.
         12    1    3    3    0    0 -0.24320203743E+01  0.12010477295E+02  0.69609446622E+00  0.12273990201E+02  0.00000000000E+00 0. -1.
</event>
<event>
 7    1  0.1369731E-013  0.5052886E+02  0.7816164E-02  0.1300439E+00
        -11   -1    0    0    0    0  0.00000000000E+00  0.00000000000E+00  0.45593999997E+02  0.45594000000E+02  0.51100000000E-03 0. -1.
         11   -1    0    0    0    0 -0.00000000000E+00 -0.00000000000E+00 -0.45593999997E+02  0.45594000000E+02  0.51100000000E-03 0.  1.
    9900012    2    1    2    0    0 -0.45277175639E+00 -0.39945037623E+01 -0.40459915204E+02  0.50528858336E+02  0.29999995398E+02 0.  0.
         12    1    1    2    0    0  0.45277175639E+00  0.39945037623E+01  0.40459915204E+02  0.40659141664E+02  0.00000000000E+00 0. -1.
         11    1    3    3    0    0 -0.10453343241E+02  0.79495120817E+01 -0.21995487328E+02  0.25617739758E+02  0.51100000000E-03 0. -1.
        -11    1    3    3    0    0  0.10752059756E+02 -0.10454724509E+02 -0.17186509950E+02  0.22809738668E+02  0.51100000000E-03 0.  1.
        -12    1    3    3    0    0 -0.75148827180E+00 -0.14892913354E+01 -0.12779179254E+01  0.21013799105E+01  0.00000000000E+00 0.  1.
</event>
<event>
 7    1  0.1478685E-013  0.5052886E+02  0.7816164E-02  0.1300439E+00
        -11   -1    0    0    0    0  0.00000000000E+00  0.00000000000E+00  0.45593999997E+02  0.45594000000E+02  0.51100000000E-03 0. -1.
         11   -1    0    0    0    0 -0.00000000000E+00 -0.00000000000E+00 -0.45593999997E+02  0.45594000000E+02  0.51100000000E-03 0.  1.
    9900012    2    1    2    0    0 -0.51894740990E+01 -0.20744004763E+02 -0.34582093322E+02  0.50528861377E+02  0.30000004643E+02 0.  0.
         12    1    1    2    0    0  0.51894740990E+01  0.20744004763E+02  0.34582093322E+02  0.40659138623E+02  0.00000000000E+00 0. -1.
         11    1    3    3    0    0  0.12593474079E+01  0.38620855021E+01 -0.40744894887E+01  0.57535315393E+01  0.51100000000E-03 0. -1.
        -11    1    3    3    0    0 -0.11370696536E+02 -0.19397256884E+02 -0.30135738413E+02  0.37599322392E+02  0.51100000000E-03 0.  1.
        -12    1    3    3    0    0  0.49218750287E+01 -0.52088333804E+01 -0.37186541984E+00  0.71760074466E+01  0.00000000000E+00 0.  1.
</event>
<event>
 7    1  0.1369731E-013  0.5052887E+02  0.7816164E-02  0.1300439E+00
        -11   -1    0    0    0    0  0.00000000000E+00  0.00000000000E+00  0.45593999997E+02  0.45594000000E+02  0.51100000000E-03 0.  1.
         11   -1    0    0    0    0 -0.00000000000E+00 -0.00000000000E+00 -0.45593999997E+02  0.45594000000E+02  0.51100000000E-03 0. -1.
    9900012    2    1    2    0    0 -0.54665657438E+01  0.39825605683E+02  0.60994180595E+01  0.50528866835E+02  0.30000021231E+02 0.  0.
        -12    1    1    2    0    0  0.54665657438E+01 -0.39825605683E+02 -0.60994180595E+01  0.40659133165E+02  0.00000000000E+00 0.  1.
         11    1    3    3    0    0  0.70020076377E+01  0.26638756347E+02 -0.47098156737E+01  0.27943403777E+02  0.51100000000E-03 0. -1.
        -11    1    3    3    0    0 -0.54475540031E+01  0.99945496640E+01  0.93619852659E+01  0.14738169357E+02  0.51100000000E-03 0.  1.
        -12    1    3    3    0    0 -0.70210193784E+01  0.31922996721E+01  0.14472484673E+01  0.78472937013E+01  0.00000000000E+00 0.  1.
</event>
<event>
 7    1  0.1369731E-013  0.5052886E+02  0.7816164E-02  0.1300439E+00
        -11   -1    0    0    0    0  0.00000000000E+00  0.00000000000E+00  0.45593999997E+02  0.45594000000E+02  0.51100000000E-03 0. -1.
         11   -1    0    0    0    0 -0.00000000000E+00 -0.00000000000E+00 -0.45593999997E+02  0.45594000000E+02  0.51100000000E-03 0.  1.
    9900012    2    1    2    0    0 -0.29927180650E+02  0.21355031467E+01  0.27440286783E+02  0.50528857681E+02  0.29999993408E+02 0.  0.
        -12    1    1    2    0    0  0.29927180650E+02 -0.21355031467E+01 -0.27440286783E+02  0.40659142319E+02  0.00000000000E+00 0.  1.
         11    1    3    3    0    0 -0.12274593777E+02  0.15153326540E+02  0.13015550796E+02  0.23445543721E+02  0.51100000000E-03 0.  1.
        -11    1    3    3    0    0 -0.11514915848E+02 -0.12122476069E+02  0.10510381600E+02  0.19748818564E+02  0.51100000000E-03 0. -1.
        -12    1    3    3    0    0 -0.61376710258E+01 -0.89534732340E+00  0.39143543861E+01  0.73344953957E+01  0.00000000000E+00 0.  1.
</event>
<event>
 7    1  0.1369731E-013  0.5052885E+02  0.7816164E-02  0.1300439E+00
        -11   -1    0    0    0    0  0.00000000000E+00  0.00000000000E+00  0.45593999997E+02  0.45594000000E+02  0.51100000000E-03 0. -1.
         11   -1    0    0    0    0 -0.00000000000E+00 -0.00000000000E+00 -0.45593999997E+02  0.45594000000E+02  0.51100000000E-03 0.  1.
    9900012    2    1    2    0    0 -0.35855046509E+01 -0.56855525458E+00  0.40496754804E+02  0.50528852834E+02  0.29999978673E+02 0.  0.
        -12    1    1    2    0    0  0.35855046509E+01  0.56855525458E+00 -0.40496754804E+02  0.40659147166E+02  0.00000000000E+00 0.  1.
         11    1    3    3    0    0  0.46326718638E+01 -0.23758964138E+01  0.28865756058E+02  0.29331525794E+02  0.51100000000E-03 0. -1.
        -11    1    3    3    0    0 -0.40337777530E+01  0.75450324101E+00 -0.35431259481E+01  0.54216584037E+01  0.51100000000E-03 0.  1.
        -12    1    3    3    0    0 -0.41843987617E+01  0.10528379182E+01  0.15174124694E+02  0.15775668636E+02  0.00000000000E+00 0.  1.
</event>
<event>
 7    1  0.1369731E-013  0.5052892E+02  0.7816164E-02  0.1300439E+00
        -11   -1    0    0    0    0  0.00000000000E+00  0.00000000000E+00  0.45593999997E+02  0.45594000000E+02  0.51100000000E-03 0. -1.
         11   -1    0    0    0    0 -0.00000000000E+00 -0.00000000000E+00 -0.45593999997E+02  0.45594000000E+02  0.51100000000E-03 0.  1.
    9900012    2    1    2    0    0  0.25750578603E+02 -0.62467438595E+01 -0.30839041057E+02  0.50528922778E+02  0.30000191277E+02 0.  0.
         12    1    1    2    0    0 -0.25750578603E+02  0.62467438595E+01  0.30839041057E+02  0.40659077222E+02  0.00000000000E+00 0. -1.
         11    1    3    3    0    0  0.27662188603E+01 -0.30409504472E+01 -0.15495348583E+02  0.16031380925E+02  0.51100000000E-03 0. -1.
        -11    1    3    3    0    0  0.14576912180E+02  0.61888193540E+01 -0.17102648306E+01  0.15928366512E+02  0.51100000000E-03 0.  1.
        -12    1    3    3    0    0  0.84074475624E+01 -0.93946127663E+01 -0.13633427643E+02  0.18569175341E+02  0.00000000000E+00 0.  1.
</event>
<event>
 7    1  0.1369731E-013  0.5052886E+02  0.7816164E-02  0.1300439E+00
        -11   -1    0    0    0    0  0.00000000000E+00  0.00000000000E+00  0.45593999997E+02  0.45594000000E+02  0.51100000000E-03 0.  1.
         11   -1    0    0    0    0 -0.00000000000E+00 -0.00000000000E+00 -0.45593999997E+02  0.45594000000E+02  0.51100000000E-03 0. -1.
    9900012    2    1    2    0    0 -0.18414290674E+02 -0.34512567923E+02  0.11088834725E+02  0.50528859561E+02  0.29999999122E+02 0.  0.
        -12    1    1    2    0    0  0.18414290674E+02  0.34512567923E+02 -0.11088834725E+02  0.40659140439E+02  0.00000000000E+00 0.  1.
         11    1    3    3    0    0 -0.58377914686E+01 -0.68933862393E+00 -0.66200953225E+01  0.88532852269E+01  0.51100000000E-03 0. -1.
        -11    1    3    3    0    0 -0.11476138633E+02 -0.27483052441E+02  0.95336807777E+01  0.31271568539E+02  0.51100000000E-03 0.  1.
         12    1    3    3    0    0 -0.11003605719E+01 -0.63401768579E+01  0.81752492694E+01  0.10404005796E+02  0.00000000000E+00 0. -1.
</event>
<event>
 7    1  0.1369731E-013  0.5052885E+02  0.7816164E-02  0.1300439E+00
        -11   -1    0    0    0    0  0.00000000000E+00  0.00000000000E+00  0.45593999997E+02  0.45594000000E+02  0.51100000000E-03 0.  1.
         11   -1    0    0    0    0 -0.00000000000E+00 -0.00000000000E+00 -0.45593999997E+02  0.45594000000E+02  0.51100000000E-03 0. -1.
    9900012    2    1    2    0    0  0.24643841060E+02  0.32295958656E+02 -0.16787845942E+01  0.50528853853E+02  0.29999981771E+02 0.  0.
        -12    1    1    2    0    0 -0.24643841060E+02 -0.32295958656E+02  0.16787845942E+01  0.40659146147E+02  0.00000000000E+00 0.  1.
         11    1    3    3    0    0  0.10112651456E+02  0.14455665045E+02 -0.15371916114E+02  0.23399311456E+02  0.51100000000E-03 0. -1.
        -11    1    3    3    0    0  0.13345778307E+02  0.13948382853E+02  0.10637436504E+02  0.22041375603E+02  0.51100000000E-03 0.  1.
         12    1    3    3    0    0  0.11854112967E+01  0.38919107592E+01  0.30556950151E+01  0.50881667942E+01  0.00000000000E+00 0. -1.
</event>
<event>
 7    1  0.1369731E-013  0.5052886E+02  0.7816164E-02  0.1300439E+00
        -11   -1    0    0    0    0  0.00000000000E+00  0.00000000000E+00  0.45593999997E+02  0.45594000000E+02  0.51100000000E-03 0.  1.
         11   -1    0    0    0    0 -0.00000000000E+00 -0.00000000000E+00 -0.45593999997E+02  0.45594000000E+02  0.51100000000E-03 0. -1.
    9900012    2    1    2    0    0 -0.39302583220E+02 -0.72783691316E+01 -0.74496863381E+01  0.50528861648E+02  0.30000005466E+02 0.  0.
        -12    1    1    2    0    0  0.39302583220E+02  0.72783691316E+01  0.74496863381E+01  0.40659138352E+02  0.00000000000E+00 0.  1.
         11    1    3    3    0    0 -0.20546687333E+02 -0.65008278759E+01 -0.12686191940E+02  0.25007330718E+02  0.51100000000E-03 0. -1.
        -11    1    3    3    0    0 -0.30073698300E+01  0.36832723932E+01  0.76188496052E+01  0.89809597697E+01  0.51100000000E-03 0.  1.
        -12    1    3    3    0    0 -0.15748526057E+02 -0.44608136488E+01 -0.23823440030E+01  0.16540571161E+02  0.00000000000E+00 0.  1.
</event>
<event>
 7    1  0.1369731E-013  0.5052886E+02  0.7816164E-02  0.1300439E+00
        -11   -1    0    0    0    0  0.00000000000E+00  0.00000000000E+00  0.45593999997E+02  0.45594000000E+02  0.51100000000E-03 0. -1.
         11   -1    0    0    0    0 -0.00000000000E+00 -0.00000000000E+00 -0.45593999997E+02  0.45594000000E+02  0.51100000000E-03 0.  1.
    9900012    2    1    2    0    0 -0.14763090525E+02 -0.10844033720E+00 -0.37884100851E+02  0.50528859596E+02  0.29999999227E+02 0.  0.
         12    1    1    2    0    0  0.14763090525E+02  0.10844033720E+00  0.37884100851E+02  0.40659140404E+02  0.00000000000E+00 0. -1.
         11    1    3    3    0    0  0.22539920713E+01 -0.61916976685E+01 -0.64497448445E+01  0.92204560134E+01  0.51100000000E-03 0. -1.
        -11    1    3    3    0    0 -0.18738858736E+02  0.10552386283E+02 -0.28456106636E+02  0.35668581247E+02  0.51100000000E-03 0.  1.
        -12    1    3    3    0    0  0.17217761401E+01 -0.44691289521E+01 -0.29782493701E+01  0.56398223357E+01  0.00000000000E+00 0.  1.
</event>
<event>
 7    1  0.1369731E-013  0.5052886E+02  0.7816164E-02  0.1300439E+00
        -11   -1    0    0    0    0  0.00000000000E+00  0.00000000000E+00  0.45593999997E+02  0.45594000000E+02  0.51100000000E-03 0. -1.
         11   -1    0    0    0    0 -0.00000000000E+00 -0.00000000000E+00 -0.45593999997E+02  0.45594000000E+02  0.51100000000E-03 0.  1.
    9900012    2    1    2    0    0 -0.11189380343E+02  0.18564882161E+02  0.34399252034E+02  0.50528860528E+02  0.30000002060E+02 0.  0.
        -12    1    1    2    0    0  0.11189380343E+02 -0.18564882161E+02 -0.34399252034E+02  0.40659139472E+02  0.00000000000E+00 0.  1.
         11    1    3    3    0    0 -0.66351460926E+01  0.30315117668E+01  0.70625524431E+01  0.10153564622E+02  0.51100000000E-03 0. -1.
        -11    1    3    3    0    0 -0.71599692733E+00  0.46079067791E+01 -0.45107542624E+01  0.64878625726E+01  0.51100000000E-03 0.  1.
        -12    1    3    3    0    0 -0.38382373226E+01  0.10925463616E+02  0.31847453853E+02  0.33887433333E+02  0.00000000000E+00 0.  1.
</event>
<event>
 7    1  0.1369731E-013  0.5052886E+02  0.7816164E-02  0.1300439E+00
        -11   -1    0    0    0    0  0.00000000000E+00  0.00000000000E+00  0.45593999997E+02  0.45594000000E+02  0.51100000000E-03 0.  1.
         11   -1    0    0    0    0 -0.00000000000E+00 -0.00000000000E+00 -0.45593999997E+02  0.45594000000E+02  0.51100000000E-03 0. -1.
    9900012    2    1    2    0    0  0.35676657682E+02  0.18912159788E+02  0.47615308175E+01  0.50528857523E+02  0.29999992928E+02 0.  0.
        -12    1    1    2    0    0 -0.35676657682E+02 -0.18912159788E+02 -0.47615308175E+01  0.40659142477E+02  0.00000000000E+00 0.  1.
         11    1    3    3    0    0  0.21454732061E+02  0.20852456483E+02 -0.43962633010E+01  0.30240000008E+02  0.51100000000E-03 0. -1.
        -11    1    3    3    0    0  0.14658245283E+02 -0.35526206662E+00  0.10607301059E+02  0.18097104794E+02  0.51100000000E-03 0.  1.
         12    1    3    3    0    0 -0.43631966289E+00 -0.15850346285E+01 -0.14495069401E+01  0.21917527213E+01  0.00000000000E+00 0. -1.
</event>
<event>
 7    1  0.1369731E-013  0.5052886E+02  0.7816164E-02  0.1300439E+00
        -11   -1    0    0    0    0  0.00000000000E+00  0.00000000000E+00  0.45593999997E+02  0.45594000000E+02  0.51100000000E-03 0. -1.
         11   -1    0    0    0    0 -0.00000000000E+00 -0.00000000000E+00 -0.45593999997E+02  0.45594000000E+02  0.51100000000E-03 0.  1.
    9900012    2    1    2    0    0 -0.17850884257E+02 -0.84999085862E-01 -0.36530868233E+02  0.50528860468E+02  0.30000001879E+02 0.  0.
         12    1    1    2    0    0  0.17850884257E+02  0.84999085862E-01  0.36530868233E+02  0.40659139532E+02  0.00000000000E+00 0. -1.
         11    1    3    3    0    0  0.83023434743E+00 -0.79497152604E+01  0.20995555582E+00  0.79957078105E+01  0.51100000000E-03 0. -1.
        -11    1    3    3    0    0 -0.75105406503E+01 -0.39232627989E+00 -0.12111979794E+02  0.14257005140E+02  0.51100000000E-03 0.  1.
         12    1    3    3    0    0 -0.11170577954E+02  0.82570424545E+01 -0.24628843995E+02  0.28276147518E+02  0.00000000000E+00 0. -1.
</event>
<event>
 7    1  0.1369731E-013  0.5052887E+02  0.7816164E-02  0.1300439E+00
        -11   -1    0    0    0    0  0.00000000000E+00  0.00000000000E+00  0.45593999997E+02  0.45594000000E+02  0.51100000000E-03 0. -1.
         11   -1    0    0    0    0 -0.00000000000E+00 -0.00000000000E+00 -0.45593999997E+02  0.45594000000E+02  0.51100000000E-03 0.  1.
    9900012    2    1    2    0    0 -0.35669942031E+02  0.26458378331E+01 -0.19334410011E+02  0.50528872700E+02  0.30000039060E+02 0.  0.
         12    1    1    2    0    0  0.35669942031E+02 -0.26458378331E+01  0.19334410011E+02  0.40659127300E+02  0.00000000000E+00 0. -1.
         11    1    3    3    0    0 -0.34334503523E+02  0.69953498764E+01 -0.11775705383E+02  0.36965663657E+02  0.51100000000E-03 0.  1.
        -11    1    3    3    0    0  0.27350835916E+01  0.19103632754E+01 -0.66750619219E+00  0.34023131653E+01  0.51100000000E-03 0. -1.
        -12    1    3    3    0    0 -0.40705220992E+01 -0.62598753187E+01 -0.68911984354E+01  0.10160895878E+02  0.00000000000E+00 0.  1.
</event>
<event>
 7    1  0.1369731E-013  0.5052885E+02  0.7816164E-02  0.1300439E+00
        -11   -1    0    0    0    0  0.00000000000E+00  0.00000000000E+00  0.45593999997E+02  0.45594000000E+02  0.51100000000E-03 0. -1.
         11   -1    0    0    0    0 -0.00000000000E+00 -0.00000000000E+00 -0.45593999997E+02  0.45594000000E+02  0.51100000000E-03 0.  1.
    9900012    2    1    2    0    0 -0.25967224283E+02 -0.15822346987E+02 -0.26991161712E+02  0.50528853283E+02  0.29999980040E+02 0.  0.
         12    1    1    2    0    0  0.25967224283E+02  0.15822346987E+02  0.26991161712E+02  0.40659146717E+02  0.00000000000E+00 0. -1.
         11    1    3    3    0    0  0.21933653433E+01  0.54025897919E+01 -0.11125058909E+01  0.59360338280E+01  0.51100000000E-03 0. -1.
        -11    1    3    3    0    0 -0.14807890073E+02 -0.83950150807E+01 -0.16998117394E+02  0.24055890793E+02  0.51100000000E-03 0.  1.
         12    1    3    3    0    0 -0.13352699553E+02 -0.12829921698E+02 -0.88805384280E+01  0.20536928663E+02  0.00000000000E+00 0. -1.
</event>
<event>
 7    1  0.1369731E-013  0.5052886E+02  0.7816164E-02  0.1300439E+00
        -11   -1    0    0    0    0  0.00000000000E+00  0.00000000000E+00  0.45593999997E+02  0.45594000000E+02  0.51100000000E-03 0. -1.
         11   -1    0    0    0    0 -0.00000000000E+00 -0.00000000000E+00 -0.45593999997E+02  0.45594000000E+02  0.51100000000E-03 0.  1.
    9900012    2    1    2    0    0 -0.15778607864E+02  0.32284326116E+01 -0.37333336892E+02  0.50528864658E+02  0.30000014614E+02 0.  0.
         12    1    1    2    0    0  0.15778607864E+02 -0.32284326116E+01  0.37333336892E+02  0.40659135342E+02  0.00000000000E+00 0. -1.
         11    1    3    3    0    0 -0.76189549447E+01 -0.12718731377E+02 -0.11753017421E+02  0.18919514292E+02  0.51100000000E-03 0. -1.
        -11    1    3    3    0    0 -0.37607641391E+01  0.11014833032E+02 -0.13380056897E+02  0.17734029899E+02  0.51100000000E-03 0.  1.
         12    1    3    3    0    0 -0.43988887804E+01  0.49323309565E+01 -0.12200262574E+02  0.13875320466E+02  0.00000000000E+00 0. -1.
</event>
<event>
 7    1  0.1369731E-013  0.5052884E+02  0.7816164E-02  0.1300439E+00
        -11   -1    0    0    0    0  0.00000000000E+00  0.00000000000E+00  0.45593999997E+02  0.45594000000E+02  0.51100000000E-03 0. -1.
         11   -1    0    0    0    0 -0.00000000000E+00 -0.00000000000E+00 -0.45593999997E+02  0.45594000000E+02  0.51100000000E-03 0.  1.
    9900012    2    1    2    0    0 -0.68448227657E+01  0.23195949324E+02  0.32684299609E+02  0.50528842303E+02  0.29999946664E+02 0.  0.
        -12    1    1    2    0    0  0.68448227657E+01 -0.23195949324E+02 -0.32684299609E+02  0.40659157697E+02  0.00000000000E+00 0.  1.
         11    1    3    3    0    0  0.96736263448E+01  0.20978795793E+01  0.11629973869E+02  0.15272080338E+02  0.51100000000E-03 0. -1.
        -11    1    3    3    0    0 -0.14171948192E+02  0.12483487872E+02  0.11191588929E+02  0.21952978113E+02  0.51100000000E-03 0.  1.
        -12    1    3    3    0    0 -0.23465009188E+01  0.86145818724E+01  0.98627368100E+01  0.13303783852E+02  0.00000000000E+00 0.  1.
</event>
<event>
 7    1  0.1369731E-013  0.5052885E+02  0.7816164E-02  0.1300439E+00
        -11   -1    0    0    0    0  0.00000000000E+00  0.00000000000E+00  0.45593999997E+02  0.45594000000E+02  0.51100000000E-03 0. -1.
         11   -1    0    0    0    0 -0.00000000000E+00 -0.00000000000E+00 -0.45593999997E+02  0.45594000000E+02  0.51100000000E-03 0.  1.
    9900012    2    1    2    0    0  0.27193117563E+02 -0.26449404322E+02 -0.14633163914E+02  0.50528854437E+02  0.29999983545E+02 0.  0.
         12    1    1    2    0    0 -0.27193117563E+02  0.26449404322E+02  0.14633163914E+02  0.40659145563E+02  0.00000000000E+00 0. -1.
         11    1    3    3    0    0 -0.97580230453E+00  0.46969555074E+01 -0.14025104782E+01  0.49980613320E+01  0.51100000000E-03 0. -1.
        -11    1    3    3    0    0  0.20418503832E+01 -0.51764834415E+00 -0.35450273563E+01  0.41236309260E+01  0.51100000000E-03 0.  1.
         12    1    3    3    0    0  0.26127069485E+02 -0.30628711486E+02 -0.96856260793E+01  0.41407162179E+02  0.00000000000E+00 0. -1.
</event>
<event>
 7    1  0.1369731E-013  0.5052887E+02  0.7816164E-02  0.1300439E+00
        -11   -1    0    0    0    0  0.00000000000E+00  0.00000000000E+00  0.45593999997E+02  0.45594000000E+02  0.51100000000E-03 0.  1.
         11   -1    0    0    0    0 -0.00000000000E+00 -0.00000000000E+00 -0.45593999997E+02  0.45594000000E+02  0.51100000000E-03 0. -1.
    9900012    2    1    2    0    0 -0.32707663888E+02 -0.11182706806E+02 -0.21408433842E+02  0.50528865133E+02  0.30000016059E+02 0.  0.
        -12    1    1    2    0    0  0.32707663888E+02  0.11182706806E+02  0.21408433842E+02  0.40659134867E+02  0.00000000000E+00 0.  1.
         11    1    3    3    0    0 -0.64748123165E+01  0.63290082772E+00 -0.77884185991E+01  0.10148064965E+02  0.51100000000E-03 0. -1.
        -11    1    3    3    0    0 -0.15719791718E+02 -0.11040887609E+02  0.42118875231E+01  0.19666037923E+02  0.51100000000E-03 0.  1.
        -12    1    3    3    0    0 -0.10513059854E+02 -0.77472002487E+00 -0.17831902766E+02  0.20714762245E+02  0.00000000000E+00 0.  1.
</event>
<event>
 7    1  0.1369731E-013  0.5052884E+02  0.7816164E-02  0.1300439E+00
        -11   -1    0    0    0    0  0.00000000000E+00  0.00000000000E+00  0.45593999997E+02  0.45594000000E+02  0.51100000000E-03 0. -1.
         11   -1    0    0    0    0 -0.00000000000E+00 -0.00000000000E+00 -0.45593999997E+02  0.45594000000E+02  0.51100000000E-03 0.  1.
    9900012    2    1    2    0    0 -0.40163697143E+02 -0.62810525315E+01  0.77031572558E+00  0.50528836513E+02  0.29999929066E+02 0.  0.
        -12    1    1    2    0    0  0.40163697143E+02  0.62810525315E+01 -0.77031572558E+00  0.40659163487E+02  0.00000000000E+00 0.  1.
         11    1    3    3    0    0 -0.28292790811E+02  0.69175026384E+01 -0.15225624365E+01  0.29165939918E+02  0.51100000000E-03 0. -1.
        -11    1    3    3    0    0 -0.20227803927E+01 -0.95549378542E+01 -0.20841677756E+01  0.99866027003E+01  0.51100000000E-03 0.  1.
        -12    1    3    3    0    0 -0.98481259391E+01 -0.36436173157E+01  0.43770459377E+01  0.11376293896E+02  0.00000000000E+00 0.  1.
</event>
<event>
 7    1  0.1369731E-013  0.5052886E+02  0.7816164E-02  0.1300439E+00
        -11   -1    0    0    0    0  0.00000000000E+00  0.00000000000E+00  0.45593999997E+02  0.45594000000E+02  0.51100000000E-03 0. -1.
         11   -1    0    0    0    0 -0.00000000000E+00 -0.00000000000E+00 -0.45593999997E+02  0.45594000000E+02  0.51100000000E-03 0.  1.
    9900012    2    1    2    0    0 -0.19681900083E+02  0.49549891956E+01  0.35231192093E+02  0.50528855825E+02  0.29999987765E+02 0.  0.
        -12    1    1    2    0    0  0.19681900083E+02 -0.49549891956E+01 -0.35231192093E+02  0.40659144175E+02  0.00000000000E+00 0.  1.
         11    1    3    3    0    0 -0.17022946129E+02  0.12337327905E+02  0.27848283696E+02  0.34892939971E+02  0.51100000000E-03 0. -1.
        -11    1    3    3    0    0 -0.35983695773E+01 -0.92622305670E+01  0.23918725503E+01  0.10220481067E+02  0.51100000000E-03 0.  1.
        -12    1    3    3    0    0  0.93941562262E+00  0.18798918573E+01  0.49910358462E+01  0.54154347863E+01  0.00000000000E+00 0.  1.
</event>
<event>
 7    1  0.1369731E-013  0.5052886E+02  0.7816164E-02  0.1300439E+00
        -11   -1    0    0    0    0  0.00000000000E+00  0.00000000000E+00  0.45593999997E+02  0.45594000000E+02  0.51100000000E-03 0.  1.
         11   -1    0    0    0    0 -0.00000000000E+00 -0.00000000000E+00 -0.45593999997E+02  0.45594000000E+02  0.51100000000E-03 0. -1.
    9900012    2    1    2    0    0 -0.16466371787E+02  0.28210281922E+02 -0.24211657032E+02  0.50528859057E+02  0.29999997591E+02 0.  0.
         12    1    1    2    0    0  0.16466371787E+02 -0.28210281922E+02  0.24211657032E+02  0.40659140943E+02  0.00000000000E+00 0. -1.
         11    1    3    3    0    0 -0.76012311186E+01  0.15590886037E+02 -0.25484756099E+02  0.30827378020E+02  0.51100000000E-03 0. -1.
        -11    1    3    3    0    0 -0.84953284218E+01  0.14467231910E+02 -0.92937897090E+00  0.16802831597E+02  0.51100000000E-03 0.  1.
         12    1    3    3    0    0 -0.36981224628E+00 -0.18478360251E+01  0.22024780372E+01  0.28986494403E+01  0.00000000000E+00 0. -1.
</event>
<event>
 7    1  0.1369731E-013  0.5052885E+02  0.7816164E-02  0.1300439E+00
        -11   -1    0    0    0    0  0.00000000000E+00  0.00000000000E+00  0.45593999997E+02  0.45594000000E+02  0.51100000000E-03 0. -1.
         11   -1    0    0    0    0 -0.00000000000E+00 -0.00000000000E+00 -0.45593999997E+02  0.45594000000E+02  0.51100000000E-03 0.  1.
    9900012    2    1    2    0    0  0.24605848521E+02 -0.63785774643E+01 -0.31733769950E+02  0.50528853586E+02  0.29999980959E+02 0.  0.
         12    1    1    2    0    0 -0.24605848521E+02  0.63785774643E+01  0.31733769950E+02  0.40659146414E+02  0.00000000000E+00 0. -1.
         11    1    3    3    0    0 -0.37646618707E+01 -0.17448904428E+01 -0.89701016478E+00  0.42452266318E+01  0.51100000000E-03 0. -1.
        -11    1    3    3    0    0  0.21943677192E+02  0.10089615777E+01 -0.30675516026E+02  0.37729699918E+02  0.51100000000E-03 0.  1.
        -12    1    3    3    0    0  0.64268331995E+01 -0.56426485992E+01 -0.16124375947E+00  0.85539270360E+01  0.00000000000E+00 0.  1.
</event>
<event>
 7    1  0.1369731E-013  0.5052886E+02  0.7816164E-02  0.1300439E+00
        -11   -1    0    0    0    0  0.00000000000E+00  0.00000000000E+00  0.45593999997E+02  0.45594000000E+02  0.51100000000E-03 0. -1.
         11   -1    0    0    0    0 -0.00000000000E+00 -0.00000000000E+00 -0.45593999997E+02  0.45594000000E+02  0.51100000000E-03 0.  1.
    9900012    2    1    2    0    0 -0.22360473411E+02  0.33728567844E+02 -0.39444130651E+01  0.50528862596E+02  0.30000008347E+02 0.  0.
         12    1    1    2    0    0  0.22360473411E+02 -0.33728567844E+02  0.39444130651E+01  0.40659137404E+02  0.00000000000E+00 0. -1.
         11    1    3    3    0    0  0.22403319703E+01  0.13667957294E+02 -0.32514831352E+01  0.14226886053E+02  0.51100000000E-03 0. -1.
        -11    1    3    3    0    0 -0.22880883349E+02  0.83645724950E+01  0.86931007744E+00  0.24377378779E+02  0.51100000000E-03 0.  1.
        -12    1    3    3    0    0 -0.17199220325E+01  0.11696038055E+02 -0.15622400074E+01  0.11924597764E+02  0.00000000000E+00 0.  1.
</event>
<event>
 7    1  0.1369731E-013  0.5052886E+02  0.7816164E-02  0.1300439E+00
        -11   -1    0    0    0    0  0.00000000000E+00  0.00000000000E+00  0.45593999997E+02  0.45594000000E+02  0.51100000000E-03 0. -1.
         11   -1    0    0    0    0 -0.00000000000E+00 -0.00000000000E+00 -0.45593999997E+02  0.45594000000E+02  0.51100000000E-03 0.  1.
    9900012    2    1    2    0    0  0.67405193661E+01  0.10120375996E+02 -0.38798314514E+02  0.50528858092E+02  0.29999994655E+02 0.  0.
         12    1    1    2    0    0 -0.67405193661E+01 -0.10120375996E+02  0.38798314514E+02  0.40659141908E+02  0.00000000000E+00 0. -1.
         11    1    3    3    0    0 -0.63865219995E+00  0.29863848912E+01  0.37326850816E+01  0.48227906372E+01  0.51100000000E-03 0. -1.
        -11    1    3    3    0    0  0.56400981472E+01  0.57820000337E+01 -0.42737065490E+02  0.43493666187E+02  0.51100000000E-03 0.  1.
        -12    1    3    3    0    0  0.17390734189E+01  0.13519910712E+01  0.20606589430E+00  0.22124012669E+01  0.00000000000E+00 0.  1.
</event>
<event>
 7    1  0.1369731E-013  0.5052886E+02  0.7816164E-02  0.1300439E+00
        -11   -1    0    0    0    0  0.00000000000E+00  0.00000000000E+00  0.45593999997E+02  0.45594000000E+02  0.51100000000E-03 0.  1.
         11   -1    0    0    0    0 -0.00000000000E+00 -0.00000000000E+00 -0.45593999997E+02  0.45594000000E+02  0.51100000000E-03 0. -1.
    9900012    2    1    2    0    0  0.29729653878E+02  0.18742781587E+02 -0.20445576812E+02  0.50528858439E+02  0.29999995710E+02 0.  0.
         12    1    1    2    0    0 -0.29729653878E+02 -0.18742781587E+02  0.20445576812E+02  0.40659141561E+02  0.00000000000E+00 0. -1.
         11    1    3    3    0    0 -0.48583372389E+00  0.32355836573E+01  0.65444808440E+00  0.33366657859E+01  0.51100000000E-03 0. -1.
        -11    1    3    3    0    0  0.30345555589E+02  0.20112886343E+02 -0.21944181454E+02  0.42507976205E+02  0.51100000000E-03 0.  1.
        -12    1    3    3    0    0 -0.13006798738E+00 -0.46056884130E+01  0.84415655768E+00  0.46842164482E+01  0.00000000000E+00 0.  1.
</event>
<event>
 7    1  0.1369731E-013  0.5052885E+02  0.7816164E-02  0.1300439E+00
        -11   -1    0    0    0    0  0.00000000000E+00  0.00000000000E+00  0.45593999997E+02  0.45594000000E+02  0.51100000000E-03 0. -1.
         11   -1    0    0    0    0 -0.00000000000E+00 -0.00000000000E+00 -0.45593999997E+02  0.45594000000E+02  0.51100000000E-03 0.  1.
    9900012    2    1    2    0    0  0.38475830395E+00  0.20445455414E+02  0.35142588950E+02  0.50528852885E+02  0.29999978829E+02 0.  0.
        -12    1    1    2    0    0 -0.38475830395E+00 -0.20445455414E+02 -0.35142588950E+02  0.40659147115E+02  0.00000000000E+00 0.  1.
         11    1    3    3    0    0 -0.66707425299E+01 -0.25865268663E+01  0.84971326307E+01  0.11108113716E+02  0.51100000000E-03 0. -1.
        -11    1    3    3    0    0  0.15079791807E+01  0.19092323661E+02  0.26396133072E+02  0.32612063188E+02  0.51100000000E-03 0.  1.
        -12    1    3    3    0    0  0.55475216531E+01  0.39396586192E+01  0.24932324769E+00  0.68086759807E+01  0.00000000000E+00 0.  1.
</event>
<event>
 7    1  0.1476743E-013  0.5052886E+02  0.7816164E-02  0.1300439E+00
        -11   -1    0    0    0    0  0.00000000000E+00  0.00000000000E+00  0.45593999997E+02  0.45594000000E+02  0.51100000000E-03 0. -1.
         11   -1    0    0    0    0 -0.00000000000E+00 -0.00000000000E+00 -0.45593999997E+02  0.45594000000E+02  0.51100000000E-03 0.  1.
    9900012    2    1    2    0    0 -0.84777032063E+01  0.17684001693E+02 -0.35616992685E+02  0.50528861600E+02  0.30000005319E+02 0.  0.
         12    1    1    2    0    0  0.84777032063E+01 -0.17684001693E+02  0.35616992685E+02  0.40659138400E+02  0.00000000000E+00 0. -1.
         11    1    3    3    0    0 -0.35570497852E+01  0.49672071150E+01  0.19477250952E+01  0.64124397078E+01  0.51100000000E-03 0. -1.
        -11    1    3    3    0    0 -0.49861429450E+01  0.17577241533E+02 -0.29884961490E+02  0.35027588625E+02  0.51100000000E-03 0.  1.
        -12    1    3    3    0    0  0.65489523852E-01 -0.48604469550E+01 -0.76797562903E+01  0.90888332672E+01  0.00000000000E+00 0.  1.
</event>
<event>
 7    1  0.1369731E-013  0.5052885E+02  0.7816164E-02  0.1300439E+00
        -11   -1    0    0    0    0  0.00000000000E+00  0.00000000000E+00  0.45593999997E+02  0.45594000000E+02  0.51100000000E-03 0. -1.
         11   -1    0    0    0    0 -0.00000000000E+00 -0.00000000000E+00 -0.45593999997E+02  0.45594000000E+02  0.51100000000E-03 0.  1.
    9900012    2    1    2    0    0  0.25555550899E+02  0.11391456186E+02  0.29501105318E+02  0.50528847638E+02  0.29999962881E+02 0.  0.
        -12    1    1    2    0    0 -0.25555550899E+02 -0.11391456186E+02 -0.29501105318E+02  0.40659152362E+02  0.00000000000E+00 0.  1.
         11    1    3    3    0    0  0.24107817408E+02  0.69205975559E+01  0.24135112679E+02  0.34807832380E+02  0.51100000000E-03 0. -1.
        -11    1    3    3    0    0  0.17620093741E+01  0.71640054311E+01 -0.21880128247E+01  0.76951316580E+01  0.51100000000E-03 0.  1.
        -12    1    3    3    0    0 -0.31427588319E+00 -0.26931468008E+01  0.75540054635E+01  0.80258836002E+01  0.00000000000E+00 0.  1.
</event>
<event>
 7    1  0.1369731E-013  0.5052886E+02  0.7816164E-02  0.1300439E+00
        -11   -1    0    0    0    0  0.00000000000E+00  0.00000000000E+00  0.45593999997E+02  0.45594000000E+02  0.51100000000E-03 0. -1.
         11   -1    0    0    0    0 -0.00000000000E+00 -0.00000000000E+00 -0.45593999997E+02  0.45594000000E+02  0.51100000000E-03 0.  1.
    9900012    2    1    2    0    0  0.20223253406E+02  0.21271121478E+02  0.28137605885E+02  0.50528862624E+02  0.30000008431E+02 0.  0.
        -12    1    1    2    0    0 -0.20223253406E+02 -0.21271121478E+02 -0.28137605885E+02  0.40659137376E+02  0.00000000000E+00 0.  1.
         11    1    3    3    0    0  0.34736544139E+01  0.17563677377E+02  0.17024265495E+02  0.24705761553E+02  0.51100000000E-03 0. -1.
        -11    1    3    3    0    0  0.15570599432E+02  0.68137819382E+01  0.32739357305E+01  0.17308663912E+02  0.51100000000E-03 0.  1.
        -12    1    3    3    0    0  0.11789995591E+01 -0.31063378373E+01  0.78394046596E+01  0.85144371592E+01  0.00000000000E+00 0.  1.
</event>
<event>
 7    1  0.1369731E-013  0.5052885E+02  0.7816164E-02  0.1300439E+00
        -11   -1    0    0    0    0  0.00000000000E+00  0.00000000000E+00  0.45593999997E+02  0.45594000000E+02  0.51100000000E-03 0. -1.
         11   -1    0    0    0    0 -0.00000000000E+00 -0.00000000000E+00 -0.45593999997E+02  0.45594000000E+02  0.51100000000E-03 0.  1.
    9900012    2    1    2    0    0  0.46166393084E+01 -0.18136438087E+02  0.36096018975E+02  0.50528851819E+02  0.29999975589E+02 0.  0.
        -12    1    1    2    0    0 -0.46166393084E+01  0.18136438087E+02 -0.36096018975E+02  0.40659148181E+02  0.00000000000E+00 0.  1.
         11    1    3    3    0    0  0.16490277756E+02 -0.81012745715E+01  0.26520962452E+02  0.32263312907E+02  0.51100000000E-03 0. -1.
        -11    1    3    3    0    0 -0.50989991582E+01 -0.45804388053E+01  0.40486038062E+01  0.79606158747E+01  0.51100000000E-03 0.  1.
         12    1    3    3    0    0 -0.67746392890E+01 -0.54547247106E+01  0.55264527167E+01  0.10304923037E+02  0.00000000000E+00 0. -1.
</event>
<event>
 7    1  0.1369731E-013  0.5052886E+02  0.7816164E-02  0.1300439E+00
        -11   -1    0    0    0    0  0.00000000000E+00  0.00000000000E+00  0.45593999997E+02  0.45594000000E+02  0.51100000000E-03 0. -1.
         11   -1    0    0    0    0 -0.00000000000E+00 -0.00000000000E+00 -0.45593999997E+02  0.45594000000E+02  0.51100000000E-03 0.  1.
    9900012    2    1    2    0    0 -0.18661821846E+02  0.21053710306E+02 -0.29353767914E+02  0.50528855850E+02  0.29999987841E+02 0.  0.
         12    1    1    2    0    0  0.18661821846E+02 -0.21053710306E+02  0.29353767914E+02  0.40659144150E+02  0.00000000000E+00 0. -1.
         11    1    3    3    0    0 -0.29767970618E+00 -0.32265176907E+01  0.29483903734E+01  0.43808715652E+01  0.51100000000E-03 0. -1.
        -11    1    3    3    0    0 -0.13891890576E+02  0.18680173452E+02 -0.31152368450E+02  0.38889633121E+02  0.51100000000E-03 0.  1.
         12    1    3    3    0    0 -0.44722515643E+01  0.56000545437E+01 -0.11497898381E+01  0.72583511640E+01  0.00000000000E+00 0. -1.
</event>
<event>
 7    1  0.1369731E-013  0.5052885E+02  0.7816164E-02  0.1300439E+00
        -11   -1    0    0    0    0  0.00000000000E+00  0.00000000000E+00  0.45593999997E+02  0.45594000000E+02  0.51100000000E-03 0. -1.
         11   -1    0    0    0    0 -0.00000000000E+00 -0.00000000000E+00 -0.45593999997E+02  0.45594000000E+02  0.51100000000E-03 0.  1.
    9900012    2    1    2    0    0 -0.21150252760E+02 -0.28971347339E+01 -0.34604039144E+02  0.50528854576E+02  0.29999983970E+02 0.  0.
         12    1    1    2    0    0  0.21150252760E+02  0.28971347339E+01  0.34604039144E+02  0.40659145424E+02  0.00000000000E+00 0. -1.
         11    1    3    3    0    0 -0.10202287068E+00 -0.28785051220E+01 -0.12681461300E+02  0.13004447753E+02  0.51100000000E-03 0. -1.
        -11    1    3    3    0    0 -0.20811427554E+02 -0.47514806543E+01 -0.79652837455E+01  0.22784596346E+02  0.51100000000E-03 0.  1.
        -12    1    3    3    0    0 -0.23680233528E+00  0.47328510424E+01 -0.13957294099E+02  0.14739810477E+02  0.00000000000E+00 0.  1.
</event>
<event>
 7    1  0.1369731E-013  0.5052886E+02  0.7816164E-02  0.1300439E+00
        -11   -1    0    0    0    0  0.00000000000E+00  0.00000000000E+00  0.45593999997E+02  0.45594000000E+02  0.51100000000E-03 0. -1.
         11   -1    0    0    0    0 -0.00000000000E+00 -0.00000000000E+00 -0.45593999997E+02  0.45594000000E+02  0.51100000000E-03 0.  1.
    9900012    2    1    2    0    0 -0.23586470271E+02  0.32883350662E+02  0.39407293291E+01  0.50528859843E+02  0.29999999980E+02 0.  0.
        -12    1    1    2    0    0  0.23586470271E+02 -0.32883350662E+02 -0.39407293291E+01  0.40659140157E+02  0.00000000000E+00 0.  1.
         11    1    3    3    0    0 -0.33214581582E+01  0.19170278817E+02  0.38338243937E+01  0.19830024810E+02  0.51100000000E-03 0. -1.
        -11    1    3    3    0    0 -0.23735057653E+02  0.13265176697E+02  0.33644091732E+00  0.27192481816E+02  0.51100000000E-03 0.  1.
        -12    1    3    3    0    0  0.34700455400E+01  0.44789514797E+00 -0.22953598190E+00  0.35063532166E+01  0.00000000000E+00 0.  1.
</event>
<event>
 7    1  0.1369731E-013  0.5052887E+02  0.7816164E-02  0.1300439E+00
        -11   -1    0    0    0    0  0.00000000000E+00  0.00000000000E+00  0.45593999997E+02  0.45594000000E+02  0.51100000000E-03 0. -1.
         11   -1    0    0    0    0 -0.00000000000E+00 -0.00000000000E+00 -0.45593999997E+02  0.45594000000E+02  0.51100000000E-03 0.  1.
    9900012    2    1    2    0    0 -0.99078543637E+01  0.17269509288E+02 -0.35450861659E+02  0.50528866690E+02  0.30000020792E+02 0.  0.
         12    1    1    2    0    0  0.99078543637E+01 -0.17269509288E+02  0.35450861659E+02  0.40659133310E+02  0.00000000000E+00 0. -1.
         11    1    3    3    0    0 -0.77502394444E+00 -0.12673185612E+01  0.37587127871E+01  0.40416185529E+01  0.51100000000E-03 0. -1.
        -11    1    3    3    0    0 -0.81667056935E+01  0.20795239236E+02 -0.36770254359E+02  0.43025442039E+02  0.51100000000E-03 0.  1.
         12    1    3    3    0    0 -0.96612472570E+00 -0.22584113868E+01 -0.24393200867E+01  0.34618060984E+01  0.00000000000E+00 0. -1.
</event>
<event>
 7    1  0.1373137E-013  0.5052884E+02  0.7816164E-02  0.1300439E+00
        -11   -1    0    0    0    0  0.00000000000E+00  0.00000000000E+00  0.45593999997E+02  0.45594000000E+02  0.51100000000E-03 0. -1.
         11   -1    0    0    0    0 -0.00000000000E+00 -0.00000000000E+00 -0.45593999997E+02  0.45594000000E+02  0.51100000000E-03 0.  1.
    9900012    2    1    2    0    0 -0.12959287122E+01  0.69386360493E+01 -0.40041766068E+02  0.50528841975E+02  0.29999945666E+02 0.  0.
         12    1    1    2    0    0  0.12959287122E+01 -0.69386360493E+01  0.40041766068E+02  0.40659158025E+02  0.00000000000E+00 0. -1.
         11    1    3    3    0    0 -0.28799785327E+00  0.36757595021E+01  0.32289247129E+01  0.49010310898E+01  0.51100000000E-03 0. -1.
        -11    1    3    3    0    0  0.54554327280E+01  0.15254322690E+01 -0.32175158822E+02  0.32670009724E+02  0.51100000000E-03 0.  1.
         12    1    3    3    0    0 -0.64633635870E+01  0.17374442782E+01 -0.11095531959E+02  0.12957801161E+02  0.00000000000E+00 0. -1.
</event>
<event>
 7    1  0.1369731E-013  0.5052885E+02  0.7816164E-02  0.1300439E+00
        -11   -1    0    0    0    0  0.00000000000E+00  0.00000000000E+00  0.45593999997E+02  0.45594000000E+02  0.51100000000E-03 0.  1.
         11   -1    0    0    0    0 -0.00000000000E+00 -0.00000000000E+00 -0.45593999997E+02  0.45594000000E+02  0.51100000000E-03 0. -1.
    9900012    2    1    2    0    0 -0.23470212120E+02  0.27897047141E+02  0.18001953262E+02  0.50528850754E+02  0.29999972352E+02 0.  0.
        -12    1    1    2    0    0  0.23470212120E+02 -0.27897047141E+02 -0.18001953262E+02  0.40659149246E+02  0.00000000000E+00 0.  1.
         11    1    3    3    0    0 -0.23166460448E+02  0.10110314337E+02  0.48108926236E+01  0.25730294086E+02  0.51100000000E-03 0. -1.
        -11    1    3    3    0    0  0.25405756363E+01  0.14735797095E+02  0.52850704631E+01  0.15859703990E+02  0.51100000000E-03 0.  1.
        -12    1    3    3    0    0 -0.28443273084E+01  0.30509357084E+01  0.79059901757E+01  0.89388526776E+01  0.00000000000E+00 0.  1.
</event>
<event>
 7    1  0.1369731E-013  0.5052886E+02  0.7816164E-02  0.1300439E+00
        -11   -1    0    0    0    0  0.00000000000E+00  0.00000000000E+00  0.45593999997E+02  0.45594000000E+02  0.51100000000E-03 0. -1.
         11   -1    0    0    0    0 -0.00000000000E+00 -0.00000000000E+00 -0.45593999997E+02  0.45594000000E+02  0.51100000000E-03 0.  1.
    9900012    2    1    2    0    0  0.25611602754E+02 -0.21504155488E+00  0.31577927297E+02  0.50528856737E+02  0.29999990538E+02 0.  0.
        -12    1    1    2    0    0 -0.25611602754E+02  0.21504155488E+00 -0.31577927297E+02  0.40659143263E+02  0.00000000000E+00 0.  1.
         11    1    3    3    0    0  0.49610125254E+01  0.90905171821E+01  0.71930139245E+00  0.10381066548E+02  0.51100000000E-03 0.  1.
        -11    1    3    3    0    0  0.15559623179E+02 -0.30885705906E+01  0.26806291307E+02  0.31148328939E+02  0.51100000000E-03 0. -1.
         12    1    3    3    0    0  0.50909670490E+01 -0.62169881464E+01  0.40523345976E+01  0.89994612504E+01  0.00000000000E+00 0. -1.
</event>
<event>
 7    1  0.1369731E-013  0.5052886E+02  0.7816164E-02  0.1300439E+00
        -11   -1    0    0    0    0  0.00000000000E+00  0.00000000000E+00  0.45593999997E+02  0.45594000000E+02  0.51100000000E-03 0.  1.
         11   -1    0    0    0    0 -0.00000000000E+00 -0.00000000000E+00 -0.45593999997E+02  0.45594000000E+02  0.51100000000E-03 0. -1.
    9900012    2    1    2    0    0  0.40363534466E+02  0.47605739637E+01  0.11348211122E+01  0.50528858371E+02  0.29999995506E+02 0.  0.
         12    1    1    2    0    0 -0.40363534466E+02 -0.47605739637E+01 -0.11348211122E+01  0.40659141629E+02  0.00000000000E+00 0. -1.
         11    1    3    3    0    0  0.29874779649E+02 -0.44720098611E+01 -0.39120946304E+01  0.30459905055E+02  0.51100000000E-03 0. -1.
        -11    1    3    3    0    0  0.57437842796E+01  0.14252351575E+01  0.84528507063E+01  0.10318577345E+02  0.51100000000E-03 0.  1.
         12    1    3    3    0    0  0.47449705366E+01  0.78073486673E+01 -0.34059349637E+01  0.97503759714E+01  0.00000000000E+00 0. -1.
</event>
<event>
 7    1  0.1369731E-013  0.5052884E+02  0.7816164E-02  0.1300439E+00
        -11   -1    0    0    0    0  0.00000000000E+00  0.00000000000E+00  0.45593999997E+02  0.45594000000E+02  0.51100000000E-03 0. -1.
         11   -1    0    0    0    0 -0.00000000000E+00 -0.00000000000E+00 -0.45593999997E+02  0.45594000000E+02  0.51100000000E-03 0.  1.
    9900012    2    1    2    0    0 -0.82888102124E+01 -0.36304452621E+01 -0.39639408644E+02  0.50528840820E+02  0.29999942158E+02 0.  0.
         12    1    1    2    0    0  0.82888102124E+01  0.36304452621E+01  0.39639408644E+02  0.40659159180E+02  0.00000000000E+00 0. -1.
         11    1    3    3    0    0  0.87286712443E+01 -0.10913804435E+01 -0.26415397172E+01  0.91846908114E+01  0.51100000000E-03 0. -1.
        -11    1    3    3    0    0 -0.10732285633E+02  0.16957282494E+01 -0.22405744345E+02  0.24901301756E+02  0.51100000000E-03 0.  1.
        -12    1    3    3    0    0 -0.62851958240E+01 -0.42347930680E+01 -0.14592124582E+02  0.16442848253E+02  0.00000000000E+00 0.  1.
</event>
<event>
 7    1  0.1369731E-013  0.5052886E+02  0.7816164E-02  0.1300439E+00
        -11   -1    0    0    0    0  0.00000000000E+00  0.00000000000E+00  0.45593999997E+02  0.45594000000E+02  0.51100000000E-03 0. -1.
         11   -1    0    0    0    0 -0.00000000000E+00 -0.00000000000E+00 -0.45593999997E+02  0.45594000000E+02  0.51100000000E-03 0.  1.
    9900012    2    1    2    0    0 -0.20237796194E+02 -0.89909187219E+01  0.34099270558E+02  0.50528864903E+02  0.30000015360E+02 0.  0.
        -12    1    1    2    0    0  0.20237796194E+02  0.89909187219E+01 -0.34099270558E+02  0.40659135097E+02  0.00000000000E+00 0.  1.
         11    1    3    3    0    0 -0.21005268661E+02 -0.22401070411E+01  0.21565726034E+02  0.30188075969E+02  0.51100000000E-03 0. -1.
        -11    1    3    3    0    0  0.72347196794E+01 -0.11537365466E+01  0.44464045585E+01  0.85698769313E+01  0.51100000000E-03 0.  1.
        -12    1    3    3    0    0 -0.64672472123E+01 -0.55970751342E+01  0.80871399651E+01  0.11770912003E+02  0.00000000000E+00 0.  1.
</event>
<event>
 7    1  0.1369731E-013  0.5052887E+02  0.7816164E-02  0.1300439E+00
        -11   -1    0    0    0    0  0.00000000000E+00  0.00000000000E+00  0.45593999997E+02  0.45594000000E+02  0.51100000000E-03 0. -1.
         11   -1    0    0    0    0 -0.00000000000E+00 -0.00000000000E+00 -0.45593999997E+02  0.45594000000E+02  0.51100000000E-03 0.  1.
    9900012    2    1    2    0    0  0.14905143508E+02  0.96478499144E+01 -0.36577601275E+02  0.50528865405E+02  0.30000016887E+02 0.  0.
         12    1    1    2    0    0 -0.14905143508E+02 -0.96478499144E+01  0.36577601275E+02  0.40659134595E+02  0.00000000000E+00 0. -1.
         11    1    3    3    0    0  0.15404939767E+02 -0.28845858336E+00 -0.12536347074E+02  0.19863418029E+02  0.51100000000E-03 0. -1.
        -11    1    3    3    0    0  0.22692613753E+01  0.13504886003E+02 -0.13651765947E+02  0.19336551060E+02  0.51100000000E-03 0.  1.
        -12    1    3    3    0    0 -0.27690576342E+01 -0.35685775053E+01 -0.10389488253E+02  0.11328896317E+02  0.00000000000E+00 0.  1.
</event>
<event>
 7    1  0.1369731E-013  0.5052886E+02  0.7816164E-02  0.1300439E+00
        -11   -1    0    0    0    0  0.00000000000E+00  0.00000000000E+00  0.45593999997E+02  0.45594000000E+02  0.51100000000E-03 0.  1.
         11   -1    0    0    0    0 -0.00000000000E+00 -0.00000000000E+00 -0.45593999997E+02  0.45594000000E+02  0.51100000000E-03 0. -1.
    9900012    2    1    2    0    0  0.61103489405E+01 -0.38908745459E+02  0.10096484534E+02  0.50528857887E+02  0.29999994034E+02 0.  0.
         12    1    1    2    0    0 -0.61103489405E+01  0.38908745459E+02 -0.10096484534E+02  0.40659142113E+02  0.00000000000E+00 0. -1.
         11    1    3    3    0    0 -0.46650314919E-02  0.28220430580E+01  0.15952057800E+01  0.32417017946E+01  0.51100000000E-03 0. -1.
        -11    1    3    3    0    0  0.10811335120E+02 -0.34794718920E+02  0.11778917947E+02  0.38292301316E+02  0.51100000000E-03 0.  1.
        -12    1    3    3    0    0 -0.46963211476E+01 -0.69360695974E+01 -0.32776391931E+01  0.89948547771E+01  0.00000000000E+00 0.  1.
</event>
<event>
 7    1  0.1369731E-013  0.5052885E+02  0.7816164E-02  0.1300439E+00
        -11   -1    0    0    0    0  0.00000000000E+00  0.00000000000E+00  0.45593999997E+02  0.45594000000E+02  0.51100000000E-03 0. -1.
         11   -1    0    0    0    0 -0.00000000000E+00 -0.00000000000E+00 -0.45593999997E+02  0.45594000000E+02  0.51100000000E-03 0.  1.
    9900012    2    1    2    0    0  0.22137554358E+02  0.13472315640E+02 -0.31330363401E+02  0.50528852536E+02  0.29999977768E+02 0.  0.
         12    1    1    2    0    0 -0.22137554358E+02 -0.13472315640E+02  0.31330363401E+02  0.40659147464E+02  0.00000000000E+00 0. -1.
         11    1    3    3    0    0  0.12300951236E+02 -0.22540243289E+01 -0.67376434457E+00  0.12523896583E+02  0.51100000000E-03 0. -1.
        -11    1    3    3    0    0  0.11541529122E+02  0.16542335198E+02 -0.29658245487E+02  0.35867356661E+02  0.51100000000E-03 0.  1.
         12    1    3    3    0    0 -0.17049259998E+01 -0.81599522924E+00 -0.99835357029E+00  0.21375992913E+01  0.00000000000E+00 0. -1.
</event>
<event>
 7    1  0.1369731E-013  0.5052887E+02  0.7816164E-02  0.1300439E+00
        -11   -1    0    0    0    0  0.00000000000E+00  0.00000000000E+00  0.45593999997E+02  0.45594000000E+02  0.51100000000E-03 0. -1.
         11   -1    0    0    0    0 -0.00000000000E+00 -0.00000000000E+00 -0.45593999997E+02  0.45594000000E+02  0.51100000000E-03 0.  1.
    9900012    2    1    2    0    0  0.29269153223E+02  0.12097421200E+02  0.25497726498E+02  0.50528868349E+02  0.30000025834E+02 0.  0.
        -12    1    1    2    0    0 -0.29269153223E+02 -0.12097421200E+02 -0.25497726498E+02  0.40659131651E+02  0.00000000000E+00 0.  1.
         11    1    3    3    0    0  0.18911035957E+02  0.48284447719E+01  0.30089913116E+01  0.19748295847E+02  0.51100000000E-03 0. -1.
        -11    1    3    3    0    0 -0.36474518567E+01  0.58435248505E+01  0.84070290162E+01  0.10868708519E+02  0.51100000000E-03 0.  1.
         12    1    3    3    0    0  0.14005569123E+02  0.14254515778E+01  0.14081706170E+02  0.19911863984E+02  0.00000000000E+00 0. -1.
</event>
<event>
 7    1  0.1369731E-013  0.5052886E+02  0.7816164E-02  0.1300439E+00
        -11   -1    0    0    0    0  0.00000000000E+00  0.00000000000E+00  0.45593999997E+02  0.45594000000E+02  0.51100000000E-03 0. -1.
         11   -1    0    0    0    0 -0.00000000000E+00 -0.00000000000E+00 -0.45593999997E+02  0.45594000000E+02  0.51100000000E-03 0.  1.
    9900012    2    1    2    0    0  0.83417293850E+01  0.28552861169E+02  0.27718495146E+02  0.50528864455E+02  0.30000013999E+02 0.  0.
        -12    1    1    2    0    0 -0.83417293850E+01 -0.28552861169E+02 -0.27718495146E+02  0.40659135545E+02  0.00000000000E+00 0.  1.
         11    1    3    3    0    0  0.13742793963E+01 -0.21030405903E+01  0.12486524162E+01  0.28054512474E+01  0.51100000000E-03 0. -1.
        -11    1    3    3    0    0  0.12802273554E+01  0.28452321157E+02  0.29420465781E+02  0.40947983691E+02  0.51100000000E-03 0.  1.
        -12    1    3    3    0    0  0.56872226333E+01  0.22035806017E+01 -0.29506230512E+01  0.67754295169E+01  0.00000000000E+00 0.  1.
</event>
<event>
 7    1  0.1369731E-013  0.5052886E+02  0.7816164E-02  0.1300439E+00
        -11   -1    0    0    0    0  0.00000000000E+00  0.00000000000E+00  0.45593999997E+02  0.45594000000E+02  0.51100000000E-03 0. -1.
         11   -1    0    0    0    0 -0.00000000000E+00 -0.00000000000E+00 -0.45593999997E+02  0.45594000000E+02  0.51100000000E-03 0.  1.
    9900012    2    1    2    0    0 -0.51045183067E+00  0.15613214262E+01 -0.40625939762E+02  0.50528864898E+02  0.30000015344E+02 0.  0.
         12    1    1    2    0    0  0.51045183067E+00 -0.15613214262E+01  0.40625939762E+02  0.40659135102E+02  0.00000000000E+00 0. -1.
         11    1    3    3    0    0 -0.19535031749E+01  0.45611287959E+01 -0.77686506068E+01  0.92180259850E+01  0.51100000000E-03 0. -1.
        -11    1    3    3    0    0 -0.72533733827E+00 -0.11346868769E+02 -0.55077489222E+01  0.12633797670E+02  0.51100000000E-03 0.  1.
        -12    1    3    3    0    0  0.21683886825E+01  0.83470613994E+01 -0.27349540233E+02  0.28677041243E+02  0.00000000000E+00 0.  1.
</event>
<event>
 7    1  0.1369731E-013  0.5052886E+02  0.7816164E-02  0.1300439E+00
        -11   -1    0    0    0    0  0.00000000000E+00  0.00000000000E+00  0.45593999997E+02  0.45594000000E+02  0.51100000000E-03 0. -1.
         11   -1    0    0    0    0 -0.00000000000E+00 -0.00000000000E+00 -0.45593999997E+02  0.45594000000E+02  0.51100000000E-03 0.  1.
    9900012    2    1    2    0    0 -0.32797862935E+02 -0.35761018423E+01  0.23762934766E+02  0.50528863436E+02  0.30000010899E+02 0.  0.
        -12    1    1    2    0    0  0.32797862935E+02  0.35761018423E+01 -0.23762934766E+02  0.40659136564E+02  0.00000000000E+00 0.  1.
         11    1    3    3    0    0 -0.73568805407E+01 -0.19046948590E+00  0.91219557435E+01  0.11720496865E+02  0.51100000000E-03 0. -1.
        -11    1    3    3    0    0 -0.95476787952E+00 -0.65353456216E+01 -0.41344490220E+01  0.77920467834E+01  0.51100000000E-03 0.  1.
        -12    1    3    3    0    0 -0.24486214514E+02  0.31497132652E+01  0.18775428044E+02  0.31016319787E+02  0.00000000000E+00 0.  1.
</event>
<event>
 7    1  0.1369731E-013  0.5052886E+02  0.7816164E-02  0.1300439E+00
        -11   -1    0    0    0    0  0.00000000000E+00  0.00000000000E+00  0.45593999997E+02  0.45594000000E+02  0.51100000000E-03 0. -1.
         11   -1    0    0    0    0 -0.00000000000E+00 -0.00000000000E+00 -0.45593999997E+02  0.45594000000E+02  0.51100000000E-03 0.  1.
    9900012    2    1    2    0    0  0.47802429902E+01  0.30385037344E+02 -0.26590681164E+02  0.50528861516E+02  0.30000005065E+02 0.  0.
         12    1    1    2    0    0 -0.47802429902E+01 -0.30385037344E+02  0.26590681164E+02  0.40659138484E+02  0.00000000000E+00 0. -1.
         11    1    3    3    0    0  0.62868842379E+01  0.11299028802E+02 -0.15581214117E+01  0.13023851499E+02  0.51100000000E-03 0. -1.
        -11    1    3    3    0    0 -0.61294850228E+01  0.21714184076E+02 -0.21095846126E+02  0.30888688881E+02  0.51100000000E-03 0.  1.
        -12    1    3    3    0    0  0.46228437750E+01 -0.26281755335E+01 -0.39367136259E+01  0.66163211361E+01  0.00000000000E+00 0.  1.
</event>
<event>
 7    1  0.1565908E-013  0.5052886E+02  0.7816164E-02  0.1300439E+00
        -11   -1    0    0    0    0  0.00000000000E+00  0.00000000000E+00  0.45593999997E+02  0.45594000000E+02  0.51100000000E-03 0. -1.
         11   -1    0    0    0    0 -0.00000000000E+00 -0.00000000000E+00 -0.45593999997E+02  0.45594000000E+02  0.51100000000E-03 0.  1.
    9900012    2    1    2    0    0 -0.21975971751E+02 -0.11837669588E+01 -0.34188024133E+02  0.50528860403E+02  0.30000001681E+02 0.  0.
         12    1    1    2    0    0  0.21975971751E+02  0.11837669588E+01  0.34188024133E+02  0.40659139597E+02  0.00000000000E+00 0. -1.
         11    1    3    3    0    0  0.59024856403E+01  0.26799983540E+01 -0.32226566891E+01  0.72392847926E+01  0.51100000000E-03 0. -1.
        -11    1    3    3    0    0 -0.16649864176E+02 -0.77295018890E+01 -0.19551005641E+02  0.26817997657E+02  0.51100000000E-03 0.  1.
         12    1    3    3    0    0 -0.11228593216E+02  0.38657365762E+01 -0.11414361803E+02  0.16471577953E+02  0.00000000000E+00 0. -1.
</event>
<event>
 7    1  0.1369731E-013  0.5052887E+02  0.7816164E-02  0.1300439E+00
        -11   -1    0    0    0    0  0.00000000000E+00  0.00000000000E+00  0.45593999997E+02  0.45594000000E+02  0.51100000000E-03 0. -1.
         11   -1    0    0    0    0 -0.00000000000E+00 -0.00000000000E+00 -0.45593999997E+02  0.45594000000E+02  0.51100000000E-03 0.  1.
    9900012    2    1    2    0    0 -0.41946685342E+01  0.34202988739E+02  0.21580674056E+02  0.50528866027E+02  0.30000018774E+02 0.  0.
        -12    1    1    2    0    0  0.41946685342E+01 -0.34202988739E+02 -0.21580674056E+02  0.40659133973E+02  0.00000000000E+00 0.  1.
         11    1    3    3    0    0 -0.12815757651E+01 -0.29867944941E+01 -0.50278228117E+00  0.32887943194E+01  0.51100000000E-03 0. -1.
        -11    1    3    3    0    0 -0.10885608329E+02  0.22675272308E+02  0.12205539320E+02  0.27957818822E+02  0.51100000000E-03 0.  1.
         12    1    3    3    0    0  0.79725155598E+01  0.14514510925E+02  0.98779170166E+01  0.19282252885E+02  0.00000000000E+00 0. -1.
</event>
<event>
 7    1  0.1372619E-013  0.5052886E+02  0.7816164E-02  0.1300439E+00
        -11   -1    0    0    0    0  0.00000000000E+00  0.00000000000E+00  0.45593999997E+02  0.45594000000E+02  0.51100000000E-03 0. -1.
         11   -1    0    0    0    0 -0.00000000000E+00 -0.00000000000E+00 -0.45593999997E+02  0.45594000000E+02  0.51100000000E-03 0.  1.
    9900012    2    1    2    0    0 -0.66335899173E+01  0.49376265108E+01 -0.39809304228E+02  0.50528863586E+02  0.30000011357E+02 0.  0.
         12    1    1    2    0    0  0.66335899173E+01 -0.49376265108E+01  0.39809304228E+02  0.40659136414E+02  0.00000000000E+00 0. -1.
         11    1    3    3    0    0 -0.10473184835E+02 -0.28981392068E+01 -0.27480867049E+01  0.11208871141E+02  0.51100000000E-03 0. -1.
        -11    1    3    3    0    0 -0.24975892191E+01  0.48267499302E+01 -0.22637751327E+02  0.23280963300E+02  0.51100000000E-03 0.  1.
         12    1    3    3    0    0  0.63371841369E+01  0.30090157875E+01 -0.14423466197E+02  0.16039029145E+02  0.00000000000E+00 0. -1.
</event>
<event>
 7    1  0.1369731E-013  0.5052887E+02  0.7816164E-02  0.1300439E+00
        -11   -1    0    0    0    0  0.00000000000E+00  0.00000000000E+00  0.45593999997E+02  0.45594000000E+02  0.51100000000E-03 0. -1.
         11   -1    0    0    0    0 -0.00000000000E+00 -0.00000000000E+00 -0.45593999997E+02  0.45594000000E+02  0.51100000000E-03 0.  1.
    9900012    2    1    2    0    0 -0.16308788951E+02  0.78216126687E+01  0.36414429580E+02  0.50528869373E+02  0.30000028945E+02 0.  0.
        -12    1    1    2    0    0  0.16308788951E+02 -0.78216126687E+01 -0.36414429580E+02  0.40659130627E+02  0.00000000000E+00 0.  1.
         11    1    3    3    0    0  0.16158711040E+00  0.11382350099E+02  0.28619939637E+02  0.30800729687E+02  0.51100000000E-03 0. -1.
        -11    1    3    3    0    0 -0.83068768365E+01 -0.44836906798E+01  0.19319091693E+01  0.96353494067E+01  0.51100000000E-03 0.  1.
        -12    1    3    3    0    0 -0.81634992246E+01  0.92295324963E+00  0.58625807735E+01  0.10092790279E+02  0.00000000000E+00 0.  1.
</event>
<event>
 7    1  0.1369731E-013  0.5052886E+02  0.7816164E-02  0.1300439E+00
        -11   -1    0    0    0    0  0.00000000000E+00  0.00000000000E+00  0.45593999997E+02  0.45594000000E+02  0.51100000000E-03 0.  1.
         11   -1    0    0    0    0 -0.00000000000E+00 -0.00000000000E+00 -0.45593999997E+02  0.45594000000E+02  0.51100000000E-03 0. -1.
    9900012    2    1    2    0    0  0.34817659274E+02  0.54940969060E+00 -0.20990339487E+02  0.50528860805E+02  0.30000002902E+02 0.  0.
         12    1    1    2    0    0 -0.34817659274E+02 -0.54940969060E+00  0.20990339487E+02  0.40659139195E+02  0.00000000000E+00 0. -1.
         11    1    3    3    0    0  0.73227200466E+00  0.35777228970E+01 -0.93483785251E+01  0.10036359137E+02  0.51100000000E-03 0. -1.
        -11    1    3    3    0    0  0.24900745123E+02  0.49449621796E+01 -0.29814172633E+01  0.25561467246E+02  0.51100000000E-03 0.  1.
         12    1    3    3    0    0  0.91846421463E+01 -0.79732753860E+01 -0.86605436986E+01  0.14931034421E+02  0.00000000000E+00 0. -1.
</event>
<event>
 7    1  0.1369731E-013  0.5052889E+02  0.7816164E-02  0.1300439E+00
        -11   -1    0    0    0    0  0.00000000000E+00  0.00000000000E+00  0.45593999997E+02  0.45594000000E+02  0.51100000000E-03 0. -1.
         11   -1    0    0    0    0 -0.00000000000E+00 -0.00000000000E+00 -0.45593999997E+02  0.45594000000E+02  0.51100000000E-03 0.  1.
    9900012    2    1    2    0    0 -0.21953712284E+02  0.11690427017E+02 -0.32164137839E+02  0.50528888723E+02  0.30000087763E+02 0.  0.
         12    1    1    2    0    0  0.21953712284E+02 -0.11690427017E+02  0.32164137839E+02  0.40659111277E+02  0.00000000000E+00 0. -1.
         11    1    3    3    0    0 -0.16115062341E+02  0.66212548771E+01 -0.45799311419E+01  0.18014217161E+02  0.51100000000E-03 0. -1.
        -11    1    3    3    0    0 -0.72804143312E+01  0.81293429826E+01 -0.26946348236E+02  0.29072260553E+02  0.51100000000E-03 0.  1.
        -12    1    3    3    0    0  0.14417643884E+01 -0.30601708423E+01 -0.63785846081E+00  0.34424110086E+01  0.00000000000E+00 0.  1.
</event>
<event>
 7    1  0.1369731E-013  0.5052884E+02  0.7816164E-02  0.1300439E+00
        -11   -1    0    0    0    0  0.00000000000E+00  0.00000000000E+00  0.45593999997E+02  0.45594000000E+02  0.51100000000E-03 0. -1.
         11   -1    0    0    0    0 -0.00000000000E+00 -0.00000000000E+00 -0.45593999997E+02  0.45594000000E+02  0.51100000000E-03 0.  1.
    9900012    2    1    2    0    0  0.22102510044E+02 -0.11029386788E+02  0.32295489255E+02  0.50528844212E+02  0.29999952467E+02 0.  0.
        -12    1    1    2    0    0 -0.22102510044E+02  0.11029386788E+02 -0.32295489255E+02  0.40659155788E+02  0.00000000000E+00 0.  1.
         11    1    3    3    0    0  0.49271666914E+01 -0.95503858246E+01  0.21062796313E+02  0.23645892451E+02  0.51100000000E-03 0. -1.
        -11    1    3    3    0    0  0.19198835743E+02 -0.50311648936E+01  0.71240150157E+01  0.21086951042E+02  0.51100000000E-03 0.  1.
        -12    1    3    3    0    0 -0.20234923898E+01  0.35521639297E+01  0.41086779259E+01  0.57960007189E+01  0.00000000000E+00 0.  1.
</event>
<event>
 7    1  0.1369731E-013  0.5052886E+02  0.7816164E-02  0.1300439E+00
        -11   -1    0    0    0    0  0.00000000000E+00  0.00000000000E+00  0.45593999997E+02  0.45594000000E+02  0.51100000000E-03 0.  1.
         11   -1    0    0    0    0 -0.00000000000E+00 -0.00000000000E+00 -0.45593999997E+02  0.45594000000E+02  0.51100000000E-03 0. -1.
    9900012    2    1    2    0    0 -0.40353919056E+02 -0.28392654958E+01  0.40823128862E+01  0.50528862155E+02  0.30000007008E+02 0.  0.
        -12    1    1    2    0    0  0.40353919056E+02  0.28392654958E+01 -0.40823128862E+01  0.40659137845E+02  0.00000000000E+00 0.  1.
         11    1    3    3    0    0 -0.81428351238E+01 -0.47952882320E+01 -0.16326249259E+01  0.95898914222E+01  0.51100000000E-03 0. -1.
        -11    1    3    3    0    0 -0.30055362250E+02  0.10268739801E+02  0.61043261781E+01  0.32342458401E+02  0.51100000000E-03 0.  1.
        -12    1    3    3    0    0 -0.21557216827E+01 -0.83127170650E+01 -0.38938836593E+00  0.85965123321E+01  0.00000000000E+00 0.  1.
</event>
<event>
 7    1  0.1369731E-013  0.5052888E+02  0.7816164E-02  0.1300439E+00
        -11   -1    0    0    0    0  0.00000000000E+00  0.00000000000E+00  0.45593999997E+02  0.45594000000E+02  0.51100000000E-03 0. -1.
         11   -1    0    0    0    0 -0.00000000000E+00 -0.00000000000E+00 -0.45593999997E+02  0.45594000000E+02  0.51100000000E-03 0.  1.
    9900012    2    1    2    0    0 -0.90362407801E+01  0.38155797983E+02 -0.10753868239E+02  0.50528877417E+02  0.30000053396E+02 0.  0.
         12    1    1    2    0    0  0.90362407801E+01 -0.38155797983E+02  0.10753868239E+02  0.40659122583E+02  0.00000000000E+00 0. -1.
         11    1    3    3    0    0  0.39469666255E+01 -0.20296210109E+01 -0.50441823397E+01  0.67187560402E+01  0.51100000000E-03 0. -1.
        -11    1    3    3    0    0 -0.49625192305E+00  0.85598461173E+01  0.23012591017E+01  0.88776700343E+01  0.51100000000E-03 0.  1.
         12    1    3    3    0    0 -0.12486955483E+02  0.31625572876E+02 -0.80109450010E+01  0.34932451342E+02  0.00000000000E+00 0. -1.
</event>
<event>
 7    1  0.1369731E-013  0.5052888E+02  0.7816164E-02  0.1300439E+00
        -11   -1    0    0    0    0  0.00000000000E+00  0.00000000000E+00  0.45593999997E+02  0.45594000000E+02  0.51100000000E-03 0. -1.
         11   -1    0    0    0    0 -0.00000000000E+00 -0.00000000000E+00 -0.45593999997E+02  0.45594000000E+02  0.51100000000E-03 0.  1.
    9900012    2    1    2    0    0 -0.15754714453E+02 -0.19094154148E+02  0.32254705997E+02  0.50528882829E+02  0.30000069847E+02 0.  0.
        -12    1    1    2    0    0  0.15754714453E+02  0.19094154148E+02 -0.32254705997E+02  0.40659117171E+02  0.00000000000E+00 0.  1.
         11    1    3    3    0    0 -0.10038829736E+02 -0.71457930344E+01  0.17264517566E+00  0.12323565522E+02  0.51100000000E-03 0. -1.
        -11    1    3    3    0    0  0.19778376635E+01 -0.16481192698E+01  0.21217131399E+02  0.21372758456E+02  0.51100000000E-03 0.  1.
        -12    1    3    3    0    0 -0.76937223812E+01 -0.10300241844E+02  0.10864929423E+02  0.16832558852E+02  0.00000000000E+00 0.  1.
</event>
<event>
 7    1  0.1369731E-013  0.5052889E+02  0.7816164E-02  0.1300439E+00
        -11   -1    0    0    0    0  0.00000000000E+00  0.00000000000E+00  0.45593999997E+02  0.45594000000E+02  0.51100000000E-03 0. -1.
         11   -1    0    0    0    0 -0.00000000000E+00 -0.00000000000E+00 -0.45593999997E+02  0.45594000000E+02  0.51100000000E-03 0.  1.
    9900012    2    1    2    0    0  0.28930959001E+02  0.26776408448E+02 -0.99592679625E+01  0.50528887166E+02  0.30000083030E+02 0.  0.
        -12    1    1    2    0    0 -0.28930959001E+02 -0.26776408448E+02  0.99592679625E+01  0.40659112834E+02  0.00000000000E+00 0.  1.
         11    1    3    3    0    0  0.15194861873E+02  0.89620487548E+01 -0.49871413620E+01  0.18332313669E+02  0.51100000000E-03 0. -1.
        -11    1    3    3    0    0  0.48947558936E+00  0.80875767452E+01  0.79038465352E+01  0.11318978500E+02  0.51100000000E-03 0.  1.
        -12    1    3    3    0    0  0.13246621539E+02  0.97267829482E+01 -0.12875973136E+02  0.20877594998E+02  0.00000000000E+00 0.  1.
</event>
<event>
 7    1  0.1369731E-013  0.5052886E+02  0.7816164E-02  0.1300439E+00
        -11   -1    0    0    0    0  0.00000000000E+00  0.00000000000E+00  0.45593999997E+02  0.45594000000E+02  0.51100000000E-03 0. -1.
         11   -1    0    0    0    0 -0.00000000000E+00 -0.00000000000E+00 -0.45593999997E+02  0.45594000000E+02  0.51100000000E-03 0.  1.
    9900012    2    1    2    0    0  0.27811922113E+02 -0.70503004633E+00 -0.29650730285E+02  0.50528857296E+02  0.29999992238E+02 0.  0.
         12    1    1    2    0    0 -0.27811922113E+02  0.70503004633E+00  0.29650730285E+02  0.40659142704E+02  0.00000000000E+00 0. -1.
         11    1    3    3    0    0  0.10013263202E+02 -0.99143090279E+01 -0.98764173700E+01  0.17207631557E+02  0.51100000000E-03 0. -1.
        -11    1    3    3    0    0  0.13127410816E+02  0.68723859086E+01 -0.22869238301E+02  0.27249966303E+02  0.51100000000E-03 0.  1.
        -12    1    3    3    0    0  0.46712480950E+01  0.23368930730E+01  0.30949253862E+01  0.60712594366E+01  0.00000000000E+00 0.  1.
</event>
<event>
 7    1  0.1369731E-013  0.5052886E+02  0.7816164E-02  0.1300439E+00
        -11   -1    0    0    0    0  0.00000000000E+00  0.00000000000E+00  0.45593999997E+02  0.45594000000E+02  0.51100000000E-03 0. -1.
         11   -1    0    0    0    0 -0.00000000000E+00 -0.00000000000E+00 -0.45593999997E+02  0.45594000000E+02  0.51100000000E-03 0.  1.
    9900012    2    1    2    0    0  0.37391808994E+01 -0.26417916168E+02  0.30680255041E+02  0.50528858128E+02  0.29999994765E+02 0.  0.
        -12    1    1    2    0    0 -0.37391808994E+01  0.26417916168E+02 -0.30680255041E+02  0.40659141872E+02  0.00000000000E+00 0.  1.
         11    1    3    3    0    0 -0.25819030504E+01 -0.86966179803E+01  0.15556559757E+02  0.18008440781E+02  0.51100000000E-03 0. -1.
        -11    1    3    3    0    0  0.79830813539E+01 -0.21674244998E+02  0.84640874212E+01  0.24599659759E+02  0.51100000000E-03 0.  1.
        -12    1    3    3    0    0 -0.16619974041E+01  0.39529468109E+01  0.66596078630E+01  0.79207575868E+01  0.00000000000E+00 0.  1.
</event>
<event>
 7    1  0.1369731E-013  0.5052886E+02  0.7816164E-02  0.1300439E+00
        -11   -1    0    0    0    0  0.00000000000E+00  0.00000000000E+00  0.45593999997E+02  0.45594000000E+02  0.51100000000E-03 0. -1.
         11   -1    0    0    0    0 -0.00000000000E+00 -0.00000000000E+00 -0.45593999997E+02  0.45594000000E+02  0.51100000000E-03 0.  1.
    9900012    2    1    2    0    0 -0.25975790063E+02  0.21787428370E+02  0.22443981524E+02  0.50528855752E+02  0.29999987543E+02 0.  0.
        -12    1    1    2    0    0  0.25975790063E+02 -0.21787428370E+02 -0.22443981524E+02  0.40659144248E+02  0.00000000000E+00 0.  1.
         11    1    3    3    0    0 -0.62106877322E+01 -0.28343448425E+01  0.46628123205E+01  0.82672832170E+01  0.51100000000E-03 0. -1.
        -11    1    3    3    0    0 -0.20246507099E+02  0.24022721044E+02  0.21755219950E+02  0.38213895005E+02  0.51100000000E-03 0.  1.
        -12    1    3    3    0    0  0.48140476845E+00  0.59905216797E+00 -0.39740507466E+01  0.40476775300E+01  0.00000000000E+00 0.  1.
</event>
<event>
 7    1  0.1369731E-013  0.5052886E+02  0.7816164E-02  0.1300439E+00
        -11   -1    0    0    0    0  0.00000000000E+00  0.00000000000E+00  0.45593999997E+02  0.45594000000E+02  0.51100000000E-03 0. -1.
         11   -1    0    0    0    0 -0.00000000000E+00 -0.00000000000E+00 -0.45593999997E+02  0.45594000000E+02  0.51100000000E-03 0.  1.
    9900012    2    1    2    0    0 -0.24093068470E+02 -0.43061586011E+01 -0.32467628797E+02  0.50528857487E+02  0.29999992816E+02 0.  0.
         12    1    1    2    0    0  0.24093068470E+02  0.43061586011E+01  0.32467628797E+02  0.40659142513E+02  0.00000000000E+00 0. -1.
         11    1    3    3    0    0  0.21756260586E+01  0.55179728793E+01 -0.12765406194E+02  0.14076113420E+02  0.51100000000E-03 0. -1.
        -11    1    3    3    0    0 -0.25432772194E+02 -0.86764159494E+01 -0.21318501003E+02  0.34301378696E+02  0.51100000000E-03 0.  1.
        -12    1    3    3    0    0 -0.83592233527E+00 -0.11477155310E+01  0.16162784002E+01  0.21513653706E+01  0.00000000000E+00 0.  1.
</event>
<event>
 7    1  0.1483589E-013  0.5052886E+02  0.7816164E-02  0.1300439E+00
        -11   -1    0    0    0    0  0.00000000000E+00  0.00000000000E+00  0.45593999997E+02  0.45594000000E+02  0.51100000000E-03 0. -1.
         11   -1    0    0    0    0 -0.00000000000E+00 -0.00000000000E+00 -0.45593999997E+02  0.45594000000E+02  0.51100000000E-03 0.  1.
    9900012    2    1    2    0    0  0.26640022788E+02 -0.14747411714E+02 -0.26944171501E+02  0.50528863951E+02  0.30000012465E+02 0.  0.
         12    1    1    2    0    0 -0.26640022788E+02  0.14747411714E+02  0.26944171501E+02  0.40659136049E+02  0.00000000000E+00 0. -1.
         11    1    3    3    0    0  0.12878920106E+02  0.67276489070E+01 -0.61556928263E+01  0.15780380140E+02  0.51100000000E-03 0. -1.
        -11    1    3    3    0    0  0.14811072032E+02 -0.17393076493E+02 -0.20196253816E+02  0.30492222502E+02  0.51100000000E-03 0.  1.
         12    1    3    3    0    0 -0.10499693502E+01 -0.40819841272E+01 -0.59222485865E+00  0.42562613095E+01  0.00000000000E+00 0. -1.
</event>
<event>
 7    1  0.1369731E-013  0.5052886E+02  0.7816164E-02  0.1300439E+00
        -11   -1    0    0    0    0  0.00000000000E+00  0.00000000000E+00  0.45593999997E+02  0.45594000000E+02  0.51100000000E-03 0. -1.
         11   -1    0    0    0    0 -0.00000000000E+00 -0.00000000000E+00 -0.45593999997E+02  0.45594000000E+02  0.51100000000E-03 0.  1.
    9900012    2    1    2    0    0 -0.31856406380E+02 -0.15046116942E+02  0.20296539996E+02  0.50528858368E+02  0.29999995495E+02 0.  0.
        -12    1    1    2    0    0  0.31856406380E+02  0.15046116942E+02 -0.20296539996E+02  0.40659141632E+02  0.00000000000E+00 0.  1.
         11    1    3    3    0    0 -0.23033955994E+02  0.18665363785E+00  0.90295762048E+01  0.24741285638E+02  0.51100000000E-03 0. -1.
        -11    1    3    3    0    0  0.91052695175E+00  0.16169531927E+01  0.50178205238E+01  0.53499644884E+01  0.51100000000E-03 0.  1.
         12    1    3    3    0    0 -0.97329773380E+01 -0.16849723772E+02  0.62491432671E+01  0.20437608242E+02  0.00000000000E+00 0. -1.
</event>
<event>
 7    1  0.1369731E-013  0.5052886E+02  0.7816164E-02  0.1300439E+00
        -11   -1    0    0    0    0  0.00000000000E+00  0.00000000000E+00  0.45593999997E+02  0.45594000000E+02  0.51100000000E-03 0. -1.
         11   -1    0    0    0    0 -0.00000000000E+00 -0.00000000000E+00 -0.45593999997E+02  0.45594000000E+02  0.51100000000E-03 0.  1.
    9900012    2    1    2    0    0  0.43099764595E+01  0.25691422221E+02  0.31217634999E+02  0.50528858251E+02  0.29999995140E+02 0.  0.
        -12    1    1    2    0    0 -0.43099764595E+01 -0.25691422221E+02 -0.31217634999E+02  0.40659141749E+02  0.00000000000E+00 0.  1.
         11    1    3    3    0    0  0.66890379572E+00  0.15535609979E+02  0.22013834439E+02  0.26952022497E+02  0.51100000000E-03 0. -1.
        -11    1    3    3    0    0 -0.19405761765E+01  0.12323290110E+02 -0.14372993606E+00  0.12475975857E+02  0.51100000000E-03 0.  1.
        -12    1    3    3    0    0  0.55816488402E+01 -0.21674778674E+01  0.93475304963E+01  0.11100859897E+02  0.00000000000E+00 0.  1.
</event>
<event>
 7    1  0.1369731E-013  0.5052886E+02  0.7816164E-02  0.1300439E+00
        -11   -1    0    0    0    0  0.00000000000E+00  0.00000000000E+00  0.45593999997E+02  0.45594000000E+02  0.51100000000E-03 0. -1.
         11   -1    0    0    0    0 -0.00000000000E+00 -0.00000000000E+00 -0.45593999997E+02  0.45594000000E+02  0.51100000000E-03 0.  1.
    9900012    2    1    2    0    0  0.28166428710E+02  0.16883795879E+02  0.23974063338E+02  0.50528856102E+02  0.29999988609E+02 0.  0.
        -12    1    1    2    0    0 -0.28166428710E+02 -0.16883795879E+02 -0.23974063338E+02  0.40659143898E+02  0.00000000000E+00 0.  1.
         11    1    3    3    0    0  0.17039591877E+02  0.22187303893E+02  0.90706308038E+01  0.29409190551E+02  0.51100000000E-03 0. -1.
        -11    1    3    3    0    0 -0.11387859400E+01 -0.12013848076E+01  0.43150943117E+00  0.17106605518E+01  0.51100000000E-03 0.  1.
         12    1    3    3    0    0  0.12265622773E+02 -0.41021232064E+01  0.14471923103E+02  0.19409005000E+02  0.00000000000E+00 0. -1.
</event>
<event>
 7    1  0.1369731E-013  0.5052886E+02  0.7816164E-02  0.1300439E+00
        -11   -1    0    0    0    0  0.00000000000E+00  0.00000000000E+00  0.45593999997E+02  0.45594000000E+02  0.51100000000E-03 0. -1.
         11   -1    0    0    0    0 -0.00000000000E+00 -0.00000000000E+00 -0.45593999997E+02  0.45594000000E+02  0.51100000000E-03 0.  1.
    9900012    2    1    2    0    0 -0.78095574290E+01 -0.18030014288E+02  0.35596281967E+02  0.50528857211E+02  0.29999991977E+02 0.  0.
        -12    1    1    2    0    0  0.78095574290E+01  0.18030014288E+02 -0.35596281967E+02  0.40659142789E+02  0.00000000000E+00 0.  1.
         11    1    3    3    0    0  0.16441934034E+00 -0.15300154842E+02  0.17888709587E+02  0.23539917223E+02  0.51100000000E-03 0. -1.
        -11    1    3    3    0    0  0.47682205129E+01  0.26453620615E+01  0.14448677409E+01  0.56410557829E+01  0.51100000000E-03 0.  1.
        -12    1    3    3    0    0 -0.12742197282E+02 -0.53752215076E+01  0.16262704639E+02  0.21347884205E+02  0.00000000000E+00 0.  1.
</event>
<event>
 7    1  0.1369731E-013  0.5052886E+02  0.7816164E-02  0.1300439E+00
        -11   -1    0    0    0    0  0.00000000000E+00  0.00000000000E+00  0.45593999997E+02  0.45594000000E+02  0.51100000000E-03 0. -1.
         11   -1    0    0    0    0 -0.00000000000E+00 -0.00000000000E+00 -0.45593999997E+02  0.45594000000E+02  0.51100000000E-03 0.  1.
    9900012    2    1    2    0    0  0.76101682575E+00  0.37354522399E+02  0.16038266289E+02  0.50528862333E+02  0.30000007548E+02 0.  0.
        -12    1    1    2    0    0 -0.76101682575E+00 -0.37354522399E+02 -0.16038266289E+02  0.40659137667E+02  0.00000000000E+00 0.  1.
         11    1    3    3    0    0 -0.53437731913E+01  0.34050684512E+02  0.95364610220E+01  0.35762398084E+02  0.51100000000E-03 0. -1.
        -11    1    3    3    0    0  0.27537361746E+01  0.68842622801E+00  0.92692481477E+01  0.96941196132E+01  0.51100000000E-03 0.  1.
         12    1    3    3    0    0  0.33510538425E+01  0.26154116590E+01 -0.27674428811E+01  0.50723446355E+01  0.00000000000E+00 0. -1.
</event>
<event>
 7    1  0.1369731E-013  0.5052886E+02  0.7816164E-02  0.1300439E+00
        -11   -1    0    0    0    0  0.00000000000E+00  0.00000000000E+00  0.45593999997E+02  0.45594000000E+02  0.51100000000E-03 0. -1.
         11   -1    0    0    0    0 -0.00000000000E+00 -0.00000000000E+00 -0.45593999997E+02  0.45594000000E+02  0.51100000000E-03 0.  1.
    9900012    2    1    2    0    0  0.14629358989E+00  0.21551938076E+02  0.34476925602E+02  0.50528857908E+02  0.29999994098E+02 0.  0.
        -12    1    1    2    0    0 -0.14629358989E+00 -0.21551938076E+02 -0.34476925602E+02  0.40659142092E+02  0.00000000000E+00 0.  1.
         11    1    3    3    0    0  0.39061348260E+01  0.17487697891E+02  0.16633184823E+02  0.24448728074E+02  0.51100000000E-03 0. -1.
        -11    1    3    3    0    0 -0.10468578235E+02  0.59573390465E+01  0.11022716516E+02  0.16327317552E+02  0.51100000000E-03 0.  1.
        -12    1    3    3    0    0  0.67087369992E+01 -0.18930988616E+01  0.68210242628E+01  0.97528122825E+01  0.00000000000E+00 0.  1.
</event>
<event>
 7    1  0.1369731E-013  0.5052886E+02  0.7816164E-02  0.1300439E+00
        -11   -1    0    0    0    0  0.00000000000E+00  0.00000000000E+00  0.45593999997E+02  0.45594000000E+02  0.51100000000E-03 0.  1.
         11   -1    0    0    0    0 -0.00000000000E+00 -0.00000000000E+00 -0.45593999997E+02  0.45594000000E+02  0.51100000000E-03 0. -1.
    9900012    2    1    2    0    0  0.30562565671E+02  0.26599022179E+02 -0.34039548230E+01  0.50528864376E+02  0.30000013757E+02 0.  0.
         12    1    1    2    0    0 -0.30562565671E+02 -0.26599022179E+02  0.34039548230E+01  0.40659135624E+02  0.00000000000E+00 0. -1.
         11    1    3    3    0    0  0.17181019640E+02 -0.11890119157E+01 -0.78477759818E+01  0.18925875761E+02  0.51100000000E-03 0. -1.
        -11    1    3    3    0    0  0.90419980663E+01  0.12987012190E+02  0.14490877628E+01  0.15890880097E+02  0.51100000000E-03 0.  1.
         12    1    3    3    0    0  0.43395479648E+01  0.14801021904E+02  0.29947333960E+01  0.15712108517E+02  0.00000000000E+00 0. -1.
</event>
<event>
 7    1  0.1369731E-013  0.5052886E+02  0.7816164E-02  0.1300439E+00
        -11   -1    0    0    0    0  0.00000000000E+00  0.00000000000E+00  0.45593999997E+02  0.45594000000E+02  0.51100000000E-03 0. -1.
         11   -1    0    0    0    0 -0.00000000000E+00 -0.00000000000E+00 -0.45593999997E+02  0.45594000000E+02  0.51100000000E-03 0.  1.
    9900012    2    1    2    0    0 -0.41289044703E+01 -0.11374623159E+02  0.38816698864E+02  0.50528855704E+02  0.29999987399E+02 0.  0.
        -12    1    1    2    0    0  0.41289044703E+01  0.11374623159E+02 -0.38816698864E+02  0.40659144296E+02  0.00000000000E+00 0.  1.
         11    1    3    3    0    0 -0.15489857904E+02 -0.92534989551E+01  0.22697833045E+02  0.28995768070E+02  0.51100000000E-03 0. -1.
        -11    1    3    3    0    0 -0.68959439413E+00  0.13732311330E+01  0.80224870028E+00  0.17334668763E+01  0.51100000000E-03 0.  1.
         12    1    3    3    0    0  0.12050547828E+02 -0.34943553366E+01  0.15316617119E+02  0.19799620758E+02  0.00000000000E+00 0. -1.
</event>
<event>
 7    1  0.1369731E-013  0.5052886E+02  0.7816164E-02  0.1300439E+00
        -11   -1    0    0    0    0  0.00000000000E+00  0.00000000000E+00  0.45593999997E+02  0.45594000000E+02  0.51100000000E-03 0. -1.
         11   -1    0    0    0    0 -0.00000000000E+00 -0.00000000000E+00 -0.45593999997E+02  0.45594000000E+02  0.51100000000E-03 0.  1.
    9900012    2    1    2    0    0  0.28021978303E+02  0.26083899218E+02  0.13695433473E+02  0.50528856325E+02  0.29999989285E+02 0.  0.
        -12    1    1    2    0    0 -0.28021978303E+02 -0.26083899218E+02 -0.13695433473E+02  0.40659143675E+02  0.00000000000E+00 0.  1.
         11    1    3    3    0    0  0.16926178589E+02  0.21544250105E+02  0.20577144135E+01  0.27475160111E+02  0.51100000000E-03 0. -1.
        -11    1    3    3    0    0  0.14999123500E+02  0.18133599667E+01  0.82887371040E+01  0.17232676611E+02  0.51100000000E-03 0.  1.
        -12    1    3    3    0    0 -0.39033237863E+01  0.27262891458E+01  0.33489819554E+01  0.58210196035E+01  0.00000000000E+00 0.  1.
</event>
<event>
 7    1  0.1369731E-013  0.5052886E+02  0.7816164E-02  0.1300439E+00
        -11   -1    0    0    0    0  0.00000000000E+00  0.00000000000E+00  0.45593999997E+02  0.45594000000E+02  0.51100000000E-03 0. -1.
         11   -1    0    0    0    0 -0.00000000000E+00 -0.00000000000E+00 -0.45593999997E+02  0.45594000000E+02  0.51100000000E-03 0.  1.
    9900012    2    1    2    0    0  0.89083034179E+01  0.89596001151E+00  0.39661130702E+02  0.50528857083E+02  0.29999991591E+02 0.  0.
        -12    1    1    2    0    0 -0.89083034179E+01 -0.89596001151E+00 -0.39661130702E+02  0.40659142917E+02  0.00000000000E+00 0.  1.
         11    1    3    3    0    0  0.32308534946E+01  0.99895953162E+01  0.73730187038E+01  0.12829334899E+02  0.51100000000E-03 0. -1.
        -11    1    3    3    0    0 -0.26078948903E+01 -0.97866927696E+01  0.11577993052E+02  0.15382795406E+02  0.51100000000E-03 0.  1.
        -12    1    3    3    0    0  0.82853448136E+01  0.69305746493E+00  0.20710118946E+02  0.22316726778E+02  0.00000000000E+00 0.  1.
</event>
<event>
 7    1  0.1369731E-013  0.5052886E+02  0.7816164E-02  0.1300439E+00
        -11   -1    0    0    0    0  0.00000000000E+00  0.00000000000E+00  0.45593999997E+02  0.45594000000E+02  0.51100000000E-03 0. -1.
         11   -1    0    0    0    0 -0.00000000000E+00 -0.00000000000E+00 -0.45593999997E+02  0.45594000000E+02  0.51100000000E-03 0.  1.
    9900012    2    1    2    0    0  0.90211097263E+01  0.17677497996E+02 -0.35486493166E+02  0.50528861380E+02  0.30000004650E+02 0.  0.
         12    1    1    2    0    0 -0.90211097263E+01 -0.17677497996E+02  0.35486493166E+02  0.40659138620E+02  0.00000000000E+00 0. -1.
         11    1    3    3    0    0  0.38649017258E+01 -0.42124858166E+01 -0.11327181307E+01  0.58279973172E+01  0.51100000000E-03 0. -1.
        -11    1    3    3    0    0 -0.30455435366E+01  0.18906415691E+02 -0.27927770776E+02  0.33862785923E+02  0.51100000000E-03 0.  1.
        -12    1    3    3    0    0  0.82017515371E+01  0.29835681217E+01 -0.64260042598E+01  0.10838078140E+02  0.00000000000E+00 0.  1.
</event>
<event>
 7    1  0.1369731E-013  0.5052887E+02  0.7816164E-02  0.1300439E+00
        -11   -1    0    0    0    0  0.00000000000E+00  0.00000000000E+00  0.45593999997E+02  0.45594000000E+02  0.51100000000E-03 0. -1.
         11   -1    0    0    0    0 -0.00000000000E+00 -0.00000000000E+00 -0.45593999997E+02  0.45594000000E+02  0.51100000000E-03 0.  1.
    9900012    2    1    2    0    0  0.33416628056E+02  0.11884223701E+02 -0.19881129728E+02  0.50528866673E+02  0.30000020739E+02 0.  0.
         12    1    1    2    0    0 -0.33416628056E+02 -0.11884223701E+02  0.19881129728E+02  0.40659133327E+02  0.00000000000E+00 0. -1.
         11    1    3    3    0    0 -0.10480459100E+01 -0.57917035924E+00 -0.13968804088E+01  0.18398678409E+01  0.51100000000E-03 0. -1.
        -11    1    3    3    0    0  0.26031589028E+02  0.12157323136E+02 -0.40061420387E+00  0.28733336478E+02  0.51100000000E-03 0.  1.
        -12    1    3    3    0    0  0.84330849384E+01  0.30607092388E+00 -0.18083635116E+02  0.19955662354E+02  0.00000000000E+00 0.  1.
</event>
<event>
 7    1  0.1369731E-013  0.5052886E+02  0.7816164E-02  0.1300439E+00
        -11   -1    0    0    0    0  0.00000000000E+00  0.00000000000E+00  0.45593999997E+02  0.45594000000E+02  0.51100000000E-03 0. -1.
         11   -1    0    0    0    0 -0.00000000000E+00 -0.00000000000E+00 -0.45593999997E+02  0.45594000000E+02  0.51100000000E-03 0.  1.
    9900012    2    1    2    0    0 -0.87038640431E+01 -0.17172676133E+01 -0.39679457041E+02  0.50528861195E+02  0.30000004088E+02 0.  0.
         12    1    1    2    0    0  0.87038640431E+01  0.17172676133E+01  0.39679457041E+02  0.40659138805E+02  0.00000000000E+00 0. -1.
         11    1    3    3    0    0 -0.15397514843E+02 -0.58882831098E+01 -0.11796970925E+02  0.20271257104E+02  0.51100000000E-03 0. -1.
        -11    1    3    3    0    0  0.95793654842E+00  0.39380192552E+01 -0.20547483948E+02  0.20943369713E+02  0.51100000000E-03 0.  1.
         12    1    3    3    0    0  0.57357142519E+01  0.23299624127E+00 -0.73350021681E+01  0.93142343772E+01  0.00000000000E+00 0. -1.
</event>
<event>
 7    1  0.1369731E-013  0.5052884E+02  0.7816164E-02  0.1300439E+00
        -11   -1    0    0    0    0  0.00000000000E+00  0.00000000000E+00  0.45593999997E+02  0.45594000000E+02  0.51100000000E-03 0. -1.
         11   -1    0    0    0    0 -0.00000000000E+00 -0.00000000000E+00 -0.45593999997E+02  0.45594000000E+02  0.51100000000E-03 0.  1.
    9900012    2    1    2    0    0 -0.11826750000E+01 -0.38802314042E+01  0.40456297997E+02  0.50528844038E+02  0.29999951937E+02 0.  0.
        -12    1    1    2    0    0  0.11826750000E+01  0.38802314042E+01 -0.40456297997E+02  0.40659155962E+02  0.00000000000E+00 0.  1.
         11    1    3    3    0    0  0.40257888961E+01  0.21956401005E+01  0.18805019250E+02  0.19356047141E+02  0.51100000000E-03 0. -1.
        -11    1    3    3    0    0 -0.37019008414E+01  0.33670746022E+01 -0.22072723331E+01  0.54693064121E+01  0.51100000000E-03 0.  1.
        -12    1    3    3    0    0 -0.15065630546E+01 -0.94429461069E+01  0.23858551081E+02  0.25703490484E+02  0.00000000000E+00 0.  1.
</event>
<event>
 7    1  0.1372186E-013  0.5052882E+02  0.7816164E-02  0.1300439E+00
        -11   -1    0    0    0    0  0.00000000000E+00  0.00000000000E+00  0.45593999997E+02  0.45594000000E+02  0.51100000000E-03 0. -1.
         11   -1    0    0    0    0 -0.00000000000E+00 -0.00000000000E+00 -0.45593999997E+02  0.45594000000E+02  0.51100000000E-03 0.  1.
    9900012    2    1    2    0    0 -0.21529969946E+02  0.20762944371E+02 -0.27541415640E+02  0.50528818500E+02  0.29999874312E+02 0.  0.
         12    1    1    2    0    0  0.21529969946E+02 -0.20762944371E+02  0.27541415640E+02  0.40659181500E+02  0.00000000000E+00 0. -1.
         11    1    3    3    0    0  0.22179600099E+00 -0.42038224176E+01  0.12822813968E+01  0.44006320258E+01  0.51100000000E-03 0. -1.
        -11    1    3    3    0    0 -0.10221139413E+02  0.99745419291E+01 -0.21574067483E+02  0.25872834511E+02  0.51100000000E-03 0.  1.
         12    1    3    3    0    0 -0.11530626534E+02  0.14992224859E+02 -0.72496295534E+01  0.20255351963E+02  0.00000000000E+00 0. -1.
</event>
<event>
 7    1  0.1369731E-013  0.5052886E+02  0.7816164E-02  0.1300439E+00
        -11   -1    0    0    0    0  0.00000000000E+00  0.00000000000E+00  0.45593999997E+02  0.45594000000E+02  0.51100000000E-03 0. -1.
         11   -1    0    0    0    0 -0.00000000000E+00 -0.00000000000E+00 -0.45593999997E+02  0.45594000000E+02  0.51100000000E-03 0.  1.
    9900012    2    1    2    0    0 -0.32605190288E+02 -0.64123798240E+01  0.23429657365E+02  0.50528857204E+02  0.29999991956E+02 0.  0.
        -12    1    1    2    0    0  0.32605190288E+02  0.64123798240E+01 -0.23429657365E+02  0.40659142796E+02  0.00000000000E+00 0.  1.
         11    1    3    3    0    0 -0.20670382801E+02 -0.13917153483E+02  0.19644665249E+02  0.31731132334E+02  0.51100000000E-03 0. -1.
        -11    1    3    3    0    0 -0.13145207073E+02  0.45426908693E+01  0.88011123044E-01  0.13908280108E+02  0.51100000000E-03 0.  1.
        -12    1    3    3    0    0  0.12103995865E+01  0.29620827899E+01  0.36969809930E+01  0.48894447615E+01  0.00000000000E+00 0.  1.
</event>
<event>
 7    1  0.1933147E-013  0.5052886E+02  0.7816164E-02  0.1300439E+00
        -11   -1    0    0    0    0  0.00000000000E+00  0.00000000000E+00  0.45593999997E+02  0.45594000000E+02  0.51100000000E-03 0. -1.
         11   -1    0    0    0    0 -0.00000000000E+00 -0.00000000000E+00 -0.45593999997E+02  0.45594000000E+02  0.51100000000E-03 0.  1.
    9900012    2    1    2    0    0  0.16032316270E+02 -0.18104624174E+02  0.32685669797E+02  0.50528860910E+02  0.30000003221E+02 0.  0.
        -12    1    1    2    0    0 -0.16032316270E+02  0.18104624174E+02 -0.32685669797E+02  0.40659139090E+02  0.00000000000E+00 0.  1.
         11    1    3    3    0    0  0.19446093888E+02 -0.97721812330E+01  0.28415610171E+02  0.35792359453E+02  0.51100000000E-03 0. -1.
        -11    1    3    3    0    0  0.10594989114E+01 -0.68097662716E+01 -0.17237900251E+01  0.71040063999E+01  0.51100000000E-03 0.  1.
         12    1    3    3    0    0 -0.44732765293E+01 -0.15226766698E+01  0.59938496510E+01  0.76324950564E+01  0.00000000000E+00 0. -1.
</event>
<event>
 7    1  0.1369731E-013  0.5052885E+02  0.7816164E-02  0.1300439E+00
        -11   -1    0    0    0    0  0.00000000000E+00  0.00000000000E+00  0.45593999997E+02  0.45594000000E+02  0.51100000000E-03 0. -1.
         11   -1    0    0    0    0 -0.00000000000E+00 -0.00000000000E+00 -0.45593999997E+02  0.45594000000E+02  0.51100000000E-03 0.  1.
    9900012    2    1    2    0    0 -0.19174817972E+00 -0.28548224262E+02  0.28950450002E+02  0.50528850584E+02  0.29999971835E+02 0.  0.
        -12    1    1    2    0    0  0.19174817972E+00  0.28548224262E+02 -0.28950450002E+02  0.40659149416E+02  0.00000000000E+00 0.  1.
         11    1    3    3    0    0  0.10091997928E+02 -0.20022006963E+02  0.15776986951E+02  0.27416099331E+02  0.51100000000E-03 0. -1.
        -11    1    3    3    0    0 -0.12748106974E+02 -0.97552931678E+01  0.10006245624E+02  0.18915732288E+02  0.51100000000E-03 0.  1.
         12    1    3    3    0    0  0.24643608666E+01  0.12290758682E+01  0.31672174267E+01  0.41970189658E+01  0.00000000000E+00 0. -1.
</event>
<event>
 7    1  0.1369731E-013  0.5052886E+02  0.7816164E-02  0.1300439E+00
        -11   -1    0    0    0    0  0.00000000000E+00  0.00000000000E+00  0.45593999997E+02  0.45594000000E+02  0.51100000000E-03 0. -1.
         11   -1    0    0    0    0 -0.00000000000E+00 -0.00000000000E+00 -0.45593999997E+02  0.45594000000E+02  0.51100000000E-03 0.  1.
    9900012    2    1    2    0    0 -0.30844092870E+02 -0.18793228657E+02 -0.18671428993E+02  0.50528858729E+02  0.29999996591E+02 0.  0.
         12    1    1    2    0    0  0.30844092870E+02  0.18793228657E+02  0.18671428993E+02  0.40659141271E+02  0.00000000000E+00 0. -1.
         11    1    3    3    0    0 -0.43473894389E+01 -0.52520666537E+01 -0.93201700538E+00  0.68813265456E+01  0.51100000000E-03 0. -1.
        -11    1    3    3    0    0 -0.53240125269E+01 -0.11162973904E+02 -0.18586101397E+02  0.22324879869E+02  0.51100000000E-03 0.  1.
        -12    1    3    3    0    0 -0.21172690904E+02 -0.23781880989E+01  0.84668940943E+00  0.21322652314E+02  0.00000000000E+00 0.  1.
</event>
<event>
 7    1  0.1369731E-013  0.5052886E+02  0.7816164E-02  0.1300439E+00
        -11   -1    0    0    0    0  0.00000000000E+00  0.00000000000E+00  0.45593999997E+02  0.45594000000E+02  0.51100000000E-03 0. -1.
         11   -1    0    0    0    0 -0.00000000000E+00 -0.00000000000E+00 -0.45593999997E+02  0.45594000000E+02  0.51100000000E-03 0.  1.
    9900012    2    1    2    0    0  0.19940503873E+02 -0.61704683635E+01 -0.34892226293E+02  0.50528857975E+02  0.29999994302E+02 0.  0.
         12    1    1    2    0    0 -0.19940503873E+02  0.61704683635E+01  0.34892226293E+02  0.40659142025E+02  0.00000000000E+00 0. -1.
         11    1    3    3    0    0 -0.49919157850E+01 -0.70627336240E+01 -0.17244807688E+02  0.19292092212E+02  0.51100000000E-03 0. -1.
        -11    1    3    3    0    0  0.19116872631E+02 -0.21023616475E+01 -0.13267602770E+02  0.23364589173E+02  0.51100000000E-03 0.  1.
        -12    1    3    3    0    0  0.58155470269E+01  0.29946269079E+01 -0.43798158342E+01  0.78721765911E+01  0.00000000000E+00 0.  1.
</event>
<event>
 7    1  0.1369731E-013  0.5052886E+02  0.7816164E-02  0.1300439E+00
        -11   -1    0    0    0    0  0.00000000000E+00  0.00000000000E+00  0.45593999997E+02  0.45594000000E+02  0.51100000000E-03 0. -1.
         11   -1    0    0    0    0 -0.00000000000E+00 -0.00000000000E+00 -0.45593999997E+02  0.45594000000E+02  0.51100000000E-03 0.  1.
    9900012    2    1    2    0    0  0.17808939439E+02 -0.20998037862E+01  0.36491067567E+02  0.50528861887E+02  0.30000006192E+02 0.  0.
        -12    1    1    2    0    0 -0.17808939439E+02  0.20998037862E+01 -0.36491067567E+02  0.40659138113E+02  0.00000000000E+00 0.  1.
         11    1    3    3    0    0  0.30390540558E+01 -0.43947629181E+00  0.39355354162E+01  0.49917359944E+01  0.51100000000E-03 0. -1.
        -11    1    3    3    0    0  0.22490406444E+02  0.19916409609E+01  0.18968779595E+02  0.29488974471E+02  0.51100000000E-03 0.  1.
        -12    1    3    3    0    0 -0.77205210611E+01 -0.36519684552E+01  0.13586752556E+02  0.16048151422E+02  0.00000000000E+00 0.  1.
</event>
<event>
 7    1  0.1369731E-013  0.5052886E+02  0.7816164E-02  0.1300439E+00
        -11   -1    0    0    0    0  0.00000000000E+00  0.00000000000E+00  0.45593999997E+02  0.45594000000E+02  0.51100000000E-03 0.  1.
         11   -1    0    0    0    0 -0.00000000000E+00 -0.00000000000E+00 -0.45593999997E+02  0.45594000000E+02  0.51100000000E-03 0. -1.
    9900012    2    1    2    0    0 -0.19647699532E+02 -0.34924692035E+02  0.68846978227E+01  0.50528864805E+02  0.30000015063E+02 0.  0.
        -12    1    1    2    0    0  0.19647699532E+02  0.34924692035E+02 -0.68846978227E+01  0.40659135195E+02  0.00000000000E+00 0.  1.
         11    1    3    3    0    0 -0.21670901662E+02 -0.22125073456E+02  0.23845563433E+00  0.30971014120E+02  0.51100000000E-03 0. -1.
        -11    1    3    3    0    0  0.42151120514E+01 -0.39365255641E+01  0.84702083911E+01  0.10247332998E+02  0.51100000000E-03 0.  1.
         12    1    3    3    0    0 -0.21919099218E+01 -0.88630930150E+01 -0.18239662027E+01  0.93105176873E+01  0.00000000000E+00 0. -1.
</event>
<event>
 7    1  0.1369731E-013  0.5052886E+02  0.7816164E-02  0.1300439E+00
        -11   -1    0    0    0    0  0.00000000000E+00  0.00000000000E+00  0.45593999997E+02  0.45594000000E+02  0.51100000000E-03 0. -1.
         11   -1    0    0    0    0 -0.00000000000E+00 -0.00000000000E+00 -0.45593999997E+02  0.45594000000E+02  0.51100000000E-03 0.  1.
    9900012    2    1    2    0    0 -0.16372710528E+02  0.59851006973E+01 -0.36732525384E+02  0.50528862017E+02  0.30000006588E+02 0.  0.
         12    1    1    2    0    0  0.16372710528E+02 -0.59851006973E+01  0.36732525384E+02  0.40659137983E+02  0.00000000000E+00 0. -1.
         11    1    3    3    0    0  0.67294598853E+01  0.37749256594E+01 -0.20048788680E+02  0.21482309510E+02  0.51100000000E-03 0. -1.
        -11    1    3    3    0    0 -0.13915461240E+02  0.38656373467E+01 -0.10090405080E+02  0.17618157922E+02  0.51100000000E-03 0.  1.
         12    1    3    3    0    0 -0.91867091737E+01 -0.16554623087E+01 -0.65933316238E+01  0.11428394585E+02  0.00000000000E+00 0. -1.
</event>
<event>
 7    1  0.1369731E-013  0.5052886E+02  0.7816164E-02  0.1300439E+00
        -11   -1    0    0    0    0  0.00000000000E+00  0.00000000000E+00  0.45593999997E+02  0.45594000000E+02  0.51100000000E-03 0. -1.
         11   -1    0    0    0    0 -0.00000000000E+00 -0.00000000000E+00 -0.45593999997E+02  0.45594000000E+02  0.51100000000E-03 0.  1.
    9900012    2    1    2    0    0 -0.23301495178E+01 -0.10632577556E+02  0.39175044234E+02  0.50528863352E+02  0.30000010644E+02 0.  0.
        -12    1    1    2    0    0  0.23301495178E+01  0.10632577556E+02 -0.39175044234E+02  0.40659136648E+02  0.00000000000E+00 0.  1.
         11    1    3    3    0    0  0.88807590785E+01 -0.82616695917E+01  0.26577217672E+02  0.29214235668E+02  0.51100000000E-03 0. -1.
        -11    1    3    3    0    0 -0.12529180932E+02 -0.37266536700E+01  0.13851706533E+02  0.19045684460E+02  0.51100000000E-03 0.  1.
         12    1    3    3    0    0  0.13182723360E+01  0.13557457053E+01 -0.12538799709E+01  0.22689432233E+01  0.00000000000E+00 0. -1.
</event>
<event>
 7    1  0.1369731E-013  0.5052886E+02  0.7816164E-02  0.1300439E+00
        -11   -1    0    0    0    0  0.00000000000E+00  0.00000000000E+00  0.45593999997E+02  0.45594000000E+02  0.51100000000E-03 0. -1.
         11   -1    0    0    0    0 -0.00000000000E+00 -0.00000000000E+00 -0.45593999997E+02  0.45594000000E+02  0.51100000000E-03 0.  1.
    9900012    2    1    2    0    0  0.23456970556E+02 -0.22147064448E+02 -0.24747603316E+02  0.50528858331E+02  0.29999995384E+02 0.  0.
         12    1    1    2    0    0 -0.23456970556E+02  0.22147064448E+02  0.24747603316E+02  0.40659141669E+02  0.00000000000E+00 0. -1.
         11    1    3    3    0    0  0.59893944664E+01 -0.86920358917E-01 -0.19993129717E+02  0.20871167609E+02  0.51100000000E-03 0. -1.
        -11    1    3    3    0    0  0.15220791627E+02 -0.13565389104E+02 -0.44333362186E+01  0.20864964643E+02  0.51100000000E-03 0.  1.
         12    1    3    3    0    0  0.22467844631E+01 -0.84947549851E+01 -0.32113738076E+00  0.87927260788E+01  0.00000000000E+00 0. -1.
</event>
<event>
 7    1  0.1369731E-013  0.5052885E+02  0.7816164E-02  0.1300439E+00
        -11   -1    0    0    0    0  0.00000000000E+00  0.00000000000E+00  0.45593999997E+02  0.45594000000E+02  0.51100000000E-03 0. -1.
         11   -1    0    0    0    0 -0.00000000000E+00 -0.00000000000E+00 -0.45593999997E+02  0.45594000000E+02  0.51100000000E-03 0.  1.
    9900012    2    1    2    0    0  0.98548473366E+01 -0.21313267556E+02 -0.33193269640E+02  0.50528849255E+02  0.29999967796E+02 0.  0.
         12    1    1    2    0    0 -0.98548473366E+01  0.21313267556E+02  0.33193269640E+02  0.40659150745E+02  0.00000000000E+00 0. -1.
         11    1    3    3    0    0  0.23190780021E+01  0.40250801886E+01 -0.28219181710E+01  0.54353119257E+01  0.51100000000E-03 0. -1.
        -11    1    3    3    0    0  0.11444434541E+02 -0.11909887731E+02 -0.25304645855E+02  0.30218299254E+02  0.51100000000E-03 0.  1.
        -12    1    3    3    0    0 -0.39086652061E+01 -0.13428460013E+02 -0.50667056139E+01  0.14875238075E+02  0.00000000000E+00 0.  1.
</event>
<event>
 7    1  0.1369731E-013  0.5052886E+02  0.7816164E-02  0.1300439E+00
        -11   -1    0    0    0    0  0.00000000000E+00  0.00000000000E+00  0.45593999997E+02  0.45594000000E+02  0.51100000000E-03 0. -1.
         11   -1    0    0    0    0 -0.00000000000E+00 -0.00000000000E+00 -0.45593999997E+02  0.45594000000E+02  0.51100000000E-03 0.  1.
    9900012    2    1    2    0    0  0.54065618855E+01  0.33831826140E+02  0.21893892304E+02  0.50528857220E+02  0.29999992006E+02 0.  0.
        -12    1    1    2    0    0 -0.54065618855E+01 -0.33831826140E+02 -0.21893892304E+02  0.40659142780E+02  0.00000000000E+00 0.  1.
         11    1    3    3    0    0  0.10643359659E+02  0.22972214246E+02  0.33861256031E+00  0.25320315774E+02  0.51100000000E-03 0. -1.
        -11    1    3    3    0    0 -0.50592348826E+01  0.92724362920E+01  0.14292024114E+02  0.17771772166E+02  0.51100000000E-03 0.  1.
        -12    1    3    3    0    0 -0.17756289088E+00  0.15871756019E+01  0.72632556294E+01  0.74367692790E+01  0.00000000000E+00 0.  1.
</event>
<event>
 7    1  0.1369731E-013  0.5052886E+02  0.7816164E-02  0.1300439E+00
        -11   -1    0    0    0    0  0.00000000000E+00  0.00000000000E+00  0.45593999997E+02  0.45594000000E+02  0.51100000000E-03 0. -1.
         11   -1    0    0    0    0 -0.00000000000E+00 -0.00000000000E+00 -0.45593999997E+02  0.45594000000E+02  0.51100000000E-03 0.  1.
    9900012    2    1    2    0    0  0.29364403612E+01 -0.14068646208E+02 -0.38034404873E+02  0.50528862747E+02  0.30000008806E+02 0.  0.
         12    1    1    2    0    0 -0.29364403612E+01  0.14068646208E+02  0.38034404873E+02  0.40659137253E+02  0.00000000000E+00 0. -1.
         11    1    3    3    0    0  0.39479999153E+01  0.27734802452E+01 -0.23662683533E+01  0.53738368214E+01  0.51100000000E-03 0. -1.
        -11    1    3    3    0    0 -0.14210747371E+01 -0.21268374375E+02 -0.21376456268E+02  0.30188012270E+02  0.51100000000E-03 0.  1.
        -12    1    3    3    0    0  0.40951518287E+00  0.44262479220E+01 -0.14291680252E+02  0.14967013656E+02  0.00000000000E+00 0.  1.
</event>
<event>
 7    1  0.1369731E-013  0.5052883E+02  0.7816164E-02  0.1300439E+00
        -11   -1    0    0    0    0  0.00000000000E+00  0.00000000000E+00  0.45593999997E+02  0.45594000000E+02  0.51100000000E-03 0. -1.
         11   -1    0    0    0    0 -0.00000000000E+00 -0.00000000000E+00 -0.45593999997E+02  0.45594000000E+02  0.51100000000E-03 0.  1.
    9900012    2    1    2    0    0  0.85526282980E+00 -0.26313722142E+02 -0.30984263412E+02  0.50528830965E+02  0.29999912200E+02 0.  0.
         12    1    1    2    0    0 -0.85526282980E+00  0.26313722142E+02  0.30984263412E+02  0.40659169035E+02  0.00000000000E+00 0. -1.
         11    1    3    3    0    0 -0.11855853103E+01  0.69254876992E+00 -0.20534415056E+02  0.20580268178E+02  0.51100000000E-03 0. -1.
        -11    1    3    3    0    0  0.45492996370E+01 -0.13789395881E+02 -0.42056742637E+01  0.15117250485E+02  0.51100000000E-03 0.  1.
         12    1    3    3    0    0 -0.25084514968E+01 -0.13216875030E+02 -0.62441740924E+01  0.14831312301E+02  0.00000000000E+00 0. -1.
</event>
<event>
 7    1  0.1369731E-013  0.5052887E+02  0.7816164E-02  0.1300439E+00
        -11   -1    0    0    0    0  0.00000000000E+00  0.00000000000E+00  0.45593999997E+02  0.45594000000E+02  0.51100000000E-03 0. -1.
         11   -1    0    0    0    0 -0.00000000000E+00 -0.00000000000E+00 -0.45593999997E+02  0.45594000000E+02  0.51100000000E-03 0.  1.
    9900012    2    1    2    0    0 -0.12414265320E+02 -0.15846772366E+02 -0.35326062421E+02  0.50528869856E+02  0.30000030415E+02 0.  0.
         12    1    1    2    0    0  0.12414265320E+02  0.15846772366E+02  0.35326062421E+02  0.40659130144E+02  0.00000000000E+00 0. -1.
         11    1    3    3    0    0 -0.72752057045E+01  0.69253262220E+01 -0.76638789199E+01  0.12634231345E+02  0.51100000000E-03 0. -1.
        -11    1    3    3    0    0 -0.52925660747E+01 -0.10753616264E+02 -0.67000670494E+01  0.13731074871E+02  0.51100000000E-03 0.  1.
         12    1    3    3    0    0  0.15350645898E+00 -0.12018482325E+02 -0.20962116452E+02  0.24163563640E+02  0.00000000000E+00 0. -1.
</event>
<event>
 7    1  0.1369731E-013  0.5052887E+02  0.7816164E-02  0.1300439E+00
        -11   -1    0    0    0    0  0.00000000000E+00  0.00000000000E+00  0.45593999997E+02  0.45594000000E+02  0.51100000000E-03 0. -1.
         11   -1    0    0    0    0 -0.00000000000E+00 -0.00000000000E+00 -0.45593999997E+02  0.45594000000E+02  0.51100000000E-03 0.  1.
    9900012    2    1    2    0    0  0.10188100717E+02  0.24066769667E+02 -0.31147360802E+02  0.50528869619E+02  0.30000029694E+02 0.  0.
         12    1    1    2    0    0 -0.10188100717E+02 -0.24066769667E+02  0.31147360802E+02  0.40659130381E+02  0.00000000000E+00 0. -1.
         11    1    3    3    0    0  0.12548739949E+02  0.15856589722E+02 -0.35633671712E+01  0.20532897939E+02  0.51100000000E-03 0. -1.
        -11    1    3    3    0    0  0.89249257999E-01  0.10265689013E+01 -0.16672772131E+02  0.16704584398E+02  0.51100000000E-03 0.  1.
         12    1    3    3    0    0 -0.24498884902E+01  0.71836110437E+01 -0.10911221500E+02  0.13291387282E+02  0.00000000000E+00 0. -1.
</event>
<event>
 7    1  0.1369731E-013  0.5052886E+02  0.7816164E-02  0.1300439E+00
        -11   -1    0    0    0    0  0.00000000000E+00  0.00000000000E+00  0.45593999997E+02  0.45594000000E+02  0.51100000000E-03 0. -1.
         11   -1    0    0    0    0 -0.00000000000E+00 -0.00000000000E+00 -0.45593999997E+02  0.45594000000E+02  0.51100000000E-03 0.  1.
    9900012    2    1    2    0    0 -0.22226753276E+02  0.87990619772E+01  0.32889414401E+02  0.50528860407E+02  0.30000001692E+02 0.  0.
        -12    1    1    2    0    0  0.22226753276E+02 -0.87990619772E+01 -0.32889414401E+02  0.40659139593E+02  0.00000000000E+00 0.  1.
         11    1    3    3    0    0 -0.14304601686E+02  0.11454980842E+02  0.35321318672E+02  0.39792383297E+02  0.51100000000E-03 0. -1.
        -11    1    3    3    0    0 -0.19274728170E+01 -0.37925840275E+01 -0.26827356455E+00  0.42627240155E+01  0.51100000000E-03 0.  1.
        -12    1    3    3    0    0 -0.59946787730E+01  0.11366651632E+01 -0.21636307072E+01  0.64737530939E+01  0.00000000000E+00 0.  1.
</event>
<event>
 7    1  0.1369731E-013  0.5052886E+02  0.7816164E-02  0.1300439E+00
        -11   -1    0    0    0    0  0.00000000000E+00  0.00000000000E+00  0.45593999997E+02  0.45594000000E+02  0.51100000000E-03 0. -1.
         11   -1    0    0    0    0 -0.00000000000E+00 -0.00000000000E+00 -0.45593999997E+02  0.45594000000E+02  0.51100000000E-03 0.  1.
    9900012    2    1    2    0    0  0.10705628776E+02  0.72936728243E+01  0.38540332912E+02  0.50528863121E+02  0.30000009942E+02 0.  0.
        -12    1    1    2    0    0 -0.10705628776E+02 -0.72936728243E+01 -0.38540332912E+02  0.40659136879E+02  0.00000000000E+00 0.  1.
         11    1    3    3    0    0  0.46673341824E+01  0.17015262780E+02  0.29409674514E+02  0.34296240773E+02  0.51100000000E-03 0. -1.
        -11    1    3    3    0    0  0.15126504553E+01 -0.66013415844E+01  0.16872902409E+01  0.69794534694E+01  0.51100000000E-03 0.  1.
         12    1    3    3    0    0  0.45256441387E+01 -0.31202483714E+01  0.74433681574E+01  0.92531688786E+01  0.00000000000E+00 0. -1.
</event>
<event>
 7    1  0.1369731E-013  0.5052883E+02  0.7816164E-02  0.1300439E+00
        -11   -1    0    0    0    0  0.00000000000E+00  0.00000000000E+00  0.45593999997E+02  0.45594000000E+02  0.51100000000E-03 0. -1.
         11   -1    0    0    0    0 -0.00000000000E+00 -0.00000000000E+00 -0.45593999997E+02  0.45594000000E+02  0.51100000000E-03 0.  1.
    9900012    2    1    2    0    0  0.97111426721E+01 -0.25426796477E+02  0.30204962357E+02  0.50528831021E+02  0.29999912371E+02 0.  0.
        -12    1    1    2    0    0 -0.97111426721E+01  0.25426796477E+02 -0.30204962357E+02  0.40659168979E+02  0.00000000000E+00 0.  1.
         11    1    3    3    0    0  0.15819609676E+01  0.53769254639E+01  0.61031616889E+01  0.82862844996E+01  0.51100000000E-03 0. -1.
        -11    1    3    3    0    0  0.28242009419E+01 -0.15066260216E+02  0.33977622156E+01  0.15700735530E+02  0.51100000000E-03 0.  1.
         12    1    3    3    0    0  0.53049807626E+01 -0.15737461725E+02  0.20704038452E+02  0.26541810991E+02  0.00000000000E+00 0. -1.
</event>
<event>
 7    1  0.1369731E-013  0.5052885E+02  0.7816164E-02  0.1300439E+00
        -11   -1    0    0    0    0  0.00000000000E+00  0.00000000000E+00  0.45593999997E+02  0.45594000000E+02  0.51100000000E-03 0. -1.
         11   -1    0    0    0    0 -0.00000000000E+00 -0.00000000000E+00 -0.45593999997E+02  0.45594000000E+02  0.51100000000E-03 0.  1.
    9900012    2    1    2    0    0  0.29732717348E+02 -0.25149704961E+02 -0.11688628599E+02  0.50528853685E+02  0.29999981261E+02 0.  0.
         12    1    1    2    0    0 -0.29732717348E+02  0.25149704961E+02  0.11688628599E+02  0.40659146315E+02  0.00000000000E+00 0. -1.
         11    1    3    3    0    0  0.27288956981E+01 -0.15119786034E+02  0.52429801777E+01  0.16234027315E+02  0.51100000000E-03 0. -1.
        -11    1    3    3    0    0  0.21827831505E+02 -0.11133172763E+02 -0.13341714865E+02  0.27899876699E+02  0.51100000000E-03 0.  1.
         12    1    3    3    0    0  0.51759901447E+01  0.11032538361E+01 -0.35898939120E+01  0.63949496717E+01  0.00000000000E+00 0. -1.
</event>
<event>
 7    1  0.1369731E-013  0.5052884E+02  0.7816164E-02  0.1300439E+00
        -11   -1    0    0    0    0  0.00000000000E+00  0.00000000000E+00  0.45593999997E+02  0.45594000000E+02  0.51100000000E-03 0. -1.
         11   -1    0    0    0    0 -0.00000000000E+00 -0.00000000000E+00 -0.45593999997E+02  0.45594000000E+02  0.51100000000E-03 0.  1.
    9900012    2    1    2    0    0 -0.40489343836E+02 -0.26954081676E+01 -0.25523908536E+01  0.50528844960E+02  0.29999954742E+02 0.  0.
         12    1    1    2    0    0  0.40489343836E+02  0.26954081676E+01  0.25523908536E+01  0.40659155040E+02  0.00000000000E+00 0. -1.
         11    1    3    3    0    0 -0.24606109433E+02 -0.15878955744E+01 -0.41192375316E+01  0.24999003018E+02  0.51100000000E-03 0. -1.
        -11    1    3    3    0    0 -0.45334171392E+01 -0.42511397811E+01  0.94840301688E+01  0.11338910393E+02  0.51100000000E-03 0.  1.
        -12    1    3    3    0    0 -0.11349817264E+02  0.31436271879E+01 -0.79171834907E+01  0.14190931550E+02  0.00000000000E+00 0.  1.
</event>
<event>
 7    1  0.1369731E-013  0.5052886E+02  0.7816164E-02  0.1300439E+00
        -11   -1    0    0    0    0  0.00000000000E+00  0.00000000000E+00  0.45593999997E+02  0.45594000000E+02  0.51100000000E-03 0. -1.
         11   -1    0    0    0    0 -0.00000000000E+00 -0.00000000000E+00 -0.45593999997E+02  0.45594000000E+02  0.51100000000E-03 0.  1.
    9900012    2    1    2    0    0 -0.30909461088E+02  0.36963750705E+00  0.26412763073E+02  0.50528862408E+02  0.30000007774E+02 0.  0.
        -12    1    1    2    0    0  0.30909461088E+02 -0.36963750705E+00 -0.26412763073E+02  0.40659137592E+02  0.00000000000E+00 0.  1.
         11    1    3    3    0    0 -0.13381841064E+02 -0.33866025380E+01  0.58691740971E+01  0.14999665058E+02  0.51100000000E-03 0. -1.
        -11    1    3    3    0    0  0.31667986372E+01 -0.45399362489E+01  0.51586894518E+00  0.55592945399E+01  0.51100000000E-03 0.  1.
        -12    1    3    3    0    0 -0.20694418661E+02  0.82961762939E+01  0.20027720030E+02  0.29969902810E+02  0.00000000000E+00 0.  1.
</event>
<event>
 7    1  0.1369731E-013  0.5052886E+02  0.7816164E-02  0.1300439E+00
        -11   -1    0    0    0    0  0.00000000000E+00  0.00000000000E+00  0.45593999997E+02  0.45594000000E+02  0.51100000000E-03 0. -1.
         11   -1    0    0    0    0 -0.00000000000E+00 -0.00000000000E+00 -0.45593999997E+02  0.45594000000E+02  0.51100000000E-03 0.  1.
    9900012    2    1    2    0    0  0.16177990016E+02 -0.88928058816E+01  0.36226460516E+02  0.50528858360E+02  0.29999995471E+02 0.  0.
        -12    1    1    2    0    0 -0.16177990016E+02  0.88928058816E+01 -0.36226460516E+02  0.40659141640E+02  0.00000000000E+00 0.  1.
         11    1    3    3    0    0  0.13054020522E+02 -0.18307801416E+02  0.27711702705E+02  0.35686433159E+02  0.51100000000E-03 0. -1.
        -11    1    3    3    0    0  0.26921563613E+01  0.58019948345E+01  0.91345825748E+01  0.11151298086E+02  0.51100000000E-03 0.  1.
         12    1    3    3    0    0  0.43181313317E+00  0.36130007000E+01 -0.61982476459E+00  0.36911271150E+01  0.00000000000E+00 0. -1.
</event>
<event>
 7    1  0.1388185E-013  0.5052886E+02  0.7816164E-02  0.1300439E+00
        -11   -1    0    0    0    0  0.00000000000E+00  0.00000000000E+00  0.45593999997E+02  0.45594000000E+02  0.51100000000E-03 0. -1.
         11   -1    0    0    0    0 -0.00000000000E+00 -0.00000000000E+00 -0.45593999997E+02  0.45594000000E+02  0.51100000000E-03 0.  1.
    9900012    2    1    2    0    0  0.10821467178E+02  0.13789337395E+02  0.36686727268E+02  0.50528856682E+02  0.29999990372E+02 0.  0.
        -12    1    1    2    0    0 -0.10821467178E+02 -0.13789337395E+02 -0.36686727268E+02  0.40659143318E+02  0.00000000000E+00 0.  1.
         11    1    3    3    0    0  0.18908505697E+02  0.11808757832E+02  0.31712673097E+02  0.38764313285E+02  0.51100000000E-03 0. -1.
        -11    1    3    3    0    0 -0.15125099113E+01 -0.92854249811E+00 -0.13179747136E+01  0.22106413118E+01  0.51100000000E-03 0.  1.
         12    1    3    3    0    0 -0.65745286078E+01  0.29091220611E+01  0.62920288844E+01  0.95539020857E+01  0.00000000000E+00 0. -1.
</event>
<event>
 7    1  0.1369731E-013  0.5052886E+02  0.7816164E-02  0.1300439E+00
        -11   -1    0    0    0    0  0.00000000000E+00  0.00000000000E+00  0.45593999997E+02  0.45594000000E+02  0.51100000000E-03 0. -1.
         11   -1    0    0    0    0 -0.00000000000E+00 -0.00000000000E+00 -0.45593999997E+02  0.45594000000E+02  0.51100000000E-03 0.  1.
    9900012    2    1    2    0    0  0.26309685548E+02 -0.21100978097E+02  0.22709352833E+02  0.50528861588E+02  0.30000005284E+02 0.  0.
        -12    1    1    2    0    0 -0.26309685548E+02  0.21100978097E+02 -0.22709352833E+02  0.40659138412E+02  0.00000000000E+00 0.  1.
         11    1    3    3    0    0  0.92182628411E+00 -0.54233328227E+01  0.11583756698E+02  0.12823639191E+02  0.51100000000E-03 0. -1.
        -11    1    3    3    0    0  0.49255284032E+01  0.47544175787E+01  0.37955192745E+00  0.68563384171E+01  0.51100000000E-03 0.  1.
         12    1    3    3    0    0  0.20462330861E+02 -0.20432062853E+02  0.10746044207E+02  0.30848883980E+02  0.00000000000E+00 0. -1.
</event>
<event>
 7    1  0.1369731E-013  0.5052889E+02  0.7816164E-02  0.1300439E+00
        -11   -1    0    0    0    0  0.00000000000E+00  0.00000000000E+00  0.45593999997E+02  0.45594000000E+02  0.51100000000E-03 0.  1.
         11   -1    0    0    0    0 -0.00000000000E+00 -0.00000000000E+00 -0.45593999997E+02  0.45594000000E+02  0.51100000000E-03 0. -1.
    9900012    2    1    2    0    0 -0.13374313811E+01 -0.40453276909E+02  0.38609274413E+01  0.50528891598E+02  0.30000096501E+02 0.  0.
         12    1    1    2    0    0  0.13374313811E+01  0.40453276909E+02 -0.38609274413E+01  0.40659108402E+02  0.00000000000E+00 0. -1.
         11    1    3    3    0    0  0.67756724235E+01 -0.18453356231E+02 -0.52652128111E+01  0.20350885956E+02  0.51100000000E-03 0. -1.
        -11    1    3    3    0    0 -0.86158713946E+01 -0.81104562208E+01 -0.24574644600E+01  0.12085192255E+02  0.51100000000E-03 0.  1.
         12    1    3    3    0    0  0.50276759001E+00 -0.13889464457E+02  0.11583604712E+02  0.18092813387E+02  0.00000000000E+00 0. -1.
</event>
<event>
 7    1  0.1369731E-013  0.5052886E+02  0.7816164E-02  0.1300439E+00
        -11   -1    0    0    0    0  0.00000000000E+00  0.00000000000E+00  0.45593999997E+02  0.45594000000E+02  0.51100000000E-03 0. -1.
         11   -1    0    0    0    0 -0.00000000000E+00 -0.00000000000E+00 -0.45593999997E+02  0.45594000000E+02  0.51100000000E-03 0.  1.
    9900012    2    1    2    0    0 -0.18390584104E+02 -0.13361925891E+02  0.33710690944E+02  0.50528864113E+02  0.30000012957E+02 0.  0.
        -12    1    1    2    0    0  0.18390584104E+02  0.13361925891E+02 -0.33710690944E+02  0.40659135887E+02  0.00000000000E+00 0.  1.
         11    1    3    3    0    0 -0.18640219746E+02 -0.75082528234E+01  0.43906365467E+01  0.20569621829E+02  0.51100000000E-03 0. -1.
        -11    1    3    3    0    0 -0.75211455546E+00 -0.24737174793E+01  0.14219537879E+02  0.14452688754E+02  0.51100000000E-03 0.  1.
         12    1    3    3    0    0  0.10017501979E+01 -0.33799555884E+01  0.15100516518E+02  0.15506553529E+02  0.00000000000E+00 0. -1.
</event>
<event>
 7    1  0.1369731E-013  0.5052887E+02  0.7816164E-02  0.1300439E+00
        -11   -1    0    0    0    0  0.00000000000E+00  0.00000000000E+00  0.45593999997E+02  0.45594000000E+02  0.51100000000E-03 0. -1.
         11   -1    0    0    0    0 -0.00000000000E+00 -0.00000000000E+00 -0.45593999997E+02  0.45594000000E+02  0.51100000000E-03 0.  1.
    9900012    2    1    2    0    0  0.30626796385E+02 -0.13768357208E+02 -0.22925899064E+02  0.50528866157E+02  0.30000019171E+02 0.  0.
         12    1    1    2    0    0 -0.30626796385E+02  0.13768357208E+02  0.22925899064E+02  0.40659133843E+02  0.00000000000E+00 0. -1.
         11    1    3    3    0    0  0.35559290627E+01  0.71543575563E+01 -0.91460269111E+00  0.80415148999E+01  0.51100000000E-03 0. -1.
        -11    1    3    3    0    0  0.20370187326E+02 -0.20147280216E+02 -0.21307613062E+02  0.35705347029E+02  0.51100000000E-03 0.  1.
        -12    1    3    3    0    0  0.67006799959E+01 -0.77543454825E+00 -0.70368331037E+00  0.67820042279E+01  0.00000000000E+00 0.  1.
</event>
<event>
 7    1  0.1369731E-013  0.5052886E+02  0.7816164E-02  0.1300439E+00
        -11   -1    0    0    0    0  0.00000000000E+00  0.00000000000E+00  0.45593999997E+02  0.45594000000E+02  0.51100000000E-03 0.  1.
         11   -1    0    0    0    0 -0.00000000000E+00 -0.00000000000E+00 -0.45593999997E+02  0.45594000000E+02  0.51100000000E-03 0. -1.
    9900012    2    1    2    0    0  0.29973122877E+02 -0.64341617273E+01  0.26709161629E+02  0.50528857767E+02  0.29999993669E+02 0.  0.
        -12    1    1    2    0    0 -0.29973122877E+02  0.64341617273E+01 -0.26709161629E+02  0.40659142233E+02  0.00000000000E+00 0.  1.
         11    1    3    3    0    0  0.14777555091E+02 -0.11363809538E+01  0.66952562820E+01  0.16263270061E+02  0.51100000000E-03 0. -1.
        -11    1    3    3    0    0 -0.50607515227E+01 -0.28413751581E+01  0.17536673327E+00  0.58064939952E+01  0.51100000000E-03 0.  1.
        -12    1    3    3    0    0  0.20256319309E+02 -0.24564056155E+01  0.19838538614E+02  0.28459093711E+02  0.00000000000E+00 0.  1.
</event>
<event>
 7    1  0.1369731E-013  0.5052886E+02  0.7816164E-02  0.1300439E+00
        -11   -1    0    0    0    0  0.00000000000E+00  0.00000000000E+00  0.45593999997E+02  0.45594000000E+02  0.51100000000E-03 0. -1.
         11   -1    0    0    0    0 -0.00000000000E+00 -0.00000000000E+00 -0.45593999997E+02  0.45594000000E+02  0.51100000000E-03 0.  1.
    9900012    2    1    2    0    0  0.28816646655E+02  0.82355344902E+01 -0.27476213348E+02  0.50528862617E+02  0.30000008412E+02 0.  0.
         12    1    1    2    0    0 -0.28816646655E+02 -0.82355344902E+01  0.27476213348E+02  0.40659137383E+02  0.00000000000E+00 0. -1.
         11    1    3    3    0    0 -0.56099937708E+00 -0.55971977098E+00  0.10580140310E+01  0.13218927619E+01  0.51100000000E-03 0. -1.
        -11    1    3    3    0    0  0.16552149427E+02  0.17460586146E+02 -0.21250997067E+02  0.32100632328E+02  0.51100000000E-03 0.  1.
        -12    1    3    3    0    0  0.12825496605E+02 -0.86653318853E+01 -0.72832303115E+01  0.17106337528E+02  0.00000000000E+00 0.  1.
</event>
<event>
 7    1  0.1369731E-013  0.5052883E+02  0.7816164E-02  0.1300439E+00
        -11   -1    0    0    0    0  0.00000000000E+00  0.00000000000E+00  0.45593999997E+02  0.45594000000E+02  0.51100000000E-03 0. -1.
         11   -1    0    0    0    0 -0.00000000000E+00 -0.00000000000E+00 -0.45593999997E+02  0.45594000000E+02  0.51100000000E-03 0.  1.
    9900012    2    1    2    0    0 -0.30564805331E+02 -0.14467498755E+02 -0.22575471884E+02  0.50528834048E+02  0.29999921572E+02 0.  0.
         12    1    1    2    0    0  0.30564805331E+02  0.14467498755E+02  0.22575471884E+02  0.40659165952E+02  0.00000000000E+00 0. -1.
         11    1    3    3    0    0 -0.16356816072E+01 -0.22704568742E+00 -0.69262294426E+01  0.71203692753E+01  0.51100000000E-03 0. -1.
        -11    1    3    3    0    0 -0.60097539488E+01  0.31013703953E+01  0.46628321024E+01  0.82144777272E+01  0.51100000000E-03 0.  1.
        -12    1    3    3    0    0 -0.22919369775E+02 -0.17341823462E+02 -0.20312074544E+02  0.35193987045E+02  0.00000000000E+00 0.  1.
</event>
<event>
 7    1  0.1369731E-013  0.5052886E+02  0.7816164E-02  0.1300439E+00
        -11   -1    0    0    0    0  0.00000000000E+00  0.00000000000E+00  0.45593999997E+02  0.45594000000E+02  0.51100000000E-03 0. -1.
         11   -1    0    0    0    0 -0.00000000000E+00 -0.00000000000E+00 -0.45593999997E+02  0.45594000000E+02  0.51100000000E-03 0.  1.
    9900012    2    1    2    0    0 -0.95599114375E+01 -0.36238981668E+02  0.15764203277E+02  0.50528858297E+02  0.29999995280E+02 0.  0.
        -12    1    1    2    0    0  0.95599114375E+01  0.36238981668E+02 -0.15764203277E+02  0.40659141703E+02  0.00000000000E+00 0.  1.
         11    1    3    3    0    0 -0.11634276300E+02 -0.34293988834E+02  0.17715161147E+02  0.40314525793E+02  0.51100000000E-03 0. -1.
        -11    1    3    3    0    0  0.58709498821E+01 -0.12781281412E+01 -0.20776658367E+01  0.63575435235E+01  0.51100000000E-03 0.  1.
         12    1    3    3    0    0 -0.37965850199E+01 -0.66686469267E+00  0.12670796626E+00  0.38567889805E+01  0.00000000000E+00 0. -1.
</event>
<event>
 7    1  0.1369731E-013  0.5052886E+02  0.7816164E-02  0.1300439E+00
        -11   -1    0    0    0    0  0.00000000000E+00  0.00000000000E+00  0.45593999997E+02  0.45594000000E+02  0.51100000000E-03 0. -1.
         11   -1    0    0    0    0 -0.00000000000E+00 -0.00000000000E+00 -0.45593999997E+02  0.45594000000E+02  0.51100000000E-03 0.  1.
    9900012    2    1    2    0    0 -0.20091555990E+02 -0.12920026265E+02  0.32902400237E+02  0.50528860288E+02  0.30000001332E+02 0.  0.
        -12    1    1    2    0    0  0.20091555990E+02  0.12920026265E+02 -0.32902400237E+02  0.40659139712E+02  0.00000000000E+00 0.  1.
         11    1    3    3    0    0 -0.22076547494E+02 -0.17984678681E+02  0.26200139840E+02  0.38694572544E+02  0.51100000000E-03 0. -1.
        -11    1    3    3    0    0 -0.12512993003E+01  0.55382378254E+01  0.63908614356E+01  0.85487389889E+01  0.51100000000E-03 0.  1.
        -12    1    3    3    0    0  0.32362908041E+01 -0.47358540912E+00  0.31139896112E+00  0.32855487550E+01  0.00000000000E+00 0.  1.
</event>
<event>
 7    1  0.1369731E-013  0.5052886E+02  0.7816164E-02  0.1300439E+00
        -11   -1    0    0    0    0  0.00000000000E+00  0.00000000000E+00  0.45593999997E+02  0.45594000000E+02  0.51100000000E-03 0. -1.
         11   -1    0    0    0    0 -0.00000000000E+00 -0.00000000000E+00 -0.45593999997E+02  0.45594000000E+02  0.51100000000E-03 0.  1.
    9900012    2    1    2    0    0 -0.30244655192E+02 -0.24674861075E+02 -0.11383227534E+02  0.50528858275E+02  0.29999995212E+02 0.  0.
         12    1    1    2    0    0  0.30244655192E+02  0.24674861075E+02  0.11383227534E+02  0.40659141725E+02  0.00000000000E+00 0. -1.
         11    1    3    3    0    0 -0.53162761830E+01  0.36658751725E+01 -0.53781538551E+01  0.84039260102E+01  0.51100000000E-03 0. -1.
        -11    1    3    3    0    0 -0.10719096162E+02 -0.16263959501E+02  0.54662114466E+01  0.20231037270E+02  0.51100000000E-03 0.  1.
        -12    1    3    3    0    0 -0.14209282847E+02 -0.12076776747E+02 -0.11471285126E+02  0.21893894995E+02  0.00000000000E+00 0.  1.
</event>
<event>
 7    1  0.1369731E-013  0.5052891E+02  0.7816164E-02  0.1300439E+00
        -11   -1    0    0    0    0  0.00000000000E+00  0.00000000000E+00  0.45593999997E+02  0.45594000000E+02  0.51100000000E-03 0. -1.
         11   -1    0    0    0    0 -0.00000000000E+00 -0.00000000000E+00 -0.45593999997E+02  0.45594000000E+02  0.51100000000E-03 0.  1.
    9900012    2    1    2    0    0  0.18956956266E+02 -0.63927062604E+01 -0.35396731392E+02  0.50528911503E+02  0.30000157004E+02 0.  0.
         12    1    1    2    0    0 -0.18956956266E+02  0.63927062604E+01  0.35396731392E+02  0.40659088497E+02  0.00000000000E+00 0. -1.
         11    1    3    3    0    0  0.70369384479E+01 -0.98657091705E+01 -0.10846526161E+02  0.16263389874E+02  0.51100000000E-03 0. -1.
        -11    1    3    3    0    0 -0.12918817134E+01  0.56885006090E+01 -0.18805330033E+02  0.19689297485E+02  0.51100000000E-03 0.  1.
        -12    1    3    3    0    0  0.13211899531E+02 -0.22154976989E+01 -0.57448751976E+01  0.14576224144E+02  0.00000000000E+00 0.  1.
</event>
<event>
 7    1  0.1369731E-013  0.5052886E+02  0.7816164E-02  0.1300439E+00
        -11   -1    0    0    0    0  0.00000000000E+00  0.00000000000E+00  0.45593999997E+02  0.45594000000E+02  0.51100000000E-03 0. -1.
         11   -1    0    0    0    0 -0.00000000000E+00 -0.00000000000E+00 -0.45593999997E+02  0.45594000000E+02  0.51100000000E-03 0.  1.
    9900012    2    1    2    0    0  0.32028986214E+02 -0.15139021687E+02 -0.19952939261E+02  0.50528859321E+02  0.29999998393E+02 0.  0.
         12    1    1    2    0    0 -0.32028986214E+02  0.15139021687E+02  0.19952939261E+02  0.40659140679E+02  0.00000000000E+00 0. -1.
         11    1    3    3    0    0  0.31857653597E+01  0.64437571267E-01  0.93716047761E+00  0.33213736841E+01  0.51100000000E-03 0. -1.
        -11    1    3    3    0    0  0.33526340010E+02 -0.10220426286E+02 -0.14784652024E+02  0.38040222445E+02  0.51100000000E-03 0.  1.
        -12    1    3    3    0    0 -0.46831191556E+01 -0.49830329727E+01 -0.61054477148E+01  0.91672631920E+01  0.00000000000E+00 0.  1.
</event>
<event>
 7    1  0.1369731E-013  0.5052883E+02  0.7816164E-02  0.1300439E+00
        -11   -1    0    0    0    0  0.00000000000E+00  0.00000000000E+00  0.45593999997E+02  0.45594000000E+02  0.51100000000E-03 0. -1.
         11   -1    0    0    0    0 -0.00000000000E+00 -0.00000000000E+00 -0.45593999997E+02  0.45594000000E+02  0.51100000000E-03 0.  1.
    9900012    2    1    2    0    0  0.10203572132E+02 -0.36243213359E+02 -0.15345507494E+02  0.50528831304E+02  0.29999913232E+02 0.  0.
         12    1    1    2    0    0 -0.10203572132E+02  0.36243213359E+02  0.15345507494E+02  0.40659168696E+02  0.00000000000E+00 0. -1.
         11    1    3    3    0    0 -0.94449069008E+01 -0.41317839356E+01 -0.19468293512E+01  0.10491332119E+02  0.51100000000E-03 0. -1.
        -11    1    3    3    0    0  0.72323933552E+01 -0.10159390013E+02 -0.35908368063E+01  0.12977473880E+02  0.51100000000E-03 0.  1.
         12    1    3    3    0    0  0.12416085677E+02 -0.21952039410E+02 -0.98078413364E+01  0.27060025304E+02  0.00000000000E+00 0. -1.
</event>
<event>
 7    1  0.1369731E-013  0.5052887E+02  0.7816164E-02  0.1300439E+00
        -11   -1    0    0    0    0  0.00000000000E+00  0.00000000000E+00  0.45593999997E+02  0.45594000000E+02  0.51100000000E-03 0. -1.
         11   -1    0    0    0    0 -0.00000000000E+00 -0.00000000000E+00 -0.45593999997E+02  0.45594000000E+02  0.51100000000E-03 0.  1.
    9900012    2    1    2    0    0 -0.23558803444E+01 -0.63932293728E+01  0.40084178149E+02  0.50528869514E+02  0.30000029374E+02 0.  0.
        -12    1    1    2    0    0  0.23558803444E+01  0.63932293728E+01 -0.40084178149E+02  0.40659130486E+02  0.00000000000E+00 0.  1.
         11    1    3    3    0    0  0.62079565104E+01 -0.15713479221E+02  0.26807245970E+02  0.31687230709E+02  0.51100000000E-03 0. -1.
        -11    1    3    3    0    0 -0.28943292654E+01  0.20775698656E+01  0.14198087058E+01  0.38352699338E+01  0.51100000000E-03 0.  1.
         12    1    3    3    0    0 -0.56695075894E+01  0.72426799822E+01  0.11857123473E+02  0.15006368871E+02  0.00000000000E+00 0. -1.
</event>
<event>
 7    1  0.1369731E-013  0.5052886E+02  0.7816164E-02  0.1300439E+00
        -11   -1    0    0    0    0  0.00000000000E+00  0.00000000000E+00  0.45593999997E+02  0.45594000000E+02  0.51100000000E-03 0. -1.
         11   -1    0    0    0    0 -0.00000000000E+00 -0.00000000000E+00 -0.45593999997E+02  0.45594000000E+02  0.51100000000E-03 0.  1.
    9900012    2    1    2    0    0 -0.28873578601E+02  0.21244000535E+02  0.19187880420E+02  0.50528857670E+02  0.29999993375E+02 0.  0.
        -12    1    1    2    0    0  0.28873578601E+02 -0.21244000535E+02 -0.19187880420E+02  0.40659142330E+02  0.00000000000E+00 0.  1.
         11    1    3    3    0    0 -0.28110592664E+02  0.19705867608E+02  0.20790825080E+02  0.40134586654E+02  0.51100000000E-03 0. -1.
        -11    1    3    3    0    0  0.45011935922E+01 -0.23941092297E+00  0.30947432062E+00  0.45181673232E+01  0.51100000000E-03 0.  1.
         12    1    3    3    0    0 -0.52641795292E+01  0.17775438498E+01 -0.19124189807E+01  0.58761036930E+01  0.00000000000E+00 0. -1.
</event>
<event>
 7    1  0.1369731E-013  0.5052886E+02  0.7816164E-02  0.1300439E+00
        -11   -1    0    0    0    0  0.00000000000E+00  0.00000000000E+00  0.45593999997E+02  0.45594000000E+02  0.51100000000E-03 0. -1.
         11   -1    0    0    0    0 -0.00000000000E+00 -0.00000000000E+00 -0.45593999997E+02  0.45594000000E+02  0.51100000000E-03 0.  1.
    9900012    2    1    2    0    0 -0.26638181399E+02  0.24114197425E+02 -0.19028357512E+02  0.50528860618E+02  0.30000002333E+02 0.  0.
         12    1    1    2    0    0  0.26638181399E+02 -0.24114197425E+02  0.19028357512E+02  0.40659139382E+02  0.00000000000E+00 0. -1.
         11    1    3    3    0    0 -0.17159203121E+02  0.56286737705E+01 -0.65586319106E+01  0.19212909019E+02  0.51100000000E-03 0. -1.
        -11    1    3    3    0    0 -0.24297271366E+01  0.96601434246E+01 -0.16541664585E+02  0.19309288243E+02  0.51100000000E-03 0.  1.
        -12    1    3    3    0    0 -0.70492511421E+01  0.88253802298E+01  0.40719389836E+01  0.12006663356E+02  0.00000000000E+00 0.  1.
</event>
<event>
 7    1  0.1369731E-013  0.5052886E+02  0.7816164E-02  0.1300439E+00
        -11   -1    0    0    0    0  0.00000000000E+00  0.00000000000E+00  0.45593999997E+02  0.45594000000E+02  0.51100000000E-03 0. -1.
         11   -1    0    0    0    0 -0.00000000000E+00 -0.00000000000E+00 -0.45593999997E+02  0.45594000000E+02  0.51100000000E-03 0.  1.
    9900012    2    1    2    0    0  0.46950634858E+00 -0.38408531498E+02 -0.13331543864E+02  0.50528858472E+02  0.29999995810E+02 0.  0.
         12    1    1    2    0    0 -0.46950634858E+00  0.38408531498E+02  0.13331543864E+02  0.40659141528E+02  0.00000000000E+00 0. -1.
         11    1    3    3    0    0  0.26499798554E+01 -0.15566099407E+02  0.83746648598E+01  0.17873467927E+02  0.51100000000E-03 0. -1.
        -11    1    3    3    0    0  0.14977380567E+01 -0.21706087331E+01 -0.27271018834E+00  0.26512511512E+01  0.51100000000E-03 0.  1.
         12    1    3    3    0    0 -0.36782115636E+01 -0.20671823358E+02 -0.21433498535E+02  0.30004139393E+02  0.00000000000E+00 0. -1.
</event>
<event>
 7    1  0.1369731E-013  0.5052885E+02  0.7816164E-02  0.1300439E+00
        -11   -1    0    0    0    0  0.00000000000E+00  0.00000000000E+00  0.45593999997E+02  0.45594000000E+02  0.51100000000E-03 0. -1.
         11   -1    0    0    0    0 -0.00000000000E+00 -0.00000000000E+00 -0.45593999997E+02  0.45594000000E+02  0.51100000000E-03 0.  1.
    9900012    2    1    2    0    0  0.31025463725E+01  0.25792637441E+02  0.31277479866E+02  0.50528847440E+02  0.29999962278E+02 0.  0.
        -12    1    1    2    0    0 -0.31025463725E+01 -0.25792637441E+02 -0.31277479866E+02  0.40659152560E+02  0.00000000000E+00 0.  1.
         11    1    3    3    0    0 -0.83337534055E+01  0.19887819581E+02  0.11420592904E+02  0.24400958097E+02  0.51100000000E-03 0. -1.
        -11    1    3    3    0    0  0.28876450208E+01  0.18298198278E+01  0.15190486988E+02  0.15570408780E+02  0.51100000000E-03 0.  1.
        -12    1    3    3    0    0  0.85486547573E+01  0.40749980331E+01  0.46663999732E+01  0.10557480563E+02  0.00000000000E+00 0.  1.
</event>
<event>
 7    1  0.1369731E-013  0.5052886E+02  0.7816164E-02  0.1300439E+00
        -11   -1    0    0    0    0  0.00000000000E+00  0.00000000000E+00  0.45593999997E+02  0.45594000000E+02  0.51100000000E-03 0. -1.
         11   -1    0    0    0    0 -0.00000000000E+00 -0.00000000000E+00 -0.45593999997E+02  0.45594000000E+02  0.51100000000E-03 0.  1.
    9900012    2    1    2    0    0 -0.14305149720E+02  0.20249697520E+02 -0.32225431326E+02  0.50528856104E+02  0.29999988614E+02 0.  0.
         12    1    1    2    0    0  0.14305149720E+02 -0.20249697520E+02  0.32225431326E+02  0.40659143896E+02  0.00000000000E+00 0. -1.
         11    1    3    3    0    0 -0.77398464603E+00 -0.62427796348E+01 -0.11920481100E+02  0.13478472455E+02  0.51100000000E-03 0. -1.
        -11    1    3    3    0    0 -0.67166247301E+01  0.18749010707E+02 -0.17097797559E+02  0.26248297695E+02  0.51100000000E-03 0.  1.
         12    1    3    3    0    0 -0.68145403440E+01  0.77434664478E+01 -0.32071526677E+01  0.10802085954E+02  0.00000000000E+00 0. -1.
</event>
<event>
 7    1  0.1369731E-013  0.5052886E+02  0.7816164E-02  0.1300439E+00
        -11   -1    0    0    0    0  0.00000000000E+00  0.00000000000E+00  0.45593999997E+02  0.45594000000E+02  0.51100000000E-03 0. -1.
         11   -1    0    0    0    0 -0.00000000000E+00 -0.00000000000E+00 -0.45593999997E+02  0.45594000000E+02  0.51100000000E-03 0.  1.
    9900012    2    1    2    0    0  0.20145652355E+00  0.16149324841E+02 -0.37313863450E+02  0.50528859784E+02  0.29999999800E+02 0.  0.
         12    1    1    2    0    0 -0.20145652355E+00 -0.16149324841E+02  0.37313863450E+02  0.40659140216E+02  0.00000000000E+00 0. -1.
         11    1    3    3    0    0 -0.55137788768E+01 -0.49591530139E+01 -0.16761550635E+02  0.18328789815E+02  0.51100000000E-03 0. -1.
        -11    1    3    3    0    0 -0.35198922946E+01  0.57355709286E+01 -0.42147497984E+01  0.79404364972E+01  0.51100000000E-03 0.  1.
         12    1    3    3    0    0  0.92351276949E+01  0.15372906926E+02 -0.16337563016E+02  0.24259633472E+02  0.00000000000E+00 0. -1.
</event>
<event>
 7    1  0.1369731E-013  0.5052885E+02  0.7816164E-02  0.1300439E+00
        -11   -1    0    0    0    0  0.00000000000E+00  0.00000000000E+00  0.45593999997E+02  0.45594000000E+02  0.51100000000E-03 0. -1.
         11   -1    0    0    0    0 -0.00000000000E+00 -0.00000000000E+00 -0.45593999997E+02  0.45594000000E+02  0.51100000000E-03 0.  1.
    9900012    2    1    2    0    0 -0.19207182623E+01  0.25145379590E+02  0.31893368401E+02  0.50528853165E+02  0.29999979679E+02 0.  0.
        -12    1    1    2    0    0  0.19207182623E+01 -0.25145379590E+02 -0.31893368401E+02  0.40659146835E+02  0.00000000000E+00 0.  1.
         11    1    3    3    0    0 -0.62914132869E+01  0.85844664468E+01  0.31281363915E+02  0.33042376942E+02  0.51100000000E-03 0. -1.
        -11    1    3    3    0    0  0.13607845997E+01  0.34081260857E+01 -0.12258865590E+01  0.38690898489E+01  0.51100000000E-03 0.  1.
         12    1    3    3    0    0  0.30099104249E+01  0.13152787058E+02  0.18378910451E+01  0.13617386374E+02  0.00000000000E+00 0. -1.
</event>
<event>
 7    1  0.1369731E-013  0.5052885E+02  0.7816164E-02  0.1300439E+00
        -11   -1    0    0    0    0  0.00000000000E+00  0.00000000000E+00  0.45593999997E+02  0.45594000000E+02  0.51100000000E-03 0. -1.
         11   -1    0    0    0    0 -0.00000000000E+00 -0.00000000000E+00 -0.45593999997E+02  0.45594000000E+02  0.51100000000E-03 0.  1.
    9900012    2    1    2    0    0 -0.36265685391E+02 -0.60329407268E+01  0.17365765518E+02  0.50528854378E+02  0.29999983368E+02 0.  0.
        -12    1    1    2    0    0  0.36265685391E+02  0.60329407268E+01 -0.17365765518E+02  0.40659145622E+02  0.00000000000E+00 0.  1.
         11    1    3    3    0    0 -0.21252003252E+02 -0.14978209171E+02  0.60410480948E+01  0.26692483109E+02  0.51100000000E-03 0. -1.
        -11    1    3    3    0    0 -0.59926821271E+01 -0.24209967153E+01  0.35173229472E+01  0.73583303234E+01  0.51100000000E-03 0.  1.
         12    1    3    3    0    0 -0.90210000115E+01  0.11366265160E+02  0.78073944762E+01  0.16478040945E+02  0.00000000000E+00 0. -1.
</event>
<event>
 7    1  0.1369731E-013  0.5052885E+02  0.7816164E-02  0.1300439E+00
        -11   -1    0    0    0    0  0.00000000000E+00  0.00000000000E+00  0.45593999997E+02  0.45594000000E+02  0.51100000000E-03 0. -1.
         11   -1    0    0    0    0 -0.00000000000E+00 -0.00000000000E+00 -0.45593999997E+02  0.45594000000E+02  0.51100000000E-03 0.  1.
    9900012    2    1    2    0    0  0.25201754093E+02  0.30048593203E+02 -0.10729415135E+02  0.50528847131E+02  0.29999961340E+02 0.  0.
         12    1    1    2    0    0 -0.25201754093E+02 -0.30048593203E+02  0.10729415135E+02  0.40659152869E+02  0.00000000000E+00 0. -1.
         11    1    3    3    0    0  0.24506752080E+02  0.13796429726E+02 -0.32004439408E+01  0.28304861992E+02  0.51100000000E-03 0. -1.
        -11    1    3    3    0    0 -0.43839307041E+01  0.86333317569E+01 -0.86695231775E+01  0.12996687964E+02  0.51100000000E-03 0.  1.
         12    1    3    3    0    0  0.50789327172E+01  0.76188317206E+01  0.11405519835E+01  0.92272971752E+01  0.00000000000E+00 0. -1.
</event>
<event>
 7    1  0.1369731E-013  0.5052891E+02  0.7816164E-02  0.1300439E+00
        -11   -1    0    0    0    0  0.00000000000E+00  0.00000000000E+00  0.45593999997E+02  0.45594000000E+02  0.51100000000E-03 0. -1.
         11   -1    0    0    0    0 -0.00000000000E+00 -0.00000000000E+00 -0.45593999997E+02  0.45594000000E+02  0.51100000000E-03 0.  1.
    9900012    2    1    2    0    0  0.27960237967E+02 -0.15231279018E+02  0.25286262297E+02  0.50528907184E+02  0.30000143876E+02 0.  0.
        -12    1    1    2    0    0 -0.27960237967E+02  0.15231279018E+02 -0.25286262297E+02  0.40659092816E+02  0.00000000000E+00 0.  1.
         11    1    3    3    0    0  0.10901580387E+01 -0.67030738665E+01  0.15010154323E+02  0.16474962120E+02  0.51100000000E-03 0. -1.
        -11    1    3    3    0    0  0.11800291233E+02 -0.27726680924E+00 -0.31874521176E+01  0.12226348650E+02  0.51100000000E-03 0.  1.
         12    1    3    3    0    0  0.15069788695E+02 -0.82509383422E+01  0.13463560092E+02  0.21827596414E+02  0.00000000000E+00 0. -1.
</event>
<event>
 7    1  0.1369731E-013  0.5052885E+02  0.7816164E-02  0.1300439E+00
        -11   -1    0    0    0    0  0.00000000000E+00  0.00000000000E+00  0.45593999997E+02  0.45594000000E+02  0.51100000000E-03 0. -1.
         11   -1    0    0    0    0 -0.00000000000E+00 -0.00000000000E+00 -0.45593999997E+02  0.45594000000E+02  0.51100000000E-03 0.  1.
    9900012    2    1    2    0    0  0.25006930898E+02 -0.56893138606E+01  0.31550779598E+02  0.50528848775E+02  0.29999966336E+02 0.  0.
        -12    1    1    2    0    0 -0.25006930898E+02  0.56893138606E+01 -0.31550779598E+02  0.40659151225E+02  0.00000000000E+00 0.  1.
         11    1    3    3    0    0  0.35313991412E+01 -0.98753104444E+00  0.17553145904E+01  0.40653569377E+01  0.51100000000E-03 0. -1.
        -11    1    3    3    0    0  0.22399240596E+02  0.45080521103E+01  0.29352290098E+02  0.37196847278E+02  0.51100000000E-03 0.  1.
        -12    1    3    3    0    0 -0.92370883984E+00 -0.92098349265E+01  0.44317490883E+00  0.92666445596E+01  0.00000000000E+00 0.  1.
</event>
<event>
 7    1  0.1369731E-013  0.5052887E+02  0.7816164E-02  0.1300439E+00
        -11   -1    0    0    0    0  0.00000000000E+00  0.00000000000E+00  0.45593999997E+02  0.45594000000E+02  0.51100000000E-03 0. -1.
         11   -1    0    0    0    0 -0.00000000000E+00 -0.00000000000E+00 -0.45593999997E+02  0.45594000000E+02  0.51100000000E-03 0.  1.
    9900012    2    1    2    0    0 -0.35244384705E+02 -0.80107472982E+01  0.18623266608E+02  0.50528870833E+02  0.30000033384E+02 0.  0.
        -12    1    1    2    0    0  0.35244384705E+02  0.80107472982E+01 -0.18623266608E+02  0.40659129167E+02  0.00000000000E+00 0.  1.
         11    1    3    3    0    0 -0.95972245982E+00 -0.57184851909E+01  0.89386802124E+01  0.10654677108E+02  0.51100000000E-03 0. -1.
        -11    1    3    3    0    0 -0.15372214610E+02  0.75518053068E+01  0.64887313772E+01  0.18314976946E+02  0.51100000000E-03 0.  1.
        -12    1    3    3    0    0 -0.18912447635E+02 -0.98440674141E+01  0.31958550183E+01  0.21559216778E+02  0.00000000000E+00 0.  1.
</event>
<event>
 7    1  0.1369731E-013  0.5052887E+02  0.7816164E-02  0.1300439E+00
        -11   -1    0    0    0    0  0.00000000000E+00  0.00000000000E+00  0.45593999997E+02  0.45594000000E+02  0.51100000000E-03 0. -1.
         11   -1    0    0    0    0 -0.00000000000E+00 -0.00000000000E+00 -0.45593999997E+02  0.45594000000E+02  0.51100000000E-03 0.  1.
    9900012    2    1    2    0    0  0.23166225233E+02  0.45103412552E+01 -0.33108126967E+02  0.50528865221E+02  0.30000016324E+02 0.  0.
         12    1    1    2    0    0 -0.23166225233E+02 -0.45103412552E+01  0.33108126967E+02  0.40659134779E+02  0.00000000000E+00 0. -1.
         11    1    3    3    0    0 -0.18151797394E+01  0.28133988057E+01 -0.13078661005E+01  0.35945242139E+01  0.51100000000E-03 0. -1.
        -11    1    3    3    0    0  0.14384268336E+02 -0.10139328051E+02 -0.22357410636E+02  0.28452890179E+02  0.51100000000E-03 0.  1.
        -12    1    3    3    0    0  0.10597136636E+02  0.11836270501E+02 -0.94428502298E+01  0.18481450828E+02  0.00000000000E+00 0.  1.
</event>
<event>
 7    1  0.1369731E-013  0.5052886E+02  0.7816164E-02  0.1300439E+00
        -11   -1    0    0    0    0  0.00000000000E+00  0.00000000000E+00  0.45593999997E+02  0.45594000000E+02  0.51100000000E-03 0. -1.
         11   -1    0    0    0    0 -0.00000000000E+00 -0.00000000000E+00 -0.45593999997E+02  0.45594000000E+02  0.51100000000E-03 0.  1.
    9900012    2    1    2    0    0 -0.30297275914E+02  0.19258470003E+02 -0.19088001193E+02  0.50528863460E+02  0.30000010973E+02 0.  0.
         12    1    1    2    0    0  0.30297275914E+02 -0.19258470003E+02  0.19088001193E+02  0.40659136540E+02  0.00000000000E+00 0. -1.
         11    1    3    3    0    0 -0.57317741448E+01  0.15894049053E+02 -0.12350505523E+01  0.16941056056E+02  0.51100000000E-03 0. -1.
        -11    1    3    3    0    0 -0.14563732944E+02  0.39929090488E+01 -0.18088530171E+02  0.23563543111E+02  0.51100000000E-03 0.  1.
         12    1    3    3    0    0 -0.10001768825E+02 -0.62848809913E+00  0.23557952979E+00  0.10024264294E+02  0.00000000000E+00 0. -1.
</event>
<event>
 7    1  0.1404707E-013  0.5052886E+02  0.7816164E-02  0.1300439E+00
        -11   -1    0    0    0    0  0.00000000000E+00  0.00000000000E+00  0.45593999997E+02  0.45594000000E+02  0.51100000000E-03 0. -1.
         11   -1    0    0    0    0 -0.00000000000E+00 -0.00000000000E+00 -0.45593999997E+02  0.45594000000E+02  0.51100000000E-03 0.  1.
    9900012    2    1    2    0    0 -0.89105838412E+01 -0.62705094281E+01 -0.39172031226E+02  0.50528858060E+02  0.29999994560E+02 0.  0.
         12    1    1    2    0    0  0.89105838412E+01  0.62705094281E+01  0.39172031226E+02  0.40659141940E+02  0.00000000000E+00 0. -1.
         11    1    3    3    0    0  0.81770862551E+01  0.41873487599E+01 -0.67532639132E+01  0.11401982415E+02  0.51100000000E-03 0. -1.
        -11    1    3    3    0    0 -0.48765112822E+01 -0.19598606513E+01 -0.16596875162E+02  0.17409126384E+02  0.51100000000E-03 0.  1.
         12    1    3    3    0    0 -0.12211158814E+02 -0.84979975367E+01 -0.15821892151E+02  0.21717749261E+02  0.00000000000E+00 0. -1.
</event>
<event>
 7    1  0.1369731E-013  0.5052886E+02  0.7816164E-02  0.1300439E+00
        -11   -1    0    0    0    0  0.00000000000E+00  0.00000000000E+00  0.45593999997E+02  0.45594000000E+02  0.51100000000E-03 0.  1.
         11   -1    0    0    0    0 -0.00000000000E+00 -0.00000000000E+00 -0.45593999997E+02  0.45594000000E+02  0.51100000000E-03 0. -1.
    9900012    2    1    2    0    0  0.11106144207E+02 -0.23352950018E+02  0.31376090010E+02  0.50528859108E+02  0.29999997746E+02 0.  0.
        -12    1    1    2    0    0 -0.11106144207E+02  0.23352950018E+02 -0.31376090010E+02  0.40659140892E+02  0.00000000000E+00 0.  1.
         11    1    3    3    0    0  0.10034927587E+02 -0.12796877788E+02  0.35318251621E+01  0.16641323326E+02  0.51100000000E-03 0. -1.
        -11    1    3    3    0    0 -0.14182690378E+00 -0.11794626573E+02  0.29324518206E+02  0.31607921461E+02  0.51100000000E-03 0.  1.
        -12    1    3    3    0    0  0.12130435242E+01  0.12385543426E+01 -0.14802533572E+01  0.22796143211E+01  0.00000000000E+00 0.  1.
</event>
<event>
 7    1  0.1369731E-013  0.5052885E+02  0.7816164E-02  0.1300439E+00
        -11   -1    0    0    0    0  0.00000000000E+00  0.00000000000E+00  0.45593999997E+02  0.45594000000E+02  0.51100000000E-03 0. -1.
         11   -1    0    0    0    0 -0.00000000000E+00 -0.00000000000E+00 -0.45593999997E+02  0.45594000000E+02  0.51100000000E-03 0.  1.
    9900012    2    1    2    0    0  0.13536174100E+02 -0.64953820472E+01  0.37785554620E+02  0.50528854225E+02  0.29999982902E+02 0.  0.
        -12    1    1    2    0    0 -0.13536174100E+02  0.64953820472E+01 -0.37785554620E+02  0.40659145775E+02  0.00000000000E+00 0.  1.
         11    1    3    3    0    0 -0.58188791244E+01  0.20111322986E+01  0.81871913050E+01  0.10243735115E+02  0.51100000000E-03 0. -1.
        -11    1    3    3    0    0  0.17691256722E+02 -0.11528462081E+02  0.16666075101E+02  0.26900633113E+02  0.51100000000E-03 0.  1.
        -12    1    3    3    0    0  0.16637965021E+01  0.30219477357E+01  0.12932288214E+02  0.13384485996E+02  0.00000000000E+00 0.  1.
</event>
<event>
 7    1  0.1369731E-013  0.5052886E+02  0.7816164E-02  0.1300439E+00
        -11   -1    0    0    0    0  0.00000000000E+00  0.00000000000E+00  0.45593999997E+02  0.45594000000E+02  0.51100000000E-03 0. -1.
         11   -1    0    0    0    0 -0.00000000000E+00 -0.00000000000E+00 -0.45593999997E+02  0.45594000000E+02  0.51100000000E-03 0.  1.
    9900012    2    1    2    0    0  0.73735027851E+01  0.11387136272E+02 -0.38329234032E+02  0.50528860840E+02  0.30000003009E+02 0.  0.
         12    1    1    2    0    0 -0.73735027851E+01 -0.11387136272E+02  0.38329234032E+02  0.40659139160E+02  0.00000000000E+00 0. -1.
         11    1    3    3    0    0 -0.64770288061E+00 -0.76368326112E+01 -0.62195579747E+01  0.98703410789E+01  0.51100000000E-03 0. -1.
        -11    1    3    3    0    0  0.10264983359E+02  0.15668200166E+02 -0.31395965305E+02  0.36559116749E+02  0.51100000000E-03 0.  1.
         12    1    3    3    0    0 -0.22437776931E+01  0.33557687166E+01 -0.71371075227E+00  0.40994030118E+01  0.00000000000E+00 0. -1.
</event>
<event>
 7    1  0.1369731E-013  0.5052886E+02  0.7816164E-02  0.1300439E+00
        -11   -1    0    0    0    0  0.00000000000E+00  0.00000000000E+00  0.45593999997E+02  0.45594000000E+02  0.51100000000E-03 0. -1.
         11   -1    0    0    0    0 -0.00000000000E+00 -0.00000000000E+00 -0.45593999997E+02  0.45594000000E+02  0.51100000000E-03 0.  1.
    9900012    2    1    2    0    0  0.31140968720E+02 -0.10294001767E+02 -0.24029967559E+02  0.50528859010E+02  0.29999997446E+02 0.  0.
         12    1    1    2    0    0 -0.31140968720E+02  0.10294001767E+02  0.24029967559E+02  0.40659140990E+02  0.00000000000E+00 0. -1.
         11    1    3    3    0    0 -0.88815367813E+00  0.67341476143E+00  0.98838091532E+00  0.14896984567E+01  0.51100000000E-03 0. -1.
        -11    1    3    3    0    0  0.26932027793E+02 -0.40389250402E+01 -0.28805487100E+02  0.39640927384E+02  0.51100000000E-03 0.  1.
        -12    1    3    3    0    0  0.50970946046E+01 -0.69284914887E+01  0.37871386263E+01  0.93982331686E+01  0.00000000000E+00 0.  1.
</event>
<event>
 7    1  0.1369731E-013  0.5052885E+02  0.7816164E-02  0.1300439E+00
        -11   -1    0    0    0    0  0.00000000000E+00  0.00000000000E+00  0.45593999997E+02  0.45594000000E+02  0.51100000000E-03 0. -1.
         11   -1    0    0    0    0 -0.00000000000E+00 -0.00000000000E+00 -0.45593999997E+02  0.45594000000E+02  0.51100000000E-03 0.  1.
    9900012    2    1    2    0    0  0.39250096746E+02 -0.38083730840E+01  0.99041699529E+01  0.50528851182E+02  0.29999973653E+02 0.  0.
        -12    1    1    2    0    0 -0.39250096746E+02  0.38083730840E+01 -0.99041699529E+01  0.40659148818E+02  0.00000000000E+00 0.  1.
         11    1    3    3    0    0  0.15278324607E+02  0.44490660346E+00  0.55647906487E+01  0.16266285375E+02  0.51100000000E-03 0. -1.
        -11    1    3    3    0    0  0.15352559604E+01 -0.45124054002E+01 -0.75046973871E+01  0.88904047429E+01  0.51100000000E-03 0.  1.
        -12    1    3    3    0    0  0.22436516179E+02  0.25912571270E+00  0.11844076691E+02  0.25372161064E+02  0.00000000000E+00 0.  1.
</event>
<event>
 7    1  0.1369731E-013  0.5052886E+02  0.7816164E-02  0.1300439E+00
        -11   -1    0    0    0    0  0.00000000000E+00  0.00000000000E+00  0.45593999997E+02  0.45594000000E+02  0.51100000000E-03 0. -1.
         11   -1    0    0    0    0 -0.00000000000E+00 -0.00000000000E+00 -0.45593999997E+02  0.45594000000E+02  0.51100000000E-03 0.  1.
    9900012    2    1    2    0    0  0.29225948475E+01 -0.17996180874E+02  0.36342285041E+02  0.50528858732E+02  0.29999996601E+02 0.  0.
        -12    1    1    2    0    0 -0.29225948475E+01  0.17996180874E+02 -0.36342285041E+02  0.40659141268E+02  0.00000000000E+00 0.  1.
         11    1    3    3    0    0 -0.26491552775E+00  0.46158299845E+01  0.12161233266E+02  0.13010444323E+02  0.51100000000E-03 0. -1.
        -11    1    3    3    0    0  0.38439443839E+01 -0.19255075459E+02  0.83750761207E+01  0.21346562713E+02  0.51100000000E-03 0.  1.
         12    1    3    3    0    0 -0.65643400863E+00 -0.33569353988E+01  0.15805975654E+02  0.16171851695E+02  0.00000000000E+00 0. -1.
</event>
<event>
 7    1  0.1369731E-013  0.5052886E+02  0.7816164E-02  0.1300439E+00
        -11   -1    0    0    0    0  0.00000000000E+00  0.00000000000E+00  0.45593999997E+02  0.45594000000E+02  0.51100000000E-03 0. -1.
         11   -1    0    0    0    0 -0.00000000000E+00 -0.00000000000E+00 -0.45593999997E+02  0.45594000000E+02  0.51100000000E-03 0.  1.
    9900012    2    1    2    0    0 -0.35342684403E+02 -0.48901477558E+01  0.19497352698E+02  0.50528860214E+02  0.30000001106E+02 0.  0.
        -12    1    1    2    0    0  0.35342684403E+02  0.48901477558E+01 -0.19497352698E+02  0.40659139786E+02  0.00000000000E+00 0.  1.
         11    1    3    3    0    0 -0.20574588693E+02 -0.88598291437E+01 -0.33280111858E+01  0.22646985032E+02  0.51100000000E-03 0. -1.
        -11    1    3    3    0    0 -0.65425220178E+01  0.89516063147E+00  0.13750346040E+02  0.15253783904E+02  0.51100000000E-03 0.  1.
        -12    1    3    3    0    0 -0.82255736927E+01  0.30745207564E+01  0.90750178435E+01  0.12628091278E+02  0.00000000000E+00 0.  1.
</event>
<event>
 7    1  0.1369731E-013  0.5052886E+02  0.7816164E-02  0.1300439E+00
        -11   -1    0    0    0    0  0.00000000000E+00  0.00000000000E+00  0.45593999997E+02  0.45594000000E+02  0.51100000000E-03 0. -1.
         11   -1    0    0    0    0 -0.00000000000E+00 -0.00000000000E+00 -0.45593999997E+02  0.45594000000E+02  0.51100000000E-03 0.  1.
    9900012    2    1    2    0    0 -0.23413190141E+02 -0.23016389932E+02  0.23984035050E+02  0.50528860617E+02  0.30000002331E+02 0.  0.
        -12    1    1    2    0    0  0.23413190141E+02  0.23016389932E+02 -0.23984035050E+02  0.40659139383E+02  0.00000000000E+00 0.  1.
         11    1    3    3    0    0 -0.14089691059E+02  0.29395939301E+01  0.17690750485E+01  0.14501387292E+02  0.51100000000E-03 0. -1.
        -11    1    3    3    0    0 -0.46849665943E+00 -0.67213736450E+01  0.27906684837E+01  0.72927487028E+01  0.51100000000E-03 0.  1.
         12    1    3    3    0    0 -0.88550024222E+01 -0.19234610217E+02  0.19424291518E+02  0.28734724622E+02  0.00000000000E+00 0. -1.
</event>
<event>
 7    1  0.1369731E-013  0.5052884E+02  0.7816164E-02  0.1300439E+00
        -11   -1    0    0    0    0  0.00000000000E+00  0.00000000000E+00  0.45593999997E+02  0.45594000000E+02  0.51100000000E-03 0. -1.
         11   -1    0    0    0    0 -0.00000000000E+00 -0.00000000000E+00 -0.45593999997E+02  0.45594000000E+02  0.51100000000E-03 0.  1.
    9900012    2    1    2    0    0 -0.17334430392E+02 -0.16547712759E+01 -0.36741616992E+02  0.50528841571E+02  0.29999944439E+02 0.  0.
         12    1    1    2    0    0  0.17334430392E+02  0.16547712759E+01  0.36741616992E+02  0.40659158429E+02  0.00000000000E+00 0. -1.
         11    1    3    3    0    0  0.60626379157E+00  0.96498250135E+01 -0.36977289385E+01  0.10351805550E+02  0.51100000000E-03 0. -1.
        -11    1    3    3    0    0 -0.12241625038E+02 -0.11943559215E+02 -0.25390708523E+02  0.30613625558E+02  0.51100000000E-03 0.  1.
         12    1    3    3    0    0 -0.56990691457E+01  0.63896292558E+00 -0.76531795310E+01  0.95634104629E+01  0.00000000000E+00 0. -1.
</event>
<event>
 7    1  0.1369731E-013  0.5052889E+02  0.7816164E-02  0.1300439E+00
        -11   -1    0    0    0    0  0.00000000000E+00  0.00000000000E+00  0.45593999997E+02  0.45594000000E+02  0.51100000000E-03 0. -1.
         11   -1    0    0    0    0 -0.00000000000E+00 -0.00000000000E+00 -0.45593999997E+02  0.45594000000E+02  0.51100000000E-03 0.  1.
    9900012    2    1    2    0    0 -0.31153041519E+02 -0.26126003224E+02  0.28777065556E+00  0.50528894596E+02  0.30000105612E+02 0.  0.
         12    1    1    2    0    0  0.31153041519E+02  0.26126003224E+02 -0.28777065556E+00  0.40659105404E+02  0.00000000000E+00 0. -1.
         11    1    3    3    0    0  0.19332403227E+01  0.66069894554E+00  0.66050022428E+01  0.69137541272E+01  0.51100000000E-03 0. -1.
        -11    1    3    3    0    0 -0.32925831599E+02 -0.26911002867E+02 -0.68248529125E+01  0.43068446447E+02  0.51100000000E-03 0.  1.
        -12    1    3    3    0    0 -0.16045024201E+00  0.12430069683E+00  0.50762132525E+00  0.54669402159E+00  0.00000000000E+00 0.  1.
</event>
<event>
 7    1  0.1369731E-013  0.5052883E+02  0.7816164E-02  0.1300439E+00
        -11   -1    0    0    0    0  0.00000000000E+00  0.00000000000E+00  0.45593999997E+02  0.45594000000E+02  0.51100000000E-03 0. -1.
         11   -1    0    0    0    0 -0.00000000000E+00 -0.00000000000E+00 -0.45593999997E+02  0.45594000000E+02  0.51100000000E-03 0.  1.
    9900012    2    1    2    0    0  0.83949338381E+01 -0.26159383092E+02 -0.29972981649E+02  0.50528832930E+02  0.29999918174E+02 0.  0.
         12    1    1    2    0    0 -0.83949338381E+01  0.26159383092E+02  0.29972981649E+02  0.40659167070E+02  0.00000000000E+00 0. -1.
         11    1    3    3    0    0  0.22247824333E+01  0.14416670282E+01 -0.32767702300E+01  0.42148883849E+01  0.51100000000E-03 0. -1.
        -11    1    3    3    0    0 -0.34739768183E+01 -0.24342963313E+02 -0.95608011408E+01  0.26382897804E+02  0.51100000000E-03 0.  1.
        -12    1    3    3    0    0  0.96441282231E+01 -0.32580868070E+01 -0.17135410278E+02  0.19931046742E+02  0.00000000000E+00 0.  1.
</event>
<event>
 7    1  0.1369731E-013  0.5052886E+02  0.7816164E-02  0.1300439E+00
        -11   -1    0    0    0    0  0.00000000000E+00  0.00000000000E+00  0.45593999997E+02  0.45594000000E+02  0.51100000000E-03 0. -1.
         11   -1    0    0    0    0 -0.00000000000E+00 -0.00000000000E+00 -0.45593999997E+02  0.45594000000E+02  0.51100000000E-03 0.  1.
    9900012    2    1    2    0    0  0.12200970629E+02  0.92639226298E+01  0.37662741376E+02  0.50528855460E+02  0.29999986657E+02 0.  0.
        -12    1    1    2    0    0 -0.12200970629E+02 -0.92639226298E+01 -0.37662741376E+02  0.40659144540E+02  0.00000000000E+00 0.  1.
         11    1    3    3    0    0 -0.62271073401E+01 -0.17219384124E+01  0.13932044206E+02  0.15357206573E+02  0.51100000000E-03 0. -1.
        -11    1    3    3    0    0  0.12226778490E+02  0.99858970275E+01  0.24176845888E+02  0.28874419978E+02  0.51100000000E-03 0.  1.
        -12    1    3    3    0    0  0.62012994787E+01  0.99996401465E+00 -0.44614871814E+00  0.62972289091E+01  0.00000000000E+00 0.  1.
</event>
<event>
 7    1  0.1369731E-013  0.5052888E+02  0.7816164E-02  0.1300439E+00
        -11   -1    0    0    0    0  0.00000000000E+00  0.00000000000E+00  0.45593999997E+02  0.45594000000E+02  0.51100000000E-03 0.  1.
         11   -1    0    0    0    0 -0.00000000000E+00 -0.00000000000E+00 -0.45593999997E+02  0.45594000000E+02  0.51100000000E-03 0. -1.
    9900012    2    1    2    0    0 -0.40271388107E+02 -0.94279389031E+00 -0.55218486899E+01  0.50528875890E+02  0.30000048757E+02 0.  0.
        -12    1    1    2    0    0  0.40271388107E+02  0.94279389031E+00  0.55218486899E+01  0.40659124110E+02  0.00000000000E+00 0.  1.
         11    1    3    3    0    0 -0.37683102816E+02 -0.57007180111E+01 -0.11139930753E+02  0.39706579821E+02  0.51100000000E-03 0. -1.
        -11    1    3    3    0    0 -0.36803442987E+01  0.38253233280E+01  0.70295707124E+01  0.88086830674E+01  0.51100000000E-03 0.  1.
         12    1    3    3    0    0  0.10920590070E+01  0.93260079272E+00 -0.14114886498E+01  0.20136130020E+01  0.00000000000E+00 0. -1.
</event>
<event>
 7    1  0.1683772E-013  0.5052886E+02  0.7816164E-02  0.1300439E+00
        -11   -1    0    0    0    0  0.00000000000E+00  0.00000000000E+00  0.45593999997E+02  0.45594000000E+02  0.51100000000E-03 0. -1.
         11   -1    0    0    0    0 -0.00000000000E+00 -0.00000000000E+00 -0.45593999997E+02  0.45594000000E+02  0.51100000000E-03 0.  1.
    9900012    2    1    2    0    0 -0.24341646977E+02  0.56624489768E+01 -0.32071581652E+02  0.50528862582E+02  0.30000008303E+02 0.  0.
         12    1    1    2    0    0  0.24341646977E+02 -0.56624489768E+01  0.32071581652E+02  0.40659137418E+02  0.00000000000E+00 0. -1.
         11    1    3    3    0    0  0.27243637551E+01  0.20413483273E+01 -0.43384660362E+01  0.55146666873E+01  0.51100000000E-03 0. -1.
        -11    1    3    3    0    0 -0.21153082353E+02  0.63304354389E+01 -0.30740513916E+02  0.37848467631E+02  0.51100000000E-03 0.  1.
        -12    1    3    3    0    0 -0.59129283786E+01 -0.27093347895E+01  0.30073983005E+01  0.71657282637E+01  0.00000000000E+00 0.  1.
</event>
<event>
 7    1  0.1369731E-013  0.5052885E+02  0.7816164E-02  0.1300439E+00
        -11   -1    0    0    0    0  0.00000000000E+00  0.00000000000E+00  0.45593999997E+02  0.45594000000E+02  0.51100000000E-03 0. -1.
         11   -1    0    0    0    0 -0.00000000000E+00 -0.00000000000E+00 -0.45593999997E+02  0.45594000000E+02  0.51100000000E-03 0.  1.
    9900012    2    1    2    0    0 -0.21936729664E+02  0.17752132656E+02  0.29271281850E+02  0.50528852649E+02  0.29999978112E+02 0.  0.
        -12    1    1    2    0    0  0.21936729664E+02 -0.17752132656E+02 -0.29271281850E+02  0.40659147351E+02  0.00000000000E+00 0.  1.
         11    1    3    3    0    0 -0.24075088901E+02  0.31703140074E+01  0.12019433539E+02  0.27094788786E+02  0.51100000000E-03 0. -1.
        -11    1    3    3    0    0 -0.68721642524E+00  0.11654637725E+02  0.11489589786E+02  0.16380278406E+02  0.51100000000E-03 0.  1.
         12    1    3    3    0    0  0.28255756624E+01  0.29271809233E+01  0.57622585247E+01  0.70537854580E+01  0.00000000000E+00 0. -1.
</event>
<event>
 7    1  0.1369731E-013  0.5052884E+02  0.7816164E-02  0.1300439E+00
        -11   -1    0    0    0    0  0.00000000000E+00  0.00000000000E+00  0.45593999997E+02  0.45594000000E+02  0.51100000000E-03 0. -1.
         11   -1    0    0    0    0 -0.00000000000E+00 -0.00000000000E+00 -0.45593999997E+02  0.45594000000E+02  0.51100000000E-03 0.  1.
    9900012    2    1    2    0    0 -0.16395714863E+02  0.24286235974E+02  0.28187351285E+02  0.50528837489E+02  0.29999932030E+02 0.  0.
        -12    1    1    2    0    0  0.16395714863E+02 -0.24286235974E+02 -0.28187351285E+02  0.40659162511E+02  0.00000000000E+00 0.  1.
         11    1    3    3    0    0 -0.47662263129E+01  0.16062904018E+02  0.21986385265E+02  0.27642990721E+02  0.51100000000E-03 0. -1.
        -11    1    3    3    0    0 -0.86356642089E+00 -0.48425480679E+01  0.26506670829E+01  0.55876699078E+01  0.51100000000E-03 0.  1.
        -12    1    3    3    0    0 -0.10765922130E+02  0.13065880025E+02  0.35502989371E+01  0.17298176859E+02  0.00000000000E+00 0.  1.
</event>
<event>
 7    1  0.1369731E-013  0.5052886E+02  0.7816164E-02  0.1300439E+00
        -11   -1    0    0    0    0  0.00000000000E+00  0.00000000000E+00  0.45593999997E+02  0.45594000000E+02  0.51100000000E-03 0. -1.
         11   -1    0    0    0    0 -0.00000000000E+00 -0.00000000000E+00 -0.45593999997E+02  0.45594000000E+02  0.51100000000E-03 0.  1.
    9900012    2    1    2    0    0  0.23666295744E+02 -0.18982835456E+02 -0.27068872387E+02  0.50528862669E+02  0.30000008568E+02 0.  0.
         12    1    1    2    0    0 -0.23666295744E+02  0.18982835456E+02  0.27068872387E+02  0.40659137331E+02  0.00000000000E+00 0. -1.
         11    1    3    3    0    0  0.20776828243E+02  0.21584584206E+00 -0.20085281824E+02  0.28898818791E+02  0.51100000000E-03 0. -1.
        -11    1    3    3    0    0  0.40188693575E+01 -0.17031731317E+02 -0.76479940412E+01  0.19097722264E+02  0.51100000000E-03 0.  1.
         12    1    3    3    0    0 -0.11294018564E+01 -0.21669499812E+01  0.66440347818E+00  0.25323216139E+01  0.00000000000E+00 0. -1.
</event>
<event>
 7    1  0.1369731E-013  0.5052884E+02  0.7816164E-02  0.1300439E+00
        -11   -1    0    0    0    0  0.00000000000E+00  0.00000000000E+00  0.45593999997E+02  0.45594000000E+02  0.51100000000E-03 0. -1.
         11   -1    0    0    0    0 -0.00000000000E+00 -0.00000000000E+00 -0.45593999997E+02  0.45594000000E+02  0.51100000000E-03 0.  1.
    9900012    2    1    2    0    0 -0.27590339888E+02  0.21182880254E+02  0.21052926456E+02  0.50528843794E+02  0.29999951197E+02 0.  0.
        -12    1    1    2    0    0  0.27590339888E+02 -0.21182880254E+02 -0.21052926456E+02  0.40659156206E+02  0.00000000000E+00 0.  1.
         11    1    3    3    0    0 -0.18841783080E+02  0.21584553064E+02  0.13572169641E+02  0.31703462108E+02  0.51100000000E-03 0. -1.
        -11    1    3    3    0    0  0.37560986758E+01  0.79654479602E+00  0.44984520513E+01  0.59142904894E+01  0.51100000000E-03 0.  1.
        -12    1    3    3    0    0 -0.12504655483E+02 -0.11982176052E+01  0.29823047639E+01  0.12911091197E+02  0.00000000000E+00 0.  1.
</event>
<event>
 7    1  0.1369731E-013  0.5052886E+02  0.7816164E-02  0.1300439E+00
        -11   -1    0    0    0    0  0.00000000000E+00  0.00000000000E+00  0.45593999997E+02  0.45594000000E+02  0.51100000000E-03 0.  1.
         11   -1    0    0    0    0 -0.00000000000E+00 -0.00000000000E+00 -0.45593999997E+02  0.45594000000E+02  0.51100000000E-03 0. -1.
    9900012    2    1    2    0    0 -0.28698268355E+02 -0.19993198369E+02  0.20732748337E+02  0.50528862759E+02  0.30000008842E+02 0.  0.
        -12    1    1    2    0    0  0.28698268355E+02  0.19993198369E+02 -0.20732748337E+02  0.40659137241E+02  0.00000000000E+00 0.  1.
         11    1    3    3    0    0 -0.35218793611E+01 -0.18774603985E+02  0.53677434152E+01  0.19841926788E+02  0.51100000000E-03 0. -1.
        -11    1    3    3    0    0 -0.92039427248E+01  0.16072104951E+01  0.97955241649E+01  0.13536911804E+02  0.51100000000E-03 0.  1.
         12    1    3    3    0    0 -0.15972446269E+02 -0.28258048787E+01  0.55694807567E+01  0.17150024167E+02  0.00000000000E+00 0. -1.
</event>
<event>
 7    1  0.1369731E-013  0.5052887E+02  0.7816164E-02  0.1300439E+00
        -11   -1    0    0    0    0  0.00000000000E+00  0.00000000000E+00  0.45593999997E+02  0.45594000000E+02  0.51100000000E-03 0. -1.
         11   -1    0    0    0    0 -0.00000000000E+00 -0.00000000000E+00 -0.45593999997E+02  0.45594000000E+02  0.51100000000E-03 0.  1.
    9900012    2    1    2    0    0 -0.28452575127E+02 -0.26311512725E+02 -0.12301239021E+02  0.50528865545E+02  0.30000017309E+02 0.  0.
         12    1    1    2    0    0  0.28452575127E+02  0.26311512725E+02  0.12301239021E+02  0.40659134455E+02  0.00000000000E+00 0. -1.
         11    1    3    3    0    0 -0.66701462611E+01 -0.59993664342E+01  0.98271221915E+01  0.13306223340E+02  0.51100000000E-03 0. -1.
        -11    1    3    3    0    0 -0.13908550672E+02 -0.14854711780E+02 -0.14905614178E+02  0.25224741389E+02  0.51100000000E-03 0.  1.
         12    1    3    3    0    0 -0.78738781933E+01 -0.54574345112E+01 -0.72227470344E+01  0.11997900815E+02  0.00000000000E+00 0. -1.
</event>
<event>
 7    1  0.1369731E-013  0.5052886E+02  0.7816164E-02  0.1300439E+00
        -11   -1    0    0    0    0  0.00000000000E+00  0.00000000000E+00  0.45593999997E+02  0.45594000000E+02  0.51100000000E-03 0. -1.
         11   -1    0    0    0    0 -0.00000000000E+00 -0.00000000000E+00 -0.45593999997E+02  0.45594000000E+02  0.51100000000E-03 0.  1.
    9900012    2    1    2    0    0 -0.72465251511E+01  0.17386057884E+02 -0.36033023313E+02  0.50528857060E+02  0.29999991521E+02 0.  0.
         12    1    1    2    0    0  0.72465251511E+01 -0.17386057884E+02  0.36033023313E+02  0.40659142940E+02  0.00000000000E+00 0. -1.
         11    1    3    3    0    0  0.62636602390E+01 -0.54451808353E+01 -0.75341127535E+01  0.11209205554E+02  0.51100000000E-03 0. -1.
        -11    1    3    3    0    0 -0.74961587533E+01  0.98127506446E+01 -0.98570904403E+01  0.15800148843E+02  0.51100000000E-03 0.  1.
         12    1    3    3    0    0 -0.60140266368E+01  0.13018488075E+02 -0.18641820119E+02  0.23519502662E+02  0.00000000000E+00 0. -1.
</event>
<event>
 7    1  0.1369731E-013  0.5052886E+02  0.7816164E-02  0.1300439E+00
        -11   -1    0    0    0    0  0.00000000000E+00  0.00000000000E+00  0.45593999997E+02  0.45594000000E+02  0.51100000000E-03 0. -1.
         11   -1    0    0    0    0 -0.00000000000E+00 -0.00000000000E+00 -0.45593999997E+02  0.45594000000E+02  0.51100000000E-03 0.  1.
    9900012    2    1    2    0    0 -0.11228169161E+02 -0.75971172715E-01  0.39077974544E+02  0.50528860206E+02  0.30000001082E+02 0.  0.
        -12    1    1    2    0    0  0.11228169161E+02  0.75971172715E-01 -0.39077974544E+02  0.40659139794E+02  0.00000000000E+00 0.  1.
         11    1    3    3    0    0  0.43047195766E+01  0.10533372198E+02  0.11878663735E+02  0.16449473940E+02  0.51100000000E-03 0. -1.
        -11    1    3    3    0    0  0.55187875618E+00  0.18014898992E+00 -0.11813687637E+00  0.59243599044E+00  0.51100000000E-03 0.  1.
         12    1    3    3    0    0 -0.16084767494E+02 -0.10789492361E+02  0.27317447685E+02  0.33486950276E+02  0.00000000000E+00 0. -1.
</event>
<event>
 7    1  0.1378978E-013  0.5052887E+02  0.7816164E-02  0.1300439E+00
        -11   -1    0    0    0    0  0.00000000000E+00  0.00000000000E+00  0.45593999997E+02  0.45594000000E+02  0.51100000000E-03 0. -1.
         11   -1    0    0    0    0 -0.00000000000E+00 -0.00000000000E+00 -0.45593999997E+02  0.45594000000E+02  0.51100000000E-03 0.  1.
    9900012    2    1    2    0    0 -0.22996565692E+02  0.12640869528E+02 -0.31056907547E+02  0.50528866679E+02  0.30000020759E+02 0.  0.
         12    1    1    2    0    0  0.22996565692E+02 -0.12640869528E+02  0.31056907547E+02  0.40659133321E+02  0.00000000000E+00 0. -1.
         11    1    3    3    0    0  0.14534564107E+01 -0.55654807102E+00  0.44243415834E+00  0.16180326137E+01  0.51100000000E-03 0. -1.
        -11    1    3    3    0    0 -0.24688807078E+02  0.90744482506E+01 -0.11880889381E+02  0.28862403551E+02  0.51100000000E-03 0.  1.
        -12    1    3    3    0    0  0.23878497565E+00  0.41229693479E+01 -0.19618452325E+02  0.20048430515E+02  0.00000000000E+00 0.  1.
</event>
<event>
 7    1  0.1369731E-013  0.5052886E+02  0.7816164E-02  0.1300439E+00
        -11   -1    0    0    0    0  0.00000000000E+00  0.00000000000E+00  0.45593999997E+02  0.45594000000E+02  0.51100000000E-03 0. -1.
         11   -1    0    0    0    0 -0.00000000000E+00 -0.00000000000E+00 -0.45593999997E+02  0.45594000000E+02  0.51100000000E-03 0.  1.
    9900012    2    1    2    0    0 -0.54345108908E+01  0.19905307483E+01 -0.40245115329E+02  0.50528862907E+02  0.30000009291E+02 0.  0.
         12    1    1    2    0    0  0.54345108908E+01 -0.19905307483E+01  0.40245115329E+02  0.40659137093E+02  0.00000000000E+00 0. -1.
         11    1    3    3    0    0 -0.35843141432E+01  0.27289889288E+01 -0.10718672481E+01  0.46307222017E+01  0.51100000000E-03 0. -1.
        -11    1    3    3    0    0  0.34883684977E+01 -0.10920068369E+02 -0.25992486805E+02  0.28408202662E+02  0.51100000000E-03 0.  1.
        -12    1    3    3    0    0 -0.53385652454E+01  0.10181610188E+02 -0.13180761277E+02  0.17489938043E+02  0.00000000000E+00 0.  1.
</event>
<event>
 7    1  0.1369731E-013  0.5052883E+02  0.7816164E-02  0.1300439E+00
        -11   -1    0    0    0    0  0.00000000000E+00  0.00000000000E+00  0.45593999997E+02  0.45594000000E+02  0.51100000000E-03 0. -1.
         11   -1    0    0    0    0 -0.00000000000E+00 -0.00000000000E+00 -0.45593999997E+02  0.45594000000E+02  0.51100000000E-03 0.  1.
    9900012    2    1    2    0    0  0.10008317192E+02 -0.10671263739E+02 -0.37935807220E+02  0.50528834339E+02  0.29999922457E+02 0.  0.
         12    1    1    2    0    0 -0.10008317192E+02  0.10671263739E+02  0.37935807220E+02  0.40659165661E+02  0.00000000000E+00 0. -1.
         11    1    3    3    0    0 -0.61734588493E+01 -0.88267175679E+01 -0.13653520945E+02  0.17390835852E+02  0.51100000000E-03 0.  1.
        -11    1    3    3    0    0  0.19045473119E+02 -0.32899623440E+01 -0.20398524345E+02  0.28100777468E+02  0.51100000000E-03 0. -1.
         12    1    3    3    0    0 -0.28636970780E+01  0.14454161730E+01 -0.38837619297E+01  0.50372210190E+01  0.00000000000E+00 0. -1.
</event>
<event>
 7    1  0.1369731E-013  0.5052886E+02  0.7816164E-02  0.1300439E+00
        -11   -1    0    0    0    0  0.00000000000E+00  0.00000000000E+00  0.45593999997E+02  0.45594000000E+02  0.51100000000E-03 0. -1.
         11   -1    0    0    0    0 -0.00000000000E+00 -0.00000000000E+00 -0.45593999997E+02  0.45594000000E+02  0.51100000000E-03 0.  1.
    9900012    2    1    2    0    0  0.65972173094E+01 -0.25193783987E+02  0.31223642287E+02  0.50528857541E+02  0.29999992983E+02 0.  0.
        -12    1    1    2    0    0 -0.65972173094E+01  0.25193783987E+02 -0.31223642287E+02  0.40659142459E+02  0.00000000000E+00 0.  1.
         11    1    3    3    0    0 -0.22271517238E+01 -0.12475544085E+02  0.29069071901E+02  0.31711359897E+02  0.51100000000E-03 0. -1.
        -11    1    3    3    0    0  0.10151731174E+02 -0.11308728779E+02 -0.87505866453E+00  0.15222047181E+02  0.51100000000E-03 0.  1.
        -12    1    3    3    0    0 -0.13273621413E+01 -0.14095111228E+01  0.30296290497E+01  0.35954504639E+01  0.00000000000E+00 0.  1.
</event>
<event>
 7    1  0.1369731E-013  0.5052886E+02  0.7816164E-02  0.1300439E+00
        -11   -1    0    0    0    0  0.00000000000E+00  0.00000000000E+00  0.45593999997E+02  0.45594000000E+02  0.51100000000E-03 0. -1.
         11   -1    0    0    0    0 -0.00000000000E+00 -0.00000000000E+00 -0.45593999997E+02  0.45594000000E+02  0.51100000000E-03 0.  1.
    9900012    2    1    2    0    0 -0.20855717352E+01 -0.36309539319E+02  0.18177826490E+02  0.50528860426E+02  0.30000001750E+02 0.  0.
        -12    1    1    2    0    0  0.20855717352E+01  0.36309539319E+02 -0.18177826490E+02  0.40659139574E+02  0.00000000000E+00 0.  1.
         11    1    3    3    0    0 -0.45535108208E+01 -0.93738648889E+01  0.15802552391E+02  0.18929460270E+02  0.51100000000E-03 0. -1.
        -11    1    3    3    0    0 -0.50152977591E+01 -0.18215511324E+02 -0.26117671958E+01  0.19073001666E+02  0.51100000000E-03 0.  1.
        -12    1    3    3    0    0  0.74832368447E+01 -0.87201631066E+01  0.49870412938E+01  0.12526398491E+02  0.00000000000E+00 0.  1.
</event>
<event>
 7    1  0.1369731E-013  0.5052881E+02  0.7816164E-02  0.1300439E+00
        -11   -1    0    0    0    0  0.00000000000E+00  0.00000000000E+00  0.45593999997E+02  0.45594000000E+02  0.51100000000E-03 0. -1.
         11   -1    0    0    0    0 -0.00000000000E+00 -0.00000000000E+00 -0.45593999997E+02  0.45594000000E+02  0.51100000000E-03 0.  1.
    9900012    2    1    2    0    0  0.27006680679E+02 -0.20614935043E+02  0.22334582662E+02  0.50528807549E+02  0.29999841025E+02 0.  0.
        -12    1    1    2    0    0 -0.27006680679E+02  0.20614935043E+02 -0.22334582662E+02  0.40659192451E+02  0.00000000000E+00 0.  1.
         11    1    3    3    0    0  0.22819427649E+02 -0.23380067832E+01  0.14617531323E+02  0.27200455441E+02  0.51100000000E-03 0.  1.
        -11    1    3    3    0    0  0.38913906975E+01 -0.59720232980E+01 -0.22669116835E+01  0.74797642125E+01  0.51100000000E-03 0. -1.
         12    1    3    3    0    0  0.29586233200E+00 -0.12304904962E+02  0.99839630228E+01  0.15848587896E+02  0.00000000000E+00 0. -1.
</event>
<event>
 7    1  0.1369731E-013  0.5052886E+02  0.7816164E-02  0.1300439E+00
        -11   -1    0    0    0    0  0.00000000000E+00  0.00000000000E+00  0.45593999997E+02  0.45594000000E+02  0.51100000000E-03 0. -1.
         11   -1    0    0    0    0 -0.00000000000E+00 -0.00000000000E+00 -0.45593999997E+02  0.45594000000E+02  0.51100000000E-03 0.  1.
    9900012    2    1    2    0    0 -0.97039212272E+01  0.21402489989E+02  0.33180314514E+02  0.50528856672E+02  0.29999990341E+02 0.  0.
        -12    1    1    2    0    0  0.97039212272E+01 -0.21402489989E+02 -0.33180314514E+02  0.40659143328E+02  0.00000000000E+00 0.  1.
         11    1    3    3    0    0 -0.11185232089E+02  0.59548840314E+01  0.10883942946E+02  0.16704199324E+02  0.51100000000E-03 0. -1.
        -11    1    3    3    0    0  0.39156280290E+01  0.60993422013E+01  0.23023382865E+02  0.24137321247E+02  0.51100000000E-03 0.  1.
        -12    1    3    3    0    0 -0.24343171669E+01  0.93482637564E+01 -0.72701129759E+00  0.96873361021E+01  0.00000000000E+00 0.  1.
</event>
<event>
 7    1  0.1369731E-013  0.5052884E+02  0.7816164E-02  0.1300439E+00
        -11   -1    0    0    0    0  0.00000000000E+00  0.00000000000E+00  0.45593999997E+02  0.45594000000E+02  0.51100000000E-03 0. -1.
         11   -1    0    0    0    0 -0.00000000000E+00 -0.00000000000E+00 -0.45593999997E+02  0.45594000000E+02  0.51100000000E-03 0.  1.
    9900012    2    1    2    0    0  0.25393996336E+02  0.23369444716E+02  0.21498399748E+02  0.50528841278E+02  0.29999943548E+02 0.  0.
        -12    1    1    2    0    0 -0.25393996336E+02 -0.23369444716E+02 -0.21498399748E+02  0.40659158722E+02  0.00000000000E+00 0.  1.
         11    1    3    3    0    0  0.14417338417E+02  0.14146036953E+02  0.21866087271E+02  0.29767361007E+02  0.51100000000E-03 0. -1.
        -11    1    3    3    0    0 -0.16042169452E+01  0.15108572451E+01 -0.48598468836E+01  0.53361328334E+01  0.51100000000E-03 0.  1.
         12    1    3    3    0    0  0.12580874864E+02  0.77125505173E+01  0.44921593607E+01  0.15425347437E+02  0.00000000000E+00 0. -1.
</event>
<event>
 7    1  0.1369731E-013  0.5052886E+02  0.7816164E-02  0.1300439E+00
        -11   -1    0    0    0    0  0.00000000000E+00  0.00000000000E+00  0.45593999997E+02  0.45594000000E+02  0.51100000000E-03 0. -1.
         11   -1    0    0    0    0 -0.00000000000E+00 -0.00000000000E+00 -0.45593999997E+02  0.45594000000E+02  0.51100000000E-03 0.  1.
    9900012    2    1    2    0    0 -0.43674800442E+00  0.85573528652E+01 -0.39746028282E+02  0.50528858334E+02  0.29999995391E+02 0.  0.
         12    1    1    2    0    0  0.43674800442E+00 -0.85573528652E+01  0.39746028282E+02  0.40659141666E+02  0.00000000000E+00 0. -1.
         11    1    3    3    0    0 -0.82149098899E+01 -0.68423214572E+00 -0.22054497153E+01  0.85332834733E+01  0.51100000000E-03 0. -1.
        -11    1    3    3    0    0  0.11196279066E+02  0.30537162611E+01 -0.20695866964E+02  0.23727636999E+02  0.51100000000E-03 0.  1.
        -12    1    3    3    0    0 -0.34181171801E+01  0.61878687499E+01 -0.16844711603E+02  0.18267937861E+02  0.00000000000E+00 0.  1.
</event>
<event>
 7    1  0.1369731E-013  0.5052886E+02  0.7816164E-02  0.1300439E+00
        -11   -1    0    0    0    0  0.00000000000E+00  0.00000000000E+00  0.45593999997E+02  0.45594000000E+02  0.51100000000E-03 0. -1.
         11   -1    0    0    0    0 -0.00000000000E+00 -0.00000000000E+00 -0.45593999997E+02  0.45594000000E+02  0.51100000000E-03 0.  1.
    9900012    2    1    2    0    0  0.99551640499E+01 -0.34642466507E+02 -0.18813817741E+02  0.50528861852E+02  0.30000006084E+02 0.  0.
         12    1    1    2    0    0 -0.99551640499E+01  0.34642466507E+02  0.18813817741E+02  0.40659138148E+02  0.00000000000E+00 0. -1.
         11    1    3    3    0    0  0.97887881086E+01 -0.62029756234E+01  0.39834520867E+01  0.12254189896E+02  0.51100000000E-03 0. -1.
        -11    1    3    3    0    0 -0.49364088612E+01 -0.20778321367E+02 -0.17792342108E+02  0.27797017991E+02  0.51100000000E-03 0.  1.
        -12    1    3    3    0    0  0.51027848025E+01 -0.76611695170E+01 -0.50049277202E+01  0.10477653964E+02  0.00000000000E+00 0.  1.
</event>
<event>
 7    1  0.1369731E-013  0.5052886E+02  0.7816164E-02  0.1300439E+00
        -11   -1    0    0    0    0  0.00000000000E+00  0.00000000000E+00  0.45593999997E+02  0.45594000000E+02  0.51100000000E-03 0. -1.
         11   -1    0    0    0    0 -0.00000000000E+00 -0.00000000000E+00 -0.45593999997E+02  0.45594000000E+02  0.51100000000E-03 0.  1.
    9900012    2    1    2    0    0 -0.27616399150E+02  0.17566764071E+02 -0.24122796096E+02  0.50528855968E+02  0.29999988201E+02 0.  0.
         12    1    1    2    0    0  0.27616399150E+02 -0.17566764071E+02  0.24122796096E+02  0.40659144032E+02  0.00000000000E+00 0. -1.
         11    1    3    3    0    0  0.29085892466E+01  0.37083734136E+01 -0.13389980455E+02  0.14195192906E+02  0.51100000000E-03 0. -1.
        -11    1    3    3    0    0 -0.14986741257E+02  0.83177863264E+01 -0.97649646638E+00  0.17168037992E+02  0.51100000000E-03 0.  1.
         12    1    3    3    0    0 -0.15538247139E+02  0.55406043309E+01 -0.97563191748E+01  0.19165625071E+02  0.00000000000E+00 0. -1.
</event>
<event>
 7    1  0.1369731E-013  0.5052887E+02  0.7816164E-02  0.1300439E+00
        -11   -1    0    0    0    0  0.00000000000E+00  0.00000000000E+00  0.45593999997E+02  0.45594000000E+02  0.51100000000E-03 0. -1.
         11   -1    0    0    0    0 -0.00000000000E+00 -0.00000000000E+00 -0.45593999997E+02  0.45594000000E+02  0.51100000000E-03 0.  1.
    9900012    2    1    2    0    0  0.81687036919E+01 -0.62904451820E+01  0.39330239401E+02  0.50528866316E+02  0.30000019655E+02 0.  0.
        -12    1    1    2    0    0 -0.81687036919E+01  0.62904451820E+01 -0.39330239401E+02  0.40659133684E+02  0.00000000000E+00 0.  1.
         11    1    3    3    0    0  0.10949460562E+00 -0.46527571478E+01  0.18553341783E+02  0.19128163261E+02  0.51100000000E-03 0. -1.
        -11    1    3    3    0    0  0.87393912878E+01 -0.75451809607E+01  0.20167622190E+01  0.11720667469E+02  0.51100000000E-03 0.  1.
        -12    1    3    3    0    0 -0.68018220153E+00  0.59074929265E+01  0.18760135398E+02  0.19680035586E+02  0.00000000000E+00 0.  1.
</event>
<event>
 7    1  0.1369731E-013  0.5052885E+02  0.7816164E-02  0.1300439E+00
        -11   -1    0    0    0    0  0.00000000000E+00  0.00000000000E+00  0.45593999997E+02  0.45594000000E+02  0.51100000000E-03 0. -1.
         11   -1    0    0    0    0 -0.00000000000E+00 -0.00000000000E+00 -0.45593999997E+02  0.45594000000E+02  0.51100000000E-03 0.  1.
    9900012    2    1    2    0    0 -0.31510772589E+01  0.33752975553E+02  0.22449363359E+02  0.50528848979E+02  0.29999966956E+02 0.  0.
        -12    1    1    2    0    0  0.31510772589E+01 -0.33752975553E+02 -0.22449363359E+02  0.40659151021E+02  0.00000000000E+00 0.  1.
         11    1    3    3    0    0  0.32079130859E+01  0.63623279760E+01  0.26711827248E+01  0.76095427623E+01  0.51100000000E-03 0. -1.
        -11    1    3    3    0    0  0.91593875677E+01  0.52359096695E+01  0.87570393274E+01  0.13711122081E+02  0.51100000000E-03 0.  1.
        -12    1    3    3    0    0 -0.15518377913E+02  0.22154737907E+02  0.11021141307E+02  0.29208184135E+02  0.00000000000E+00 0.  1.
</event>
<event>
 7    1  0.1369731E-013  0.5052887E+02  0.7816164E-02  0.1300439E+00
        -11   -1    0    0    0    0  0.00000000000E+00  0.00000000000E+00  0.45593999997E+02  0.45594000000E+02  0.51100000000E-03 0. -1.
         11   -1    0    0    0    0 -0.00000000000E+00 -0.00000000000E+00 -0.45593999997E+02  0.45594000000E+02  0.51100000000E-03 0.  1.
    9900012    2    1    2    0    0  0.38196778813E+02  0.11574678087E+01 -0.13886376488E+02  0.50528867012E+02  0.30000021768E+02 0.  0.
         12    1    1    2    0    0 -0.38196778813E+02 -0.11574678087E+01  0.13886376488E+02  0.40659132988E+02  0.00000000000E+00 0. -1.
         11    1    3    3    0    0  0.15398905606E+02  0.69613955161E+01  0.11200345084E+01  0.16936404546E+02  0.51100000000E-03 0. -1.
        -11    1    3    3    0    0  0.19585787451E+01 -0.84100131957E+01 -0.70018785037E+01  0.11117133421E+02  0.51100000000E-03 0.  1.
        -12    1    3    3    0    0  0.20839294461E+02  0.26060854884E+01 -0.80045324930E+01  0.22475329044E+02  0.00000000000E+00 0.  1.
</event>
<event>
 7    1  0.1369731E-013  0.5052886E+02  0.7816164E-02  0.1300439E+00
        -11   -1    0    0    0    0  0.00000000000E+00  0.00000000000E+00  0.45593999997E+02  0.45594000000E+02  0.51100000000E-03 0. -1.
         11   -1    0    0    0    0 -0.00000000000E+00 -0.00000000000E+00 -0.45593999997E+02  0.45594000000E+02  0.51100000000E-03 0.  1.
    9900012    2    1    2    0    0  0.16228523860E+02 -0.54121756437E+01  0.36885080125E+02  0.50528858744E+02  0.29999996638E+02 0.  0.
        -12    1    1    2    0    0 -0.16228523860E+02  0.54121756437E+01 -0.36885080125E+02  0.40659141256E+02  0.00000000000E+00 0.  1.
         11    1    3    3    0    0  0.51994320375E+01  0.83596828105E+01  0.83350928598E+01  0.12899308642E+02  0.51100000000E-03 0. -1.
        -11    1    3    3    0    0  0.55223680037E+01 -0.16262535322E+02  0.25790116682E+02  0.30985427578E+02  0.51100000000E-03 0.  1.
        -12    1    3    3    0    0  0.55067238188E+01  0.24906768677E+01  0.27598705833E+01  0.66441225239E+01  0.00000000000E+00 0.  1.
</event>
<event>
 7    1  0.1369731E-013  0.5052885E+02  0.7816164E-02  0.1300439E+00
        -11   -1    0    0    0    0  0.00000000000E+00  0.00000000000E+00  0.45593999997E+02  0.45594000000E+02  0.51100000000E-03 0. -1.
         11   -1    0    0    0    0 -0.00000000000E+00 -0.00000000000E+00 -0.45593999997E+02  0.45594000000E+02  0.51100000000E-03 0.  1.
    9900012    2    1    2    0    0  0.17778418178E+02  0.20589241850E+02 -0.30218832187E+02  0.50528845415E+02  0.29999956123E+02 0.  0.
         12    1    1    2    0    0 -0.17778418178E+02 -0.20589241850E+02  0.30218832187E+02  0.40659154585E+02  0.00000000000E+00 0. -1.
         11    1    3    3    0    0  0.20788487098E+01 -0.51745289898E+01  0.83321560133E+00  0.56384049805E+01  0.51100000000E-03 0. -1.
        -11    1    3    3    0    0  0.17264930820E+02  0.21103479983E+02 -0.28109499102E+02  0.39160932620E+02  0.51100000000E-03 0.  1.
        -12    1    3    3    0    0 -0.15653613518E+01  0.46602908563E+01 -0.29425486862E+01  0.57295078146E+01  0.00000000000E+00 0.  1.
</event>
<event>
 7    1  0.1415615E-013  0.5052887E+02  0.7816164E-02  0.1300439E+00
        -11   -1    0    0    0    0  0.00000000000E+00  0.00000000000E+00  0.45593999997E+02  0.45594000000E+02  0.51100000000E-03 0. -1.
         11   -1    0    0    0    0 -0.00000000000E+00 -0.00000000000E+00 -0.45593999997E+02  0.45594000000E+02  0.51100000000E-03 0.  1.
    9900012    2    1    2    0    0  0.14119395236E+02 -0.15353737566E+02  0.34900858001E+02  0.50528874723E+02  0.30000045208E+02 0.  0.
        -12    1    1    2    0    0 -0.14119395236E+02  0.15353737566E+02 -0.34900858001E+02  0.40659125277E+02  0.00000000000E+00 0.  1.
         11    1    3    3    0    0  0.65725793172E+01 -0.21397113365E+02  0.16771448716E+02  0.27969925841E+02  0.51100000000E-03 0. -1.
        -11    1    3    3    0    0  0.71301208370E+00  0.12869362280E+01 -0.94356120388E+00  0.17478269631E+01  0.51100000000E-03 0.  1.
         12    1    3    3    0    0  0.68338038354E+01  0.47564395714E+01  0.19072970489E+02  0.20811121919E+02  0.00000000000E+00 0. -1.
</event>
<event>
 7    1  0.1369731E-013  0.5052886E+02  0.7816164E-02  0.1300439E+00
        -11   -1    0    0    0    0  0.00000000000E+00  0.00000000000E+00  0.45593999997E+02  0.45594000000E+02  0.51100000000E-03 0. -1.
         11   -1    0    0    0    0 -0.00000000000E+00 -0.00000000000E+00 -0.45593999997E+02  0.45594000000E+02  0.51100000000E-03 0.  1.
    9900012    2    1    2    0    0  0.21310500571E+02 -0.25584083792E+02 -0.23334156251E+02  0.50528860486E+02  0.30000001933E+02 0.  0.
         12    1    1    2    0    0 -0.21310500571E+02  0.25584083792E+02  0.23334156251E+02  0.40659139514E+02  0.00000000000E+00 0. -1.
         11    1    3    3    0    0  0.68523842350E+01 -0.12640051311E+02 -0.13961315713E+01  0.14445596231E+02  0.51100000000E-03 0. -1.
        -11    1    3    3    0    0  0.12302743521E+02 -0.93462535541E+01 -0.26000314202E+02  0.30244442341E+02  0.51100000000E-03 0.  1.
        -12    1    3    3    0    0  0.21553728151E+01 -0.35977789271E+01  0.40622895221E+01  0.58388219139E+01  0.00000000000E+00 0.  1.
</event>
<event>
 7    1  0.1369731E-013  0.5052886E+02  0.7816164E-02  0.1300439E+00
        -11   -1    0    0    0    0  0.00000000000E+00  0.00000000000E+00  0.45593999997E+02  0.45594000000E+02  0.51100000000E-03 0. -1.
         11   -1    0    0    0    0 -0.00000000000E+00 -0.00000000000E+00 -0.45593999997E+02  0.45594000000E+02  0.51100000000E-03 0.  1.
    9900012    2    1    2    0    0  0.23376853232E+02 -0.31940704772E+02  0.92994598284E+01  0.50528857837E+02  0.29999993880E+02 0.  0.
        -12    1    1    2    0    0 -0.23376853232E+02  0.31940704772E+02 -0.92994598284E+01  0.40659142163E+02  0.00000000000E+00 0.  1.
         11    1    3    3    0    0  0.23899547912E+02 -0.11367074157E+02  0.75262238263E+00  0.26475747506E+02  0.51100000000E-03 0. -1.
        -11    1    3    3    0    0 -0.22793212957E+01 -0.66273537122E+01 -0.97404616988E+00  0.70757253337E+01  0.51100000000E-03 0.  1.
         12    1    3    3    0    0  0.17566266157E+01 -0.13946276903E+02  0.95208836157E+01  0.16977384997E+02  0.00000000000E+00 0. -1.
</event>
<event>
 7    1  0.1377588E-013  0.5052886E+02  0.7816164E-02  0.1300439E+00
        -11   -1    0    0    0    0  0.00000000000E+00  0.00000000000E+00  0.45593999997E+02  0.45594000000E+02  0.51100000000E-03 0. -1.
         11   -1    0    0    0    0 -0.00000000000E+00 -0.00000000000E+00 -0.45593999997E+02  0.45594000000E+02  0.51100000000E-03 0.  1.
    9900012    2    1    2    0    0 -0.20926215848E+02 -0.51629854803E+01  0.34476121092E+02  0.50528857679E+02  0.29999993400E+02 0.  0.
        -12    1    1    2    0    0  0.20926215848E+02  0.51629854803E+01 -0.34476121092E+02  0.40659142321E+02  0.00000000000E+00 0.  1.
         11    1    3    3    0    0  0.33338331887E+01  0.31855294062E+01  0.18637535183E+02  0.19199472891E+02  0.51100000000E-03 0. -1.
        -11    1    3    3    0    0 -0.75251459561E+01 -0.47465461198E+01  0.15490205118E+01  0.90308906834E+01  0.51100000000E-03 0.  1.
         12    1    3    3    0    0 -0.16734903080E+02 -0.36019687666E+01  0.14289565397E+02  0.22298494105E+02  0.00000000000E+00 0. -1.
</event>
<event>
 7    1  0.1369731E-013  0.5052885E+02  0.7816164E-02  0.1300439E+00
        -11   -1    0    0    0    0  0.00000000000E+00  0.00000000000E+00  0.45593999997E+02  0.45594000000E+02  0.51100000000E-03 0. -1.
         11   -1    0    0    0    0 -0.00000000000E+00 -0.00000000000E+00 -0.45593999997E+02  0.45594000000E+02  0.51100000000E-03 0.  1.
    9900012    2    1    2    0    0  0.14978024249E+02 -0.28832070600E+02  0.24444569690E+02  0.50528849826E+02  0.29999969532E+02 0.  0.
        -12    1    1    2    0    0 -0.14978024249E+02  0.28832070600E+02 -0.24444569690E+02  0.40659150174E+02  0.00000000000E+00 0.  1.
         11    1    3    3    0    0  0.43138354698E+00 -0.90861806950E+01  0.10650375508E+02  0.14006258248E+02  0.51100000000E-03 0. -1.
        -11    1    3    3    0    0  0.39193717037E+01 -0.12672862282E+01 -0.61028241385E+01  0.73628765888E+01  0.51100000000E-03 0.  1.
        -12    1    3    3    0    0  0.10627268998E+02 -0.18478603677E+02  0.19897018321E+02  0.29159714989E+02  0.00000000000E+00 0.  1.
</event>
<event>
 7    1  0.1369731E-013  0.5052887E+02  0.7816164E-02  0.1300439E+00
        -11   -1    0    0    0    0  0.00000000000E+00  0.00000000000E+00  0.45593999997E+02  0.45594000000E+02  0.51100000000E-03 0. -1.
         11   -1    0    0    0    0 -0.00000000000E+00 -0.00000000000E+00 -0.45593999997E+02  0.45594000000E+02  0.51100000000E-03 0.  1.
    9900012    2    1    2    0    0 -0.25791886473E+02 -0.22634526018E+02 -0.21808755843E+02  0.50528868094E+02  0.30000025059E+02 0.  0.
         12    1    1    2    0    0  0.25791886473E+02  0.22634526018E+02  0.21808755843E+02  0.40659131906E+02  0.00000000000E+00 0. -1.
         11    1    3    3    0    0 -0.25232508057E+02 -0.70298948301E+01 -0.19777658905E+02  0.32821558101E+02  0.51100000000E-03 0. -1.
        -11    1    3    3    0    0 -0.34823618920E+01 -0.77563550349E+01 -0.35181884182E+01  0.92013878182E+01  0.51100000000E-03 0.  1.
         12    1    3    3    0    0  0.29229834760E+01 -0.78482761529E+01  0.14870914798E+01  0.85059221747E+01  0.00000000000E+00 0. -1.
</event>
<event>
 7    1  0.1369731E-013  0.5052887E+02  0.7816164E-02  0.1300439E+00
        -11   -1    0    0    0    0  0.00000000000E+00  0.00000000000E+00  0.45593999997E+02  0.45594000000E+02  0.51100000000E-03 0. -1.
         11   -1    0    0    0    0 -0.00000000000E+00 -0.00000000000E+00 -0.45593999997E+02  0.45594000000E+02  0.51100000000E-03 0.  1.
    9900012    2    1    2    0    0  0.25608398548E+02  0.25621222254E+01 -0.31477145452E+02  0.50528865328E+02  0.30000016650E+02 0.  0.
         12    1    1    2    0    0 -0.25608398548E+02 -0.25621222254E+01  0.31477145452E+02  0.40659134672E+02  0.00000000000E+00 0. -1.
         11    1    3    3    0    0 -0.67022748788E-01 -0.63275592225E+01  0.69508137757E-02  0.63279180097E+01  0.51100000000E-03 0. -1.
        -11    1    3    3    0    0  0.86250272239E+01  0.85121589853E+01 -0.20810712334E+02  0.24081812500E+02  0.51100000000E-03 0.  1.
         12    1    3    3    0    0  0.17050394073E+02  0.37752246250E+00 -0.10673383933E+02  0.20119134818E+02  0.00000000000E+00 0. -1.
</event>
<event>
 7    1  0.1369731E-013  0.5052889E+02  0.7816164E-02  0.1300439E+00
        -11   -1    0    0    0    0  0.00000000000E+00  0.00000000000E+00  0.45593999997E+02  0.45594000000E+02  0.51100000000E-03 0.  1.
         11   -1    0    0    0    0 -0.00000000000E+00 -0.00000000000E+00 -0.45593999997E+02  0.45594000000E+02  0.51100000000E-03 0. -1.
    9900012    2    1    2    0    0  0.35464584616E+02  0.32208577927E+01 -0.19622761419E+02  0.50528887213E+02  0.30000083172E+02 0.  0.
        -12    1    1    2    0    0 -0.35464584616E+02 -0.32208577927E+01  0.19622761419E+02  0.40659112787E+02  0.00000000000E+00 0.  1.
         11    1    3    3    0    0  0.26838899141E+02 -0.13566138367E+01 -0.21436554014E+01  0.26958526794E+02  0.51100000000E-03 0. -1.
        -11    1    3    3    0    0  0.44577618585E+01 -0.18966084701E+01 -0.43035125538E+00  0.48635344083E+01  0.51100000000E-03 0.  1.
         12    1    3    3    0    0  0.41679236171E+01  0.64740800996E+01 -0.17048754763E+02  0.18706826010E+02  0.00000000000E+00 0. -1.
</event>
<event>
 7    1  0.1369731E-013  0.5052886E+02  0.7816164E-02  0.1300439E+00
        -11   -1    0    0    0    0  0.00000000000E+00  0.00000000000E+00  0.45593999997E+02  0.45594000000E+02  0.51100000000E-03 0.  1.
         11   -1    0    0    0    0 -0.00000000000E+00 -0.00000000000E+00 -0.45593999997E+02  0.45594000000E+02  0.51100000000E-03 0. -1.
    9900012    2    1    2    0    0  0.23953851034E+02 -0.11413302511E+02  0.30807712206E+02  0.50528860992E+02  0.30000003470E+02 0.  0.
        -12    1    1    2    0    0 -0.23953851034E+02  0.11413302511E+02 -0.30807712206E+02  0.40659139008E+02  0.00000000000E+00 0.  1.
         11    1    3    3    0    0  0.22662737211E+02 -0.63381543828E+01  0.20803068707E+02  0.31409226777E+02  0.51100000000E-03 0. -1.
        -11    1    3    3    0    0  0.94959934949E+00 -0.87661788583E+01  0.40227247082E+00  0.88266332257E+01  0.51100000000E-03 0.  1.
        -12    1    3    3    0    0  0.34151447374E+00  0.36910307303E+01  0.96023710283E+01  0.10293000989E+02  0.00000000000E+00 0.  1.
</event>
<event>
 7    1  0.1369731E-013  0.5052886E+02  0.7816164E-02  0.1300439E+00
        -11   -1    0    0    0    0  0.00000000000E+00  0.00000000000E+00  0.45593999997E+02  0.45594000000E+02  0.51100000000E-03 0. -1.
         11   -1    0    0    0    0 -0.00000000000E+00 -0.00000000000E+00 -0.45593999997E+02  0.45594000000E+02  0.51100000000E-03 0.  1.
    9900012    2    1    2    0    0 -0.13713505683E+02  0.17935541125E+02 -0.33814523927E+02  0.50528857092E+02  0.29999991618E+02 0.  0.
         12    1    1    2    0    0  0.13713505683E+02 -0.17935541125E+02  0.33814523927E+02  0.40659142908E+02  0.00000000000E+00 0. -1.
         11    1    3    3    0    0  0.83960129244E+01  0.48839585836E+01 -0.52089926156E+01  0.11021782469E+02  0.51100000000E-03 0. -1.
        -11    1    3    3    0    0 -0.11202713437E+02  0.25822755860E+01 -0.16646682918E+02  0.20230694205E+02  0.51100000000E-03 0.  1.
         12    1    3    3    0    0 -0.10906805170E+02  0.10469306955E+02 -0.11958848394E+02  0.19276380418E+02  0.00000000000E+00 0. -1.
</event>
<event>
 7    1  0.1369731E-013  0.5052886E+02  0.7816164E-02  0.1300439E+00
        -11   -1    0    0    0    0  0.00000000000E+00  0.00000000000E+00  0.45593999997E+02  0.45594000000E+02  0.51100000000E-03 0. -1.
         11   -1    0    0    0    0 -0.00000000000E+00 -0.00000000000E+00 -0.45593999997E+02  0.45594000000E+02  0.51100000000E-03 0.  1.
    9900012    2    1    2    0    0  0.57421446235E+01  0.33043273595E+02 -0.22985552517E+02  0.50528858601E+02  0.29999996204E+02 0.  0.
         12    1    1    2    0    0 -0.57421446235E+01 -0.33043273595E+02  0.22985552517E+02  0.40659141399E+02  0.00000000000E+00 0. -1.
         11    1    3    3    0    0  0.51799891053E+01  0.18951603027E+02  0.19761481871E+01  0.19745903533E+02  0.51100000000E-03 0. -1.
        -11    1    3    3    0    0  0.16459317696E+01  0.15857093988E+02 -0.22132297517E+02  0.27276273843E+02  0.51100000000E-03 0.  1.
        -12    1    3    3    0    0 -0.10837762514E+01 -0.17654234200E+01 -0.28294031875E+01  0.35066812248E+01  0.00000000000E+00 0.  1.
</event>
<event>
 7    1  0.1369731E-013  0.5052886E+02  0.7816164E-02  0.1300439E+00
        -11   -1    0    0    0    0  0.00000000000E+00  0.00000000000E+00  0.45593999997E+02  0.45594000000E+02  0.51100000000E-03 0. -1.
         11   -1    0    0    0    0 -0.00000000000E+00 -0.00000000000E+00 -0.45593999997E+02  0.45594000000E+02  0.51100000000E-03 0.  1.
    9900012    2    1    2    0    0 -0.11638360979E+02 -0.26862468091E+02 -0.28215634008E+02  0.50528860306E+02  0.30000001386E+02 0.  0.
         12    1    1    2    0    0  0.11638360979E+02  0.26862468091E+02  0.28215634008E+02  0.40659139694E+02  0.00000000000E+00 0. -1.
         11    1    3    3    0    0 -0.22989437716E+01 -0.10053683835E+02 -0.17290647894E+02  0.20132764489E+02  0.51100000000E-03 0. -1.
        -11    1    3    3    0    0  0.47037918328E+01  0.18111989494E+01 -0.20949880058E+01  0.54584864428E+01  0.51100000000E-03 0.  1.
        -12    1    3    3    0    0 -0.14043209040E+02 -0.18619983205E+02 -0.88299981087E+01  0.24937609374E+02  0.00000000000E+00 0.  1.
</event>
<event>
 7    1  0.1369731E-013  0.5052884E+02  0.7816164E-02  0.1300439E+00
        -11   -1    0    0    0    0  0.00000000000E+00  0.00000000000E+00  0.45593999997E+02  0.45594000000E+02  0.51100000000E-03 0. -1.
         11   -1    0    0    0    0 -0.00000000000E+00 -0.00000000000E+00 -0.45593999997E+02  0.45594000000E+02  0.51100000000E-03 0.  1.
    9900012    2    1    2    0    0  0.14309318268E+01  0.32494368226E+02 -0.24397447681E+02  0.50528843766E+02  0.29999951112E+02 0.  0.
         12    1    1    2    0    0 -0.14309318268E+01 -0.32494368226E+02  0.24397447681E+02  0.40659156234E+02  0.00000000000E+00 0. -1.
         11    1    3    3    0    0 -0.63445895142E+01  0.15080519185E+02  0.31264027826E+01  0.16656838524E+02  0.51100000000E-03 0. -1.
        -11    1    3    3    0    0  0.40795295306E+01  0.66317246063E+01 -0.73844186561E+01  0.10730888668E+02  0.51100000000E-03 0.  1.
         12    1    3    3    0    0  0.36959918103E+01  0.10782124434E+02 -0.20139431808E+02  0.23141116575E+02  0.00000000000E+00 0. -1.
</event>
<event>
 7    1  0.2270174E-013  0.5052886E+02  0.7816164E-02  0.1300439E+00
        -11   -1    0    0    0    0  0.00000000000E+00  0.00000000000E+00  0.45593999997E+02  0.45594000000E+02  0.51100000000E-03 0. -1.
         11   -1    0    0    0    0 -0.00000000000E+00 -0.00000000000E+00 -0.45593999997E+02  0.45594000000E+02  0.51100000000E-03 0.  1.
    9900012    2    1    2    0    0  0.39079976244E+01 -0.24132160653E+02  0.32488952467E+02  0.50528860122E+02  0.30000000826E+02 0.  0.
        -12    1    1    2    0    0 -0.39079976244E+01  0.24132160653E+02 -0.32488952467E+02  0.40659139878E+02  0.00000000000E+00 0.  1.
         11    1    3    3    0    0 -0.63137308484E+01 -0.15046896363E+02  0.22133706080E+02  0.27498604192E+02  0.51100000000E-03 0. -1.
        -11    1    3    3    0    0  0.70305336437E+01 -0.10033427117E+02  0.10388581355E+00  0.12251891918E+02  0.51100000000E-03 0.  1.
         12    1    3    3    0    0  0.31911948291E+01  0.94816282712E+00  0.10251360573E+02  0.10778364012E+02  0.00000000000E+00 0. -1.
</event>
<event>
 7    1  0.1369731E-013  0.5052895E+02  0.7816164E-02  0.1300438E+00
        -11   -1    0    0    0    0  0.00000000000E+00  0.00000000000E+00  0.45593999997E+02  0.45594000000E+02  0.51100000000E-03 0. -1.
         11   -1    0    0    0    0 -0.00000000000E+00 -0.00000000000E+00 -0.45593999997E+02  0.45594000000E+02  0.51100000000E-03 0.  1.
    9900012    2    1    2    0    0  0.38387380148E+02  0.53061932051E+01 -0.12304948788E+02  0.50528949278E+02  0.30000271825E+02 0.  0.
         12    1    1    2    0    0 -0.38387380148E+02 -0.53061932051E+01  0.12304948788E+02  0.40659050722E+02  0.00000000000E+00 0. -1.
         11    1    3    3    0    0  0.24999101882E+02 -0.57238668897E+01  0.41727667729E-01  0.25646042356E+02  0.51100000000E-03 0. -1.
        -11    1    3    3    0    0  0.54348392422E+01 -0.62300278792E+00 -0.87563554624E+01  0.10324697153E+02  0.51100000000E-03 0.  1.
         12    1    3    3    0    0  0.79534390238E+01  0.11653062883E+02 -0.35903209930E+01  0.14558209769E+02  0.00000000000E+00 0. -1.
</event>
<event>
 7    1  0.1369731E-013  0.5052882E+02  0.7816164E-02  0.1300439E+00
        -11   -1    0    0    0    0  0.00000000000E+00  0.00000000000E+00  0.45593999997E+02  0.45594000000E+02  0.51100000000E-03 0.  1.
         11   -1    0    0    0    0 -0.00000000000E+00 -0.00000000000E+00 -0.45593999997E+02  0.45594000000E+02  0.51100000000E-03 0. -1.
    9900012    2    1    2    0    0  0.14058844821E+02  0.25908889137E+02  0.28004418085E+02  0.50528817934E+02  0.29999872591E+02 0.  0.
        -12    1    1    2    0    0 -0.14058844821E+02 -0.25908889137E+02 -0.28004418085E+02  0.40659182066E+02  0.00000000000E+00 0.  1.
         11    1    3    3    0    0  0.23759935940E+00  0.40082882220E+01 -0.20918088326E+01  0.45275260771E+01  0.51100000000E-03 0. -1.
        -11    1    3    3    0    0  0.16695497136E+02  0.64262098616E+01  0.10065439923E+02  0.20526784427E+02  0.51100000000E-03 0.  1.
        -12    1    3    3    0    0 -0.28742516743E+01  0.15474391053E+02  0.20030786995E+02  0.25474507430E+02  0.00000000000E+00 0.  1.
</event>
<event>
 7    1  0.1369731E-013  0.5052888E+02  0.7816164E-02  0.1300439E+00
        -11   -1    0    0    0    0  0.00000000000E+00  0.00000000000E+00  0.45593999997E+02  0.45594000000E+02  0.51100000000E-03 0. -1.
         11   -1    0    0    0    0 -0.00000000000E+00 -0.00000000000E+00 -0.45593999997E+02  0.45594000000E+02  0.51100000000E-03 0.  1.
    9900012    2    1    2    0    0 -0.24518411391E+01  0.24152417501E+02 -0.32616153016E+02  0.50528877608E+02  0.30000053978E+02 0.  0.
         12    1    1    2    0    0  0.24518411391E+01 -0.24152417501E+02  0.32616153016E+02  0.40659122392E+02  0.00000000000E+00 0. -1.
         11    1    3    3    0    0 -0.29124655254E+01 -0.23326503426E+01 -0.10359210790E+02  0.11010765710E+02  0.51100000000E-03 0. -1.
        -11    1    3    3    0    0  0.14185193642E+01  0.19236891567E+02 -0.25115510823E+02  0.31667950337E+02  0.51100000000E-03 0.  1.
         12    1    3    3    0    0 -0.95789497787E+00  0.72481762761E+01  0.28585685975E+01  0.78501615617E+01  0.00000000000E+00 0. -1.
</event>
<event>
 7    1  0.1369731E-013  0.5052886E+02  0.7816164E-02  0.1300439E+00
        -11   -1    0    0    0    0  0.00000000000E+00  0.00000000000E+00  0.45593999997E+02  0.45594000000E+02  0.51100000000E-03 0.  1.
         11   -1    0    0    0    0 -0.00000000000E+00 -0.00000000000E+00 -0.45593999997E+02  0.45594000000E+02  0.51100000000E-03 0. -1.
    9900012    2    1    2    0    0  0.36310220317E+02  0.69059569998E+01  0.16942294712E+02  0.50528859679E+02  0.29999999479E+02 0.  0.
        -12    1    1    2    0    0 -0.36310220317E+02 -0.69059569998E+01 -0.16942294712E+02  0.40659140321E+02  0.00000000000E+00 0.  1.
         11    1    3    3    0    0  0.81639962123E+01  0.12804582148E+02 -0.18254010491E+01  0.15295105341E+02  0.51100000000E-03 0. -1.
        -11    1    3    3    0    0  0.20067325863E+02 -0.19386313290E+01  0.16240293261E+02  0.25888278896E+02  0.51100000000E-03 0.  1.
        -12    1    3    3    0    0  0.80788982414E+01 -0.39599938187E+01  0.25274024999E+01  0.93454754419E+01  0.00000000000E+00 0.  1.
</event>
<event>
 7    1  0.1369731E-013  0.5052885E+02  0.7816164E-02  0.1300439E+00
        -11   -1    0    0    0    0  0.00000000000E+00  0.00000000000E+00  0.45593999997E+02  0.45594000000E+02  0.51100000000E-03 0. -1.
         11   -1    0    0    0    0 -0.00000000000E+00 -0.00000000000E+00 -0.45593999997E+02  0.45594000000E+02  0.51100000000E-03 0.  1.
    9900012    2    1    2    0    0 -0.15970043406E+02 -0.12123875649E+02  0.35371400247E+02  0.50528848477E+02  0.29999965429E+02 0.  0.
        -12    1    1    2    0    0  0.15970043406E+02  0.12123875649E+02 -0.35371400247E+02  0.40659151523E+02  0.00000000000E+00 0.  1.
         11    1    3    3    0    0 -0.96796148661E+01  0.67464023512E+01  0.80548599393E+01  0.14285995154E+02  0.51100000000E-03 0. -1.
        -11    1    3    3    0    0 -0.98034456595E+01 -0.16699732684E+02  0.24568512944E+02  0.31282590159E+02  0.51100000000E-03 0.  1.
         12    1    3    3    0    0  0.35130171200E+01 -0.21705453164E+01  0.27480273643E+01  0.49602631635E+01  0.00000000000E+00 0. -1.
</event>
<event>
 7    1  0.1369731E-013  0.5052886E+02  0.7816164E-02  0.1300439E+00
        -11   -1    0    0    0    0  0.00000000000E+00  0.00000000000E+00  0.45593999997E+02  0.45594000000E+02  0.51100000000E-03 0. -1.
         11   -1    0    0    0    0 -0.00000000000E+00 -0.00000000000E+00 -0.45593999997E+02  0.45594000000E+02  0.51100000000E-03 0.  1.
    9900012    2    1    2    0    0 -0.36964356861E+02  0.68094245747E+01  0.15505930370E+02  0.50528858127E+02  0.29999994762E+02 0.  0.
        -12    1    1    2    0    0  0.36964356861E+02 -0.68094245747E+01 -0.15505930370E+02  0.40659141873E+02  0.00000000000E+00 0.  1.
         11    1    3    3    0    0 -0.30923823899E+02 -0.99889370028E+00  0.14557300255E+02  0.34193503245E+02  0.51100000000E-03 0. -1.
        -11    1    3    3    0    0  0.10708312779E+01  0.67311747180E+01  0.46455176507E+01  0.82484075563E+01  0.51100000000E-03 0.  1.
        -12    1    3    3    0    0 -0.71113642405E+01  0.10771435569E+01 -0.36968875355E+01  0.80869473260E+01  0.00000000000E+00 0.  1.
</event>
<event>
 7    1  0.1369731E-013  0.5052887E+02  0.7816164E-02  0.1300439E+00
        -11   -1    0    0    0    0  0.00000000000E+00  0.00000000000E+00  0.45593999997E+02  0.45594000000E+02  0.51100000000E-03 0. -1.
         11   -1    0    0    0    0 -0.00000000000E+00 -0.00000000000E+00 -0.45593999997E+02  0.45594000000E+02  0.51100000000E-03 0.  1.
    9900012    2    1    2    0    0  0.33751301825E+02 -0.85055178486E+01  0.21015970635E+02  0.50528865350E+02  0.30000016718E+02 0.  0.
        -12    1    1    2    0    0 -0.33751301825E+02  0.85055178486E+01 -0.21015970635E+02  0.40659134650E+02  0.00000000000E+00 0.  1.
         11    1    3    3    0    0  0.23045340444E+02 -0.89248547247E+01  0.18131767370E+02  0.30651292571E+02  0.51100000000E-03 0. -1.
        -11    1    3    3    0    0 -0.37890936905E+01 -0.12373912050E+01  0.34578897822E+01  0.52768712318E+01  0.51100000000E-03 0.  1.
         12    1    3    3    0    0  0.14495055072E+02  0.16567280811E+01 -0.57368651712E+00  0.14600701548E+02  0.00000000000E+00 0. -1.
</event>
<event>
 7    1  0.1369731E-013  0.5052886E+02  0.7816164E-02  0.1300439E+00
        -11   -1    0    0    0    0  0.00000000000E+00  0.00000000000E+00  0.45593999997E+02  0.45594000000E+02  0.51100000000E-03 0. -1.
         11   -1    0    0    0    0 -0.00000000000E+00 -0.00000000000E+00 -0.45593999997E+02  0.45594000000E+02  0.51100000000E-03 0.  1.
    9900012    2    1    2    0    0  0.51008079650E+01  0.14217482205E+02  0.37749315211E+02  0.50528857842E+02  0.29999993895E+02 0.  0.
        -12    1    1    2    0    0 -0.51008079650E+01 -0.14217482205E+02 -0.37749315211E+02  0.40659142158E+02  0.00000000000E+00 0.  1.
         11    1    3    3    0    0  0.57837179671E+00  0.85399832190E+01  0.20854160011E+02  0.22542444795E+02  0.51100000000E-03 0. -1.
        -11    1    3    3    0    0  0.65265322971E+01 -0.55963152246E+01  0.13862201752E+01  0.87083853011E+01  0.51100000000E-03 0.  1.
        -12    1    3    3    0    0 -0.20040961288E+01  0.11273814210E+02  0.15508935025E+02  0.19278027745E+02  0.00000000000E+00 0.  1.
</event>
<event>
 7    1  0.1369731E-013  0.5052886E+02  0.7816164E-02  0.1300439E+00
        -11   -1    0    0    0    0  0.00000000000E+00  0.00000000000E+00  0.45593999997E+02  0.45594000000E+02  0.51100000000E-03 0. -1.
         11   -1    0    0    0    0 -0.00000000000E+00 -0.00000000000E+00 -0.45593999997E+02  0.45594000000E+02  0.51100000000E-03 0.  1.
    9900012    2    1    2    0    0  0.11125760046E+01 -0.16504521557E+02 -0.37142006851E+02  0.50528859206E+02  0.29999998042E+02 0.  0.
         12    1    1    2    0    0 -0.11125760046E+01  0.16504521557E+02  0.37142006851E+02  0.40659140794E+02  0.00000000000E+00 0. -1.
         11    1    3    3    0    0  0.65638095508E+01 -0.10399214761E+02 -0.11105653165E+02  0.16569936510E+02  0.51100000000E-03 0. -1.
        -11    1    3    3    0    0 -0.99835611207E+01 -0.14443368782E+01 -0.37800032654E+01  0.10772466134E+02  0.51100000000E-03 0.  1.
        -12    1    3    3    0    0  0.45323275745E+01 -0.46609699176E+01 -0.22256350421E+02  0.23186456562E+02  0.00000000000E+00 0.  1.
</event>
<event>
 7    1  0.1419545E-013  0.5052887E+02  0.7816164E-02  0.1300439E+00
        -11   -1    0    0    0    0  0.00000000000E+00  0.00000000000E+00  0.45593999997E+02  0.45594000000E+02  0.51100000000E-03 0. -1.
         11   -1    0    0    0    0 -0.00000000000E+00 -0.00000000000E+00 -0.45593999997E+02  0.45594000000E+02  0.51100000000E-03 0.  1.
    9900012    2    1    2    0    0  0.13681779547E+02  0.26284810246E+02 -0.27840309974E+02  0.50528865717E+02  0.30000017832E+02 0.  0.
         12    1    1    2    0    0 -0.13681779547E+02 -0.26284810246E+02  0.27840309974E+02  0.40659134283E+02  0.00000000000E+00 0. -1.
         11    1    3    3    0    0  0.54319604166E+01 -0.16045382097E+01 -0.18222140280E+00  0.56669164221E+01  0.51100000000E-03 0. -1.
        -11    1    3    3    0    0  0.45606203045E+01  0.26841617152E+02 -0.13880256468E+02  0.30560320495E+02  0.51100000000E-03 0.  1.
        -12    1    3    3    0    0  0.36891988260E+01  0.10477313042E+01 -0.13777832103E+02  0.14301628800E+02  0.00000000000E+00 0.  1.
</event>
<event>
 7    1  0.1369731E-013  0.5052888E+02  0.7816164E-02  0.1300439E+00
        -11   -1    0    0    0    0  0.00000000000E+00  0.00000000000E+00  0.45593999997E+02  0.45594000000E+02  0.51100000000E-03 0. -1.
         11   -1    0    0    0    0 -0.00000000000E+00 -0.00000000000E+00 -0.45593999997E+02  0.45594000000E+02  0.51100000000E-03 0.  1.
    9900012    2    1    2    0    0 -0.38079980778E+02  0.11869716560E+02  0.78859995706E+01  0.50528879295E+02  0.30000059104E+02 0.  0.
        -12    1    1    2    0    0  0.38079980778E+02 -0.11869716560E+02 -0.78859995706E+01  0.40659120705E+02  0.00000000000E+00 0.  1.
         11    1    3    3    0    0 -0.78538814168E+01  0.53453097822E+01  0.67645138942E+01  0.11662522817E+02  0.51100000000E-03 0. -1.
        -11    1    3    3    0    0 -0.59200930296E+01  0.22994943138E+00 -0.98274014800E+01  0.11475112127E+02  0.51100000000E-03 0.  1.
        -12    1    3    3    0    0 -0.24306006332E+02  0.62944573462E+01  0.10948887156E+02  0.27391244350E+02  0.00000000000E+00 0.  1.
</event>
<event>
 7    1  0.1578403E-013  0.5052882E+02  0.7816164E-02  0.1300439E+00
        -11   -1    0    0    0    0  0.00000000000E+00  0.00000000000E+00  0.45593999997E+02  0.45594000000E+02  0.51100000000E-03 0. -1.
         11   -1    0    0    0    0 -0.00000000000E+00 -0.00000000000E+00 -0.45593999997E+02  0.45594000000E+02  0.51100000000E-03 0.  1.
    9900012    2    1    2    0    0 -0.19150096130E+02  0.57191759881E+01  0.35408097595E+02  0.50528824761E+02  0.29999893344E+02 0.  0.
        -12    1    1    2    0    0  0.19150096130E+02 -0.57191759881E+01 -0.35408097595E+02  0.40659175239E+02  0.00000000000E+00 0.  1.
         11    1    3    3    0    0 -0.71402529488E+01  0.12632344303E+02  0.25220738385E+02  0.29097164462E+02  0.51100000000E-03 0. -1.
        -11    1    3    3    0    0 -0.16016783653E+01 -0.59962094157E+01 -0.81365433890E+00  0.62595474746E+01  0.51100000000E-03 0.  1.
         12    1    3    3    0    0 -0.10408164816E+02 -0.91695889914E+00  0.11001013549E+02  0.15172112825E+02  0.00000000000E+00 0. -1.
</event>
<event>
 7    1  0.1369731E-013  0.5052886E+02  0.7816164E-02  0.1300439E+00
        -11   -1    0    0    0    0  0.00000000000E+00  0.00000000000E+00  0.45593999997E+02  0.45594000000E+02  0.51100000000E-03 0.  1.
         11   -1    0    0    0    0 -0.00000000000E+00 -0.00000000000E+00 -0.45593999997E+02  0.45594000000E+02  0.51100000000E-03 0. -1.
    9900012    2    1    2    0    0  0.16197745731E+02 -0.33528223559E+02 -0.16329638041E+02  0.50528858097E+02  0.29999994670E+02 0.  0.
         12    1    1    2    0    0 -0.16197745731E+02  0.33528223559E+02  0.16329638041E+02  0.40659141903E+02  0.00000000000E+00 0. -1.
         11    1    3    3    0    0  0.78114305815E+01 -0.13652971162E+02 -0.19465421478E+02  0.25026480033E+02  0.51100000000E-03 0. -1.
        -11    1    3    3    0    0  0.89786171384E+00 -0.89481851063E+00  0.48626647314E+01  0.50251730692E+01  0.51100000000E-03 0.  1.
         12    1    3    3    0    0  0.74884534354E+01 -0.18980433886E+02 -0.17268812948E+01  0.20477204994E+02  0.00000000000E+00 0. -1.
</event>
<event>
 7    1  0.1369731E-013  0.5052887E+02  0.7816164E-02  0.1300439E+00
        -11   -1    0    0    0    0  0.00000000000E+00  0.00000000000E+00  0.45593999997E+02  0.45594000000E+02  0.51100000000E-03 0. -1.
         11   -1    0    0    0    0 -0.00000000000E+00 -0.00000000000E+00 -0.45593999997E+02  0.45594000000E+02  0.51100000000E-03 0.  1.
    9900012    2    1    2    0    0 -0.81291796797E+01  0.27541531487E+02 -0.28784470257E+02  0.50528865148E+02  0.30000016104E+02 0.  0.
         12    1    1    2    0    0  0.81291796797E+01 -0.27541531487E+02  0.28784470257E+02  0.40659134852E+02  0.00000000000E+00 0. -1.
         11    1    3    3    0    0  0.76769237271E+01  0.14911488341E+02 -0.52531783858E+01  0.17575082528E+02  0.51100000000E-03 0. -1.
        -11    1    3    3    0    0 -0.70179208835E+01  0.53403309744E+01 -0.18463794511E+02  0.20461721737E+02  0.51100000000E-03 0.  1.
         12    1    3    3    0    0 -0.87881825233E+01  0.72897121716E+01 -0.50674973605E+01  0.12492060883E+02  0.00000000000E+00 0. -1.
</event>
<event>
 7    1  0.1369731E-013  0.5052891E+02  0.7816164E-02  0.1300439E+00
        -11   -1    0    0    0    0  0.00000000000E+00  0.00000000000E+00  0.45593999997E+02  0.45594000000E+02  0.51100000000E-03 0. -1.
         11   -1    0    0    0    0 -0.00000000000E+00 -0.00000000000E+00 -0.45593999997E+02  0.45594000000E+02  0.51100000000E-03 0.  1.
    9900012    2    1    2    0    0 -0.33448983791E+02  0.62899754460E+01  0.22243270522E+02  0.50528912562E+02  0.30000160223E+02 0.  0.
        -12    1    1    2    0    0  0.33448983791E+02 -0.62899754460E+01 -0.22243270522E+02  0.40659087438E+02  0.00000000000E+00 0.  1.
         11    1    3    3    0    0 -0.19291610508E+02  0.13128268404E+02  0.24852051976E+01  0.23466868398E+02  0.51100000000E-03 0. -1.
        -11    1    3    3    0    0 -0.14312467205E+02 -0.66274106016E+01  0.20734200686E+02  0.26051417756E+02  0.51100000000E-03 0.  1.
        -12    1    3    3    0    0  0.15509392187E+00 -0.21088235635E+00 -0.97613536111E+00  0.10106264077E+01  0.00000000000E+00 0.  1.
</event>
<event>
 7    1  0.1369731E-013  0.5052886E+02  0.7816164E-02  0.1300439E+00
        -11   -1    0    0    0    0  0.00000000000E+00  0.00000000000E+00  0.45593999997E+02  0.45594000000E+02  0.51100000000E-03 0. -1.
         11   -1    0    0    0    0 -0.00000000000E+00 -0.00000000000E+00 -0.45593999997E+02  0.45594000000E+02  0.51100000000E-03 0.  1.
    9900012    2    1    2    0    0  0.82267357697E+01 -0.25283744845E+01  0.39737816435E+02  0.50528856945E+02  0.29999991169E+02 0.  0.
        -12    1    1    2    0    0 -0.82267357697E+01  0.25283744845E+01 -0.39737816435E+02  0.40659143055E+02  0.00000000000E+00 0.  1.
         11    1    3    3    0    0  0.14919989369E+02 -0.10202530716E+01  0.35416511315E+02  0.38444456988E+02  0.51100000000E-03 0.  1.
        -11    1    3    3    0    0 -0.66630045752E+01  0.14789355944E+01 -0.72148340443E-02  0.68251690658E+01  0.51100000000E-03 0. -1.
         12    1    3    3    0    0 -0.30249024591E-01 -0.29870570072E+01  0.43285199541E+01  0.52592308906E+01  0.00000000000E+00 0. -1.
</event>
<event>
 7    1  0.1369731E-013  0.5052886E+02  0.7816164E-02  0.1300439E+00
        -11   -1    0    0    0    0  0.00000000000E+00  0.00000000000E+00  0.45593999997E+02  0.45594000000E+02  0.51100000000E-03 0. -1.
         11   -1    0    0    0    0 -0.00000000000E+00 -0.00000000000E+00 -0.45593999997E+02  0.45594000000E+02  0.51100000000E-03 0.  1.
    9900012    2    1    2    0    0  0.10433260512E+02 -0.22925357377E+02 -0.31917722387E+02  0.50528856648E+02  0.29999990267E+02 0.  0.
         12    1    1    2    0    0 -0.10433260512E+02  0.22925357377E+02  0.31917722387E+02  0.40659143352E+02  0.00000000000E+00 0. -1.
         11    1    3    3    0    0  0.18405975864E+02 -0.13469431730E+02 -0.10302870303E+02  0.25027078842E+02  0.51100000000E-03 0. -1.
        -11    1    3    3    0    0 -0.12120783413E+01 -0.55003522692E+01 -0.78014721518E+01  0.96221607234E+01  0.51100000000E-03 0.  1.
         12    1    3    3    0    0 -0.67606370108E+01 -0.39555733782E+01 -0.13813379931E+02  0.15879617082E+02  0.00000000000E+00 0. -1.
</event>
<event>
 7    1  0.1369731E-013  0.5052887E+02  0.7816164E-02  0.1300439E+00
        -11   -1    0    0    0    0  0.00000000000E+00  0.00000000000E+00  0.45593999997E+02  0.45594000000E+02  0.51100000000E-03 0.  1.
         11   -1    0    0    0    0 -0.00000000000E+00 -0.00000000000E+00 -0.45593999997E+02  0.45594000000E+02  0.51100000000E-03 0. -1.
    9900012    2    1    2    0    0  0.37459098509E+02  0.14599292745E+02 -0.60697121664E+01  0.50528870453E+02  0.30000032230E+02 0.  0.
         12    1    1    2    0    0 -0.37459098509E+02 -0.14599292745E+02  0.60697121664E+01  0.40659129547E+02  0.00000000000E+00 0. -1.
         11    1    3    3    0    0 -0.15645759420E+01 -0.28733653073E+00  0.13562632335E+01  0.20904330603E+01  0.51100000000E-03 0. -1.
        -11    1    3    3    0    0  0.23756988094E+02  0.13269486271E+02 -0.15264899609E+02  0.31200815847E+02  0.51100000000E-03 0.  1.
        -12    1    3    3    0    0  0.15266686357E+02  0.16171430042E+01  0.78389242088E+01  0.17237621546E+02  0.00000000000E+00 0.  1.
</event>
<event>
 7    1  0.1369731E-013  0.5052886E+02  0.7816164E-02  0.1300439E+00
        -11   -1    0    0    0    0  0.00000000000E+00  0.00000000000E+00  0.45593999997E+02  0.45594000000E+02  0.51100000000E-03 0. -1.
         11   -1    0    0    0    0 -0.00000000000E+00 -0.00000000000E+00 -0.45593999997E+02  0.45594000000E+02  0.51100000000E-03 0.  1.
    9900012    2    1    2    0    0  0.17297785843E+02  0.10243329919E+02  0.35341570560E+02  0.50528858192E+02  0.29999994960E+02 0.  0.
        -12    1    1    2    0    0 -0.17297785843E+02 -0.10243329919E+02 -0.35341570560E+02  0.40659141808E+02  0.00000000000E+00 0.  1.
         11    1    3    3    0    0  0.82553187485E+01  0.16777118694E+01 -0.23237817749E+01  0.87387050960E+01  0.51100000000E-03 0. -1.
        -11    1    3    3    0    0 -0.92147570981E-01 -0.39851329821E+00  0.19850221034E+02  0.19854434754E+02  0.51100000000E-03 0.  1.
         12    1    3    3    0    0  0.91346146653E+01  0.89641313483E+01  0.17815131301E+02  0.21935718342E+02  0.00000000000E+00 0. -1.
</event>
<event>
 7    1  0.1369731E-013  0.5052887E+02  0.7816164E-02  0.1300439E+00
        -11   -1    0    0    0    0  0.00000000000E+00  0.00000000000E+00  0.45593999997E+02  0.45594000000E+02  0.51100000000E-03 0.  1.
         11   -1    0    0    0    0 -0.00000000000E+00 -0.00000000000E+00 -0.45593999997E+02  0.45594000000E+02  0.51100000000E-03 0. -1.
    9900012    2    1    2    0    0 -0.12466466566E+02 -0.34771748090E+02  0.16990514164E+02  0.50528870331E+02  0.30000031858E+02 0.  0.
        -12    1    1    2    0    0  0.12466466566E+02  0.34771748090E+02 -0.16990514164E+02  0.40659129669E+02  0.00000000000E+00 0.  1.
         11    1    3    3    0    0 -0.15937469556E+02 -0.10458130867E+02  0.10167879735E+02  0.21604657267E+02  0.51100000000E-03 0. -1.
        -11    1    3    3    0    0  0.81368592390E+01 -0.11489777996E+02  0.58408074824E+01  0.15242654263E+02  0.51100000000E-03 0.  1.
        -12    1    3    3    0    0 -0.46658562495E+01 -0.12823839227E+02  0.98182694649E+00  0.13681558800E+02  0.00000000000E+00 0.  1.
</event>
<event>
 7    1  0.1369731E-013  0.5052885E+02  0.7816164E-02  0.1300439E+00
        -11   -1    0    0    0    0  0.00000000000E+00  0.00000000000E+00  0.45593999997E+02  0.45594000000E+02  0.51100000000E-03 0. -1.
         11   -1    0    0    0    0 -0.00000000000E+00 -0.00000000000E+00 -0.45593999997E+02  0.45594000000E+02  0.51100000000E-03 0.  1.
    9900012    2    1    2    0    0 -0.85349843660E+01  0.29772030646E+02  0.26342865930E+02  0.50528851554E+02  0.29999974783E+02 0.  0.
        -12    1    1    2    0    0  0.85349843660E+01 -0.29772030646E+02 -0.26342865930E+02  0.40659148446E+02  0.00000000000E+00 0.  1.
         11    1    3    3    0    0 -0.31702281104E+00  0.12775508960E+02  0.27328935923E+02  0.30169270319E+02  0.51100000000E-03 0. -1.
        -11    1    3    3    0    0 -0.15843077949E+01  0.11247470907E+02 -0.19640558633E+01  0.11527061581E+02  0.51100000000E-03 0.  1.
         12    1    3    3    0    0 -0.66336537601E+01  0.57490507792E+01  0.97798587062E+00  0.88325196537E+01  0.00000000000E+00 0. -1.
</event>
<event>
 7    1  0.1369731E-013  0.5052886E+02  0.7816164E-02  0.1300439E+00
        -11   -1    0    0    0    0  0.00000000000E+00  0.00000000000E+00  0.45593999997E+02  0.45594000000E+02  0.51100000000E-03 0. -1.
         11   -1    0    0    0    0 -0.00000000000E+00 -0.00000000000E+00 -0.45593999997E+02  0.45594000000E+02  0.51100000000E-03 0.  1.
    9900012    2    1    2    0    0 -0.15754442653E+02  0.15645755082E+02 -0.34061317813E+02  0.50528862201E+02  0.30000007147E+02 0.  0.
         12    1    1    2    0    0  0.15754442653E+02 -0.15645755082E+02  0.34061317813E+02  0.40659137799E+02  0.00000000000E+00 0. -1.
         11    1    3    3    0    0 -0.22802284937E+01 -0.49064203597E+01  0.20292408677E+01  0.57784272505E+01  0.51100000000E-03 0. -1.
        -11    1    3    3    0    0 -0.32764183209E+01  0.12104843021E+02 -0.22604164403E+02  0.25849765767E+02  0.51100000000E-03 0.  1.
         12    1    3    3    0    0 -0.10197795839E+02  0.84473324211E+01 -0.13486394277E+02  0.18900669184E+02  0.00000000000E+00 0. -1.
</event>
<event>
 7    1  0.1369731E-013  0.5052886E+02  0.7816164E-02  0.1300439E+00
        -11   -1    0    0    0    0  0.00000000000E+00  0.00000000000E+00  0.45593999997E+02  0.45594000000E+02  0.51100000000E-03 0. -1.
         11   -1    0    0    0    0 -0.00000000000E+00 -0.00000000000E+00 -0.45593999997E+02  0.45594000000E+02  0.51100000000E-03 0.  1.
    9900012    2    1    2    0    0  0.30745771678E+02 -0.24377948801E+02 -0.10657328217E+02  0.50528861930E+02  0.30000006324E+02 0.  0.
         12    1    1    2    0    0 -0.30745771678E+02  0.24377948801E+02  0.10657328217E+02  0.40659138070E+02  0.00000000000E+00 0. -1.
         11    1    3    3    0    0  0.62723636163E+01  0.30356188923E+01 -0.10572131906E+02  0.12662049624E+02  0.51100000000E-03 0. -1.
        -11    1    3    3    0    0  0.16069979625E+02 -0.23641867767E+02  0.91917453055E+00  0.28601171982E+02  0.51100000000E-03 0.  1.
         12    1    3    3    0    0  0.84034284371E+01 -0.37716999266E+01 -0.10043708418E+01  0.92656403245E+01  0.00000000000E+00 0. -1.
</event>
<event>
 7    1  0.1369731E-013  0.5052886E+02  0.7816164E-02  0.1300439E+00
        -11   -1    0    0    0    0  0.00000000000E+00  0.00000000000E+00  0.45593999997E+02  0.45594000000E+02  0.51100000000E-03 0.  1.
         11   -1    0    0    0    0 -0.00000000000E+00 -0.00000000000E+00 -0.45593999997E+02  0.45594000000E+02  0.51100000000E-03 0. -1.
    9900012    2    1    2    0    0 -0.24934605417E+02  0.28164662004E+02  0.15433175957E+02  0.50528860151E+02  0.30000000916E+02 0.  0.
        -12    1    1    2    0    0  0.24934605417E+02 -0.28164662004E+02 -0.15433175957E+02  0.40659139849E+02  0.00000000000E+00 0.  1.
         11    1    3    3    0    0  0.48813711855E+01  0.20919412887E+01 -0.12524093087E+01  0.54564212029E+01  0.51100000000E-03 0. -1.
        -11    1    3    3    0    0 -0.24259511224E+02  0.12719743989E+02  0.10336543939E+02  0.29277293469E+02  0.51100000000E-03 0.  1.
        -12    1    3    3    0    0 -0.55564653778E+01  0.13352976727E+02  0.63490413272E+01  0.15795145480E+02  0.00000000000E+00 0.  1.
</event>
<event>
 7    1  0.1369731E-013  0.5052886E+02  0.7816164E-02  0.1300439E+00
        -11   -1    0    0    0    0  0.00000000000E+00  0.00000000000E+00  0.45593999997E+02  0.45594000000E+02  0.51100000000E-03 0. -1.
         11   -1    0    0    0    0 -0.00000000000E+00 -0.00000000000E+00 -0.45593999997E+02  0.45594000000E+02  0.51100000000E-03 0.  1.
    9900012    2    1    2    0    0  0.16156435108E+02 -0.11072180890E+02  0.35630639093E+02  0.50528855552E+02  0.29999986935E+02 0.  0.
        -12    1    1    2    0    0 -0.16156435108E+02  0.11072180890E+02 -0.35630639093E+02  0.40659144448E+02  0.00000000000E+00 0.  1.
         11    1    3    3    0    0 -0.16181462323E+01 -0.17356276552E+01  0.23074878984E+02  0.23196569595E+02  0.51100000000E-03 0. -1.
        -11    1    3    3    0    0  0.10385149711E+02 -0.10638837533E+01  0.12439117319E+02  0.16239298726E+02  0.51100000000E-03 0.  1.
         12    1    3    3    0    0  0.73894316293E+01 -0.82726694819E+01  0.11664279008E+00  0.11092987231E+02  0.00000000000E+00 0. -1.
</event>
<event>
 7    1  0.1369731E-013  0.5052885E+02  0.7816164E-02  0.1300439E+00
        -11   -1    0    0    0    0  0.00000000000E+00  0.00000000000E+00  0.45593999997E+02  0.45594000000E+02  0.51100000000E-03 0. -1.
         11   -1    0    0    0    0 -0.00000000000E+00 -0.00000000000E+00 -0.45593999997E+02  0.45594000000E+02  0.51100000000E-03 0.  1.
    9900012    2    1    2    0    0  0.12122437063E+02 -0.18260913148E+01 -0.38766971948E+02  0.50528853381E+02  0.29999980336E+02 0.  0.
         12    1    1    2    0    0 -0.12122437063E+02  0.18260913148E+01  0.38766971948E+02  0.40659146619E+02  0.00000000000E+00 0. -1.
         11    1    3    3    0    0 -0.75652903142E+01  0.39381988818E+01 -0.41985912639E+01  0.95063766406E+01  0.51100000000E-03 0. -1.
        -11    1    3    3    0    0  0.13294081800E+02 -0.30489721624E+01 -0.15079833429E+02  0.20332983516E+02  0.51100000000E-03 0.  1.
         12    1    3    3    0    0  0.63936455771E+01 -0.27153180342E+01 -0.19488547254E+02  0.20689493224E+02  0.00000000000E+00 0. -1.
</event>
<event>
 7    1  0.1369731E-013  0.5052883E+02  0.7816164E-02  0.1300439E+00
        -11   -1    0    0    0    0  0.00000000000E+00  0.00000000000E+00  0.45593999997E+02  0.45594000000E+02  0.51100000000E-03 0. -1.
         11   -1    0    0    0    0 -0.00000000000E+00 -0.00000000000E+00 -0.45593999997E+02  0.45594000000E+02  0.51100000000E-03 0.  1.
    9900012    2    1    2    0    0 -0.20904659206E+01 -0.34709239690E+02 -0.21072895779E+02  0.50528827552E+02  0.29999901827E+02 0.  0.
         12    1    1    2    0    0  0.20904659206E+01  0.34709239690E+02  0.21072895779E+02  0.40659172448E+02  0.00000000000E+00 0. -1.
         11    1    3    3    0    0 -0.40950424764E+01 -0.51041847640E+01 -0.66354734097E+01  0.93194196505E+01  0.51100000000E-03 0. -1.
        -11    1    3    3    0    0  0.76577601984E+01  0.69168565562E+00 -0.17829655020E+01  0.78929517004E+01  0.51100000000E-03 0.  1.
        -12    1    3    3    0    0 -0.56531836425E+01 -0.30296740582E+02 -0.12654456868E+02  0.33316456201E+02  0.00000000000E+00 0.  1.
</event>
<event>
 7    1  0.1369731E-013  0.5052886E+02  0.7816164E-02  0.1300439E+00
        -11   -1    0    0    0    0  0.00000000000E+00  0.00000000000E+00  0.45593999997E+02  0.45594000000E+02  0.51100000000E-03 0. -1.
         11   -1    0    0    0    0 -0.00000000000E+00 -0.00000000000E+00 -0.45593999997E+02  0.45594000000E+02  0.51100000000E-03 0.  1.
    9900012    2    1    2    0    0  0.97803399276E+01 -0.26488226377E+02  0.29255507693E+02  0.50528856919E+02  0.29999991091E+02 0.  0.
        -12    1    1    2    0    0 -0.97803399276E+01  0.26488226377E+02 -0.29255507693E+02  0.40659143081E+02  0.00000000000E+00 0.  1.
         11    1    3    3    0    0  0.70671744053E+01 -0.18106153774E+02  0.24219328670E+02  0.31054043859E+02  0.51100000000E-03 0. -1.
        -11    1    3    3    0    0  0.46029582851E+01 -0.68607186403E+01 -0.46561374321E+01  0.94834751691E+01  0.51100000000E-03 0.  1.
        -12    1    3    3    0    0 -0.18897927627E+01 -0.15213539631E+01  0.96923164557E+01  0.99913378907E+01  0.00000000000E+00 0.  1.
</event>
<event>
 7    1  0.1369731E-013  0.5052886E+02  0.7816164E-02  0.1300439E+00
        -11   -1    0    0    0    0  0.00000000000E+00  0.00000000000E+00  0.45593999997E+02  0.45594000000E+02  0.51100000000E-03 0. -1.
         11   -1    0    0    0    0 -0.00000000000E+00 -0.00000000000E+00 -0.45593999997E+02  0.45594000000E+02  0.51100000000E-03 0.  1.
    9900012    2    1    2    0    0  0.18852526771E+02  0.10896296255E+02  0.34336837347E+02  0.50528862814E+02  0.30000009009E+02 0.  0.
        -12    1    1    2    0    0 -0.18852526771E+02 -0.10896296255E+02 -0.34336837347E+02  0.40659137186E+02  0.00000000000E+00 0.  1.
         11    1    3    3    0    0  0.13361307202E+02  0.19712292353E+02  0.17915512613E+02  0.29800412622E+02  0.51100000000E-03 0. -1.
        -11    1    3    3    0    0 -0.12650172907E+01 -0.41983468415E+01  0.46425750313E+01  0.63859132573E+01  0.51100000000E-03 0.  1.
         12    1    3    3    0    0  0.67562368597E+01 -0.46176492570E+01  0.11778749703E+02  0.14342536935E+02  0.00000000000E+00 0. -1.
</event>
<event>
 7    1  0.1369731E-013  0.5052886E+02  0.7816164E-02  0.1300439E+00
        -11   -1    0    0    0    0  0.00000000000E+00  0.00000000000E+00  0.45593999997E+02  0.45594000000E+02  0.51100000000E-03 0. -1.
         11   -1    0    0    0    0 -0.00000000000E+00 -0.00000000000E+00 -0.45593999997E+02  0.45594000000E+02  0.51100000000E-03 0.  1.
    9900012    2    1    2    0    0 -0.42212111436E+01 -0.12559233989E+01  0.40419916183E+02  0.50528860913E+02  0.30000003230E+02 0.  0.
        -12    1    1    2    0    0  0.42212111436E+01  0.12559233989E+01 -0.40419916183E+02  0.40659139087E+02  0.00000000000E+00 0.  1.
         11    1    3    3    0    0  0.94824613681E+00  0.78934685286E-01  0.33753214350E+02  0.33766623767E+02  0.51100000000E-03 0. -1.
        -11    1    3    3    0    0 -0.33413474902E+01 -0.44496119268E+01 -0.30855419504E+01  0.63627210169E+01  0.51100000000E-03 0.  1.
        -12    1    3    3    0    0 -0.18281097902E+01  0.31147538426E+01  0.97522437832E+01  0.10399516129E+02  0.00000000000E+00 0.  1.
</event>
<event>
 7    1  0.1369731E-013  0.5052885E+02  0.7816164E-02  0.1300439E+00
        -11   -1    0    0    0    0  0.00000000000E+00  0.00000000000E+00  0.45593999997E+02  0.45594000000E+02  0.51100000000E-03 0. -1.
         11   -1    0    0    0    0 -0.00000000000E+00 -0.00000000000E+00 -0.45593999997E+02  0.45594000000E+02  0.51100000000E-03 0.  1.
    9900012    2    1    2    0    0 -0.22276490111E+01 -0.16982102078E+02  0.36875630489E+02  0.50528851767E+02  0.29999975430E+02 0.  0.
        -12    1    1    2    0    0  0.22276490111E+01  0.16982102078E+02 -0.36875630489E+02  0.40659148233E+02  0.00000000000E+00 0.  1.
         11    1    3    3    0    0 -0.37411030682E+00 -0.93346102926E+01  0.37911313111E+01  0.10082042686E+02  0.51100000000E-03 0. -1.
        -11    1    3    3    0    0  0.55872882419E+01 -0.78177778179E+01  0.31370531465E+02  0.32809231697E+02  0.51100000000E-03 0.  1.
        -12    1    3    3    0    0 -0.74408269462E+01  0.17028603211E+00  0.17139677129E+01  0.76375773840E+01  0.00000000000E+00 0.  1.
</event>
<event>
 7    1  0.1369731E-013  0.5052886E+02  0.7816164E-02  0.1300439E+00
        -11   -1    0    0    0    0  0.00000000000E+00  0.00000000000E+00  0.45593999997E+02  0.45594000000E+02  0.51100000000E-03 0. -1.
         11   -1    0    0    0    0 -0.00000000000E+00 -0.00000000000E+00 -0.45593999997E+02  0.45594000000E+02  0.51100000000E-03 0.  1.
    9900012    2    1    2    0    0  0.33528722416E+02  0.97443796342E+01  0.20833564032E+02  0.50528861401E+02  0.30000004714E+02 0.  0.
        -12    1    1    2    0    0 -0.33528722416E+02 -0.97443796342E+01 -0.20833564032E+02  0.40659138599E+02  0.00000000000E+00 0.  1.
         11    1    3    3    0    0  0.20619811789E+02  0.12741237714E+02  0.14399122923E+02  0.28193093444E+02  0.51100000000E-03 0. -1.
        -11    1    3    3    0    0 -0.34613928122E+00  0.27798505178E+01 -0.37275471236E+01  0.46628305913E+01  0.51100000000E-03 0.  1.
        -12    1    3    3    0    0  0.13255049908E+02 -0.57767085977E+01  0.10161988233E+02  0.17672937366E+02  0.00000000000E+00 0.  1.
</event>
<event>
 7    1  0.1369731E-013  0.5052887E+02  0.7816164E-02  0.1300439E+00
        -11   -1    0    0    0    0  0.00000000000E+00  0.00000000000E+00  0.45593999997E+02  0.45594000000E+02  0.51100000000E-03 0. -1.
         11   -1    0    0    0    0 -0.00000000000E+00 -0.00000000000E+00 -0.45593999997E+02  0.45594000000E+02  0.51100000000E-03 0.  1.
    9900012    2    1    2    0    0 -0.27549420601E+02  0.16423792379E+02  0.24989061676E+02  0.50528871443E+02  0.30000035237E+02 0.  0.
        -12    1    1    2    0    0  0.27549420601E+02 -0.16423792379E+02 -0.24989061676E+02  0.40659128557E+02  0.00000000000E+00 0.  1.
         11    1    3    3    0    0 -0.22483894608E+02  0.21585731791E+02  0.24331838780E+02  0.39541215362E+02  0.51100000000E-03 0. -1.
        -11    1    3    3    0    0 -0.70850846461E+01 -0.45296010758E+01  0.17747051044E+01  0.85944917719E+01  0.51100000000E-03 0.  1.
        -12    1    3    3    0    0  0.20195586525E+01 -0.63233833605E+00 -0.11174822077E+01  0.23931643083E+01  0.00000000000E+00 0.  1.
</event>
<event>
 7    1  0.1369731E-013  0.5052886E+02  0.7816164E-02  0.1300439E+00
        -11   -1    0    0    0    0  0.00000000000E+00  0.00000000000E+00  0.45593999997E+02  0.45594000000E+02  0.51100000000E-03 0. -1.
         11   -1    0    0    0    0 -0.00000000000E+00 -0.00000000000E+00 -0.45593999997E+02  0.45594000000E+02  0.51100000000E-03 0.  1.
    9900012    2    1    2    0    0 -0.57882102707E+01 -0.20950377585E+02  0.34361954406E+02  0.50528860687E+02  0.30000002544E+02 0.  0.
        -12    1    1    2    0    0  0.57882102707E+01  0.20950377585E+02 -0.34361954406E+02  0.40659139313E+02  0.00000000000E+00 0.  1.
         11    1    3    3    0    0 -0.58761723382E+01 -0.51663394444E+00  0.24314010037E+02  0.25019340445E+02  0.51100000000E-03 0. -1.
        -11    1    3    3    0    0 -0.33273788350E+01 -0.19367996264E+02  0.96987622484E+01  0.21914760291E+02  0.51100000000E-03 0.  1.
         12    1    3    3    0    0  0.34153409026E+01 -0.10657473766E+01  0.34918212081E+00  0.35947599509E+01  0.00000000000E+00 0. -1.
</event>
<event>
 7    1  0.1369731E-013  0.5052887E+02  0.7816164E-02  0.1300439E+00
        -11   -1    0    0    0    0  0.00000000000E+00  0.00000000000E+00  0.45593999997E+02  0.45594000000E+02  0.51100000000E-03 0. -1.
         11   -1    0    0    0    0 -0.00000000000E+00 -0.00000000000E+00 -0.45593999997E+02  0.45594000000E+02  0.51100000000E-03 0.  1.
    9900012    2    1    2    0    0  0.33740603919E+02  0.14123328468E+02  0.17755793226E+02  0.50528868763E+02  0.30000027093E+02 0.  0.
        -12    1    1    2    0    0 -0.33740603919E+02 -0.14123328468E+02 -0.17755793226E+02  0.40659131237E+02  0.00000000000E+00 0.  1.
         11    1    3    3    0    0  0.34182135685E+02  0.96355891412E+01  0.76303472343E+01  0.36324718544E+02  0.51100000000E-03 0. -1.
        -11    1    3    3    0    0 -0.17612838466E+01  0.67374912959E+01  0.54214371685E+01  0.88254116608E+01  0.51100000000E-03 0.  1.
        -12    1    3    3    0    0  0.13197520807E+01 -0.22497519692E+01  0.47040088229E+01  0.53787385588E+01  0.00000000000E+00 0.  1.
</event>
<event>
 7    1  0.1369731E-013  0.5052885E+02  0.7816164E-02  0.1300439E+00
        -11   -1    0    0    0    0  0.00000000000E+00  0.00000000000E+00  0.45593999997E+02  0.45594000000E+02  0.51100000000E-03 0. -1.
         11   -1    0    0    0    0 -0.00000000000E+00 -0.00000000000E+00 -0.45593999997E+02  0.45594000000E+02  0.51100000000E-03 0.  1.
    9900012    2    1    2    0    0  0.96177608695E+01 -0.12237456864E+02  0.37562077753E+02  0.50528851463E+02  0.29999974507E+02 0.  0.
        -12    1    1    2    0    0 -0.96177608695E+01  0.12237456864E+02 -0.37562077753E+02  0.40659148537E+02  0.00000000000E+00 0.  1.
         11    1    3    3    0    0  0.80994550309E+01  0.82660342655E+00  0.28678873702E+02  0.29812115693E+02  0.51100000000E-03 0. -1.
        -11    1    3    3    0    0 -0.28703635007E+01  0.19243697806E+00 -0.15664922773E+01  0.32756551913E+01  0.51100000000E-03 0.  1.
        -12    1    3    3    0    0  0.43886693392E+01 -0.13256497269E+02  0.10449696328E+02  0.17441080579E+02  0.00000000000E+00 0.  1.
</event>
<event>
 7    1  0.1369731E-013  0.5052886E+02  0.7816164E-02  0.1300439E+00
        -11   -1    0    0    0    0  0.00000000000E+00  0.00000000000E+00  0.45593999997E+02  0.45594000000E+02  0.51100000000E-03 0. -1.
         11   -1    0    0    0    0 -0.00000000000E+00 -0.00000000000E+00 -0.45593999997E+02  0.45594000000E+02  0.51100000000E-03 0.  1.
    9900012    2    1    2    0    0  0.10643653150E+02 -0.23892068412E+02  0.31129522800E+02  0.50528862342E+02  0.30000007575E+02 0.  0.
        -12    1    1    2    0    0 -0.10643653150E+02  0.23892068412E+02 -0.31129522800E+02  0.40659137658E+02  0.00000000000E+00 0.  1.
         11    1    3    3    0    0  0.95511359033E+01 -0.91261313795E+01  0.23277784597E+02  0.26765009378E+02  0.51100000000E-03 0. -1.
        -11    1    3    3    0    0  0.14819345332E+00 -0.98367967892E+01 -0.42090641825E+01  0.10700502508E+02  0.51100000000E-03 0.  1.
        -12    1    3    3    0    0  0.94432379334E+00 -0.49291402429E+01  0.12060802385E+02  0.13063350456E+02  0.00000000000E+00 0.  1.
</event>
<event>
 7    1  0.1369731E-013  0.5052886E+02  0.7816164E-02  0.1300439E+00
        -11   -1    0    0    0    0  0.00000000000E+00  0.00000000000E+00  0.45593999997E+02  0.45594000000E+02  0.51100000000E-03 0. -1.
         11   -1    0    0    0    0 -0.00000000000E+00 -0.00000000000E+00 -0.45593999997E+02  0.45594000000E+02  0.51100000000E-03 0.  1.
    9900012    2    1    2    0    0  0.13308757967E+02  0.29750533441E+02  0.24309430487E+02  0.50528859708E+02  0.29999999570E+02 0.  0.
        -12    1    1    2    0    0 -0.13308757967E+02 -0.29750533441E+02 -0.24309430487E+02  0.40659140292E+02  0.00000000000E+00 0.  1.
         11    1    3    3    0    0  0.10460231521E+02  0.24351743470E+02  0.27931321396E+02  0.38504318832E+02  0.51100000000E-03 0. -1.
        -11    1    3    3    0    0 -0.24659072365E+01  0.53996060637E+01 -0.74844730304E+00  0.59830274752E+01  0.51100000000E-03 0.  1.
         12    1    3    3    0    0  0.53144336823E+01 -0.81609348017E-03 -0.28734436052E+01  0.60415134016E+01  0.00000000000E+00 0. -1.
</event>
<event>
 7    1  0.1369731E-013  0.5052887E+02  0.7816164E-02  0.1300439E+00
        -11   -1    0    0    0    0  0.00000000000E+00  0.00000000000E+00  0.45593999997E+02  0.45594000000E+02  0.51100000000E-03 0. -1.
         11   -1    0    0    0    0 -0.00000000000E+00 -0.00000000000E+00 -0.45593999997E+02  0.45594000000E+02  0.51100000000E-03 0.  1.
    9900012    2    1    2    0    0  0.30272281602E+02  0.35292997413E+01  0.26912787172E+02  0.50528866913E+02  0.30000021469E+02 0.  0.
        -12    1    1    2    0    0 -0.30272281602E+02 -0.35292997413E+01 -0.26912787172E+02  0.40659133087E+02  0.00000000000E+00 0.  1.
         11    1    3    3    0    0  0.99844093597E+01  0.81051986482E+01  0.43607071092E+01  0.13579338796E+02  0.51100000000E-03 0. -1.
        -11    1    3    3    0    0  0.16892227841E+02 -0.40962566635E+01  0.26517736115E+02  0.31706734442E+02  0.51100000000E-03 0.  1.
        -12    1    3    3    0    0  0.33956444016E+01 -0.47964224331E+00 -0.39656560528E+01  0.52427936744E+01  0.00000000000E+00 0.  1.
</event>
<event>
 7    1  0.1503323E-013  0.5052885E+02  0.7816164E-02  0.1300439E+00
        -11   -1    0    0    0    0  0.00000000000E+00  0.00000000000E+00  0.45593999997E+02  0.45594000000E+02  0.51100000000E-03 0.  1.
         11   -1    0    0    0    0 -0.00000000000E+00 -0.00000000000E+00 -0.45593999997E+02  0.45594000000E+02  0.51100000000E-03 0. -1.
    9900012    2    1    2    0    0  0.10232667721E+02 -0.23075080089E+02 -0.31874743887E+02  0.50528854563E+02  0.29999983929E+02 0.  0.
         12    1    1    2    0    0 -0.10232667721E+02  0.23075080089E+02  0.31874743887E+02  0.40659145437E+02  0.00000000000E+00 0. -1.
         11    1    3    3    0    0 -0.10425953469E+01  0.35666312037E+01 -0.88413648337E+00  0.38196283567E+01  0.51100000000E-03 0. -1.
        -11    1    3    3    0    0 -0.61568906255E+00 -0.20251417057E+02 -0.12469003428E+02  0.23790229352E+02  0.51100000000E-03 0.  1.
        -12    1    3    3    0    0  0.11890952131E+02 -0.63902942354E+01 -0.18521603975E+02  0.22918996855E+02  0.00000000000E+00 0.  1.
</event>
<event>
 7    1  0.1369731E-013  0.5052886E+02  0.7816164E-02  0.1300439E+00
        -11   -1    0    0    0    0  0.00000000000E+00  0.00000000000E+00  0.45593999997E+02  0.45594000000E+02  0.51100000000E-03 0.  1.
         11   -1    0    0    0    0 -0.00000000000E+00 -0.00000000000E+00 -0.45593999997E+02  0.45594000000E+02  0.51100000000E-03 0. -1.
    9900012    2    1    2    0    0  0.30333726043E+02  0.25406609802E+02 -0.93560265783E+01  0.50528856003E+02  0.29999988306E+02 0.  0.
         12    1    1    2    0    0 -0.30333726043E+02 -0.25406609802E+02  0.93560265783E+01  0.40659143997E+02  0.00000000000E+00 0. -1.
         11    1    3    3    0    0  0.13494387036E+02  0.84728390156E+01  0.59314112616E+01  0.17002032887E+02  0.51100000000E-03 0.  1.
        -11    1    3    3    0    0  0.33920808976E+01 -0.24764139001E+00 -0.10705520455E+02  0.11232796070E+02  0.51100000000E-03 0. -1.
         12    1    3    3    0    0  0.13447258109E+02  0.17181412176E+02 -0.45819173852E+01  0.22294027046E+02  0.00000000000E+00 0. -1.
</event>
<event>
 7    1  0.1735198E-013  0.5052886E+02  0.7816164E-02  0.1300439E+00
        -11   -1    0    0    0    0  0.00000000000E+00  0.00000000000E+00  0.45593999997E+02  0.45594000000E+02  0.51100000000E-03 0. -1.
         11   -1    0    0    0    0 -0.00000000000E+00 -0.00000000000E+00 -0.45593999997E+02  0.45594000000E+02  0.51100000000E-03 0.  1.
    9900012    2    1    2    0    0  0.23346933379E+02  0.84359452451E+01 -0.32201257643E+02  0.50528862477E+02  0.30000007984E+02 0.  0.
         12    1    1    2    0    0 -0.23346933379E+02 -0.84359452451E+01  0.32201257643E+02  0.40659137523E+02  0.00000000000E+00 0. -1.
         11    1    3    3    0    0  0.12210113754E+02  0.23975895276E+01 -0.24597824703E+01  0.12684078346E+02  0.51100000000E-03 0. -1.
        -11    1    3    3    0    0  0.22896444541E+01  0.12317633631E+02 -0.16804179591E+02  0.20960606432E+02  0.51100000000E-03 0.  1.
        -12    1    3    3    0    0  0.88471751709E+01 -0.62792779133E+01 -0.12937295581E+02  0.16884177699E+02  0.00000000000E+00 0.  1.
</event>
<event>
 7    1  0.1369731E-013  0.5052886E+02  0.7816164E-02  0.1300439E+00
        -11   -1    0    0    0    0  0.00000000000E+00  0.00000000000E+00  0.45593999997E+02  0.45594000000E+02  0.51100000000E-03 0. -1.
         11   -1    0    0    0    0 -0.00000000000E+00 -0.00000000000E+00 -0.45593999997E+02  0.45594000000E+02  0.51100000000E-03 0.  1.
    9900012    2    1    2    0    0 -0.24826516266E+02 -0.10664082900E+02  0.30382352311E+02  0.50528857044E+02  0.29999991470E+02 0.  0.
        -12    1    1    2    0    0  0.24826516266E+02  0.10664082900E+02 -0.30382352311E+02  0.40659142956E+02  0.00000000000E+00 0.  1.
         11    1    3    3    0    0 -0.20143318634E+02 -0.13174731883E+02  0.67329151861E+01  0.24993178928E+02  0.51100000000E-03 0. -1.
        -11    1    3    3    0    0  0.18234254249E+01 -0.50533072027E+00  0.93392607639E+01  0.95290099850E+01  0.51100000000E-03 0.  1.
         12    1    3    3    0    0 -0.65066230568E+01  0.30159797029E+01  0.14310176361E+02  0.16006668131E+02  0.00000000000E+00 0. -1.
</event>
<event>
 7    1  0.1369731E-013  0.5052887E+02  0.7816164E-02  0.1300439E+00
        -11   -1    0    0    0    0  0.00000000000E+00  0.00000000000E+00  0.45593999997E+02  0.45594000000E+02  0.51100000000E-03 0. -1.
         11   -1    0    0    0    0 -0.00000000000E+00 -0.00000000000E+00 -0.45593999997E+02  0.45594000000E+02  0.51100000000E-03 0.  1.
    9900012    2    1    2    0    0 -0.16911824322E+02  0.76438946702E+01 -0.36176317888E+02  0.50528869370E+02  0.30000028938E+02 0.  0.
         12    1    1    2    0    0  0.16911824322E+02 -0.76438946702E+01  0.36176317888E+02  0.40659130630E+02  0.00000000000E+00 0. -1.
         11    1    3    3    0    0 -0.69537328629E+01 -0.44003818282E+01 -0.15970875118E+01  0.83826278543E+01  0.51100000000E-03 0. -1.
        -11    1    3    3    0    0 -0.54799590400E+01  0.16695849161E+02 -0.26629173814E+02  0.31904454682E+02  0.51100000000E-03 0.  1.
        -12    1    3    3    0    0 -0.44781324192E+01 -0.46515726629E+01 -0.79500565622E+01  0.10241786834E+02  0.00000000000E+00 0.  1.
</event>
<event>
 7    1  0.1369731E-013  0.5052886E+02  0.7816164E-02  0.1300439E+00
        -11   -1    0    0    0    0  0.00000000000E+00  0.00000000000E+00  0.45593999997E+02  0.45594000000E+02  0.51100000000E-03 0. -1.
         11   -1    0    0    0    0 -0.00000000000E+00 -0.00000000000E+00 -0.45593999997E+02  0.45594000000E+02  0.51100000000E-03 0.  1.
    9900012    2    1    2    0    0  0.51797892542E+01 -0.10421369333E+02 -0.38958063325E+02  0.50528857689E+02  0.29999993431E+02 0.  0.
         12    1    1    2    0    0 -0.51797892542E+01  0.10421369333E+02  0.38958063325E+02  0.40659142311E+02  0.00000000000E+00 0. -1.
         11    1    3    3    0    0  0.10558551190E+02  0.39107244384E+01 -0.24668374868E+02  0.27116516881E+02  0.51100000000E-03 0.  1.
        -11    1    3    3    0    0 -0.69638631179E+01 -0.62444934012E+01 -0.11244498070E+02  0.14626271722E+02  0.51100000000E-03 0. -1.
        -12    1    3    3    0    0  0.15851011826E+01 -0.80876003698E+01 -0.30451903866E+01  0.87860690864E+01  0.00000000000E+00 0.  1.
</event>
<event>
 7    1  0.1369731E-013  0.5052885E+02  0.7816164E-02  0.1300439E+00
        -11   -1    0    0    0    0  0.00000000000E+00  0.00000000000E+00  0.45593999997E+02  0.45594000000E+02  0.51100000000E-03 0. -1.
         11   -1    0    0    0    0 -0.00000000000E+00 -0.00000000000E+00 -0.45593999997E+02  0.45594000000E+02  0.51100000000E-03 0.  1.
    9900012    2    1    2    0    0  0.24031025547E+02 -0.11763006575E+02 -0.30615489626E+02  0.50528847063E+02  0.29999961133E+02 0.  0.
         12    1    1    2    0    0 -0.24031025547E+02  0.11763006575E+02  0.30615489626E+02  0.40659152937E+02  0.00000000000E+00 0. -1.
         11    1    3    3    0    0  0.20473929295E+02 -0.11598753733E+02 -0.22325747702E+02  0.32436890721E+02  0.51100000000E-03 0. -1.
        -11    1    3    3    0    0 -0.46733502213E+00  0.57201786197E+01  0.15464958038E+01  0.59439460796E+01  0.51100000000E-03 0.  1.
        -12    1    3    3    0    0  0.40244312738E+01 -0.58844314619E+01 -0.98362377279E+01  0.12148010263E+02  0.00000000000E+00 0.  1.
</event>
<event>
 7    1  0.1369731E-013  0.5052887E+02  0.7816164E-02  0.1300439E+00
        -11   -1    0    0    0    0  0.00000000000E+00  0.00000000000E+00  0.45593999997E+02  0.45594000000E+02  0.51100000000E-03 0. -1.
         11   -1    0    0    0    0 -0.00000000000E+00 -0.00000000000E+00 -0.45593999997E+02  0.45594000000E+02  0.51100000000E-03 0.  1.
    9900012    2    1    2    0    0  0.11009053618E+02  0.35624638628E+02 -0.16212679203E+02  0.50528866882E+02  0.30000021374E+02 0.  0.
         12    1    1    2    0    0 -0.11009053618E+02 -0.35624638628E+02  0.16212679203E+02  0.40659133118E+02  0.00000000000E+00 0. -1.
         11    1    3    3    0    0  0.13693542709E+02  0.14026903765E+02 -0.31827772321E+01  0.19859436355E+02  0.51100000000E-03 0. -1.
        -11    1    3    3    0    0 -0.43652129814E+01 -0.12214526998E+01 -0.40855206287E+01  0.61023364492E+01  0.51100000000E-03 0.  1.
        -12    1    3    3    0    0  0.16807238903E+01  0.22819187563E+02 -0.89443813426E+01  0.24567094078E+02  0.00000000000E+00 0.  1.
</event>
<event>
 7    1  0.1369731E-013  0.5052888E+02  0.7816164E-02  0.1300439E+00
        -11   -1    0    0    0    0  0.00000000000E+00  0.00000000000E+00  0.45593999997E+02  0.45594000000E+02  0.51100000000E-03 0. -1.
         11   -1    0    0    0    0 -0.00000000000E+00 -0.00000000000E+00 -0.45593999997E+02  0.45594000000E+02  0.51100000000E-03 0.  1.
    9900012    2    1    2    0    0  0.23105422942E+01 -0.66293073146E+01  0.40048444799E+02  0.50528877383E+02  0.30000053292E+02 0.  0.
        -12    1    1    2    0    0 -0.23105422942E+01  0.66293073146E+01 -0.40048444799E+02  0.40659122617E+02  0.00000000000E+00 0.  1.
         11    1    3    3    0    0 -0.39022514815E+01 -0.14630904749E+02  0.29724344752E+02  0.33359070904E+02  0.51100000000E-03 0. -1.
        -11    1    3    3    0    0  0.39639952410E+01 -0.11027144321E+01  0.46496405174E+01  0.62087353456E+01  0.51100000000E-03 0.  1.
         12    1    3    3    0    0  0.22487985346E+01  0.91043118669E+01  0.56744595300E+01  0.10961071133E+02  0.00000000000E+00 0. -1.
</event>
<event>
 7    1  0.1369731E-013  0.5052886E+02  0.7816164E-02  0.1300439E+00
        -11   -1    0    0    0    0  0.00000000000E+00  0.00000000000E+00  0.45593999997E+02  0.45594000000E+02  0.51100000000E-03 0. -1.
         11   -1    0    0    0    0 -0.00000000000E+00 -0.00000000000E+00 -0.45593999997E+02  0.45594000000E+02  0.51100000000E-03 0.  1.
    9900012    2    1    2    0    0 -0.24979659308E+02 -0.31587779746E+02 -0.56030826013E+01  0.50528859047E+02  0.29999997558E+02 0.  0.
         12    1    1    2    0    0  0.24979659308E+02  0.31587779746E+02  0.56030826013E+01  0.40659140953E+02  0.00000000000E+00 0. -1.
         11    1    3    3    0    0 -0.79781849816E+01  0.38870545211E+01 -0.43186514483E+01  0.98697203123E+01  0.51100000000E-03 0. -1.
        -11    1    3    3    0    0 -0.43647375483E+01 -0.62330527156E+01 -0.41634257278E+01  0.86738684606E+01  0.51100000000E-03 0.  1.
         12    1    3    3    0    0 -0.12636736778E+02 -0.29241781552E+02  0.28789945748E+01  0.31985270274E+02  0.00000000000E+00 0. -1.
</event>
<event>
 7    1  0.1369731E-013  0.5052888E+02  0.7816164E-02  0.1300439E+00
        -11   -1    0    0    0    0  0.00000000000E+00  0.00000000000E+00  0.45593999997E+02  0.45594000000E+02  0.51100000000E-03 0. -1.
         11   -1    0    0    0    0 -0.00000000000E+00 -0.00000000000E+00 -0.45593999997E+02  0.45594000000E+02  0.51100000000E-03 0.  1.
    9900012    2    1    2    0    0 -0.39360488007E+01 -0.40334855486E+02 -0.32819371480E+01  0.50528878531E+02  0.30000056781E+02 0.  0.
         12    1    1    2    0    0  0.39360488007E+01  0.40334855486E+02  0.32819371480E+01  0.40659121469E+02  0.00000000000E+00 0. -1.
         11    1    3    3    0    0  0.34135262296E+01 -0.42495728721E+01  0.20370924516E+01  0.58190013604E+01  0.51100000000E-03 0. -1.
        -11    1    3    3    0    0 -0.12688804475E+02 -0.65100626163E+01 -0.29505225328E+01  0.14563387579E+02  0.51100000000E-03 0.  1.
        -12    1    3    3    0    0  0.53392294452E+01 -0.29575219997E+02 -0.23685070668E+01  0.30146489592E+02  0.00000000000E+00 0.  1.
</event>
<event>
 7    1  0.1369731E-013  0.5052886E+02  0.7816164E-02  0.1300439E+00
        -11   -1    0    0    0    0  0.00000000000E+00  0.00000000000E+00  0.45593999997E+02  0.45594000000E+02  0.51100000000E-03 0.  1.
         11   -1    0    0    0    0 -0.00000000000E+00 -0.00000000000E+00 -0.45593999997E+02  0.45594000000E+02  0.51100000000E-03 0. -1.
    9900012    2    1    2    0    0  0.30403743104E+02 -0.15491512794E+02  0.22108624418E+02  0.50528857891E+02  0.29999994046E+02 0.  0.
        -12    1    1    2    0    0 -0.30403743104E+02  0.15491512794E+02 -0.22108624418E+02  0.40659142109E+02  0.00000000000E+00 0.  1.
         11    1    3    3    0    0  0.13377620290E+02 -0.76720170865E+01  0.40024225658E+01  0.15932355678E+02  0.51100000000E-03 0. -1.
        -11    1    3    3    0    0 -0.32843110041E+01  0.37048951833E+01 -0.15270385013E+00  0.49534095144E+01  0.51100000000E-03 0.  1.
        -12    1    3    3    0    0  0.20310433818E+02 -0.11524390890E+02  0.18258905703E+02  0.29643092698E+02  0.00000000000E+00 0.  1.
</event>
<event>
 7    1  0.1369731E-013  0.5052886E+02  0.7816164E-02  0.1300439E+00
        -11   -1    0    0    0    0  0.00000000000E+00  0.00000000000E+00  0.45593999997E+02  0.45594000000E+02  0.51100000000E-03 0. -1.
         11   -1    0    0    0    0 -0.00000000000E+00 -0.00000000000E+00 -0.45593999997E+02  0.45594000000E+02  0.51100000000E-03 0.  1.
    9900012    2    1    2    0    0 -0.10783155159E+02  0.25078418279E+01  0.39122881462E+02  0.50528861302E+02  0.30000004412E+02 0.  0.
        -12    1    1    2    0    0  0.10783155159E+02 -0.25078418279E+01 -0.39122881462E+02  0.40659138698E+02  0.00000000000E+00 0.  1.
         11    1    3    3    0    0 -0.66475294860E+01  0.32230608552E+01  0.40973689261E+02  0.41634372596E+02  0.51100000000E-03 0. -1.
        -11    1    3    3    0    0  0.94925943107E+00 -0.29680207209E+01 -0.96988457351E+00  0.32635742391E+01  0.51100000000E-03 0.  1.
         12    1    3    3    0    0 -0.50848851044E+01  0.22528016935E+01 -0.88092322586E+00  0.56309144662E+01  0.00000000000E+00 0. -1.
</event>
<event>
 7    1  0.1369731E-013  0.5052886E+02  0.7816164E-02  0.1300439E+00
        -11   -1    0    0    0    0  0.00000000000E+00  0.00000000000E+00  0.45593999997E+02  0.45594000000E+02  0.51100000000E-03 0. -1.
         11   -1    0    0    0    0 -0.00000000000E+00 -0.00000000000E+00 -0.45593999997E+02  0.45594000000E+02  0.51100000000E-03 0.  1.
    9900012    2    1    2    0    0 -0.42771775865E+00  0.25078965954E+02 -0.32000438932E+02  0.50528861203E+02  0.30000004114E+02 0.  0.
         12    1    1    2    0    0  0.42771775865E+00 -0.25078965954E+02  0.32000438932E+02  0.40659138797E+02  0.00000000000E+00 0. -1.
         11    1    3    3    0    0 -0.88084792110E+01  0.94726184286E+01  0.17193261647E-01  0.12935227164E+02  0.51100000000E-03 0. -1.
        -11    1    3    3    0    0  0.22867057203E+01 -0.32408674481E+00 -0.65217987026E+01  0.69186641664E+01  0.51100000000E-03 0.  1.
         12    1    3    3    0    0  0.60940557321E+01  0.15930434271E+02 -0.25495833491E+02  0.30674969873E+02  0.00000000000E+00 0. -1.
</event>
<event>
 7    1  0.1369731E-013  0.5052886E+02  0.7816164E-02  0.1300439E+00
        -11   -1    0    0    0    0  0.00000000000E+00  0.00000000000E+00  0.45593999997E+02  0.45594000000E+02  0.51100000000E-03 0. -1.
         11   -1    0    0    0    0 -0.00000000000E+00 -0.00000000000E+00 -0.45593999997E+02  0.45594000000E+02  0.51100000000E-03 0.  1.
    9900012    2    1    2    0    0  0.14840959088E+02  0.23993851076E+01 -0.37777695613E+02  0.50528863249E+02  0.30000010330E+02 0.  0.
         12    1    1    2    0    0 -0.14840959088E+02 -0.23993851076E+01  0.37777695613E+02  0.40659136751E+02  0.00000000000E+00 0. -1.
         11    1    3    3    0    0 -0.53439458040E+01 -0.44425848818E+01 -0.42094604712E+01  0.81248923013E+01  0.51100000000E-03 0. -1.
        -11    1    3    3    0    0  0.18864576506E+02  0.63045613213E+01 -0.35079759142E+02  0.40326284752E+02  0.51100000000E-03 0.  1.
        -12    1    3    3    0    0  0.13203283859E+01  0.53740866813E+00  0.15115239999E+01  0.20776861952E+01  0.00000000000E+00 0.  1.
</event>
<event>
 7    1  0.1369731E-013  0.5052886E+02  0.7816164E-02  0.1300439E+00
        -11   -1    0    0    0    0  0.00000000000E+00  0.00000000000E+00  0.45593999997E+02  0.45594000000E+02  0.51100000000E-03 0. -1.
         11   -1    0    0    0    0 -0.00000000000E+00 -0.00000000000E+00 -0.45593999997E+02  0.45594000000E+02  0.51100000000E-03 0.  1.
    9900012    2    1    2    0    0  0.44028737938E+01 -0.40381772569E+02  0.17585258607E+01  0.50528864906E+02  0.30000015367E+02 0.  0.
        -12    1    1    2    0    0 -0.44028737938E+01  0.40381772569E+02 -0.17585258607E+01  0.40659135094E+02  0.00000000000E+00 0.  1.
         11    1    3    3    0    0 -0.46779860585E+01 -0.19765973185E+02  0.94484452196E+01  0.22402017026E+02  0.51100000000E-03 0. -1.
        -11    1    3    3    0    0  0.55150187028E+01 -0.11815249487E+01 -0.60944455755E+01  0.83038364405E+01  0.51100000000E-03 0.  1.
        -12    1    3    3    0    0  0.35658411495E+01 -0.19434274435E+02 -0.15954737835E+01  0.19823011439E+02  0.00000000000E+00 0.  1.
</event>
<event>
 7    1  0.1369731E-013  0.5052886E+02  0.7816164E-02  0.1300439E+00
        -11   -1    0    0    0    0  0.00000000000E+00  0.00000000000E+00  0.45593999997E+02  0.45594000000E+02  0.51100000000E-03 0. -1.
         11   -1    0    0    0    0 -0.00000000000E+00 -0.00000000000E+00 -0.45593999997E+02  0.45594000000E+02  0.51100000000E-03 0.  1.
    9900012    2    1    2    0    0  0.55738343304E+01 -0.12235662289E+02 -0.38371690667E+02  0.50528859509E+02  0.29999998964E+02 0.  0.
         12    1    1    2    0    0 -0.55738343304E+01  0.12235662289E+02  0.38371690667E+02  0.40659140491E+02  0.00000000000E+00 0. -1.
         11    1    3    3    0    0  0.17559464176E+01 -0.14207114264E+01  0.73883063676E+00  0.23764763305E+01  0.51100000000E-03 0. -1.
        -11    1    3    3    0    0 -0.16163648018E+01 -0.83406269270E+01 -0.41014461398E+02  0.41885137421E+02  0.51100000000E-03 0.  1.
        -12    1    3    3    0    0  0.54342527146E+01 -0.24743239359E+01  0.19039400946E+01  0.62672457578E+01  0.00000000000E+00 0.  1.
</event>
<event>
 7    1  0.1369731E-013  0.5052886E+02  0.7816164E-02  0.1300439E+00
        -11   -1    0    0    0    0  0.00000000000E+00  0.00000000000E+00  0.45593999997E+02  0.45594000000E+02  0.51100000000E-03 0. -1.
         11   -1    0    0    0    0 -0.00000000000E+00 -0.00000000000E+00 -0.45593999997E+02  0.45594000000E+02  0.51100000000E-03 0.  1.
    9900012    2    1    2    0    0 -0.14323578802E+02  0.31210214485E+02 -0.21769772453E+02  0.50528863382E+02  0.30000010735E+02 0.  0.
         12    1    1    2    0    0  0.14323578802E+02 -0.31210214485E+02  0.21769772453E+02  0.40659136618E+02  0.00000000000E+00 0. -1.
         11    1    3    3    0    0 -0.14283255834E+02  0.15974680891E+02  0.29090904366E+00  0.21430969533E+02  0.51100000000E-03 0. -1.
        -11    1    3    3    0    0 -0.59172655513E+00  0.29642608846E+01 -0.14191415466E+02  0.14509764165E+02  0.51100000000E-03 0.  1.
         12    1    3    3    0    0  0.55140358802E+00  0.12271272709E+02 -0.78692660305E+01  0.14588129684E+02  0.00000000000E+00 0. -1.
</event>
<event>
 7    1  0.1369731E-013  0.5052886E+02  0.7816164E-02  0.1300439E+00
        -11   -1    0    0    0    0  0.00000000000E+00  0.00000000000E+00  0.45593999997E+02  0.45594000000E+02  0.51100000000E-03 0. -1.
         11   -1    0    0    0    0 -0.00000000000E+00 -0.00000000000E+00 -0.45593999997E+02  0.45594000000E+02  0.51100000000E-03 0.  1.
    9900012    2    1    2    0    0  0.30627684556E+02 -0.16021317105E+02 -0.21410925106E+02  0.50528863550E+02  0.30000011246E+02 0.  0.
         12    1    1    2    0    0 -0.30627684556E+02  0.16021317105E+02  0.21410925106E+02  0.40659136450E+02  0.00000000000E+00 0. -1.
         11    1    3    3    0    0  0.16180841245E+02  0.40587301498E+01 -0.80085462496E+01  0.18504856852E+02  0.51100000000E-03 0. -1.
        -11    1    3    3    0    0  0.32894744454E+01 -0.54048888608E+01  0.33105008836E+01  0.71409300575E+01  0.51100000000E-03 0.  1.
         12    1    3    3    0    0  0.11157368865E+02 -0.14675158393E+02 -0.16712879740E+02  0.24883076640E+02  0.00000000000E+00 0. -1.
</event>
<event>
 7    1  0.1369731E-013  0.5052885E+02  0.7816164E-02  0.1300439E+00
        -11   -1    0    0    0    0  0.00000000000E+00  0.00000000000E+00  0.45593999997E+02  0.45594000000E+02  0.51100000000E-03 0. -1.
         11   -1    0    0    0    0 -0.00000000000E+00 -0.00000000000E+00 -0.45593999997E+02  0.45594000000E+02  0.51100000000E-03 0.  1.
    9900012    2    1    2    0    0  0.12198142102E+02 -0.26201733047E+02  0.28597914372E+02  0.50528853528E+02  0.29999980782E+02 0.  0.
        -12    1    1    2    0    0 -0.12198142102E+02  0.26201733047E+02 -0.28597914372E+02  0.40659146472E+02  0.00000000000E+00 0.  1.
         11    1    3    3    0    0 -0.79509212286E+00 -0.33684014102E+01  0.63850695478E+01  0.72627414201E+01  0.51100000000E-03 0. -1.
        -11    1    3    3    0    0  0.73599237735E+01 -0.20342270202E+02  0.15313824652E+01  0.21686898520E+02  0.51100000000E-03 0.  1.
        -12    1    3    3    0    0  0.56333104517E+01 -0.24910614352E+01  0.20681462359E+02  0.21579213587E+02  0.00000000000E+00 0.  1.
</event>
<event>
 7    1  0.1369731E-013  0.5052886E+02  0.7816164E-02  0.1300439E+00
        -11   -1    0    0    0    0  0.00000000000E+00  0.00000000000E+00  0.45593999997E+02  0.45594000000E+02  0.51100000000E-03 0. -1.
         11   -1    0    0    0    0 -0.00000000000E+00 -0.00000000000E+00 -0.45593999997E+02  0.45594000000E+02  0.51100000000E-03 0.  1.
    9900012    2    1    2    0    0 -0.15198999373E+02  0.29967507440E+02  0.22893332948E+02  0.50528858622E+02  0.29999996267E+02 0.  0.
        -12    1    1    2    0    0  0.15198999373E+02 -0.29967507440E+02 -0.22893332948E+02  0.40659141378E+02  0.00000000000E+00 0.  1.
         11    1    3    3    0    0  0.73722364163E+01  0.12603005479E+02  0.29343557139E+01  0.14892819095E+02  0.51100000000E-03 0. -1.
        -11    1    3    3    0    0 -0.39467739596E+01  0.30263725542E+01  0.75939873660E+01  0.90776979406E+01  0.51100000000E-03 0.  1.
         12    1    3    3    0    0 -0.18624461830E+02  0.14338129407E+02  0.12364989868E+02  0.26558341586E+02  0.00000000000E+00 0. -1.
</event>
<event>
 7    1  0.1487641E-013  0.5052886E+02  0.7816164E-02  0.1300439E+00
        -11   -1    0    0    0    0  0.00000000000E+00  0.00000000000E+00  0.45593999997E+02  0.45594000000E+02  0.51100000000E-03 0. -1.
         11   -1    0    0    0    0 -0.00000000000E+00 -0.00000000000E+00 -0.45593999997E+02  0.45594000000E+02  0.51100000000E-03 0.  1.
    9900012    2    1    2    0    0 -0.17748433771E+02  0.13198160569E+00  0.36580610923E+02  0.50528863069E+02  0.30000009786E+02 0.  0.
        -12    1    1    2    0    0  0.17748433771E+02 -0.13198160569E+00 -0.36580610923E+02  0.40659136931E+02  0.00000000000E+00 0.  1.
         11    1    3    3    0    0 -0.21171191951E+02 -0.22517809078E+00  0.34231653314E+02  0.40250169723E+02  0.51100000000E-03 0. -1.
        -11    1    3    3    0    0  0.26120069972E+01 -0.44199619079E+01  0.15867520380E+01  0.53736790109E+01  0.51100000000E-03 0.  1.
         12    1    3    3    0    0  0.81075118318E+00  0.47771216044E+01  0.76220557054E+00  0.49050143359E+01  0.00000000000E+00 0. -1.
</event>
<event>
 7    1  0.1369731E-013  0.5052885E+02  0.7816164E-02  0.1300439E+00
        -11   -1    0    0    0    0  0.00000000000E+00  0.00000000000E+00  0.45593999997E+02  0.45594000000E+02  0.51100000000E-03 0. -1.
         11   -1    0    0    0    0 -0.00000000000E+00 -0.00000000000E+00 -0.45593999997E+02  0.45594000000E+02  0.51100000000E-03 0.  1.
    9900012    2    1    2    0    0 -0.30176457537E+02 -0.24493382582E+02 -0.11942461618E+02  0.50528846427E+02  0.29999959198E+02 0.  0.
         12    1    1    2    0    0  0.30176457537E+02  0.24493382582E+02  0.11942461618E+02  0.40659153573E+02  0.00000000000E+00 0. -1.
         11    1    3    3    0    0 -0.11389628096E+01 -0.42264664434E+01 -0.71923702153E+01  0.84196463378E+01  0.51100000000E-03 0. -1.
        -11    1    3    3    0    0 -0.19110007827E+02 -0.24349907691E+02 -0.19449800360E+01  0.31014405545E+02  0.51100000000E-03 0.  1.
        -12    1    3    3    0    0 -0.99274869012E+01  0.40829915525E+01 -0.28051113668E+01  0.11094794544E+02  0.00000000000E+00 0.  1.
</event>
<event>
 7    1  0.1369731E-013  0.5052886E+02  0.7816164E-02  0.1300439E+00
        -11   -1    0    0    0    0  0.00000000000E+00  0.00000000000E+00  0.45593999997E+02  0.45594000000E+02  0.51100000000E-03 0. -1.
         11   -1    0    0    0    0 -0.00000000000E+00 -0.00000000000E+00 -0.45593999997E+02  0.45594000000E+02  0.51100000000E-03 0.  1.
    9900012    2    1    2    0    0 -0.15261255383E+02  0.11428522434E+02  0.35911678280E+02  0.50528859849E+02  0.29999999997E+02 0.  0.
        -12    1    1    2    0    0  0.15261255383E+02 -0.11428522434E+02 -0.35911678280E+02  0.40659140151E+02  0.00000000000E+00 0.  1.
         11    1    3    3    0    0  0.63173522380E+01  0.26565032442E+01  0.40692695467E+01  0.79702511686E+01  0.51100000000E-03 0. -1.
        -11    1    3    3    0    0 -0.12852507808E+02 -0.30030091432E+01  0.18593635215E+02  0.22801936138E+02  0.51100000000E-03 0.  1.
        -12    1    3    3    0    0 -0.87260998128E+01  0.11775028333E+02  0.13248773518E+02  0.19756672542E+02  0.00000000000E+00 0.  1.
</event>
<event>
 7    1  0.1369731E-013  0.5052886E+02  0.7816164E-02  0.1300439E+00
        -11   -1    0    0    0    0  0.00000000000E+00  0.00000000000E+00  0.45593999997E+02  0.45594000000E+02  0.51100000000E-03 0. -1.
         11   -1    0    0    0    0 -0.00000000000E+00 -0.00000000000E+00 -0.45593999997E+02  0.45594000000E+02  0.51100000000E-03 0.  1.
    9900012    2    1    2    0    0  0.15259126984E+02 -0.26422098024E+01 -0.37594457275E+02  0.50528862691E+02  0.30000008634E+02 0.  0.
         12    1    1    2    0    0 -0.15259126984E+02  0.26422098024E+01  0.37594457275E+02  0.40659137309E+02  0.00000000000E+00 0. -1.
         11    1    3    3    0    0  0.17620513591E+02 -0.51268189394E+01 -0.16695739949E+02  0.24809564776E+02  0.51100000000E-03 0. -1.
        -11    1    3    3    0    0 -0.50788451725E+01 -0.46067428541E+01 -0.13369542631E+02  0.15025359178E+02  0.51100000000E-03 0.  1.
         12    1    3    3    0    0  0.27174585648E+01  0.70913519911E+01 -0.75291746943E+01  0.10693938736E+02  0.00000000000E+00 0. -1.
</event>
<event>
 7    1  0.1369731E-013  0.5052886E+02  0.7816164E-02  0.1300439E+00
        -11   -1    0    0    0    0  0.00000000000E+00  0.00000000000E+00  0.45593999997E+02  0.45594000000E+02  0.51100000000E-03 0. -1.
         11   -1    0    0    0    0 -0.00000000000E+00 -0.00000000000E+00 -0.45593999997E+02  0.45594000000E+02  0.51100000000E-03 0.  1.
    9900012    2    1    2    0    0 -0.64305391990E+01 -0.19180971160E+02  0.35269025162E+02  0.50528860499E+02  0.30000001974E+02 0.  0.
        -12    1    1    2    0    0  0.64305391990E+01  0.19180971160E+02 -0.35269025162E+02  0.40659139501E+02  0.00000000000E+00 0.  1.
         11    1    3    3    0    0 -0.82162451863E+01 -0.14736056535E+02  0.16548279529E+02  0.23632680821E+02  0.51100000000E-03 0. -1.
        -11    1    3    3    0    0  0.17803465214E+01  0.72126881994E+01  0.53382264570E+01  0.91481783304E+01  0.51100000000E-03 0.  1.
        -12    1    3    3    0    0  0.53594659495E-02 -0.11657602825E+02  0.13382519176E+02  0.17748001348E+02  0.00000000000E+00 0.  1.
</event>
<event>
 7    1  0.1369731E-013  0.5052886E+02  0.7816164E-02  0.1300439E+00
        -11   -1    0    0    0    0  0.00000000000E+00  0.00000000000E+00  0.45593999997E+02  0.45594000000E+02  0.51100000000E-03 0. -1.
         11   -1    0    0    0    0 -0.00000000000E+00 -0.00000000000E+00 -0.45593999997E+02  0.45594000000E+02  0.51100000000E-03 0.  1.
    9900012    2    1    2    0    0  0.22603051820E+01 -0.12681478150E+02 -0.38564712532E+02  0.50528856867E+02  0.29999990934E+02 0.  0.
         12    1    1    2    0    0 -0.22603051820E+01  0.12681478150E+02  0.38564712532E+02  0.40659143133E+02  0.00000000000E+00 0. -1.
         11    1    3    3    0    0 -0.22379670955E+01 -0.62481612404E+01  0.23078496422E+01  0.70266767279E+01  0.51100000000E-03 0. -1.
        -11    1    3    3    0    0  0.43212111463E+01 -0.10037359858E+02 -0.26102598187E+02  0.28297828381E+02  0.51100000000E-03 0.  1.
         12    1    3    3    0    0  0.17706113121E+00  0.36040429478E+01 -0.14769963987E+02  0.15204351758E+02  0.00000000000E+00 0. -1.
</event>
<event>
 7    1  0.1369731E-013  0.5052886E+02  0.7816164E-02  0.1300439E+00
        -11   -1    0    0    0    0  0.00000000000E+00  0.00000000000E+00  0.45593999997E+02  0.45594000000E+02  0.51100000000E-03 0. -1.
         11   -1    0    0    0    0 -0.00000000000E+00 -0.00000000000E+00 -0.45593999997E+02  0.45594000000E+02  0.51100000000E-03 0.  1.
    9900012    2    1    2    0    0 -0.27886801174E+02  0.28832812256E+00 -0.29587314322E+02  0.50528856113E+02  0.29999988641E+02 0.  0.
         12    1    1    2    0    0  0.27886801174E+02 -0.28832812256E+00  0.29587314322E+02  0.40659143887E+02  0.00000000000E+00 0. -1.
         11    1    3    3    0    0 -0.25177543132E+02 -0.11803962625E+01 -0.13496012763E+02  0.28590984143E+02  0.51100000000E-03 0. -1.
        -11    1    3    3    0    0  0.21815091522E+01 -0.32135224056E+01 -0.14461128509E+02  0.14973641723E+02  0.51100000000E-03 0.  1.
         12    1    3    3    0    0 -0.48907671940E+01  0.46822467906E+01 -0.16301730495E+01  0.69642302464E+01  0.00000000000E+00 0. -1.
</event>
<event>
 7    1  0.1369731E-013  0.5052886E+02  0.7816164E-02  0.1300439E+00
        -11   -1    0    0    0    0  0.00000000000E+00  0.00000000000E+00  0.45593999997E+02  0.45594000000E+02  0.51100000000E-03 0. -1.
         11   -1    0    0    0    0 -0.00000000000E+00 -0.00000000000E+00 -0.45593999997E+02  0.45594000000E+02  0.51100000000E-03 0.  1.
    9900012    2    1    2    0    0  0.50843132646E+01  0.90986290594E+01  0.39300514929E+02  0.50528858767E+02  0.29999996707E+02 0.  0.
        -12    1    1    2    0    0 -0.50843132646E+01 -0.90986290594E+01 -0.39300514929E+02  0.40659141233E+02  0.00000000000E+00 0.  1.
         11    1    3    3    0    0  0.11584419380E+01  0.54328150384E+01 -0.24462905537E+01  0.60697450275E+01  0.51100000000E-03 0. -1.
        -11    1    3    3    0    0 -0.36834966919E+01 -0.32960449487E+01  0.14958281966E+02  0.15753801440E+02  0.51100000000E-03 0.  1.
         12    1    3    3    0    0  0.76093680184E+01  0.69618589697E+01  0.26788523517E+02  0.28705312299E+02  0.00000000000E+00 0. -1.
</event>
<event>
 7    1  0.1369731E-013  0.5052886E+02  0.7816164E-02  0.1300439E+00
        -11   -1    0    0    0    0  0.00000000000E+00  0.00000000000E+00  0.45593999997E+02  0.45594000000E+02  0.51100000000E-03 0. -1.
         11   -1    0    0    0    0 -0.00000000000E+00 -0.00000000000E+00 -0.45593999997E+02  0.45594000000E+02  0.51100000000E-03 0.  1.
    9900012    2    1    2    0    0 -0.29072376308E+02  0.83508555986E+01 -0.27170314283E+02  0.50528857957E+02  0.29999994246E+02 0.  0.
         12    1    1    2    0    0  0.29072376308E+02 -0.83508555986E+01  0.27170314283E+02  0.40659142043E+02  0.00000000000E+00 0. -1.
         11    1    3    3    0    0 -0.50102963566E+01  0.98850518426E+01 -0.35238414338E+01  0.11629048896E+02  0.51100000000E-03 0. -1.
        -11    1    3    3    0    0 -0.14338092481E+02 -0.10410425077E+02 -0.13819290581E+02  0.22470661732E+02  0.51100000000E-03 0.  1.
        -12    1    3    3    0    0 -0.97239874701E+01  0.88762288326E+01 -0.98271822690E+01  0.16429147329E+02  0.00000000000E+00 0.  1.
</event>
<event>
 7    1  0.1369731E-013  0.5052885E+02  0.7816164E-02  0.1300439E+00
        -11   -1    0    0    0    0  0.00000000000E+00  0.00000000000E+00  0.45593999997E+02  0.45594000000E+02  0.51100000000E-03 0. -1.
         11   -1    0    0    0    0 -0.00000000000E+00 -0.00000000000E+00 -0.45593999997E+02  0.45594000000E+02  0.51100000000E-03 0.  1.
    9900012    2    1    2    0    0 -0.52284727932E+01 -0.33689557231E+02  0.22154984266E+02  0.50528849467E+02  0.29999968441E+02 0.  0.
        -12    1    1    2    0    0  0.52284727932E+01  0.33689557231E+02 -0.22154984266E+02  0.40659150533E+02  0.00000000000E+00 0.  1.
         11    1    3    3    0    0 -0.12936820151E-02 -0.10456073751E+02  0.88576014475E+01  0.13703524496E+02  0.51100000000E-03 0. -1.
        -11    1    3    3    0    0 -0.46400291320E+01 -0.85931927779E+00 -0.57480439636E+01  0.74369556699E+01  0.51100000000E-03 0.  1.
        -12    1    3    3    0    0 -0.58714997916E+00 -0.22374164203E+02  0.19045426782E+02  0.29388369301E+02  0.00000000000E+00 0.  1.
</event>
<event>
 7    1  0.1369731E-013  0.5052885E+02  0.7816164E-02  0.1300439E+00
        -11   -1    0    0    0    0  0.00000000000E+00  0.00000000000E+00  0.45593999997E+02  0.45594000000E+02  0.51100000000E-03 0. -1.
         11   -1    0    0    0    0 -0.00000000000E+00 -0.00000000000E+00 -0.45593999997E+02  0.45594000000E+02  0.51100000000E-03 0.  1.
    9900012    2    1    2    0    0  0.16798749389E+02 -0.11459862018E+02  0.35208521622E+02  0.50528850804E+02  0.29999972504E+02 0.  0.
        -12    1    1    2    0    0 -0.16798749389E+02  0.11459862018E+02 -0.35208521622E+02  0.40659149196E+02  0.00000000000E+00 0.  1.
         11    1    3    3    0    0  0.11316606389E+02 -0.10292077583E+02  0.90314909229E+01  0.17764016147E+02  0.51100000000E-03 0. -1.
        -11    1    3    3    0    0 -0.15864217613E+01  0.71318054128E+01  0.17040710355E+02  0.18540905914E+02  0.51100000000E-03 0.  1.
        -12    1    3    3    0    0  0.70685647619E+01 -0.82995898478E+01  0.91363203444E+01  0.14223928742E+02  0.00000000000E+00 0.  1.
</event>
<event>
 7    1  0.1369731E-013  0.5052886E+02  0.7816164E-02  0.1300439E+00
        -11   -1    0    0    0    0  0.00000000000E+00  0.00000000000E+00  0.45593999997E+02  0.45594000000E+02  0.51100000000E-03 0. -1.
         11   -1    0    0    0    0 -0.00000000000E+00 -0.00000000000E+00 -0.45593999997E+02  0.45594000000E+02  0.51100000000E-03 0.  1.
    9900012    2    1    2    0    0 -0.13448479768E+02  0.67230978124E+01 -0.37777031784E+02  0.50528858559E+02  0.29999996077E+02 0.  0.
         12    1    1    2    0    0  0.13448479768E+02 -0.67230978124E+01  0.37777031784E+02  0.40659141441E+02  0.00000000000E+00 0. -1.
         11    1    3    3    0    0 -0.14275520911E+02  0.84357353155E+01 -0.13181576390E+02  0.21182683588E+02  0.51100000000E-03 0.  1.
        -11    1    3    3    0    0  0.20561154278E+01 -0.79518333738E+01 -0.75618601488E+01  0.11164273099E+02  0.51100000000E-03 0. -1.
         12    1    3    3    0    0 -0.12290742842E+01  0.62391958707E+01 -0.17033595245E+02  0.18181901872E+02  0.00000000000E+00 0. -1.
</event>
<event>
 7    1  0.1369731E-013  0.5052887E+02  0.7816164E-02  0.1300439E+00
        -11   -1    0    0    0    0  0.00000000000E+00  0.00000000000E+00  0.45593999997E+02  0.45594000000E+02  0.51100000000E-03 0. -1.
         11   -1    0    0    0    0 -0.00000000000E+00 -0.00000000000E+00 -0.45593999997E+02  0.45594000000E+02  0.51100000000E-03 0.  1.
    9900012    2    1    2    0    0  0.65664158126E+01  0.22854961300E+01 -0.40060246037E+02  0.50528872836E+02  0.30000039473E+02 0.  0.
         12    1    1    2    0    0 -0.65664158126E+01 -0.22854961300E+01  0.40060246037E+02  0.40659127164E+02  0.00000000000E+00 0. -1.
         11    1    3    3    0    0  0.98531738067E+01  0.92927227331E+01 -0.11350789555E+02  0.17671450241E+02  0.51100000000E-03 0. -1.
        -11    1    3    3    0    0  0.16430813370E+01 -0.99460511877E+01 -0.15981359572E+02  0.18895171461E+02  0.51100000000E-03 0.  1.
        -12    1    3    3    0    0 -0.49298393312E+01  0.29388245846E+01 -0.12728096910E+02  0.13962251134E+02  0.00000000000E+00 0.  1.
</event>
<event>
 7    1  0.1369731E-013  0.5052884E+02  0.7816164E-02  0.1300439E+00
        -11   -1    0    0    0    0  0.00000000000E+00  0.00000000000E+00  0.45593999997E+02  0.45594000000E+02  0.51100000000E-03 0. -1.
         11   -1    0    0    0    0 -0.00000000000E+00 -0.00000000000E+00 -0.45593999997E+02  0.45594000000E+02  0.51100000000E-03 0.  1.
    9900012    2    1    2    0    0 -0.30226869806E+00 -0.37199423724E+01 -0.40487504858E+02  0.50528838828E+02  0.29999936100E+02 0.  0.
         12    1    1    2    0    0  0.30226869806E+00  0.37199423724E+01  0.40487504858E+02  0.40659161172E+02  0.00000000000E+00 0. -1.
         11    1    3    3    0    0 -0.96474489390E+01  0.23600559726E+01 -0.73620367706E+01  0.12362957611E+02  0.51100000000E-03 0.  1.
        -11    1    3    3    0    0  0.11109076858E+02 -0.12867317361E-01 -0.13146799260E+02  0.17211916954E+02  0.51100000000E-03 0. -1.
         12    1    3    3    0    0 -0.17638966168E+01 -0.60671310276E+01 -0.19978668827E+02  0.20953964262E+02  0.00000000000E+00 0. -1.
</event>
<event>
 7    1  0.1369731E-013  0.5052887E+02  0.7816164E-02  0.1300439E+00
        -11   -1    0    0    0    0  0.00000000000E+00  0.00000000000E+00  0.45593999997E+02  0.45594000000E+02  0.51100000000E-03 0. -1.
         11   -1    0    0    0    0 -0.00000000000E+00 -0.00000000000E+00 -0.45593999997E+02  0.45594000000E+02  0.51100000000E-03 0.  1.
    9900012    2    1    2    0    0  0.26716288413E+02  0.73829111363E+01  0.29747230730E+02  0.50528865977E+02  0.30000018623E+02 0.  0.
        -12    1    1    2    0    0 -0.26716288413E+02 -0.73829111363E+01 -0.29747230730E+02  0.40659134023E+02  0.00000000000E+00 0.  1.
         11    1    3    3    0    0  0.67570738104E+01  0.93109327081E+01  0.10021507136E+02  0.15257198954E+02  0.51100000000E-03 0. -1.
        -11    1    3    3    0    0  0.12103641222E+02 -0.11148948409E+02  0.75797922974E+01  0.18117682881E+02  0.51100000000E-03 0.  1.
        -12    1    3    3    0    0  0.78555733802E+01  0.92209268368E+01  0.12145931297E+02  0.17153984142E+02  0.00000000000E+00 0.  1.
</event>
<event>
 7    1  0.1369731E-013  0.5052885E+02  0.7816164E-02  0.1300439E+00
        -11   -1    0    0    0    0  0.00000000000E+00  0.00000000000E+00  0.45593999997E+02  0.45594000000E+02  0.51100000000E-03 0.  1.
         11   -1    0    0    0    0 -0.00000000000E+00 -0.00000000000E+00 -0.45593999997E+02  0.45594000000E+02  0.51100000000E-03 0. -1.
    9900012    2    1    2    0    0  0.35013980433E+01 -0.32574819215E+02  0.24078782759E+02  0.50528850792E+02  0.29999972469E+02 0.  0.
        -12    1    1    2    0    0 -0.35013980433E+01  0.32574819215E+02 -0.24078782759E+02  0.40659149208E+02  0.00000000000E+00 0.  1.
         11    1    3    3    0    0 -0.83565788784E+01 -0.33431799797E+01 -0.22757005398E+01  0.92837533431E+01  0.51100000000E-03 0. -1.
        -11    1    3    3    0    0  0.34753823951E+01 -0.53147208629E+01  0.45391658101E+01  0.78056753171E+01  0.51100000000E-03 0.  1.
         12    1    3    3    0    0  0.83825945265E+01 -0.23916918372E+02  0.21815317489E+02  0.33439422132E+02  0.00000000000E+00 0. -1.
</event>
<event>
 7    1  0.1369731E-013  0.5052885E+02  0.7816164E-02  0.1300439E+00
        -11   -1    0    0    0    0  0.00000000000E+00  0.00000000000E+00  0.45593999997E+02  0.45594000000E+02  0.51100000000E-03 0. -1.
         11   -1    0    0    0    0 -0.00000000000E+00 -0.00000000000E+00 -0.45593999997E+02  0.45594000000E+02  0.51100000000E-03 0.  1.
    9900012    2    1    2    0    0 -0.72538160699E+01 -0.15689402568E+02  0.36802058865E+02  0.50528846821E+02  0.29999960398E+02 0.  0.
        -12    1    1    2    0    0  0.72538160699E+01  0.15689402568E+02 -0.36802058865E+02  0.40659153179E+02  0.00000000000E+00 0.  1.
         11    1    3    3    0    0 -0.11274976073E+02 -0.30220763102E+01  0.21781783664E+02  0.24712428665E+02  0.51100000000E-03 0. -1.
        -11    1    3    3    0    0  0.22774562471E+01 -0.85006864239E+01 -0.12879745080E+01  0.88942315705E+01  0.51100000000E-03 0.  1.
        -12    1    3    3    0    0  0.17437037557E+01 -0.41666398339E+01  0.16308249708E+02  0.16922186586E+02  0.00000000000E+00 0.  1.
</event>
<event>
 7    1  0.1369731E-013  0.5052887E+02  0.7816164E-02  0.1300439E+00
        -11   -1    0    0    0    0  0.00000000000E+00  0.00000000000E+00  0.45593999997E+02  0.45594000000E+02  0.51100000000E-03 0. -1.
         11   -1    0    0    0    0 -0.00000000000E+00 -0.00000000000E+00 -0.45593999997E+02  0.45594000000E+02  0.51100000000E-03 0.  1.
    9900012    2    1    2    0    0  0.23191154775E+02  0.22835040133E+02 -0.24369988750E+02  0.50528867332E+02  0.30000022741E+02 0.  0.
         12    1    1    2    0    0 -0.23191154775E+02 -0.22835040133E+02  0.24369988750E+02  0.40659132668E+02  0.00000000000E+00 0. -1.
         11    1    3    3    0    0  0.99759475637E+01  0.19660195838E+02 -0.21351369020E+02  0.30690776945E+02  0.51100000000E-03 0.  1.
        -11    1    3    3    0    0  0.33307978401E+00 -0.43018587475E+01 -0.23848947448E+01  0.49299750538E+01  0.51100000000E-03 0. -1.
         12    1    3    3    0    0  0.12882127427E+02  0.74767030428E+01 -0.63372498545E+00  0.14908115333E+02  0.00000000000E+00 0. -1.
</event>
<event>
 7    1  0.1369731E-013  0.5052888E+02  0.7816164E-02  0.1300439E+00
        -11   -1    0    0    0    0  0.00000000000E+00  0.00000000000E+00  0.45593999997E+02  0.45594000000E+02  0.51100000000E-03 0. -1.
         11   -1    0    0    0    0 -0.00000000000E+00 -0.00000000000E+00 -0.45593999997E+02  0.45594000000E+02  0.51100000000E-03 0.  1.
    9900012    2    1    2    0    0 -0.11175808717E+02 -0.33484051525E+02  0.20176316293E+02  0.50528878684E+02  0.30000057248E+02 0.  0.
        -12    1    1    2    0    0  0.11175808717E+02  0.33484051525E+02 -0.20176316293E+02  0.40659121316E+02  0.00000000000E+00 0.  1.
         11    1    3    3    0    0 -0.23655357136E+01 -0.31369574134E+02  0.17204068306E+02  0.35855625877E+02  0.51100000000E-03 0. -1.
        -11    1    3    3    0    0 -0.24510702864E+01 -0.18255799931E+00 -0.42179953566E+01  0.48818601027E+01  0.51100000000E-03 0.  1.
        -12    1    3    3    0    0 -0.63592027173E+01 -0.19319193923E+01  0.71902433440E+01  0.97913927040E+01  0.00000000000E+00 0.  1.
</event>
<event>
 7    1  0.1369731E-013  0.5052886E+02  0.7816164E-02  0.1300439E+00
        -11   -1    0    0    0    0  0.00000000000E+00  0.00000000000E+00  0.45593999997E+02  0.45594000000E+02  0.51100000000E-03 0. -1.
         11   -1    0    0    0    0 -0.00000000000E+00 -0.00000000000E+00 -0.45593999997E+02  0.45594000000E+02  0.51100000000E-03 0.  1.
    9900012    2    1    2    0    0  0.10406312417E+02 -0.35640815789E+02 -0.16571254069E+02  0.50528861426E+02  0.30000004790E+02 0.  0.
         12    1    1    2    0    0 -0.10406312417E+02  0.35640815789E+02  0.16571254069E+02  0.40659138574E+02  0.00000000000E+00 0. -1.
         11    1    3    3    0    0 -0.74196493477E+01 -0.16598798125E+02  0.14566095099E+01  0.18239874100E+02  0.51100000000E-03 0. -1.
        -11    1    3    3    0    0  0.74944615429E+01 -0.12438856541E+02 -0.94939678739E+01  0.17350145017E+02  0.51100000000E-03 0.  1.
         12    1    3    3    0    0  0.10331500222E+02 -0.66031611227E+01 -0.85338957046E+01  0.14938842309E+02  0.00000000000E+00 0. -1.
</event>
<event>
 7    1  0.1369731E-013  0.5052887E+02  0.7816164E-02  0.1300439E+00
        -11   -1    0    0    0    0  0.00000000000E+00  0.00000000000E+00  0.45593999997E+02  0.45594000000E+02  0.51100000000E-03 0. -1.
         11   -1    0    0    0    0 -0.00000000000E+00 -0.00000000000E+00 -0.45593999997E+02  0.45594000000E+02  0.51100000000E-03 0.  1.
    9900012    2    1    2    0    0 -0.53481055681E+01  0.16978908700E+02  0.36555153835E+02  0.50528870082E+02  0.30000031101E+02 0.  0.
        -12    1    1    2    0    0  0.53481055681E+01 -0.16978908700E+02 -0.36555153835E+02  0.40659129918E+02  0.00000000000E+00 0.  1.
         11    1    3    3    0    0  0.32444056567E+01  0.19634724510E+02  0.30545198080E+02  0.36456243644E+02  0.51100000000E-03 0.  1.
        -11    1    3    3    0    0 -0.10130728080E+02 -0.58970654533E+00  0.47207268782E+01  0.11192169931E+02  0.51100000000E-03 0. -1.
        -12    1    3    3    0    0  0.15382168555E+01 -0.20661092651E+01  0.12892288766E+01  0.28804565066E+01  0.00000000000E+00 0.  1.
</event>
<event>
 7    1  0.1369731E-013  0.5052889E+02  0.7816164E-02  0.1300439E+00
        -11   -1    0    0    0    0  0.00000000000E+00  0.00000000000E+00  0.45593999997E+02  0.45594000000E+02  0.51100000000E-03 0. -1.
         11   -1    0    0    0    0 -0.00000000000E+00 -0.00000000000E+00 -0.45593999997E+02  0.45594000000E+02  0.51100000000E-03 0.  1.
    9900012    2    1    2    0    0  0.25176787079E+02  0.13786996825E+02 -0.28796025724E+02  0.50528892945E+02  0.30000100594E+02 0.  0.
         12    1    1    2    0    0 -0.25176787079E+02 -0.13786996825E+02  0.28796025724E+02  0.40659107055E+02  0.00000000000E+00 0. -1.
         11    1    3    3    0    0 -0.46277959525E+01 -0.40291895153E+01 -0.54420586030E+01  0.82016379845E+01  0.51100000000E-03 0. -1.
        -11    1    3    3    0    0  0.82089126630E+01  0.81645482880E+01 -0.64451725070E+01  0.13250899772E+02  0.51100000000E-03 0.  1.
         12    1    3    3    0    0  0.21595670368E+02  0.96516380520E+01 -0.16908794614E+02  0.29076355188E+02  0.00000000000E+00 0. -1.
</event>
<event>
 7    1  0.1369731E-013  0.5052889E+02  0.7816164E-02  0.1300439E+00
        -11   -1    0    0    0    0  0.00000000000E+00  0.00000000000E+00  0.45593999997E+02  0.45594000000E+02  0.51100000000E-03 0. -1.
         11   -1    0    0    0    0 -0.00000000000E+00 -0.00000000000E+00 -0.45593999997E+02  0.45594000000E+02  0.51100000000E-03 0.  1.
    9900012    2    1    2    0    0  0.18706097398E+02  0.25164636220E+02  0.25884098702E+02  0.50528885874E+02  0.30000079101E+02 0.  0.
        -12    1    1    2    0    0 -0.18706097398E+02 -0.25164636220E+02 -0.25884098702E+02  0.40659114126E+02  0.00000000000E+00 0.  1.
         11    1    3    3    0    0  0.11755164449E+02  0.46066301709E+01  0.10383469208E+02  0.16346906919E+02  0.51100000000E-03 0.  1.
        -11    1    3    3    0    0 -0.64599249769E+01  0.85006659765E+01  0.11533454279E+02  0.15716631974E+02  0.51100000000E-03 0. -1.
        -12    1    3    3    0    0  0.13410857926E+02  0.12057340072E+02  0.39671752150E+01  0.18465346980E+02  0.00000000000E+00 0.  1.
</event>
<event>
 7    1  0.1369731E-013  0.5052887E+02  0.7816164E-02  0.1300439E+00
        -11   -1    0    0    0    0  0.00000000000E+00  0.00000000000E+00  0.45593999997E+02  0.45594000000E+02  0.51100000000E-03 0. -1.
         11   -1    0    0    0    0 -0.00000000000E+00 -0.00000000000E+00 -0.45593999997E+02  0.45594000000E+02  0.51100000000E-03 0.  1.
    9900012    2    1    2    0    0 -0.29899711324E+01  0.86695452952E+01 -0.39611411189E+02  0.50528870160E+02  0.30000031337E+02 0.  0.
         12    1    1    2    0    0  0.29899711324E+01 -0.86695452952E+01  0.39611411189E+02  0.40659129840E+02  0.00000000000E+00 0. -1.
         11    1    3    3    0    0 -0.52053098302E+01 -0.91393918536E+01 -0.20994674789E+02  0.23481910136E+02  0.51100000000E-03 0. -1.
        -11    1    3    3    0    0  0.16722440675E+01  0.47036608177E-01 -0.27770483994E+01  0.32420072081E+01  0.51100000000E-03 0.  1.
         12    1    3    3    0    0  0.54309463025E+00  0.17761900541E+02 -0.15839688001E+02  0.23804952816E+02  0.00000000000E+00 0. -1.
</event>
<event>
 7    1  0.1369731E-013  0.5052888E+02  0.7816164E-02  0.1300439E+00
        -11   -1    0    0    0    0  0.00000000000E+00  0.00000000000E+00  0.45593999997E+02  0.45594000000E+02  0.51100000000E-03 0. -1.
         11   -1    0    0    0    0 -0.00000000000E+00 -0.00000000000E+00 -0.45593999997E+02  0.45594000000E+02  0.51100000000E-03 0.  1.
    9900012    2    1    2    0    0 -0.37977007393E+02  0.83261462845E+01 -0.11898996028E+02  0.50528881602E+02  0.30000066116E+02 0.  0.
         12    1    1    2    0    0  0.37977007393E+02 -0.83261462845E+01  0.11898996028E+02  0.40659118398E+02  0.00000000000E+00 0. -1.
         11    1    3    3    0    0 -0.26135300758E+01  0.34780909514E+01  0.15036332822E+01  0.46031043255E+01  0.51100000000E-03 0. -1.
        -11    1    3    3    0    0 -0.21006080802E+02 -0.99244067464E+01 -0.56026151975E+01  0.23898505753E+02  0.51100000000E-03 0.  1.
        -12    1    3    3    0    0 -0.14357396516E+02  0.14772462080E+02 -0.78000141128E+01  0.22027271523E+02  0.00000000000E+00 0.  1.
</event>
<event>
 7    1  0.1369731E-013  0.5052886E+02  0.7816164E-02  0.1300439E+00
        -11   -1    0    0    0    0  0.00000000000E+00  0.00000000000E+00  0.45593999997E+02  0.45594000000E+02  0.51100000000E-03 0. -1.
         11   -1    0    0    0    0 -0.00000000000E+00 -0.00000000000E+00 -0.45593999997E+02  0.45594000000E+02  0.51100000000E-03 0.  1.
    9900012    2    1    2    0    0  0.25326353213E+02 -0.78664502233E+01 -0.30819809872E+02  0.50528857280E+02  0.29999992188E+02 0.  0.
         12    1    1    2    0    0 -0.25326353213E+02  0.78664502233E+01  0.30819809872E+02  0.40659142720E+02  0.00000000000E+00 0. -1.
         11    1    3    3    0    0  0.54417560873E+01 -0.36780408691E+00  0.53307208830E+01  0.76265703009E+01  0.51100000000E-03 0. -1.
        -11    1    3    3    0    0  0.26698117981E+01  0.18403927350E+01 -0.77761202193E+01  0.84251401402E+01  0.51100000000E-03 0.  1.
         12    1    3    3    0    0  0.17214785328E+02 -0.93390388714E+01 -0.28374410535E+02  0.34477146839E+02  0.00000000000E+00 0. -1.
</event>
<event>
 7    1  0.1369731E-013  0.5052884E+02  0.7816164E-02  0.1300439E+00
        -11   -1    0    0    0    0  0.00000000000E+00  0.00000000000E+00  0.45593999997E+02  0.45594000000E+02  0.51100000000E-03 0.  1.
         11   -1    0    0    0    0 -0.00000000000E+00 -0.00000000000E+00 -0.45593999997E+02  0.45594000000E+02  0.51100000000E-03 0. -1.
    9900012    2    1    2    0    0 -0.40205926265E+02  0.40446259911E+01 -0.45046128337E+01  0.50528843060E+02  0.29999948966E+02 0.  0.
        -12    1    1    2    0    0  0.40205926265E+02 -0.40446259911E+01  0.45046128337E+01  0.40659156940E+02  0.00000000000E+00 0.  1.
         11    1    3    3    0    0 -0.34616618823E+02 -0.79722292040E+00 -0.84746995223E+01  0.35647810527E+02  0.51100000000E-03 0. -1.
        -11    1    3    3    0    0 -0.17205340796E+01 -0.41473632509E+01  0.59672226414E+00  0.45295625811E+01  0.51100000000E-03 0.  1.
         12    1    3    3    0    0 -0.38687733629E+01  0.89892121625E+01  0.33733644245E+01  0.10351469952E+02  0.00000000000E+00 0. -1.
</event>
<event>
 7    1  0.1369731E-013  0.5052886E+02  0.7816164E-02  0.1300439E+00
        -11   -1    0    0    0    0  0.00000000000E+00  0.00000000000E+00  0.45593999997E+02  0.45594000000E+02  0.51100000000E-03 0. -1.
         11   -1    0    0    0    0 -0.00000000000E+00 -0.00000000000E+00 -0.45593999997E+02  0.45594000000E+02  0.51100000000E-03 0.  1.
    9900012    2    1    2    0    0  0.77450053482E+01 -0.99043201470E+01 -0.38666327545E+02  0.50528861405E+02  0.30000004728E+02 0.  0.
         12    1    1    2    0    0 -0.77450053482E+01  0.99043201470E+01  0.38666327545E+02  0.40659138595E+02  0.00000000000E+00 0. -1.
         11    1    3    3    0    0  0.22575992688E+01 -0.33360700070E-01  0.25706823364E+01  0.34214434571E+01  0.51100000000E-03 0. -1.
        -11    1    3    3    0    0  0.10534074683E+02 -0.12793069659E+02 -0.26457902034E+02  0.31219384059E+02  0.51100000000E-03 0.  1.
        -12    1    3    3    0    0 -0.50466686036E+01  0.29221102120E+01 -0.14779107848E+02  0.15888033889E+02  0.00000000000E+00 0.  1.
</event>
<event>
 7    1  0.1369731E-013  0.5052886E+02  0.7816164E-02  0.1300439E+00
        -11   -1    0    0    0    0  0.00000000000E+00  0.00000000000E+00  0.45593999997E+02  0.45594000000E+02  0.51100000000E-03 0. -1.
         11   -1    0    0    0    0 -0.00000000000E+00 -0.00000000000E+00 -0.45593999997E+02  0.45594000000E+02  0.51100000000E-03 0.  1.
    9900012    2    1    2    0    0 -0.97919143094E+01 -0.16098478184E+02  0.36029477785E+02  0.50528857668E+02  0.29999993368E+02 0.  0.
        -12    1    1    2    0    0  0.97919143094E+01  0.16098478184E+02 -0.36029477785E+02  0.40659142332E+02  0.00000000000E+00 0.  1.
         11    1    3    3    0    0 -0.16633308081E+02 -0.15955952682E+02  0.28429863727E+02  0.36599405944E+02  0.51100000000E-03 0. -1.
        -11    1    3    3    0    0  0.56152274509E+01  0.29565112442E+01  0.83749218007E+01  0.10507666415E+02  0.51100000000E-03 0.  1.
         12    1    3    3    0    0  0.12261663207E+01 -0.30990367468E+01 -0.77530774243E+00  0.34217853088E+01  0.00000000000E+00 0. -1.
</event>
<event>
 7    1  0.1369731E-013  0.5052886E+02  0.7816164E-02  0.1300439E+00
        -11   -1    0    0    0    0  0.00000000000E+00  0.00000000000E+00  0.45593999997E+02  0.45594000000E+02  0.51100000000E-03 0. -1.
         11   -1    0    0    0    0 -0.00000000000E+00 -0.00000000000E+00 -0.45593999997E+02  0.45594000000E+02  0.51100000000E-03 0.  1.
    9900012    2    1    2    0    0 -0.43699501867E+01  0.16086837880E+01  0.40391599088E+02  0.50528860744E+02  0.30000002718E+02 0.  0.
        -12    1    1    2    0    0  0.43699501867E+01 -0.16086837880E+01 -0.40391599088E+02  0.40659139256E+02  0.00000000000E+00 0.  1.
         11    1    3    3    0    0 -0.54611873765E+01  0.10243591296E+02  0.62662575227E+01  0.13191728992E+02  0.51100000000E-03 0. -1.
        -11    1    3    3    0    0  0.45386823438E+01 -0.53744132402E+01  0.30672355627E+02  0.31468672597E+02  0.51100000000E-03 0.  1.
         12    1    3    3    0    0 -0.34474451540E+01 -0.32604942677E+01  0.34529859382E+01  0.58684591546E+01  0.00000000000E+00 0. -1.
</event>
<event>
 7    1  0.1369731E-013  0.5052886E+02  0.7816164E-02  0.1300439E+00
        -11   -1    0    0    0    0  0.00000000000E+00  0.00000000000E+00  0.45593999997E+02  0.45594000000E+02  0.51100000000E-03 0. -1.
         11   -1    0    0    0    0 -0.00000000000E+00 -0.00000000000E+00 -0.45593999997E+02  0.45594000000E+02  0.51100000000E-03 0.  1.
    9900012    2    1    2    0    0 -0.26966944737E+02 -0.26754062962E+01 -0.30311581500E+02  0.50528857358E+02  0.29999992426E+02 0.  0.
         12    1    1    2    0    0  0.26966944737E+02  0.26754062962E+01  0.30311581500E+02  0.40659142642E+02  0.00000000000E+00 0. -1.
         11    1    3    3    0    0  0.15574410025E+01 -0.80087073436E+01 -0.12640534525E+02  0.15044870526E+02  0.51100000000E-03 0. -1.
        -11    1    3    3    0    0 -0.11919115774E+02  0.34142037017E+01 -0.13348704112E+02  0.18218397556E+02  0.51100000000E-03 0.  1.
         12    1    3    3    0    0 -0.16605269966E+02  0.19190973456E+01 -0.43223428621E+01  0.17265589277E+02  0.00000000000E+00 0. -1.
</event>
<event>
 7    1  0.1369731E-013  0.5052887E+02  0.7816164E-02  0.1300439E+00
        -11   -1    0    0    0    0  0.00000000000E+00  0.00000000000E+00  0.45593999997E+02  0.45594000000E+02  0.51100000000E-03 0.  1.
         11   -1    0    0    0    0 -0.00000000000E+00 -0.00000000000E+00 -0.45593999997E+02  0.45594000000E+02  0.51100000000E-03 0. -1.
    9900012    2    1    2    0    0 -0.25597972704E+02  0.30576464706E+02  0.79365462905E+01  0.50528866124E+02  0.30000019072E+02 0.  0.
        -12    1    1    2    0    0  0.25597972704E+02 -0.30576464706E+02 -0.79365462905E+01  0.40659133876E+02  0.00000000000E+00 0.  1.
         11    1    3    3    0    0 -0.24356367459E+02  0.29701353345E+02  0.10039328456E+02  0.39701273814E+02  0.51100000000E-03 0. -1.
        -11    1    3    3    0    0  0.14209520142E+01  0.33256144608E+00 -0.59450667135E+01  0.61215619111E+01  0.51100000000E-03 0.  1.
        -12    1    3    3    0    0 -0.26625572595E+01  0.54254991474E+00  0.38422845485E+01  0.47060303996E+01  0.00000000000E+00 0.  1.
</event>
<event>
 7    1  0.1369731E-013  0.5052887E+02  0.7816164E-02  0.1300439E+00
        -11   -1    0    0    0    0  0.00000000000E+00  0.00000000000E+00  0.45593999997E+02  0.45594000000E+02  0.51100000000E-03 0. -1.
         11   -1    0    0    0    0 -0.00000000000E+00 -0.00000000000E+00 -0.45593999997E+02  0.45594000000E+02  0.51100000000E-03 0.  1.
    9900012    2    1    2    0    0 -0.16191003460E+02  0.26302503353E+02 -0.26442292395E+02  0.50528866921E+02  0.30000021492E+02 0.  0.
         12    1    1    2    0    0  0.16191003460E+02 -0.26302503353E+02  0.26442292395E+02  0.40659133079E+02  0.00000000000E+00 0. -1.
         11    1    3    3    0    0  0.33738563974E+01  0.31967203977E+01 -0.46552436791E+01  0.65782385381E+01  0.51100000000E-03 0. -1.
        -11    1    3    3    0    0 -0.24342097322E+02  0.15593816310E+02 -0.13986700765E+02  0.32114367621E+02  0.51100000000E-03 0.  1.
        -12    1    3    3    0    0  0.47772374645E+01  0.75119666455E+01 -0.78003479507E+01  0.11836260762E+02  0.00000000000E+00 0.  1.
</event>
<event>
 7    1  0.1369731E-013  0.5052886E+02  0.7816164E-02  0.1300439E+00
        -11   -1    0    0    0    0  0.00000000000E+00  0.00000000000E+00  0.45593999997E+02  0.45594000000E+02  0.51100000000E-03 0. -1.
         11   -1    0    0    0    0 -0.00000000000E+00 -0.00000000000E+00 -0.45593999997E+02  0.45594000000E+02  0.51100000000E-03 0.  1.
    9900012    2    1    2    0    0  0.29016148539E+02  0.27123594528E+02  0.86913541514E+01  0.50528857201E+02  0.29999991948E+02 0.  0.
        -12    1    1    2    0    0 -0.29016148539E+02 -0.27123594528E+02 -0.86913541514E+01  0.40659142799E+02  0.00000000000E+00 0.  1.
         11    1    3    3    0    0  0.18100735239E+02  0.17651325715E+02 -0.58877719124E+01  0.25959040314E+02  0.51100000000E-03 0. -1.
        -11    1    3    3    0    0  0.10755496117E+02  0.11799361005E+02  0.15315289422E+02  0.22123826685E+02  0.51100000000E-03 0.  1.
         12    1    3    3    0    0  0.15991718377E+00 -0.23270921920E+01 -0.73616335877E+00  0.24459902016E+01  0.00000000000E+00 0. -1.
</event>
<event>
 7    1  0.1369731E-013  0.5052886E+02  0.7816164E-02  0.1300439E+00
        -11   -1    0    0    0    0  0.00000000000E+00  0.00000000000E+00  0.45593999997E+02  0.45594000000E+02  0.51100000000E-03 0. -1.
         11   -1    0    0    0    0 -0.00000000000E+00 -0.00000000000E+00 -0.45593999997E+02  0.45594000000E+02  0.51100000000E-03 0.  1.
    9900012    2    1    2    0    0 -0.17883098053E+02  0.28056624497E+00  0.36514132848E+02  0.50528858211E+02  0.29999995020E+02 0.  0.
        -12    1    1    2    0    0  0.17883098053E+02 -0.28056624497E+00 -0.36514132848E+02  0.40659141789E+02  0.00000000000E+00 0.  1.
         11    1    3    3    0    0  0.50308342466E+01 -0.18614575061E+01  0.18519921828E+02  0.19281126058E+02  0.51100000000E-03 0. -1.
        -11    1    3    3    0    0 -0.21589236366E+02 -0.13778874336E+01  0.14035773685E+02  0.25787528843E+02  0.51100000000E-03 0.  1.
        -12    1    3    3    0    0 -0.13246959332E+01  0.35199111847E+01  0.39584373342E+01  0.54602033106E+01  0.00000000000E+00 0.  1.
</event>
<event>
 7    1  0.1369731E-013  0.5052895E+02  0.7816164E-02  0.1300438E+00
        -11   -1    0    0    0    0  0.00000000000E+00  0.00000000000E+00  0.45593999997E+02  0.45594000000E+02  0.51100000000E-03 0. -1.
         11   -1    0    0    0    0 -0.00000000000E+00 -0.00000000000E+00 -0.45593999997E+02  0.45594000000E+02  0.51100000000E-03 0.  1.
    9900012    2    1    2    0    0 -0.23143306206E+02 -0.65606637418E+01  0.32779618736E+02  0.50528950142E+02  0.30000274451E+02 0.  0.
        -12    1    1    2    0    0  0.23143306206E+02  0.65606637418E+01 -0.32779618736E+02  0.40659049858E+02  0.00000000000E+00 0.  1.
         11    1    3    3    0    0 -0.23322466704E+02 -0.67740486984E+01  0.22569809165E+02  0.33154509119E+02  0.51100000000E-03 0. -1.
        -11    1    3    3    0    0  0.54671428649E+01 -0.42587729311E+01  0.65756000266E+01  0.95532881226E+01  0.51100000000E-03 0.  1.
         12    1    3    3    0    0 -0.52879823665E+01  0.44721578877E+01  0.36342095439E+01  0.78211529002E+01  0.00000000000E+00 0. -1.
</event>
<event>
 7    1  0.1369731E-013  0.5052887E+02  0.7816164E-02  0.1300439E+00
        -11   -1    0    0    0    0  0.00000000000E+00  0.00000000000E+00  0.45593999997E+02  0.45594000000E+02  0.51100000000E-03 0.  1.
         11   -1    0    0    0    0 -0.00000000000E+00 -0.00000000000E+00 -0.45593999997E+02  0.45594000000E+02  0.51100000000E-03 0. -1.
    9900012    2    1    2    0    0  0.33342234422E+02  0.16243448482E+02 -0.16661661182E+02  0.50528866116E+02  0.30000019047E+02 0.  0.
        -12    1    1    2    0    0 -0.33342234422E+02 -0.16243448482E+02  0.16661661182E+02  0.40659133884E+02  0.00000000000E+00 0.  1.
         11    1    3    3    0    0  0.22064399670E+02  0.59263506713E+00 -0.11960489983E+02  0.25104626466E+02  0.51100000000E-03 0. -1.
        -11    1    3    3    0    0 -0.35098681272E+01  0.13210447987E+01 -0.29250495339E+01  0.47560749224E+01  0.51100000000E-03 0.  1.
         12    1    3    3    0    0  0.14787702879E+02  0.14329768616E+02 -0.17761216657E+01  0.20668164728E+02  0.00000000000E+00 0. -1.
</event>
<event>
 7    1  0.1369731E-013  0.5052887E+02  0.7816164E-02  0.1300439E+00
        -11   -1    0    0    0    0  0.00000000000E+00  0.00000000000E+00  0.45593999997E+02  0.45594000000E+02  0.51100000000E-03 0. -1.
         11   -1    0    0    0    0 -0.00000000000E+00 -0.00000000000E+00 -0.45593999997E+02  0.45594000000E+02  0.51100000000E-03 0.  1.
    9900012    2    1    2    0    0  0.81663743564E+01  0.95118136669E+00 -0.39819218169E+02  0.50528873697E+02  0.30000042089E+02 0.  0.
         12    1    1    2    0    0 -0.81663743564E+01 -0.95118136669E+00  0.39819218169E+02  0.40659126303E+02  0.00000000000E+00 0. -1.
         11    1    3    3    0    0 -0.84353029637E+01  0.30474874224E+01 -0.13450737862E+02  0.16166751837E+02  0.51100000000E-03 0. -1.
        -11    1    3    3    0    0  0.64505840341E+01 -0.22694147754E+01 -0.84080442711E+00  0.68896465910E+01  0.51100000000E-03 0.  1.
         12    1    3    3    0    0  0.10151093286E+02  0.17310871964E+00 -0.25527675881E+02  0.27472475269E+02  0.00000000000E+00 0. -1.
</event>
<event>
 7    1  0.1369731E-013  0.5052887E+02  0.7816164E-02  0.1300439E+00
        -11   -1    0    0    0    0  0.00000000000E+00  0.00000000000E+00  0.45593999997E+02  0.45594000000E+02  0.51100000000E-03 0. -1.
         11   -1    0    0    0    0 -0.00000000000E+00 -0.00000000000E+00 -0.45593999997E+02  0.45594000000E+02  0.51100000000E-03 0.  1.
    9900012    2    1    2    0    0  0.14514893881E+02  0.20711912480E+02 -0.31835511362E+02  0.50528865152E+02  0.30000016115E+02 0.  0.
         12    1    1    2    0    0 -0.14514893881E+02 -0.20711912480E+02  0.31835511362E+02  0.40659134848E+02  0.00000000000E+00 0. -1.
         11    1    3    3    0    0  0.14530592491E+01 -0.18453656549E+01 -0.32566427935E+01  0.40152805789E+01  0.51100000000E-03 0. -1.
        -11    1    3    3    0    0  0.33783877990E+01  0.18588885062E+02 -0.30496067029E+02  0.35874367681E+02  0.51100000000E-03 0.  1.
        -12    1    3    3    0    0  0.96834468327E+01  0.39683930728E+01  0.19171984608E+01  0.10639216892E+02  0.00000000000E+00 0.  1.
</event>
<event>
 7    1  0.1415241E-013  0.5052880E+02  0.7816164E-02  0.1300439E+00
        -11   -1    0    0    0    0  0.00000000000E+00  0.00000000000E+00  0.45593999997E+02  0.45594000000E+02  0.51100000000E-03 0. -1.
         11   -1    0    0    0    0 -0.00000000000E+00 -0.00000000000E+00 -0.45593999997E+02  0.45594000000E+02  0.51100000000E-03 0.  1.
    9900012    2    1    2    0    0  0.19520702091E+02  0.61312339205E+01 -0.35135741646E+02  0.50528804478E+02  0.29999831691E+02 0.  0.
         12    1    1    2    0    0 -0.19520702091E+02 -0.61312339205E+01  0.35135741646E+02  0.40659195522E+02  0.00000000000E+00 0. -1.
         11    1    3    3    0    0 -0.66345055458E+01  0.28188171525E+01 -0.98449162841E+01  0.12201834734E+02  0.51100000000E-03 0. -1.
        -11    1    3    3    0    0  0.23066706536E+02  0.22322494035E+01 -0.26153025106E+02  0.34943334275E+02  0.51100000000E-03 0.  1.
         12    1    3    3    0    0  0.30885011012E+01  0.10801673645E+01  0.86219974421E+00  0.33836354689E+01  0.00000000000E+00 0. -1.
</event>
<event>
 7    1  0.1369731E-013  0.5052887E+02  0.7816164E-02  0.1300439E+00
        -11   -1    0    0    0    0  0.00000000000E+00  0.00000000000E+00  0.45593999997E+02  0.45594000000E+02  0.51100000000E-03 0.  1.
         11   -1    0    0    0    0 -0.00000000000E+00 -0.00000000000E+00 -0.45593999997E+02  0.45594000000E+02  0.51100000000E-03 0. -1.
    9900012    2    1    2    0    0 -0.18494994290E+02  0.12161267225E+02 -0.34105776335E+02  0.50528865556E+02  0.30000017344E+02 0.  0.
         12    1    1    2    0    0  0.18494994290E+02 -0.12161267225E+02  0.34105776335E+02  0.40659134444E+02  0.00000000000E+00 0. -1.
         11    1    3    3    0    0 -0.78526338453E+01 -0.75237333954E+01 -0.21901624532E+01  0.11093567251E+02  0.51100000000E-03 0. -1.
        -11    1    3    3    0    0 -0.10484424935E+02  0.14674123430E+02 -0.23260291249E+02  0.29432876412E+02  0.51100000000E-03 0.  1.
         12    1    3    3    0    0 -0.15793550940E+00  0.50108771904E+01 -0.86553226334E+01  0.10002421893E+02  0.00000000000E+00 0. -1.
</event>
<event>
 7    1  0.1369731E-013  0.5052886E+02  0.7816164E-02  0.1300439E+00
        -11   -1    0    0    0    0  0.00000000000E+00  0.00000000000E+00  0.45593999997E+02  0.45594000000E+02  0.51100000000E-03 0. -1.
         11   -1    0    0    0    0 -0.00000000000E+00 -0.00000000000E+00 -0.45593999997E+02  0.45594000000E+02  0.51100000000E-03 0.  1.
    9900012    2    1    2    0    0  0.18463238214E+01 -0.14458495389E+02 -0.37956666904E+02  0.50528861261E+02  0.30000004288E+02 0.  0.
         12    1    1    2    0    0 -0.18463238214E+01  0.14458495389E+02  0.37956666904E+02  0.40659138739E+02  0.00000000000E+00 0. -1.
         11    1    3    3    0    0 -0.20598024332E+01 -0.24228321346E+00  0.10509917322E+01  0.23250959338E+01  0.51100000000E-03 0. -1.
        -11    1    3    3    0    0  0.71577847903E+01 -0.17906730476E+02 -0.17174468998E+02  0.25823386011E+02  0.51100000000E-03 0.  1.
        -12    1    3    3    0    0 -0.32516585358E+01  0.36905183002E+01 -0.21833189638E+02  0.22380379316E+02  0.00000000000E+00 0.  1.
</event>
<event>
 7    1  0.1369731E-013  0.5052886E+02  0.7816164E-02  0.1300439E+00
        -11   -1    0    0    0    0  0.00000000000E+00  0.00000000000E+00  0.45593999997E+02  0.45594000000E+02  0.51100000000E-03 0. -1.
         11   -1    0    0    0    0 -0.00000000000E+00 -0.00000000000E+00 -0.45593999997E+02  0.45594000000E+02  0.51100000000E-03 0.  1.
    9900012    2    1    2    0    0  0.77551744207E+01  0.29321411634E+02 -0.27079099604E+02  0.50528861472E+02  0.30000004929E+02 0.  0.
         12    1    1    2    0    0 -0.77551744207E+01 -0.29321411634E+02  0.27079099604E+02  0.40659138528E+02  0.00000000000E+00 0. -1.
         11    1    3    3    0    0 -0.34199710288E+01  0.12180644588E+02 -0.23084356948E+02  0.26323978430E+02  0.51100000000E-03 0. -1.
        -11    1    3    3    0    0  0.81964883972E+01  0.10481542663E+02 -0.83498202633E+01  0.15708744613E+02  0.51100000000E-03 0.  1.
         12    1    3    3    0    0  0.29786570522E+01  0.66592243832E+01  0.43550776073E+01  0.84961384279E+01  0.00000000000E+00 0. -1.
</event>
<event>
 7    1  0.1369731E-013  0.5052886E+02  0.7816164E-02  0.1300439E+00
        -11   -1    0    0    0    0  0.00000000000E+00  0.00000000000E+00  0.45593999997E+02  0.45594000000E+02  0.51100000000E-03 0.  1.
         11   -1    0    0    0    0 -0.00000000000E+00 -0.00000000000E+00 -0.45593999997E+02  0.45594000000E+02  0.51100000000E-03 0. -1.
    9900012    2    1    2    0    0  0.12662273187E+02 -0.38532395347E+02  0.28437261221E+01  0.50528862875E+02  0.30000009196E+02 0.  0.
         12    1    1    2    0    0 -0.12662273187E+02  0.38532395347E+02 -0.28437261221E+01  0.40659137125E+02  0.00000000000E+00 0. -1.
         11    1    3    3    0    0  0.37018945526E+01 -0.93187281532E+01 -0.12083642425E+02  0.15702137822E+02  0.51100000000E-03 0. -1.
        -11    1    3    3    0    0  0.74175287196E+01 -0.20961926281E+02  0.14238589343E+02  0.26403778375E+02  0.51100000000E-03 0.  1.
         12    1    3    3    0    0  0.15428499150E+01 -0.82517409131E+01  0.68877920373E+00  0.84229466784E+01  0.00000000000E+00 0. -1.
</event>
<event>
 7    1  0.1369731E-013  0.5052886E+02  0.7816164E-02  0.1300439E+00
        -11   -1    0    0    0    0  0.00000000000E+00  0.00000000000E+00  0.45593999997E+02  0.45594000000E+02  0.51100000000E-03 0. -1.
         11   -1    0    0    0    0 -0.00000000000E+00 -0.00000000000E+00 -0.45593999997E+02  0.45594000000E+02  0.51100000000E-03 0.  1.
    9900012    2    1    2    0    0 -0.77353048031E+01  0.23289726438E+02 -0.32417884216E+02  0.50528861851E+02  0.30000006083E+02 0.  0.
         12    1    1    2    0    0  0.77353048031E+01 -0.23289726438E+02  0.32417884216E+02  0.40659138149E+02  0.00000000000E+00 0. -1.
         11    1    3    3    0    0  0.34401106945E+01 -0.14449480031E+01 -0.16691468929E+02  0.17103431574E+02  0.51100000000E-03 0. -1.
        -11    1    3    3    0    0 -0.11498628013E+02  0.25775340192E+02 -0.15777667160E+02  0.32334523183E+02  0.51100000000E-03 0.  1.
        -12    1    3    3    0    0  0.32321251507E+00 -0.10406657509E+01  0.51251873375E-01  0.10909070948E+01  0.00000000000E+00 0.  1.
</event>
<event>
 7    1  0.1369731E-013  0.5052887E+02  0.7816164E-02  0.1300439E+00
        -11   -1    0    0    0    0  0.00000000000E+00  0.00000000000E+00  0.45593999997E+02  0.45594000000E+02  0.51100000000E-03 0. -1.
         11   -1    0    0    0    0 -0.00000000000E+00 -0.00000000000E+00 -0.45593999997E+02  0.45594000000E+02  0.51100000000E-03 0.  1.
    9900012    2    1    2    0    0 -0.18826785001E+02 -0.67319044391E-01 -0.36037657045E+02  0.50528867070E+02  0.30000021946E+02 0.  0.
         12    1    1    2    0    0  0.18826785001E+02  0.67319044391E-01  0.36037657045E+02  0.40659132930E+02  0.00000000000E+00 0. -1.
         11    1    3    3    0    0 -0.39631110806E+01  0.14006084107E+02 -0.14837617870E+02  0.20785368550E+02  0.51100000000E-03 0. -1.
        -11    1    3    3    0    0 -0.34109957649E+01 -0.55795000168E+01 -0.77715915577E+01  0.10156935962E+02  0.51100000000E-03 0.  1.
         12    1    3    3    0    0 -0.11452678156E+02 -0.84939031348E+01 -0.13428447617E+02  0.19586562557E+02  0.00000000000E+00 0. -1.
</event>
<event>
 7    1  0.1369731E-013  0.5052886E+02  0.7816164E-02  0.1300439E+00
        -11   -1    0    0    0    0  0.00000000000E+00  0.00000000000E+00  0.45593999997E+02  0.45594000000E+02  0.51100000000E-03 0.  1.
         11   -1    0    0    0    0 -0.00000000000E+00 -0.00000000000E+00 -0.45593999997E+02  0.45594000000E+02  0.51100000000E-03 0. -1.
    9900012    2    1    2    0    0 -0.35147563192E+02 -0.20052605299E+02  0.39632968784E+01  0.50528857120E+02  0.29999991701E+02 0.  0.
         12    1    1    2    0    0  0.35147563192E+02  0.20052605299E+02 -0.39632968784E+01  0.40659142880E+02  0.00000000000E+00 0. -1.
         11    1    3    3    0    0 -0.14014566024E+02 -0.79332812696E+00  0.58257439791E+00  0.14049086217E+02  0.51100000000E-03 0. -1.
        -11    1    3    3    0    0 -0.15432675159E+02 -0.20072050900E+02 -0.54868700754E+01  0.25906764240E+02  0.51100000000E-03 0.  1.
        -12    1    3    3    0    0 -0.57003220092E+01  0.81277372840E+00  0.88675925559E+01  0.10573006662E+02  0.00000000000E+00 0.  1.
</event>
<event>
 7    1  0.1369731E-013  0.5052886E+02  0.7816164E-02  0.1300439E+00
        -11   -1    0    0    0    0  0.00000000000E+00  0.00000000000E+00  0.45593999997E+02  0.45594000000E+02  0.51100000000E-03 0. -1.
         11   -1    0    0    0    0 -0.00000000000E+00 -0.00000000000E+00 -0.45593999997E+02  0.45594000000E+02  0.51100000000E-03 0.  1.
    9900012    2    1    2    0    0 -0.18327907102E+02 -0.23818564674E+02 -0.27384837148E+02  0.50528861944E+02  0.30000006365E+02 0.  0.
         12    1    1    2    0    0  0.18327907102E+02  0.23818564674E+02  0.27384837148E+02  0.40659138056E+02  0.00000000000E+00 0. -1.
         11    1    3    3    0    0  0.40278942519E+01  0.33113612296E+01 -0.98801377337E+01  0.11171668058E+02  0.51100000000E-03 0. -1.
        -11    1    3    3    0    0 -0.11057259151E+02 -0.12806935540E+02 -0.98084878354E+01  0.19557275161E+02  0.51100000000E-03 0.  1.
         12    1    3    3    0    0 -0.11298542203E+02 -0.14322990363E+02 -0.76962115785E+01  0.19799918725E+02  0.00000000000E+00 0. -1.
</event>
<event>
 7    1  0.1369731E-013  0.5052882E+02  0.7816164E-02  0.1300439E+00
        -11   -1    0    0    0    0  0.00000000000E+00  0.00000000000E+00  0.45593999997E+02  0.45594000000E+02  0.51100000000E-03 0. -1.
         11   -1    0    0    0    0 -0.00000000000E+00 -0.00000000000E+00 -0.45593999997E+02  0.45594000000E+02  0.51100000000E-03 0.  1.
    9900012    2    1    2    0    0  0.54341611363E+01 -0.11869212009E+02  0.38506625886E+02  0.50528824675E+02  0.29999893082E+02 0.  0.
        -12    1    1    2    0    0 -0.54341611363E+01  0.11869212009E+02 -0.38506625886E+02  0.40659175325E+02  0.00000000000E+00 0.  1.
         11    1    3    3    0    0  0.65450327706E+01 -0.86501959452E+00  0.59236880477E+01  0.88699376106E+01  0.51100000000E-03 0. -1.
        -11    1    3    3    0    0 -0.27495129902E+00 -0.18088052271E+02  0.27434633936E+02  0.32862020216E+02  0.51100000000E-03 0.  1.
        -12    1    3    3    0    0 -0.83592033530E+00  0.70838598572E+01  0.51483039025E+01  0.87968668488E+01  0.00000000000E+00 0.  1.
</event>
<event>
 7    1  0.1369731E-013  0.5052886E+02  0.7816164E-02  0.1300439E+00
        -11   -1    0    0    0    0  0.00000000000E+00  0.00000000000E+00  0.45593999997E+02  0.45594000000E+02  0.51100000000E-03 0. -1.
         11   -1    0    0    0    0 -0.00000000000E+00 -0.00000000000E+00 -0.45593999997E+02  0.45594000000E+02  0.51100000000E-03 0.  1.
    9900012    2    1    2    0    0  0.15476944072E+02 -0.18316743943E+02 -0.32834845350E+02  0.50528856187E+02  0.29999988865E+02 0.  0.
         12    1    1    2    0    0 -0.15476944072E+02  0.18316743943E+02  0.32834845350E+02  0.40659143813E+02  0.00000000000E+00 0. -1.
         11    1    3    3    0    0  0.11946981803E+02 -0.57925899649E+01 -0.36702340513E+01  0.13775162102E+02  0.51100000000E-03 0. -1.
        -11    1    3    3    0    0 -0.48549090465E+01  0.15015803003E+01 -0.12115056152E+02  0.13137711790E+02  0.51100000000E-03 0.  1.
        -12    1    3    3    0    0  0.83848713160E+01 -0.14025734278E+02 -0.17049555147E+02  0.23615982294E+02  0.00000000000E+00 0.  1.
</event>
<event>
 7    1  0.1369731E-013  0.5052889E+02  0.7816164E-02  0.1300439E+00
        -11   -1    0    0    0    0  0.00000000000E+00  0.00000000000E+00  0.45593999997E+02  0.45594000000E+02  0.51100000000E-03 0. -1.
         11   -1    0    0    0    0 -0.00000000000E+00 -0.00000000000E+00 -0.45593999997E+02  0.45594000000E+02  0.51100000000E-03 0.  1.
    9900012    2    1    2    0    0  0.24757892563E+02 -0.14594889763E+02 -0.28761069116E+02  0.50528890959E+02  0.30000094557E+02 0.  0.
         12    1    1    2    0    0 -0.24757892563E+02  0.14594889763E+02  0.28761069116E+02  0.40659109041E+02  0.00000000000E+00 0. -1.
         11    1    3    3    0    0  0.16760375563E+00  0.55358029928E+01 -0.13962060525E+02  0.15020397470E+02  0.51100000000E-03 0. -1.
        -11    1    3    3    0    0  0.93534866937E+01 -0.10006778417E+02 -0.40191264848E+01  0.14275037848E+02  0.51100000000E-03 0.  1.
         12    1    3    3    0    0  0.15236802113E+02 -0.10123914339E+02 -0.10779882106E+02  0.21233455640E+02  0.00000000000E+00 0. -1.
</event>
<event>
 7    1  0.1369731E-013  0.5052886E+02  0.7816164E-02  0.1300439E+00
        -11   -1    0    0    0    0  0.00000000000E+00  0.00000000000E+00  0.45593999997E+02  0.45594000000E+02  0.51100000000E-03 0. -1.
         11   -1    0    0    0    0 -0.00000000000E+00 -0.00000000000E+00 -0.45593999997E+02  0.45594000000E+02  0.51100000000E-03 0.  1.
    9900012    2    1    2    0    0  0.29828981325E+02  0.27100301385E+02  0.53825203037E+01  0.50528856048E+02  0.29999988443E+02 0.  0.
         12    1    1    2    0    0 -0.29828981325E+02 -0.27100301385E+02 -0.53825203037E+01  0.40659143952E+02  0.00000000000E+00 0. -1.
         11    1    3    3    0    0  0.83567089441E+01 -0.61731922206E+01 -0.22533069390E+00  0.10391999844E+02  0.51100000000E-03 0. -1.
        -11    1    3    3    0    0  0.13647387435E+02  0.20962843755E+02  0.18995278293E+01  0.25085856739E+02  0.51100000000E-03 0.  1.
         12    1    3    3    0    0  0.78248849467E+01  0.12310649851E+02  0.37083231683E+01  0.15050999465E+02  0.00000000000E+00 0. -1.
</event>
<event>
 7    1  0.1369731E-013  0.5052886E+02  0.7816164E-02  0.1300439E+00
        -11   -1    0    0    0    0  0.00000000000E+00  0.00000000000E+00  0.45593999997E+02  0.45594000000E+02  0.51100000000E-03 0. -1.
         11   -1    0    0    0    0 -0.00000000000E+00 -0.00000000000E+00 -0.45593999997E+02  0.45594000000E+02  0.51100000000E-03 0.  1.
    9900012    2    1    2    0    0 -0.96794468316E+00 -0.88664725656E+01 -0.39668811333E+02  0.50528857791E+02  0.29999993740E+02 0.  0.
         12    1    1    2    0    0  0.96794468316E+00  0.88664725656E+01  0.39668811333E+02  0.40659142209E+02  0.00000000000E+00 0. -1.
         11    1    3    3    0    0  0.27849395545E+01  0.89966757604E+01 -0.11960088796E+02  0.15223001916E+02  0.51100000000E-03 0. -1.
        -11    1    3    3    0    0  0.14098380653E+01 -0.16008047311E+02 -0.17808013191E+02  0.23986883001E+02  0.51100000000E-03 0.  1.
         12    1    3    3    0    0 -0.51627223029E+01 -0.18551010155E+01 -0.99007093462E+01  0.11318972874E+02  0.00000000000E+00 0. -1.
</event>
<event>
 7    1  0.1369731E-013  0.5052886E+02  0.7816164E-02  0.1300439E+00
        -11   -1    0    0    0    0  0.00000000000E+00  0.00000000000E+00  0.45593999997E+02  0.45594000000E+02  0.51100000000E-03 0. -1.
         11   -1    0    0    0    0 -0.00000000000E+00 -0.00000000000E+00 -0.45593999997E+02  0.45594000000E+02  0.51100000000E-03 0.  1.
    9900012    2    1    2    0    0 -0.30946667513E+02  0.24763666359E+02  0.90680837891E+01  0.50528861479E+02  0.30000004950E+02 0.  0.
        -12    1    1    2    0    0  0.30946667513E+02 -0.24763666359E+02 -0.90680837891E+01  0.40659138521E+02  0.00000000000E+00 0.  1.
         11    1    3    3    0    0 -0.15232490477E+02  0.39844285675E+01 -0.69301936796E+01  0.17202674845E+02  0.51100000000E-03 0. -1.
        -11    1    3    3    0    0 -0.68423869468E+01  0.16348964889E+02  0.47861172887E+01  0.18357936459E+02  0.51100000000E-03 0.  1.
         12    1    3    3    0    0 -0.88717900891E+01  0.44302729030E+01  0.11212160180E+02  0.14968250174E+02  0.00000000000E+00 0. -1.
</event>
<event>
 7    1  0.1369731E-013  0.5052886E+02  0.7816164E-02  0.1300439E+00
        -11   -1    0    0    0    0  0.00000000000E+00  0.00000000000E+00  0.45593999997E+02  0.45594000000E+02  0.51100000000E-03 0. -1.
         11   -1    0    0    0    0 -0.00000000000E+00 -0.00000000000E+00 -0.45593999997E+02  0.45594000000E+02  0.51100000000E-03 0.  1.
    9900012    2    1    2    0    0 -0.25681042900E+02 -0.96465642314E+01 -0.30009888269E+02  0.50528861300E+02  0.30000004408E+02 0.  0.
         12    1    1    2    0    0  0.25681042900E+02  0.96465642314E+01  0.30009888269E+02  0.40659138700E+02  0.00000000000E+00 0. -1.
         11    1    3    3    0    0 -0.61591370977E+01 -0.11279844828E+01  0.30567701404E+01  0.69678664406E+01  0.51100000000E-03 0. -1.
        -11    1    3    3    0    0 -0.19987523659E+02 -0.47990053510E+01 -0.33970013009E+02  0.39705079505E+02  0.51100000000E-03 0.  1.
        -12    1    3    3    0    0  0.46561785746E+00 -0.37195743975E+01  0.90335459977E+00  0.38559153545E+01  0.00000000000E+00 0.  1.
</event>
<event>
 7    1  0.1369731E-013  0.5052886E+02  0.7816164E-02  0.1300439E+00
        -11   -1    0    0    0    0  0.00000000000E+00  0.00000000000E+00  0.45593999997E+02  0.45594000000E+02  0.51100000000E-03 0. -1.
         11   -1    0    0    0    0 -0.00000000000E+00 -0.00000000000E+00 -0.45593999997E+02  0.45594000000E+02  0.51100000000E-03 0.  1.
    9900012    2    1    2    0    0  0.17188073302E+02  0.83790626852E+01  0.35882122484E+02  0.50528864873E+02  0.30000015268E+02 0.  0.
        -12    1    1    2    0    0 -0.17188073302E+02 -0.83790626852E+01 -0.35882122484E+02  0.40659135127E+02  0.00000000000E+00 0.  1.
         11    1    3    3    0    0  0.97742266290E-01  0.29156508722E+01  0.25868411392E+02  0.26032389091E+02  0.51100000000E-03 0. -1.
        -11    1    3    3    0    0  0.13346218659E+02  0.58973536757E+01  0.13112287537E+02  0.19617146010E+02  0.51100000000E-03 0.  1.
         12    1    3    3    0    0  0.37441123769E+01 -0.43394186263E+00 -0.30985764455E+01  0.48793297715E+01  0.00000000000E+00 0. -1.
</event>
<event>
 7    1  0.1369731E-013  0.5052886E+02  0.7816164E-02  0.1300439E+00
        -11   -1    0    0    0    0  0.00000000000E+00  0.00000000000E+00  0.45593999997E+02  0.45594000000E+02  0.51100000000E-03 0. -1.
         11   -1    0    0    0    0 -0.00000000000E+00 -0.00000000000E+00 -0.45593999997E+02  0.45594000000E+02  0.51100000000E-03 0.  1.
    9900012    2    1    2    0    0  0.31427996330E+02  0.14438515141E+01  0.25755820243E+02  0.50528856663E+02  0.29999990313E+02 0.  0.
        -12    1    1    2    0    0 -0.31427996330E+02 -0.14438515141E+01 -0.25755820243E+02  0.40659143337E+02  0.00000000000E+00 0.  1.
         11    1    3    3    0    0  0.27822491363E+02  0.24371693330E+01  0.24128154055E+02  0.36907975268E+02  0.51100000000E-03 0. -1.
        -11    1    3    3    0    0  0.15869723732E+01 -0.57770239131E+01 -0.29689928271E+01  0.66863596429E+01  0.51100000000E-03 0.  1.
        -12    1    3    3    0    0  0.20185325932E+01  0.47837060942E+01  0.45966590156E+01  0.69345217521E+01  0.00000000000E+00 0.  1.
</event>
<event>
 7    1  0.1369731E-013  0.5052886E+02  0.7816164E-02  0.1300439E+00
        -11   -1    0    0    0    0  0.00000000000E+00  0.00000000000E+00  0.45593999997E+02  0.45594000000E+02  0.51100000000E-03 0. -1.
         11   -1    0    0    0    0 -0.00000000000E+00 -0.00000000000E+00 -0.45593999997E+02  0.45594000000E+02  0.51100000000E-03 0.  1.
    9900012    2    1    2    0    0 -0.12139491741E+02  0.34252021685E+02 -0.18237257039E+02  0.50528858427E+02  0.29999995673E+02 0.  0.
         12    1    1    2    0    0  0.12139491741E+02 -0.34252021685E+02  0.18237257039E+02  0.40659141573E+02  0.00000000000E+00 0. -1.
         11    1    3    3    0    0  0.53526120162E+01  0.15394132130E+02 -0.10732520474E+02  0.19514526779E+02  0.51100000000E-03 0. -1.
        -11    1    3    3    0    0 -0.61829587657E+01 -0.10034989494E+01  0.15133389698E+01  0.64440813417E+01  0.51100000000E-03 0.  1.
        -12    1    3    3    0    0 -0.11309144991E+02  0.19861388504E+02 -0.90180755345E+01  0.24570250305E+02  0.00000000000E+00 0.  1.
</event>
<event>
 7    1  0.1369731E-013  0.5052886E+02  0.7816164E-02  0.1300439E+00
        -11   -1    0    0    0    0  0.00000000000E+00  0.00000000000E+00  0.45593999997E+02  0.45594000000E+02  0.51100000000E-03 0. -1.
         11   -1    0    0    0    0 -0.00000000000E+00 -0.00000000000E+00 -0.45593999997E+02  0.45594000000E+02  0.51100000000E-03 0.  1.
    9900012    2    1    2    0    0 -0.18885650852E+02 -0.14642525310E+02  0.32895204043E+02  0.50528858290E+02  0.29999995259E+02 0.  0.
        -12    1    1    2    0    0  0.18885650852E+02  0.14642525310E+02 -0.32895204043E+02  0.40659141710E+02  0.00000000000E+00 0.  1.
         11    1    3    3    0    0 -0.74258376958E+00 -0.17742333617E+02  0.12671961587E+02  0.21815600921E+02  0.51100000000E-03 0. -1.
        -11    1    3    3    0    0 -0.85369336255E+01  0.82096834788E+00  0.34378938139E+01  0.92397153036E+01  0.51100000000E-03 0.  1.
         12    1    3    3    0    0 -0.96061334569E+01  0.22788399591E+01  0.16785348642E+02  0.19473542065E+02  0.00000000000E+00 0. -1.
</event>
<event>
 7    1  0.1369731E-013  0.5052886E+02  0.7816164E-02  0.1300439E+00
        -11   -1    0    0    0    0  0.00000000000E+00  0.00000000000E+00  0.45593999997E+02  0.45594000000E+02  0.51100000000E-03 0. -1.
         11   -1    0    0    0    0 -0.00000000000E+00 -0.00000000000E+00 -0.45593999997E+02  0.45594000000E+02  0.51100000000E-03 0.  1.
    9900012    2    1    2    0    0 -0.31506336922E+02  0.13644662652E+02 -0.21779336843E+02  0.50528860825E+02  0.30000002963E+02 0.  0.
         12    1    1    2    0    0  0.31506336922E+02 -0.13644662652E+02  0.21779336843E+02  0.40659139175E+02  0.00000000000E+00 0. -1.
         11    1    3    3    0    0  0.49719809467E+01  0.43948792912E+01  0.22919011917E+00  0.66398860600E+01  0.51100000000E-03 0. -1.
        -11    1    3    3    0    0 -0.32790945070E+02  0.70012794189E+01 -0.18314555729E+02  0.38205849603E+02  0.51100000000E-03 0.  1.
        -12    1    3    3    0    0 -0.36873727992E+01  0.22485039418E+01 -0.36939712324E+01  0.56831251616E+01  0.00000000000E+00 0.  1.
</event>
<event>
 7    1  0.1369731E-013  0.5052886E+02  0.7816164E-02  0.1300439E+00
        -11   -1    0    0    0    0  0.00000000000E+00  0.00000000000E+00  0.45593999997E+02  0.45594000000E+02  0.51100000000E-03 0. -1.
         11   -1    0    0    0    0 -0.00000000000E+00 -0.00000000000E+00 -0.45593999997E+02  0.45594000000E+02  0.51100000000E-03 0.  1.
    9900012    2    1    2    0    0 -0.43568020881E+01 -0.29961580534E+02 -0.27138302255E+02  0.50528862259E+02  0.30000007323E+02 0.  0.
         12    1    1    2    0    0  0.43568020881E+01  0.29961580534E+02  0.27138302255E+02  0.40659137741E+02  0.00000000000E+00 0. -1.
         11    1    3    3    0    0 -0.77384697603E+00  0.33183978274E+01 -0.12599882153E+02  0.13052495310E+02  0.51100000000E-03 0. -1.
        -11    1    3    3    0    0 -0.25509191889E+01 -0.14898543375E+02 -0.11086294852E+02  0.18745125159E+02  0.51100000000E-03 0.  1.
         12    1    3    3    0    0 -0.10320359232E+01 -0.18381434986E+02 -0.34521252511E+01  0.18731241791E+02  0.00000000000E+00 0. -1.
</event>
<event>
 7    1  0.1369731E-013  0.5052880E+02  0.7816164E-02  0.1300439E+00
        -11   -1    0    0    0    0  0.00000000000E+00  0.00000000000E+00  0.45593999997E+02  0.45594000000E+02  0.51100000000E-03 0. -1.
         11   -1    0    0    0    0 -0.00000000000E+00 -0.00000000000E+00 -0.45593999997E+02  0.45594000000E+02  0.51100000000E-03 0.  1.
    9900012    2    1    2    0    0 -0.29335182259E+02 -0.21976370519E+02 -0.17597058278E+02  0.50528803754E+02  0.29999829491E+02 0.  0.
         12    1    1    2    0    0  0.29335182259E+02  0.21976370519E+02  0.17597058278E+02  0.40659196246E+02  0.00000000000E+00 0. -1.
         11    1    3    3    0    0 -0.63039845396E+00 -0.13685924083E+02  0.95354675131E+00  0.13733578262E+02  0.51100000000E-03 0. -1.
        -11    1    3    3    0    0 -0.14931110944E+02 -0.74768736712E+01 -0.49394031488E+01  0.17413770920E+02  0.51100000000E-03 0.  1.
         12    1    3    3    0    0 -0.13773672860E+02 -0.81357276439E+00 -0.13611201880E+02  0.19381454572E+02  0.00000000000E+00 0. -1.
</event>
<event>
 7    1  0.1369731E-013  0.5052886E+02  0.7816164E-02  0.1300439E+00
        -11   -1    0    0    0    0  0.00000000000E+00  0.00000000000E+00  0.45593999997E+02  0.45594000000E+02  0.51100000000E-03 0. -1.
         11   -1    0    0    0    0 -0.00000000000E+00 -0.00000000000E+00 -0.45593999997E+02  0.45594000000E+02  0.51100000000E-03 0.  1.
    9900012    2    1    2    0    0 -0.33033353912E+01  0.75309077215E+01  0.39818831605E+02  0.50528856548E+02  0.29999989964E+02 0.  0.
        -12    1    1    2    0    0  0.33033353912E+01 -0.75309077215E+01 -0.39818831605E+02  0.40659143452E+02  0.00000000000E+00 0.  1.
         11    1    3    3    0    0  0.19677637947E+01  0.17120454969E+01  0.17688746874E+02  0.17880015671E+02  0.51100000000E-03 0. -1.
        -11    1    3    3    0    0 -0.21738447902E+01 -0.35878753760E+01 -0.33134946256E+01  0.53458112369E+01  0.51100000000E-03 0.  1.
        -12    1    3    3    0    0 -0.30972543957E+01  0.94067376007E+01  0.25443579357E+02  0.27303029641E+02  0.00000000000E+00 0.  1.
</event>
<event>
 7    1  0.1369731E-013  0.5052887E+02  0.7816164E-02  0.1300439E+00
        -11   -1    0    0    0    0  0.00000000000E+00  0.00000000000E+00  0.45593999997E+02  0.45594000000E+02  0.51100000000E-03 0. -1.
         11   -1    0    0    0    0 -0.00000000000E+00 -0.00000000000E+00 -0.45593999997E+02  0.45594000000E+02  0.51100000000E-03 0.  1.
    9900012    2    1    2    0    0  0.21658494946E+02 -0.19353238812E+01 -0.34355921306E+02  0.50528865595E+02  0.30000017461E+02 0.  0.
         12    1    1    2    0    0 -0.21658494946E+02  0.19353238812E+01  0.34355921306E+02  0.40659134405E+02  0.00000000000E+00 0. -1.
         11    1    3    3    0    0 -0.98592496651E+00 -0.45335388173E+01 -0.26587683131E+00  0.46471187846E+01  0.51100000000E-03 0. -1.
        -11    1    3    3    0    0  0.13787671046E+02  0.74993714626E+01 -0.31860583449E+02  0.35516717517E+02  0.51100000000E-03 0.  1.
        -12    1    3    3    0    0  0.88567488664E+01 -0.49011565265E+01 -0.22294610252E+01  0.10365029293E+02  0.00000000000E+00 0.  1.
</event>
<event>
 7    1  0.1369731E-013  0.5052887E+02  0.7816164E-02  0.1300439E+00
        -11   -1    0    0    0    0  0.00000000000E+00  0.00000000000E+00  0.45593999997E+02  0.45594000000E+02  0.51100000000E-03 0.  1.
         11   -1    0    0    0    0 -0.00000000000E+00 -0.00000000000E+00 -0.45593999997E+02  0.45594000000E+02  0.51100000000E-03 0. -1.
    9900012    2    1    2    0    0  0.25861321990E+02 -0.20296978683E+02  0.23924661771E+02  0.50528871141E+02  0.30000034320E+02 0.  0.
        -12    1    1    2    0    0 -0.25861321990E+02  0.20296978683E+02 -0.23924661771E+02  0.40659128859E+02  0.00000000000E+00 0.  1.
         11    1    3    3    0    0  0.80628057967E+01 -0.99578741353E+01 -0.26337061698E+01  0.13080691995E+02  0.51100000000E-03 0. -1.
        -11    1    3    3    0    0  0.15622959740E+02 -0.14614342162E+02  0.23398386008E+02  0.31703948270E+02  0.51100000000E-03 0.  1.
        -12    1    3    3    0    0  0.21755564533E+01  0.42752376148E+01  0.31599819329E+01  0.57442308763E+01  0.00000000000E+00 0.  1.
</event>
<event>
 7    1  0.1369731E-013  0.5052886E+02  0.7816164E-02  0.1300439E+00
        -11   -1    0    0    0    0  0.00000000000E+00  0.00000000000E+00  0.45593999997E+02  0.45594000000E+02  0.51100000000E-03 0. -1.
         11   -1    0    0    0    0 -0.00000000000E+00 -0.00000000000E+00 -0.45593999997E+02  0.45594000000E+02  0.51100000000E-03 0.  1.
    9900012    2    1    2    0    0 -0.36194577341E+02  0.98829794212E+01  0.15666694200E+02  0.50528855662E+02  0.29999987270E+02 0.  0.
        -12    1    1    2    0    0  0.36194577341E+02 -0.98829794212E+01 -0.15666694200E+02  0.40659144338E+02  0.00000000000E+00 0.  1.
         11    1    3    3    0    0 -0.30100998614E+02  0.12773309559E+02  0.61853743021E+01  0.33278918405E+02  0.51100000000E-03 0. -1.
        -11    1    3    3    0    0 -0.17852420355E+01  0.45385849739E+01  0.65694198862E+01  0.81818775714E+01  0.51100000000E-03 0.  1.
         12    1    3    3    0    0 -0.43083366916E+01 -0.74289151118E+01  0.29119000118E+01  0.90680596858E+01  0.00000000000E+00 0. -1.
</event>
<event>
 7    1  0.1369731E-013  0.5052876E+02  0.7816164E-02  0.1300439E+00
        -11   -1    0    0    0    0  0.00000000000E+00  0.00000000000E+00  0.45593999997E+02  0.45594000000E+02  0.51100000000E-03 0. -1.
         11   -1    0    0    0    0 -0.00000000000E+00 -0.00000000000E+00 -0.45593999997E+02  0.45594000000E+02  0.51100000000E-03 0.  1.
    9900012    2    1    2    0    0  0.76303781914E+01 -0.21972505671E+02  0.33349059195E+02  0.50528764567E+02  0.29999710376E+02 0.  0.
        -12    1    1    2    0    0 -0.76303781914E+01  0.21972505671E+02 -0.33349059195E+02  0.40659235433E+02  0.00000000000E+00 0.  1.
         11    1    3    3    0    0  0.52566142138E+01  0.26711303520E+01  0.25274584845E+01  0.64152144938E+01  0.51100000000E-03 0. -1.
        -11    1    3    3    0    0 -0.43301463736E+01 -0.17527992413E+02  0.29011935887E+02  0.34171232196E+02  0.51100000000E-03 0.  1.
        -12    1    3    3    0    0  0.67039103512E+01 -0.71156436108E+01  0.18096648233E+01  0.99423178770E+01  0.00000000000E+00 0.  1.
</event>
<event>
 7    1  0.1369731E-013  0.5052886E+02  0.7816164E-02  0.1300439E+00
        -11   -1    0    0    0    0  0.00000000000E+00  0.00000000000E+00  0.45593999997E+02  0.45594000000E+02  0.51100000000E-03 0. -1.
         11   -1    0    0    0    0 -0.00000000000E+00 -0.00000000000E+00 -0.45593999997E+02  0.45594000000E+02  0.51100000000E-03 0.  1.
    9900012    2    1    2    0    0 -0.17380056070E+02 -0.29038650279E+02  0.22535659280E+02  0.50528862058E+02  0.30000006711E+02 0.  0.
        -12    1    1    2    0    0  0.17380056070E+02  0.29038650279E+02 -0.22535659280E+02  0.40659137942E+02  0.00000000000E+00 0.  1.
         11    1    3    3    0    0 -0.56439317433E+01 -0.20617688356E+02  0.26593679023E+02  0.34119888671E+02  0.51100000000E-03 0. -1.
        -11    1    3    3    0    0 -0.84721806285E+01 -0.23435897174E+01 -0.35885494702E+01  0.94946271610E+01  0.51100000000E-03 0.  1.
         12    1    3    3    0    0 -0.32639436983E+01 -0.60773722059E+01 -0.46947027304E+00  0.69143462259E+01  0.00000000000E+00 0. -1.
</event>
<event>
 7    1  0.1369731E-013  0.5052881E+02  0.7816164E-02  0.1300439E+00
        -11   -1    0    0    0    0  0.00000000000E+00  0.00000000000E+00  0.45593999997E+02  0.45594000000E+02  0.51100000000E-03 0. -1.
         11   -1    0    0    0    0 -0.00000000000E+00 -0.00000000000E+00 -0.45593999997E+02  0.45594000000E+02  0.51100000000E-03 0.  1.
    9900012    2    1    2    0    0 -0.27026017852E+02 -0.22554452145E+02  0.20348491279E+02  0.50528806084E+02  0.29999836574E+02 0.  0.
        -12    1    1    2    0    0  0.27026017852E+02  0.22554452145E+02 -0.20348491279E+02  0.40659193916E+02  0.00000000000E+00 0.  1.
         11    1    3    3    0    0 -0.82709971747E+01 -0.24833142272E+01  0.10846118020E+02  0.13864145130E+02  0.51100000000E-03 0. -1.
        -11    1    3    3    0    0 -0.20760804274E+02 -0.23196372826E+02  0.63003035328E+01  0.31761242596E+02  0.51100000000E-03 0.  1.
        -12    1    3    3    0    0  0.20057835961E+01  0.31252349082E+01  0.32020697263E+01  0.49034183585E+01  0.00000000000E+00 0.  1.
</event>
<event>
 7    1  0.1369731E-013  0.5052886E+02  0.7816164E-02  0.1300439E+00
        -11   -1    0    0    0    0  0.00000000000E+00  0.00000000000E+00  0.45593999997E+02  0.45594000000E+02  0.51100000000E-03 0. -1.
         11   -1    0    0    0    0 -0.00000000000E+00 -0.00000000000E+00 -0.45593999997E+02  0.45594000000E+02  0.51100000000E-03 0.  1.
    9900012    2    1    2    0    0  0.19692797807E+02 -0.29741181429E+02  0.19514645310E+02  0.50528861546E+02  0.30000005155E+02 0.  0.
        -12    1    1    2    0    0 -0.19692797807E+02  0.29741181429E+02 -0.19514645310E+02  0.40659138454E+02  0.00000000000E+00 0.  1.
         11    1    3    3    0    0  0.87576587006E+01  0.30354761167E+01  0.27320104849E+01  0.96630524537E+01  0.51100000000E-03 0. -1.
        -11    1    3    3    0    0 -0.30932203118E+01 -0.90801826659E+01  0.58616386315E+01  0.11241731933E+02  0.51100000000E-03 0.  1.
         12    1    3    3    0    0  0.14028359418E+02 -0.23696474880E+02  0.10920996194E+02  0.29624077159E+02  0.00000000000E+00 0. -1.
</event>
<event>
 7    1  0.1369731E-013  0.5052886E+02  0.7816164E-02  0.1300439E+00
        -11   -1    0    0    0    0  0.00000000000E+00  0.00000000000E+00  0.45593999997E+02  0.45594000000E+02  0.51100000000E-03 0. -1.
         11   -1    0    0    0    0 -0.00000000000E+00 -0.00000000000E+00 -0.45593999997E+02  0.45594000000E+02  0.51100000000E-03 0.  1.
    9900012    2    1    2    0    0 -0.17035745713E+02 -0.29904552230E+02  0.21648720605E+02  0.50528856134E+02  0.29999988705E+02 0.  0.
        -12    1    1    2    0    0  0.17035745713E+02  0.29904552230E+02 -0.21648720605E+02  0.40659143866E+02  0.00000000000E+00 0.  1.
         11    1    3    3    0    0 -0.11905409689E+02 -0.55831730604E+01 -0.23208632563E+01  0.13352790263E+02  0.51100000000E-03 0.  1.
        -11    1    3    3    0    0 -0.22358850231E+01 -0.15864368993E+02  0.23213689621E+02  0.28205545048E+02  0.51100000000E-03 0. -1.
         12    1    3    3    0    0 -0.28944510005E+01 -0.84570101769E+01  0.75589423956E+00  0.89705208225E+01  0.00000000000E+00 0. -1.
</event>
<event>
 7    1  0.1369731E-013  0.5052885E+02  0.7816164E-02  0.1300439E+00
        -11   -1    0    0    0    0  0.00000000000E+00  0.00000000000E+00  0.45593999997E+02  0.45594000000E+02  0.51100000000E-03 0. -1.
         11   -1    0    0    0    0 -0.00000000000E+00 -0.00000000000E+00 -0.45593999997E+02  0.45594000000E+02  0.51100000000E-03 0.  1.
    9900012    2    1    2    0    0  0.17889083905E+02  0.54886786205E+01 -0.36097385258E+02  0.50528854184E+02  0.29999982779E+02 0.  0.
         12    1    1    2    0    0 -0.17889083905E+02 -0.54886786205E+01  0.36097385258E+02  0.40659145816E+02  0.00000000000E+00 0. -1.
         11    1    3    3    0    0  0.15671794245E+02 -0.89690566217E+01 -0.17147850730E+02  0.24901764927E+02  0.51100000000E-03 0. -1.
        -11    1    3    3    0    0 -0.27520401211E+01  0.10618192199E+01 -0.28482896453E+01  0.41004803437E+01  0.51100000000E-03 0.  1.
         12    1    3    3    0    0  0.49693297812E+01  0.13395916022E+02 -0.16101244883E+02  0.21526608914E+02  0.00000000000E+00 0. -1.
</event>
<event>
 7    1  0.1369731E-013  0.5052885E+02  0.7816164E-02  0.1300439E+00
        -11   -1    0    0    0    0  0.00000000000E+00  0.00000000000E+00  0.45593999997E+02  0.45594000000E+02  0.51100000000E-03 0. -1.
         11   -1    0    0    0    0 -0.00000000000E+00 -0.00000000000E+00 -0.45593999997E+02  0.45594000000E+02  0.51100000000E-03 0.  1.
    9900012    2    1    2    0    0 -0.11683769400E+02 -0.15118315587E+01  0.38914913619E+02  0.50528848459E+02  0.29999965377E+02 0.  0.
        -12    1    1    2    0    0  0.11683769400E+02  0.15118315587E+01 -0.38914913619E+02  0.40659151541E+02  0.00000000000E+00 0.  1.
         11    1    3    3    0    0  0.28128772614E+01  0.63840717860E+00  0.31952910561E+02  0.32082835532E+02  0.51100000000E-03 0. -1.
        -11    1    3    3    0    0 -0.44255622979E+01 -0.49265963536E+01  0.30463102186E+01  0.72895102369E+01  0.51100000000E-03 0.  1.
         12    1    3    3    0    0 -0.10071084363E+02  0.27763576162E+01  0.39156928394E+01  0.11156502690E+02  0.00000000000E+00 0. -1.
</event>
<event>
 7    1  0.1369731E-013  0.5052886E+02  0.7816164E-02  0.1300439E+00
        -11   -1    0    0    0    0  0.00000000000E+00  0.00000000000E+00  0.45593999997E+02  0.45594000000E+02  0.51100000000E-03 0. -1.
         11   -1    0    0    0    0 -0.00000000000E+00 -0.00000000000E+00 -0.45593999997E+02  0.45594000000E+02  0.51100000000E-03 0.  1.
    9900012    2    1    2    0    0 -0.25562930502E+00 -0.17184130766E+02  0.36848413778E+02  0.50528864563E+02  0.30000014326E+02 0.  0.
        -12    1    1    2    0    0  0.25562930502E+00  0.17184130766E+02 -0.36848413778E+02  0.40659135437E+02  0.00000000000E+00 0.  1.
         11    1    3    3    0    0  0.32821588075E+01 -0.17765699340E+02  0.34990148443E+02  0.39378968089E+02  0.51100000000E-03 0. -1.
        -11    1    3    3    0    0 -0.44207878085E+01  0.35135464976E+01  0.44092291020E+01  0.71644731400E+01  0.51100000000E-03 0.  1.
         12    1    3    3    0    0  0.88299969600E+00 -0.29319779238E+01 -0.25509637671E+01  0.39854233338E+01  0.00000000000E+00 0. -1.
</event>
<event>
 7    1  0.1369731E-013  0.5052886E+02  0.7816164E-02  0.1300439E+00
        -11   -1    0    0    0    0  0.00000000000E+00  0.00000000000E+00  0.45593999997E+02  0.45594000000E+02  0.51100000000E-03 0.  1.
         11   -1    0    0    0    0 -0.00000000000E+00 -0.00000000000E+00 -0.45593999997E+02  0.45594000000E+02  0.51100000000E-03 0. -1.
    9900012    2    1    2    0    0  0.23577520157E+02 -0.17013527315E+02 -0.28421930202E+02  0.50528859763E+02  0.29999999734E+02 0.  0.
         12    1    1    2    0    0 -0.23577520157E+02  0.17013527315E+02  0.28421930202E+02  0.40659140237E+02  0.00000000000E+00 0. -1.
         11    1    3    3    0    0  0.61537442300E+01 -0.12315161783E+02 -0.84037982074E+01  0.16129339800E+02  0.51100000000E-03 0. -1.
        -11    1    3    3    0    0  0.20921811742E+02 -0.14905407725E+01 -0.20857072809E+02  0.29579746530E+02  0.51100000000E-03 0.  1.
        -12    1    3    3    0    0 -0.34980358154E+01 -0.32078247596E+01  0.83894081472E+00  0.48197734329E+01  0.00000000000E+00 0.  1.
</event>
<event>
 7    1  0.1369731E-013  0.5052885E+02  0.7816164E-02  0.1300439E+00
        -11   -1    0    0    0    0  0.00000000000E+00  0.00000000000E+00  0.45593999997E+02  0.45594000000E+02  0.51100000000E-03 0. -1.
         11   -1    0    0    0    0 -0.00000000000E+00 -0.00000000000E+00 -0.45593999997E+02  0.45594000000E+02  0.51100000000E-03 0.  1.
    9900012    2    1    2    0    0  0.65959621077E+00 -0.30921962681E+01 -0.40536027614E+02  0.50528852448E+02  0.29999977502E+02 0.  0.
         12    1    1    2    0    0 -0.65959621077E+00  0.30921962681E+01  0.40536027614E+02  0.40659147552E+02  0.00000000000E+00 0. -1.
         11    1    3    3    0    0 -0.44989531199E+01  0.68122826077E+00  0.33346499592E+01  0.56413244660E+01  0.51100000000E-03 0. -1.
        -11    1    3    3    0    0  0.35034833017E+01 -0.12802446142E+00 -0.72981998801E+01  0.80965737976E+01  0.51100000000E-03 0.  1.
         12    1    3    3    0    0  0.16550660290E+01 -0.36454000675E+01 -0.36572477693E+02  0.36790954185E+02  0.00000000000E+00 0. -1.
</event>
<event>
 7    1  0.1369731E-013  0.5052886E+02  0.7816164E-02  0.1300439E+00
        -11   -1    0    0    0    0  0.00000000000E+00  0.00000000000E+00  0.45593999997E+02  0.45594000000E+02  0.51100000000E-03 0. -1.
         11   -1    0    0    0    0 -0.00000000000E+00 -0.00000000000E+00 -0.45593999997E+02  0.45594000000E+02  0.51100000000E-03 0.  1.
    9900012    2    1    2    0    0 -0.21622550314E+02  0.48021993281E+00  0.34429639569E+02  0.50528863584E+02  0.30000011350E+02 0.  0.
        -12    1    1    2    0    0  0.21622550314E+02 -0.48021993281E+00 -0.34429639569E+02  0.40659136416E+02  0.00000000000E+00 0.  1.
         11    1    3    3    0    0  0.20420747223E+01  0.51817126915E+01  0.16070234146E+02  0.17008016973E+02  0.51100000000E-03 0. -1.
        -11    1    3    3    0    0 -0.17051455552E+02  0.17887254828E+01  0.61962220943E+01  0.18230327583E+02  0.51100000000E-03 0.  1.
        -12    1    3    3    0    0 -0.66131694845E+01 -0.64902182415E+01  0.12163183328E+02  0.15290519028E+02  0.00000000000E+00 0.  1.
</event>
<event>
 7    1  0.1369731E-013  0.5052886E+02  0.7816164E-02  0.1300439E+00
        -11   -1    0    0    0    0  0.00000000000E+00  0.00000000000E+00  0.45593999997E+02  0.45594000000E+02  0.51100000000E-03 0. -1.
         11   -1    0    0    0    0 -0.00000000000E+00 -0.00000000000E+00 -0.45593999997E+02  0.45594000000E+02  0.51100000000E-03 0.  1.
    9900012    2    1    2    0    0 -0.52912766766E+01  0.36744387846E+02 -0.16583677762E+02  0.50528855701E+02  0.29999987388E+02 0.  0.
         12    1    1    2    0    0  0.52912766766E+01 -0.36744387846E+02  0.16583677762E+02  0.40659144299E+02  0.00000000000E+00 0. -1.
         11    1    3    3    0    0 -0.12777496409E+01  0.27998006673E+01  0.57384613399E+01  0.65116408632E+01  0.51100000000E-03 0. -1.
        -11    1    3    3    0    0  0.65285106401E-01  0.16769884474E+02 -0.20174891755E+02  0.26234701161E+02  0.51100000000E-03 0.  1.
        -12    1    3    3    0    0 -0.40788121421E+01  0.17174702705E+02 -0.21472473461E+01  0.17782513676E+02  0.00000000000E+00 0.  1.
</event>
<event>
 7    1  0.1369731E-013  0.5052886E+02  0.7816164E-02  0.1300439E+00
        -11   -1    0    0    0    0  0.00000000000E+00  0.00000000000E+00  0.45593999997E+02  0.45594000000E+02  0.51100000000E-03 0. -1.
         11   -1    0    0    0    0 -0.00000000000E+00 -0.00000000000E+00 -0.45593999997E+02  0.45594000000E+02  0.51100000000E-03 0.  1.
    9900012    2    1    2    0    0  0.99482889387E+01  0.32194169703E+02 -0.22753741150E+02  0.50528858937E+02  0.29999997225E+02 0.  0.
         12    1    1    2    0    0 -0.99482889387E+01 -0.32194169703E+02  0.22753741150E+02  0.40659141063E+02  0.00000000000E+00 0. -1.
         11    1    3    3    0    0 -0.25610723234E+01  0.23343966159E+02 -0.19556327472E+02  0.30560592139E+02  0.51100000000E-03 0. -1.
        -11    1    3    3    0    0  0.55367438352E+01 -0.16591770329E+01 -0.44493813342E+01  0.72942028517E+01  0.51100000000E-03 0.  1.
         12    1    3    3    0    0  0.69726174268E+01  0.10509380577E+02  0.12519676562E+01  0.12674063946E+02  0.00000000000E+00 0. -1.
</event>
<event>
 7    1  0.1369731E-013  0.5052886E+02  0.7816164E-02  0.1300439E+00
        -11   -1    0    0    0    0  0.00000000000E+00  0.00000000000E+00  0.45593999997E+02  0.45594000000E+02  0.51100000000E-03 0.  1.
         11   -1    0    0    0    0 -0.00000000000E+00 -0.00000000000E+00 -0.45593999997E+02  0.45594000000E+02  0.51100000000E-03 0. -1.
    9900012    2    1    2    0    0 -0.38604088388E+02 -0.95369021569E+01  0.84816108033E+01  0.50528857549E+02  0.29999993006E+02 0.  0.
         12    1    1    2    0    0  0.38604088388E+02  0.95369021569E+01 -0.84816108033E+01  0.40659142451E+02  0.00000000000E+00 0. -1.
         11    1    3    3    0    0 -0.34500440113E+01 -0.98698979974E+01  0.18060826827E+01  0.10610354616E+02  0.51100000000E-03 0. -1.
        -11    1    3    3    0    0 -0.35077596958E+02 -0.37306971310E+01  0.56312275702E+01  0.35722074879E+02  0.51100000000E-03 0.  1.
        -12    1    3    3    0    0 -0.76447418639E-01  0.40636929715E+01  0.10443005504E+01  0.41964280542E+01  0.00000000000E+00 0.  1.
</event>
<event>
 7    1  0.1369731E-013  0.5052886E+02  0.7816164E-02  0.1300439E+00
        -11   -1    0    0    0    0  0.00000000000E+00  0.00000000000E+00  0.45593999997E+02  0.45594000000E+02  0.51100000000E-03 0. -1.
         11   -1    0    0    0    0 -0.00000000000E+00 -0.00000000000E+00 -0.45593999997E+02  0.45594000000E+02  0.51100000000E-03 0.  1.
    9900012    2    1    2    0    0  0.59842328453E+01 -0.35316016709E+02  0.19238859223E+02  0.50528858554E+02  0.29999996060E+02 0.  0.
        -12    1    1    2    0    0 -0.59842328453E+01  0.35316016709E+02 -0.19238859223E+02  0.40659141446E+02  0.00000000000E+00 0.  1.
         11    1    3    3    0    0  0.96477369114E+01 -0.13431639453E+02 -0.12587538687E+01  0.16585301549E+02  0.51100000000E-03 0. -1.
        -11    1    3    3    0    0 -0.39884718431E+01 -0.23721093139E+02  0.15515991571E+02  0.28624188408E+02  0.51100000000E-03 0.  1.
        -12    1    3    3    0    0  0.32496777700E+00  0.18367158824E+01  0.49816215209E+01  0.53193685966E+01  0.00000000000E+00 0.  1.
</event>
<event>
 7    1  0.1369731E-013  0.5052884E+02  0.7816164E-02  0.1300439E+00
        -11   -1    0    0    0    0  0.00000000000E+00  0.00000000000E+00  0.45593999997E+02  0.45594000000E+02  0.51100000000E-03 0. -1.
         11   -1    0    0    0    0 -0.00000000000E+00 -0.00000000000E+00 -0.45593999997E+02  0.45594000000E+02  0.51100000000E-03 0.  1.
    9900012    2    1    2    0    0  0.27913338489E+02  0.23843175172E+02 -0.17479006776E+02  0.50528841797E+02  0.29999945127E+02 0.  0.
         12    1    1    2    0    0 -0.27913338489E+02 -0.23843175172E+02  0.17479006776E+02  0.40659158203E+02  0.00000000000E+00 0. -1.
         11    1    3    3    0    0 -0.25795408052E+01  0.15857606881E+01 -0.69857550884E+01  0.76137666199E+01  0.51100000000E-03 0. -1.
        -11    1    3    3    0    0  0.24862380800E+02  0.20895014844E+02 -0.14806451556E+02  0.35692725201E+02  0.51100000000E-03 0.  1.
        -12    1    3    3    0    0  0.56304984946E+01  0.13623996397E+01  0.43131998683E+01  0.72223499763E+01  0.00000000000E+00 0.  1.
</event>
<event>
 7    1  0.1369731E-013  0.5052884E+02  0.7816164E-02  0.1300439E+00
        -11   -1    0    0    0    0  0.00000000000E+00  0.00000000000E+00  0.45593999997E+02  0.45594000000E+02  0.51100000000E-03 0. -1.
         11   -1    0    0    0    0 -0.00000000000E+00 -0.00000000000E+00 -0.45593999997E+02  0.45594000000E+02  0.51100000000E-03 0.  1.
    9900012    2    1    2    0    0  0.17314474212E+02 -0.22740285833E+02  0.28918086369E+02  0.50528839455E+02  0.29999938007E+02 0.  0.
        -12    1    1    2    0    0 -0.17314474212E+02  0.22740285833E+02 -0.28918086369E+02  0.40659160545E+02  0.00000000000E+00 0.  1.
         11    1    3    3    0    0 -0.29156840730E+01 -0.10156360614E+02  0.14415005655E+02  0.17873031719E+02  0.51100000000E-03 0. -1.
        -11    1    3    3    0    0  0.13969292158E+02  0.25396924654E+00  0.11416781609E+02  0.18042963347E+02  0.51100000000E-03 0.  1.
        -12    1    3    3    0    0  0.62608661270E+01 -0.12837894465E+02  0.30862991049E+01  0.14612844389E+02  0.00000000000E+00 0.  1.
</event>
<event>
 7    1  0.1369731E-013  0.5052886E+02  0.7816164E-02  0.1300439E+00
        -11   -1    0    0    0    0  0.00000000000E+00  0.00000000000E+00  0.45593999997E+02  0.45594000000E+02  0.51100000000E-03 0. -1.
         11   -1    0    0    0    0 -0.00000000000E+00 -0.00000000000E+00 -0.45593999997E+02  0.45594000000E+02  0.51100000000E-03 0.  1.
    9900012    2    1    2    0    0 -0.32709696050E+02 -0.11523851126E+02 -0.21223635409E+02  0.50528855144E+02  0.29999985694E+02 0.  0.
         12    1    1    2    0    0  0.32709696050E+02  0.11523851126E+02  0.21223635409E+02  0.40659144856E+02  0.00000000000E+00 0. -1.
         11    1    3    3    0    0 -0.14687578247E+02 -0.13853773493E+02 -0.16788484561E+01  0.20260072239E+02  0.51100000000E-03 0. -1.
        -11    1    3    3    0    0 -0.17499515711E+02 -0.22659965289E+01 -0.11733308375E+02  0.21190524205E+02  0.51100000000E-03 0.  1.
         12    1    3    3    0    0 -0.52260209303E+00  0.45959188958E+01 -0.78114785779E+01  0.90782586996E+01  0.00000000000E+00 0. -1.
</event>
<event>
 7    1  0.1369731E-013  0.5052887E+02  0.7816164E-02  0.1300439E+00
        -11   -1    0    0    0    0  0.00000000000E+00  0.00000000000E+00  0.45593999997E+02  0.45594000000E+02  0.51100000000E-03 0. -1.
         11   -1    0    0    0    0 -0.00000000000E+00 -0.00000000000E+00 -0.45593999997E+02  0.45594000000E+02  0.51100000000E-03 0.  1.
    9900012    2    1    2    0    0  0.25191818789E+02 -0.15829644588E+02 -0.27712080200E+02  0.50528871005E+02  0.30000033906E+02 0.  0.
         12    1    1    2    0    0 -0.25191818789E+02  0.15829644588E+02  0.27712080200E+02  0.40659128995E+02  0.00000000000E+00 0. -1.
         11    1    3    3    0    0 -0.21548235296E+00  0.73972601182E+01 -0.35423595671E+01  0.82045232320E+01  0.51100000000E-03 0. -1.
        -11    1    3    3    0    0  0.11158404571E+02 -0.12931831586E+02 -0.10432621357E+02  0.20014540948E+02  0.51100000000E-03 0.  1.
         12    1    3    3    0    0  0.14248896571E+02 -0.10295073121E+02 -0.13737099275E+02  0.22309806824E+02  0.00000000000E+00 0. -1.
</event>
<event>
 7    1  0.1369731E-013  0.5052886E+02  0.7816164E-02  0.1300439E+00
        -11   -1    0    0    0    0  0.00000000000E+00  0.00000000000E+00  0.45593999997E+02  0.45594000000E+02  0.51100000000E-03 0.  1.
         11   -1    0    0    0    0 -0.00000000000E+00 -0.00000000000E+00 -0.45593999997E+02  0.45594000000E+02  0.51100000000E-03 0. -1.
    9900012    2    1    2    0    0 -0.36654907217E+02  0.10887171561E+01 -0.17561279413E+02  0.50528855115E+02  0.29999985609E+02 0.  0.
         12    1    1    2    0    0  0.36654907217E+02 -0.10887171561E+01  0.17561279413E+02  0.40659144885E+02  0.00000000000E+00 0. -1.
         11    1    3    3    0    0 -0.23579787145E+01 -0.61412245537E+01 -0.10012575805E+02  0.11980249461E+02  0.51100000000E-03 0. -1.
        -11    1    3    3    0    0 -0.65995595171E+01  0.66832844760E+01  0.12654646130E+01  0.94774404854E+01  0.51100000000E-03 0.  1.
         12    1    3    3    0    0 -0.27697368985E+02  0.54665723375E+00 -0.88141682213E+01  0.29071165169E+02  0.00000000000E+00 0. -1.
</event>
<event>
 7    1  0.1369731E-013  0.5052886E+02  0.7816164E-02  0.1300439E+00
        -11   -1    0    0    0    0  0.00000000000E+00  0.00000000000E+00  0.45593999997E+02  0.45594000000E+02  0.51100000000E-03 0. -1.
         11   -1    0    0    0    0 -0.00000000000E+00 -0.00000000000E+00 -0.45593999997E+02  0.45594000000E+02  0.51100000000E-03 0.  1.
    9900012    2    1    2    0    0 -0.16241941549E+01 -0.38852978664E+02  0.11873247685E+02  0.50528856276E+02  0.29999989138E+02 0.  0.
        -12    1    1    2    0    0  0.16241941549E+01  0.38852978664E+02 -0.11873247685E+02  0.40659143724E+02  0.00000000000E+00 0.  1.
         11    1    3    3    0    0  0.11404442617E+00 -0.37061674077E+02  0.14133046614E+02  0.39665144628E+02  0.51100000000E-03 0. -1.
        -11    1    3    3    0    0 -0.39682672001E+01  0.22272288572E+01  0.16391821855E+01  0.48367976444E+01  0.51100000000E-03 0.  1.
         12    1    3    3    0    0  0.22300286190E+01 -0.40185334440E+01 -0.38989811137E+01  0.60269140036E+01  0.00000000000E+00 0. -1.
</event>
<event>
 7    1  0.1369731E-013  0.5052886E+02  0.7816164E-02  0.1300439E+00
        -11   -1    0    0    0    0  0.00000000000E+00  0.00000000000E+00  0.45593999997E+02  0.45594000000E+02  0.51100000000E-03 0. -1.
         11   -1    0    0    0    0 -0.00000000000E+00 -0.00000000000E+00 -0.45593999997E+02  0.45594000000E+02  0.51100000000E-03 0.  1.
    9900012    2    1    2    0    0 -0.14762960430E+01  0.38099729174E+02 -0.14120798392E+02  0.50528858834E+02  0.29999996911E+02 0.  0.
         12    1    1    2    0    0  0.14762960430E+01 -0.38099729174E+02  0.14120798392E+02  0.40659141166E+02  0.00000000000E+00 0. -1.
         11    1    3    3    0    0  0.71654829390E+01  0.18576871180E+01  0.23537474236E+01  0.77675784111E+01  0.51100000000E-03 0. -1.
        -11    1    3    3    0    0 -0.11958446779E+02  0.29766706914E+02 -0.12182990909E+02  0.34314524004E+02  0.51100000000E-03 0.  1.
         12    1    3    3    0    0  0.33166677970E+01  0.64753351424E+01 -0.42915549071E+01  0.84467564190E+01  0.00000000000E+00 0. -1.
</event>
<event>
 7    1  0.1369731E-013  0.5052888E+02  0.7816164E-02  0.1300439E+00
        -11   -1    0    0    0    0  0.00000000000E+00  0.00000000000E+00  0.45593999997E+02  0.45594000000E+02  0.51100000000E-03 0. -1.
         11   -1    0    0    0    0 -0.00000000000E+00 -0.00000000000E+00 -0.45593999997E+02  0.45594000000E+02  0.51100000000E-03 0.  1.
    9900012    2    1    2    0    0 -0.31469332450E+02  0.15137157600E+02 -0.20825752535E+02  0.50528875640E+02  0.30000047997E+02 0.  0.
         12    1    1    2    0    0  0.31469332450E+02 -0.15137157600E+02  0.20825752535E+02  0.40659124360E+02  0.00000000000E+00 0. -1.
         11    1    3    3    0    0  0.46062311739E+01  0.61849953516E-01 -0.16692315522E+01  0.48997474711E+01  0.51100000000E-03 0. -1.
        -11    1    3    3    0    0 -0.37238833145E+02  0.14372153557E+02 -0.17787558550E+02  0.43699962601E+02  0.51100000000E-03 0.  1.
        -12    1    3    3    0    0  0.11632695209E+01  0.70315408977E+00 -0.13689624319E+01  0.19291655689E+01  0.00000000000E+00 0.  1.
</event>
<event>
 7    1  0.1369731E-013  0.5052886E+02  0.7816164E-02  0.1300439E+00
        -11   -1    0    0    0    0  0.00000000000E+00  0.00000000000E+00  0.45593999997E+02  0.45594000000E+02  0.51100000000E-03 0. -1.
         11   -1    0    0    0    0 -0.00000000000E+00 -0.00000000000E+00 -0.45593999997E+02  0.45594000000E+02  0.51100000000E-03 0.  1.
    9900012    2    1    2    0    0 -0.10421552874E+01  0.16392857810E+02 -0.37193467052E+02  0.50528857533E+02  0.29999992957E+02 0.  0.
         12    1    1    2    0    0  0.10421552874E+01 -0.16392857810E+02  0.37193467052E+02  0.40659142467E+02  0.00000000000E+00 0. -1.
         11    1    3    3    0    0 -0.30930715114E+01 -0.67883389628E+00 -0.37701901282E+01  0.49236410000E+01  0.51100000000E-03 0. -1.
        -11    1    3    3    0    0  0.76486842141E+01  0.15428522752E+02 -0.35464670687E+02  0.39424415680E+02  0.51100000000E-03 0.  1.
        -12    1    3    3    0    0 -0.55977679900E+01  0.16431689541E+01  0.20413937636E+01  0.61808008526E+01  0.00000000000E+00 0.  1.
</event>
<event>
 7    1  0.1369731E-013  0.5052887E+02  0.7816164E-02  0.1300439E+00
        -11   -1    0    0    0    0  0.00000000000E+00  0.00000000000E+00  0.45593999997E+02  0.45594000000E+02  0.51100000000E-03 0. -1.
         11   -1    0    0    0    0 -0.00000000000E+00 -0.00000000000E+00 -0.45593999997E+02  0.45594000000E+02  0.51100000000E-03 0.  1.
    9900012    2    1    2    0    0 -0.19037242459E+02  0.35053578620E+02 -0.78737047254E+01  0.50528865718E+02  0.30000017836E+02 0.  0.
         12    1    1    2    0    0  0.19037242459E+02 -0.35053578620E+02  0.78737047254E+01  0.40659134282E+02  0.00000000000E+00 0. -1.
         11    1    3    3    0    0 -0.79086297241E+01  0.21018754464E+02  0.66520345711E+01  0.23421870709E+02  0.51100000000E-03 0. -1.
        -11    1    3    3    0    0 -0.16592939582E+01  0.83215646715E+01 -0.13572414144E+02  0.16006627408E+02  0.51100000000E-03 0.  1.
         12    1    3    3    0    0 -0.94693187766E+01  0.57132594845E+01 -0.95332515264E+00  0.11100367601E+02  0.00000000000E+00 0. -1.
</event>
<event>
 7    1  0.1369731E-013  0.5052886E+02  0.7816164E-02  0.1300439E+00
        -11   -1    0    0    0    0  0.00000000000E+00  0.00000000000E+00  0.45593999997E+02  0.45594000000E+02  0.51100000000E-03 0. -1.
         11   -1    0    0    0    0 -0.00000000000E+00 -0.00000000000E+00 -0.45593999997E+02  0.45594000000E+02  0.51100000000E-03 0.  1.
    9900012    2    1    2    0    0  0.31495334956E+02  0.19426440162E+02 -0.16847058080E+02  0.50528855059E+02  0.29999985437E+02 0.  0.
         12    1    1    2    0    0 -0.31495334956E+02 -0.19426440162E+02  0.16847058080E+02  0.40659144941E+02  0.00000000000E+00 0. -1.
         11    1    3    3    0    0  0.11129934317E+02 -0.13215048519E+01 -0.16043386165E+02  0.19570693725E+02  0.51100000000E-03 0. -1.
        -11    1    3    3    0    0  0.67909933223E+01  0.11615906483E+02  0.37645511668E+01  0.13972069262E+02  0.51100000000E-03 0.  1.
         12    1    3    3    0    0  0.13574407317E+02  0.91320385309E+01 -0.45682230825E+01  0.16986092071E+02  0.00000000000E+00 0. -1.
</event>
<event>
 7    1  0.1369731E-013  0.5052885E+02  0.7816164E-02  0.1300439E+00
        -11   -1    0    0    0    0  0.00000000000E+00  0.00000000000E+00  0.45593999997E+02  0.45594000000E+02  0.51100000000E-03 0. -1.
         11   -1    0    0    0    0 -0.00000000000E+00 -0.00000000000E+00 -0.45593999997E+02  0.45594000000E+02  0.51100000000E-03 0.  1.
    9900012    2    1    2    0    0  0.11157188842E+01 -0.11757235006E+02  0.38906157313E+02  0.50528849979E+02  0.29999969995E+02 0.  0.
        -12    1    1    2    0    0 -0.11157188842E+01  0.11757235006E+02 -0.38906157313E+02  0.40659150021E+02  0.00000000000E+00 0.  1.
         11    1    3    3    0    0  0.85362305554E+01  0.36903487189E+01  0.27384678518E+02  0.28920693691E+02  0.51100000000E-03 0. -1.
        -11    1    3    3    0    0 -0.35380154668E+01 -0.81239394956E+01  0.21916051192E+01  0.91279285510E+01  0.51100000000E-03 0.  1.
         12    1    3    3    0    0 -0.38824962043E+01 -0.73236442289E+01  0.93298736756E+01  0.12480227737E+02  0.00000000000E+00 0. -1.
</event>
<event>
 7    1  0.1369731E-013  0.5052885E+02  0.7816164E-02  0.1300439E+00
        -11   -1    0    0    0    0  0.00000000000E+00  0.00000000000E+00  0.45593999997E+02  0.45594000000E+02  0.51100000000E-03 0. -1.
         11   -1    0    0    0    0 -0.00000000000E+00 -0.00000000000E+00 -0.45593999997E+02  0.45594000000E+02  0.51100000000E-03 0.  1.
    9900012    2    1    2    0    0  0.20383901878E+02 -0.12481419005E+02 -0.32891906428E+02  0.50528846238E+02  0.29999958625E+02 0.  0.
         12    1    1    2    0    0 -0.20383901878E+02  0.12481419005E+02  0.32891906428E+02  0.40659153762E+02  0.00000000000E+00 0. -1.
         11    1    3    3    0    0 -0.10481055793E+01 -0.52171483204E+01 -0.14437569349E+02  0.15387026057E+02  0.51100000000E-03 0. -1.
        -11    1    3    3    0    0  0.24178530199E+02 -0.34469602280E+01 -0.18151136753E+02  0.30429371059E+02  0.51100000000E-03 0.  1.
        -12    1    3    3    0    0 -0.27465227416E+01 -0.38173104565E+01 -0.30320032670E+00  0.47124491223E+01  0.00000000000E+00 0.  1.
</event>
<event>
 7    1  0.1369731E-013  0.5052886E+02  0.7816164E-02  0.1300439E+00
        -11   -1    0    0    0    0  0.00000000000E+00  0.00000000000E+00  0.45593999997E+02  0.45594000000E+02  0.51100000000E-03 0. -1.
         11   -1    0    0    0    0 -0.00000000000E+00 -0.00000000000E+00 -0.45593999997E+02  0.45594000000E+02  0.51100000000E-03 0.  1.
    9900012    2    1    2    0    0 -0.29732379873E+02  0.19562960895E+02  0.19658115944E+02  0.50528863580E+02  0.30000011339E+02 0.  0.
        -12    1    1    2    0    0  0.29732379873E+02 -0.19562960895E+02 -0.19658115944E+02  0.40659136420E+02  0.00000000000E+00 0.  1.
         11    1    3    3    0    0 -0.10438164641E+02  0.17428494105E+02  0.14901929940E+02  0.25194745563E+02  0.51100000000E-03 0. -1.
        -11    1    3    3    0    0 -0.19876570300E+02 -0.19175938829E+01  0.13601013974E+01  0.20015121515E+02  0.51100000000E-03 0.  1.
        -12    1    3    3    0    0  0.58235506760E+00  0.40520606734E+01  0.33960846072E+01  0.53189965017E+01  0.00000000000E+00 0.  1.
</event>
<event>
 7    1  0.1831085E-013  0.5052886E+02  0.7816164E-02  0.1300439E+00
        -11   -1    0    0    0    0  0.00000000000E+00  0.00000000000E+00  0.45593999997E+02  0.45594000000E+02  0.51100000000E-03 0. -1.
         11   -1    0    0    0    0 -0.00000000000E+00 -0.00000000000E+00 -0.45593999997E+02  0.45594000000E+02  0.51100000000E-03 0.  1.
    9900012    2    1    2    0    0  0.16820200619E+02  0.48347613649E+01 -0.36699745648E+02  0.50528863303E+02  0.30000010495E+02 0.  0.
         12    1    1    2    0    0 -0.16820200619E+02 -0.48347613649E+01  0.36699745648E+02  0.40659136697E+02  0.00000000000E+00 0. -1.
         11    1    3    3    0    0 -0.33339730786E+01 -0.34593438872E+01  0.22052137388E-01  0.48044690837E+01  0.51100000000E-03 0. -1.
        -11    1    3    3    0    0  0.19976461937E+02  0.10774541586E+01 -0.26207415354E+02  0.32970419451E+02  0.51100000000E-03 0.  1.
        -12    1    3    3    0    0  0.17771176114E+00  0.72166510935E+01 -0.10514382431E+02  0.12753974768E+02  0.00000000000E+00 0.  1.
</event>
<event>
 7    1  0.1369731E-013  0.5052886E+02  0.7816164E-02  0.1300439E+00
        -11   -1    0    0    0    0  0.00000000000E+00  0.00000000000E+00  0.45593999997E+02  0.45594000000E+02  0.51100000000E-03 0. -1.
         11   -1    0    0    0    0 -0.00000000000E+00 -0.00000000000E+00 -0.45593999997E+02  0.45594000000E+02  0.51100000000E-03 0.  1.
    9900012    2    1    2    0    0  0.22310401258E+02 -0.12066112052E+02 -0.31777670650E+02  0.50528863065E+02  0.30000009773E+02 0.  0.
         12    1    1    2    0    0 -0.22310401258E+02  0.12066112052E+02  0.31777670650E+02  0.40659136935E+02  0.00000000000E+00 0. -1.
         11    1    3    3    0    0 -0.32141030515E+01 -0.25958108161E+01 -0.15954394772E+02  0.16480637276E+02  0.51100000000E-03 0. -1.
        -11    1    3    3    0    0  0.23775715742E+02 -0.12311686818E+02 -0.13521870349E+02  0.29995054081E+02  0.51100000000E-03 0.  1.
         12    1    3    3    0    0  0.17487885678E+01  0.28413855825E+01 -0.23014055288E+01  0.40531717076E+01  0.00000000000E+00 0. -1.
</event>
<event>
 7    1  0.1369731E-013  0.5052886E+02  0.7816164E-02  0.1300439E+00
        -11   -1    0    0    0    0  0.00000000000E+00  0.00000000000E+00  0.45593999997E+02  0.45594000000E+02  0.51100000000E-03 0.  1.
         11   -1    0    0    0    0 -0.00000000000E+00 -0.00000000000E+00 -0.45593999997E+02  0.45594000000E+02  0.51100000000E-03 0. -1.
    9900012    2    1    2    0    0 -0.37447126164E+01 -0.37436295703E+02 -0.15416444021E+02  0.50528857672E+02  0.29999993381E+02 0.  0.
         12    1    1    2    0    0  0.37447126164E+01  0.37436295703E+02  0.15416444021E+02  0.40659142328E+02  0.00000000000E+00 0. -1.
         11    1    3    3    0    0 -0.15591004020E+02 -0.18307181868E+02 -0.99896762572E+01  0.26038931358E+02  0.51100000000E-03 0. -1.
        -11    1    3    3    0    0  0.55535409124E+01 -0.15755665254E+02 -0.31881929333E+01  0.17007274288E+02  0.51100000000E-03 0.  1.
         12    1    3    3    0    0  0.62927504913E+01 -0.33734485815E+01 -0.22385748306E+01  0.74826520265E+01  0.00000000000E+00 0. -1.
</event>
<event>
 7    1  0.1369731E-013  0.5052886E+02  0.7816164E-02  0.1300439E+00
        -11   -1    0    0    0    0  0.00000000000E+00  0.00000000000E+00  0.45593999997E+02  0.45594000000E+02  0.51100000000E-03 0. -1.
         11   -1    0    0    0    0 -0.00000000000E+00 -0.00000000000E+00 -0.45593999997E+02  0.45594000000E+02  0.51100000000E-03 0.  1.
    9900012    2    1    2    0    0  0.16968431129E+02  0.34991808141E+02  0.11866391871E+02  0.50528861446E+02  0.30000004850E+02 0.  0.
        -12    1    1    2    0    0 -0.16968431129E+02 -0.34991808141E+02 -0.11866391871E+02  0.40659138554E+02  0.00000000000E+00 0.  1.
         11    1    3    3    0    0  0.59140146541E+01  0.14982226278E+02  0.10946388426E+02  0.19474755285E+02  0.51100000000E-03 0. -1.
        -11    1    3    3    0    0  0.22575127282E+01 -0.21805244562E+01 -0.55027444433E+01  0.63349228323E+01  0.51100000000E-03 0.  1.
        -12    1    3    3    0    0  0.87969037466E+01  0.22190106319E+02  0.64227478881E+01  0.24719183328E+02  0.00000000000E+00 0.  1.
</event>
<event>
 7    1  0.1369731E-013  0.5052884E+02  0.7816164E-02  0.1300439E+00
        -11   -1    0    0    0    0  0.00000000000E+00  0.00000000000E+00  0.45593999997E+02  0.45594000000E+02  0.51100000000E-03 0.  1.
         11   -1    0    0    0    0 -0.00000000000E+00 -0.00000000000E+00 -0.45593999997E+02  0.45594000000E+02  0.51100000000E-03 0. -1.
    9900012    2    1    2    0    0 -0.39496848984E+02 -0.30891364131E+01 -0.91445688386E+01  0.50528843803E+02  0.29999951223E+02 0.  0.
        -12    1    1    2    0    0  0.39496848984E+02  0.30891364131E+01  0.91445688386E+01  0.40659156197E+02  0.00000000000E+00 0.  1.
         11    1    3    3    0    0 -0.25713747220E+02  0.45625726155E+01 -0.17015273070E+02  0.31169430262E+02  0.51100000000E-03 0. -1.
        -11    1    3    3    0    0  0.47712327754E+00 -0.24645254230E+01  0.12343098239E+01  0.27973296525E+01  0.51100000000E-03 0.  1.
         12    1    3    3    0    0 -0.14260225041E+02 -0.51871836057E+01  0.66363944075E+01  0.16562083888E+02  0.00000000000E+00 0. -1.
</event>
<event>
 7    1  0.1369731E-013  0.5052886E+02  0.7816164E-02  0.1300439E+00
        -11   -1    0    0    0    0  0.00000000000E+00  0.00000000000E+00  0.45593999997E+02  0.45594000000E+02  0.51100000000E-03 0. -1.
         11   -1    0    0    0    0 -0.00000000000E+00 -0.00000000000E+00 -0.45593999997E+02  0.45594000000E+02  0.51100000000E-03 0.  1.
    9900012    2    1    2    0    0 -0.21236091174E+02  0.88295437476E+01 -0.33529589674E+02  0.50528858410E+02  0.29999995623E+02 0.  0.
         12    1    1    2    0    0  0.21236091174E+02 -0.88295437476E+01  0.33529589674E+02  0.40659141590E+02  0.00000000000E+00 0. -1.
         11    1    3    3    0    0 -0.70349233999E+00 -0.62531322956E+01 -0.13805979795E+02  0.15172397415E+02  0.51100000000E-03 0. -1.
        -11    1    3    3    0    0 -0.11276418177E+02  0.10027508588E+02 -0.26986002194E+01  0.15329415475E+02  0.51100000000E-03 0.  1.
         12    1    3    3    0    0 -0.92561806564E+01  0.50551674555E+01 -0.17025009660E+02  0.20027045520E+02  0.00000000000E+00 0. -1.
</event>
<event>
 7    1  0.1369731E-013  0.5052886E+02  0.7816164E-02  0.1300439E+00
        -11   -1    0    0    0    0  0.00000000000E+00  0.00000000000E+00  0.45593999997E+02  0.45594000000E+02  0.51100000000E-03 0. -1.
         11   -1    0    0    0    0 -0.00000000000E+00 -0.00000000000E+00 -0.45593999997E+02  0.45594000000E+02  0.51100000000E-03 0.  1.
    9900012    2    1    2    0    0 -0.23885528242E+01  0.24567866410E+02 -0.32309137994E+02  0.50528860284E+02  0.30000001318E+02 0.  0.
         12    1    1    2    0    0  0.23885528242E+01 -0.24567866410E+02  0.32309137994E+02  0.40659139716E+02  0.00000000000E+00 0. -1.
         11    1    3    3    0    0 -0.12536617220E+02  0.11209809033E+02 -0.13944444016E+02  0.21846604062E+02  0.51100000000E-03 0. -1.
        -11    1    3    3    0    0  0.96807575370E+01  0.80568567294E+01 -0.37690721138E+01  0.13146707257E+02  0.51100000000E-03 0.  1.
         12    1    3    3    0    0  0.46730685860E+00  0.53012006482E+01 -0.14595621865E+02  0.15535548964E+02  0.00000000000E+00 0. -1.
</event>
<event>
 7    1  0.1369731E-013  0.5052886E+02  0.7816164E-02  0.1300439E+00
        -11   -1    0    0    0    0  0.00000000000E+00  0.00000000000E+00  0.45593999997E+02  0.45594000000E+02  0.51100000000E-03 0. -1.
         11   -1    0    0    0    0 -0.00000000000E+00 -0.00000000000E+00 -0.45593999997E+02  0.45594000000E+02  0.51100000000E-03 0.  1.
    9900012    2    1    2    0    0  0.71420656607E+01 -0.85382726873E+01  0.39105680100E+02  0.50528863039E+02  0.30000009692E+02 0.  0.
        -12    1    1    2    0    0 -0.71420656607E+01  0.85382726873E+01 -0.39105680100E+02  0.40659136961E+02  0.00000000000E+00 0.  1.
         11    1    3    3    0    0 -0.14558813378E+01 -0.27875784756E+01  0.13293231114E+02  0.13660167566E+02  0.51100000000E-03 0. -1.
        -11    1    3    3    0    0  0.16381252578E+02  0.11046808635E+00  0.18332050059E+02  0.24584989299E+02  0.51100000000E-03 0.  1.
        -12    1    3    3    0    0 -0.77833055798E+01 -0.58611622981E+01  0.74803989269E+01  0.12283706173E+02  0.00000000000E+00 0.  1.
</event>
<event>
 7    1  0.1369731E-013  0.5052885E+02  0.7816164E-02  0.1300439E+00
        -11   -1    0    0    0    0  0.00000000000E+00  0.00000000000E+00  0.45593999997E+02  0.45594000000E+02  0.51100000000E-03 0. -1.
         11   -1    0    0    0    0 -0.00000000000E+00 -0.00000000000E+00 -0.45593999997E+02  0.45594000000E+02  0.51100000000E-03 0.  1.
    9900012    2    1    2    0    0  0.22333481586E+02 -0.28512851504E+02 -0.18476997769E+02  0.50528849158E+02  0.29999967502E+02 0.  0.
         12    1    1    2    0    0 -0.22333481586E+02  0.28512851504E+02  0.18476997769E+02  0.40659150842E+02  0.00000000000E+00 0. -1.
         11    1    3    3    0    0  0.17366356006E+01 -0.15194777933E+02  0.22355857218E+01  0.15456229276E+02  0.51100000000E-03 0. -1.
        -11    1    3    3    0    0  0.22541933443E+02 -0.13294541444E+02 -0.20204460033E+02  0.33062120335E+02  0.51100000000E-03 0.  1.
         12    1    3    3    0    0 -0.19450874583E+01 -0.23532126477E-01 -0.50812345848E+00  0.20104995475E+01  0.00000000000E+00 0. -1.
</event>
<event>
 7    1  0.1369731E-013  0.5052886E+02  0.7816164E-02  0.1300439E+00
        -11   -1    0    0    0    0  0.00000000000E+00  0.00000000000E+00  0.45593999997E+02  0.45594000000E+02  0.51100000000E-03 0. -1.
         11   -1    0    0    0    0 -0.00000000000E+00 -0.00000000000E+00 -0.45593999997E+02  0.45594000000E+02  0.51100000000E-03 0.  1.
    9900012    2    1    2    0    0 -0.11177232582E+02 -0.68816813536E+01 -0.38482171427E+02  0.50528861000E+02  0.30000003496E+02 0.  0.
         12    1    1    2    0    0  0.11177232582E+02  0.68816813536E+01  0.38482171427E+02  0.40659139000E+02  0.00000000000E+00 0. -1.
         11    1    3    3    0    0  0.56185204939E+01  0.23889976625E+01 -0.28198430963E+01  0.67250723209E+01  0.51100000000E-03 0. -1.
        -11    1    3    3    0    0 -0.19189452337E+02 -0.47390040560E+01 -0.24188825751E+02  0.31237678082E+02  0.51100000000E-03 0.  1.
        -12    1    3    3    0    0  0.23936992614E+01 -0.45316749601E+01 -0.11473502580E+02  0.12566110597E+02  0.00000000000E+00 0.  1.
</event>
<event>
 7    1  0.1369731E-013  0.5052886E+02  0.7816164E-02  0.1300439E+00
        -11   -1    0    0    0    0  0.00000000000E+00  0.00000000000E+00  0.45593999997E+02  0.45594000000E+02  0.51100000000E-03 0.  1.
         11   -1    0    0    0    0 -0.00000000000E+00 -0.00000000000E+00 -0.45593999997E+02  0.45594000000E+02  0.51100000000E-03 0. -1.
    9900012    2    1    2    0    0  0.32402140407E+02  0.24473498878E+02  0.20772737721E+01  0.50528856912E+02  0.29999991071E+02 0.  0.
        -12    1    1    2    0    0 -0.32402140407E+02 -0.24473498878E+02 -0.20772737721E+01  0.40659143088E+02  0.00000000000E+00 0.  1.
         11    1    3    3    0    0  0.20576830371E+02  0.20805955019E+02 -0.67477461375E+01  0.30030414426E+02  0.51100000000E-03 0. -1.
        -11    1    3    3    0    0  0.11132696483E+02 -0.30717450514E+01  0.41698413042E+01  0.12278441489E+02  0.51100000000E-03 0.  1.
        -12    1    3    3    0    0  0.69261355328E+00  0.67392889102E+01  0.46551786055E+01  0.82200009975E+01  0.00000000000E+00 0.  1.
</event>
<event>
 7    1  0.1369731E-013  0.5052886E+02  0.7816164E-02  0.1300439E+00
        -11   -1    0    0    0    0  0.00000000000E+00  0.00000000000E+00  0.45593999997E+02  0.45594000000E+02  0.51100000000E-03 0. -1.
         11   -1    0    0    0    0 -0.00000000000E+00 -0.00000000000E+00 -0.45593999997E+02  0.45594000000E+02  0.51100000000E-03 0.  1.
    9900012    2    1    2    0    0 -0.38790643914E+01 -0.19600949321E+02  0.35410755763E+02  0.50528856151E+02  0.29999988756E+02 0.  0.
        -12    1    1    2    0    0  0.38790643914E+01  0.19600949321E+02 -0.35410755763E+02  0.40659143849E+02  0.00000000000E+00 0.  1.
         11    1    3    3    0    0 -0.16706231935E+01 -0.88972386838E+00  0.32314905471E+01  0.37450129284E+01  0.51100000000E-03 0. -1.
        -11    1    3    3    0    0  0.93402415493E+01 -0.90829826948E+01  0.28451808850E+02  0.31292908365E+02  0.51100000000E-03 0.  1.
        -12    1    3    3    0    0 -0.11548682747E+02 -0.96282427582E+01  0.37274563656E+01  0.15490934858E+02  0.00000000000E+00 0.  1.
</event>
<event>
 7    1  0.1369731E-013  0.5052886E+02  0.7816164E-02  0.1300439E+00
        -11   -1    0    0    0    0  0.00000000000E+00  0.00000000000E+00  0.45593999997E+02  0.45594000000E+02  0.51100000000E-03 0. -1.
         11   -1    0    0    0    0 -0.00000000000E+00 -0.00000000000E+00 -0.45593999997E+02  0.45594000000E+02  0.51100000000E-03 0.  1.
    9900012    2    1    2    0    0  0.36068788050E+01  0.60249481921E+01 -0.40048170489E+02  0.50528861606E+02  0.30000005336E+02 0.  0.
         12    1    1    2    0    0 -0.36068788050E+01 -0.60249481921E+01  0.40048170489E+02  0.40659138394E+02  0.00000000000E+00 0. -1.
         11    1    3    3    0    0 -0.11991116111E+01 -0.95577760575E+01 -0.12470313599E+02  0.15757464052E+02  0.51100000000E-03 0. -1.
        -11    1    3    3    0    0  0.91560932760E+01  0.13136313486E+02 -0.22809665618E+02  0.27868936505E+02  0.51100000000E-03 0.  1.
        -12    1    3    3    0    0 -0.43501028599E+01  0.24464107640E+01 -0.47681912725E+01  0.69024610487E+01  0.00000000000E+00 0.  1.
</event>
<event>
 7    1  0.1369731E-013  0.5052887E+02  0.7816164E-02  0.1300439E+00
        -11   -1    0    0    0    0  0.00000000000E+00  0.00000000000E+00  0.45593999997E+02  0.45594000000E+02  0.51100000000E-03 0.  1.
         11   -1    0    0    0    0 -0.00000000000E+00 -0.00000000000E+00 -0.45593999997E+02  0.45594000000E+02  0.51100000000E-03 0. -1.
    9900012    2    1    2    0    0 -0.14057938609E+02 -0.12674800585E+02  0.35984557944E+02  0.50528872879E+02  0.30000039603E+02 0.  0.
        -12    1    1    2    0    0  0.14057938609E+02  0.12674800585E+02 -0.35984557944E+02  0.40659127121E+02  0.00000000000E+00 0.  1.
         11    1    3    3    0    0 -0.50572309726E+01 -0.12410184112E+02  0.10176287927E+02  0.16826915672E+02  0.51100000000E-03 0. -1.
        -11    1    3    3    0    0 -0.12585939218E+02  0.63843003069E+01  0.16390647915E+02  0.21629112228E+02  0.51100000000E-03 0.  1.
        -12    1    3    3    0    0  0.35852315814E+01 -0.66489167798E+01  0.94176221017E+01  0.12072844979E+02  0.00000000000E+00 0.  1.
</event>
<event>
 7    1  0.1369731E-013  0.5052887E+02  0.7816164E-02  0.1300439E+00
        -11   -1    0    0    0    0  0.00000000000E+00  0.00000000000E+00  0.45593999997E+02  0.45594000000E+02  0.51100000000E-03 0. -1.
         11   -1    0    0    0    0 -0.00000000000E+00 -0.00000000000E+00 -0.45593999997E+02  0.45594000000E+02  0.51100000000E-03 0.  1.
    9900012    2    1    2    0    0 -0.20022797606E+02  0.33294057361E+02  0.11989925318E+02  0.50528868324E+02  0.30000025759E+02 0.  0.
        -12    1    1    2    0    0  0.20022797606E+02 -0.33294057361E+02 -0.11989925318E+02  0.40659131676E+02  0.00000000000E+00 0.  1.
         11    1    3    3    0    0 -0.15513861322E+02  0.10769619055E+02  0.10119468664E+02  0.21425877671E+02  0.51100000000E-03 0. -1.
        -11    1    3    3    0    0  0.45267082381E+01  0.18511785035E+02  0.23688162390E+01  0.19203868446E+02  0.51100000000E-03 0.  1.
        -12    1    3    3    0    0 -0.90356445221E+01  0.40126532715E+01 -0.49835958504E+00  0.98991222077E+01  0.00000000000E+00 0.  1.
</event>
<event>
 7    1  0.1369731E-013  0.5052885E+02  0.7816164E-02  0.1300439E+00
        -11   -1    0    0    0    0  0.00000000000E+00  0.00000000000E+00  0.45593999997E+02  0.45594000000E+02  0.51100000000E-03 0. -1.
         11   -1    0    0    0    0 -0.00000000000E+00 -0.00000000000E+00 -0.45593999997E+02  0.45594000000E+02  0.51100000000E-03 0.  1.
    9900012    2    1    2    0    0 -0.19800782775E+02 -0.34856321311E+02  0.67920672340E+01  0.50528852061E+02  0.29999976324E+02 0.  0.
        -12    1    1    2    0    0  0.19800782775E+02  0.34856321311E+02 -0.67920672340E+01  0.40659147939E+02  0.00000000000E+00 0.  1.
         11    1    3    3    0    0  0.32363563693E+01 -0.16495271941E+02  0.96612960014E+01  0.19388363511E+02  0.51100000000E-03 0. -1.
        -11    1    3    3    0    0 -0.60112743623E+01 -0.19016508073E+00 -0.15176469057E+01  0.62028086065E+01  0.51100000000E-03 0.  1.
         12    1    3    3    0    0 -0.17025864782E+02 -0.18170884289E+02 -0.13515818617E+01  0.24937679943E+02  0.00000000000E+00 0. -1.
</event>
<event>
 7    1  0.1369731E-013  0.5052886E+02  0.7816164E-02  0.1300439E+00
        -11   -1    0    0    0    0  0.00000000000E+00  0.00000000000E+00  0.45593999997E+02  0.45594000000E+02  0.51100000000E-03 0. -1.
         11   -1    0    0    0    0 -0.00000000000E+00 -0.00000000000E+00 -0.45593999997E+02  0.45594000000E+02  0.51100000000E-03 0.  1.
    9900012    2    1    2    0    0  0.91792508346E+01 -0.17409940651E+02 -0.35578092554E+02  0.50528863891E+02  0.30000012284E+02 0.  0.
         12    1    1    2    0    0 -0.91792508346E+01  0.17409940651E+02  0.35578092554E+02  0.40659136109E+02  0.00000000000E+00 0. -1.
         11    1    3    3    0    0  0.10004941671E+02  0.32632558705E+01 -0.67989899019E+01  0.12528924961E+02  0.51100000000E-03 0. -1.
        -11    1    3    3    0    0 -0.58127269726E+01 -0.52086651674E+01 -0.52533605409E+01  0.94082827827E+01  0.51100000000E-03 0.  1.
         12    1    3    3    0    0  0.49870361360E+01 -0.15464531354E+02 -0.23525742111E+02  0.28591656148E+02  0.00000000000E+00 0. -1.
</event>
<event>
 7    1  0.1369731E-013  0.5052887E+02  0.7816164E-02  0.1300439E+00
        -11   -1    0    0    0    0  0.00000000000E+00  0.00000000000E+00  0.45593999997E+02  0.45594000000E+02  0.51100000000E-03 0. -1.
         11   -1    0    0    0    0 -0.00000000000E+00 -0.00000000000E+00 -0.45593999997E+02  0.45594000000E+02  0.51100000000E-03 0.  1.
    9900012    2    1    2    0    0 -0.37293083230E+02  0.72757364395E+01 -0.14472554040E+02  0.50528865504E+02  0.30000017186E+02 0.  0.
         12    1    1    2    0    0  0.37293083230E+02 -0.72757364395E+01  0.14472554040E+02  0.40659134496E+02  0.00000000000E+00 0. -1.
         11    1    3    3    0    0  0.83964976292E+00  0.50454893043E+01  0.26933727190E+01  0.57806773746E+01  0.51100000000E-03 0. -1.
        -11    1    3    3    0    0 -0.37439680074E+02  0.28409684132E+00 -0.12214041123E+02  0.39382650442E+02  0.51100000000E-03 0.  1.
        -12    1    3    3    0    0 -0.69305291842E+00  0.19461502939E+01 -0.49518856365E+01  0.53655376870E+01  0.00000000000E+00 0.  1.
</event>
<event>
 7    1  0.1397696E-013  0.5052886E+02  0.7816164E-02  0.1300439E+00
        -11   -1    0    0    0    0  0.00000000000E+00  0.00000000000E+00  0.45593999997E+02  0.45594000000E+02  0.51100000000E-03 0. -1.
         11   -1    0    0    0    0 -0.00000000000E+00 -0.00000000000E+00 -0.45593999997E+02  0.45594000000E+02  0.51100000000E-03 0.  1.
    9900012    2    1    2    0    0  0.29184106970E+02 -0.11618245645E+02 -0.25816079427E+02  0.50528859718E+02  0.29999999599E+02 0.  0.
         12    1    1    2    0    0 -0.29184106970E+02  0.11618245645E+02  0.25816079427E+02  0.40659140282E+02  0.00000000000E+00 0. -1.
         11    1    3    3    0    0  0.86712134441E+01 -0.15958022804E+02 -0.37860045107E+01  0.18552149870E+02  0.51100000000E-03 0. -1.
        -11    1    3    3    0    0  0.10852809304E+02  0.61143598415E+01 -0.78379047984E+01  0.14717391683E+02  0.51100000000E-03 0.  1.
        -12    1    3    3    0    0  0.96600842212E+01 -0.17745826829E+01 -0.14192170118E+02  0.17259318165E+02  0.00000000000E+00 0.  1.
</event>
<event>
 7    1  0.1369731E-013  0.5052886E+02  0.7816164E-02  0.1300439E+00
        -11   -1    0    0    0    0  0.00000000000E+00  0.00000000000E+00  0.45593999997E+02  0.45594000000E+02  0.51100000000E-03 0. -1.
         11   -1    0    0    0    0 -0.00000000000E+00 -0.00000000000E+00 -0.45593999997E+02  0.45594000000E+02  0.51100000000E-03 0.  1.
    9900012    2    1    2    0    0  0.11876042770E+02  0.27667627102E+02 -0.27324495863E+02  0.50528855204E+02  0.29999985878E+02 0.  0.
         12    1    1    2    0    0 -0.11876042770E+02 -0.27667627102E+02  0.27324495863E+02  0.40659144796E+02  0.00000000000E+00 0. -1.
         11    1    3    3    0    0  0.21931773383E+01  0.17495621039E+01 -0.50728603772E+01  0.57969739572E+01  0.51100000000E-03 0. -1.
        -11    1    3    3    0    0  0.83950150061E+01 -0.35693767123E+01 -0.35413253360E+01  0.97855869759E+01  0.51100000000E-03 0.  1.
        -12    1    3    3    0    0  0.12878504260E+01  0.29487441711E+02 -0.18710310150E+02  0.34946294271E+02  0.00000000000E+00 0.  1.
</event>
<event>
 7    1  0.1369731E-013  0.5052887E+02  0.7816164E-02  0.1300439E+00
        -11   -1    0    0    0    0  0.00000000000E+00  0.00000000000E+00  0.45593999997E+02  0.45594000000E+02  0.51100000000E-03 0. -1.
         11   -1    0    0    0    0 -0.00000000000E+00 -0.00000000000E+00 -0.45593999997E+02  0.45594000000E+02  0.51100000000E-03 0.  1.
    9900012    2    1    2    0    0 -0.26048776844E+02 -0.15820121030E+02  0.26913755729E+02  0.50528865087E+02  0.30000015917E+02 0.  0.
        -12    1    1    2    0    0  0.26048776844E+02  0.15820121030E+02 -0.26913755729E+02  0.40659134913E+02  0.00000000000E+00 0.  1.
         11    1    3    3    0    0  0.57542448165E+00 -0.47177559763E+01  0.16274411760E+02  0.16954197509E+02  0.51100000000E-03 0. -1.
        -11    1    3    3    0    0 -0.11197202659E+02 -0.71472712870E+01 -0.17480535593E+01  0.13398377728E+02  0.51100000000E-03 0.  1.
        -12    1    3    3    0    0 -0.15426998666E+02 -0.39550937664E+01  0.12387397529E+02  0.20176289849E+02  0.00000000000E+00 0.  1.
</event>
<event>
 7    1  0.1369731E-013  0.5052890E+02  0.7816164E-02  0.1300439E+00
        -11   -1    0    0    0    0  0.00000000000E+00  0.00000000000E+00  0.45593999997E+02  0.45594000000E+02  0.51100000000E-03 0.  1.
         11   -1    0    0    0    0 -0.00000000000E+00 -0.00000000000E+00 -0.45593999997E+02  0.45594000000E+02  0.51100000000E-03 0. -1.
    9900012    2    1    2    0    0  0.32589494880E+02  0.63693061315E+01  0.23463144396E+02  0.50528900378E+02  0.30000123187E+02 0.  0.
        -12    1    1    2    0    0 -0.32589494880E+02 -0.63693061315E+01 -0.23463144396E+02  0.40659099622E+02  0.00000000000E+00 0.  1.
         11    1    3    3    0    0  0.17982677333E+02 -0.51833101888E+00 -0.25829245118E+00  0.17992000066E+02  0.51100000000E-03 0. -1.
        -11    1    3    3    0    0  0.50967677811E+01 -0.11148965960E+01  0.18206427494E+02  0.18939219587E+02  0.51100000000E-03 0.  1.
        -12    1    3    3    0    0  0.95100497661E+01  0.80025337464E+01  0.55150093537E+01  0.13597680725E+02  0.00000000000E+00 0.  1.
</event>
<event>
 7    1  0.1369731E-013  0.5052884E+02  0.7816164E-02  0.1300439E+00
        -11   -1    0    0    0    0  0.00000000000E+00  0.00000000000E+00  0.45593999997E+02  0.45594000000E+02  0.51100000000E-03 0. -1.
         11   -1    0    0    0    0 -0.00000000000E+00 -0.00000000000E+00 -0.45593999997E+02  0.45594000000E+02  0.51100000000E-03 0.  1.
    9900012    2    1    2    0    0  0.79828857630E+01  0.98987084992E+00 -0.39855503113E+02  0.50528838206E+02  0.29999934210E+02 0.  0.
         12    1    1    2    0    0 -0.79828857630E+01 -0.98987084992E+00  0.39855503113E+02  0.40659161794E+02  0.00000000000E+00 0. -1.
         11    1    3    3    0    0  0.24371133431E+01 -0.12188058550E+02 -0.67255165475E+01  0.14132263292E+02  0.51100000000E-03 0. -1.
        -11    1    3    3    0    0  0.62734465816E+01  0.11919240436E+02 -0.28112639924E+02  0.31172823875E+02  0.51100000000E-03 0.  1.
        -12    1    3    3    0    0 -0.72767416167E+00  0.12586889635E+01 -0.50173466420E+01  0.52237510391E+01  0.00000000000E+00 0.  1.
</event>
<event>
 7    1  0.1369731E-013  0.5052886E+02  0.7816164E-02  0.1300439E+00
        -11   -1    0    0    0    0  0.00000000000E+00  0.00000000000E+00  0.45593999997E+02  0.45594000000E+02  0.51100000000E-03 0.  1.
         11   -1    0    0    0    0 -0.00000000000E+00 -0.00000000000E+00 -0.45593999997E+02  0.45594000000E+02  0.51100000000E-03 0. -1.
    9900012    2    1    2    0    0 -0.19627152658E+02 -0.15874695505E+02  0.31873722709E+02  0.50528864764E+02  0.30000014938E+02 0.  0.
        -12    1    1    2    0    0  0.19627152658E+02  0.15874695505E+02 -0.31873722709E+02  0.40659135236E+02  0.00000000000E+00 0.  1.
         11    1    3    3    0    0 -0.34453233972E+01 -0.72539238854E+01  0.42973523029E+00  0.80420356675E+01  0.51100000000E-03 0. -1.
        -11    1    3    3    0    0 -0.33987304436E+01 -0.13343163495E+02  0.21828830485E+02  0.25808704370E+02  0.51100000000E-03 0.  1.
        -12    1    3    3    0    0 -0.12783098817E+02  0.47223918757E+01  0.96151569934E+01  0.16678124727E+02  0.00000000000E+00 0.  1.
</event>
<event>
 7    1  0.1369731E-013  0.5052886E+02  0.7816164E-02  0.1300439E+00
        -11   -1    0    0    0    0  0.00000000000E+00  0.00000000000E+00  0.45593999997E+02  0.45594000000E+02  0.51100000000E-03 0. -1.
         11   -1    0    0    0    0 -0.00000000000E+00 -0.00000000000E+00 -0.45593999997E+02  0.45594000000E+02  0.51100000000E-03 0.  1.
    9900012    2    1    2    0    0  0.12936206863E+02  0.32735241767E+02 -0.20352495493E+02  0.50528861121E+02  0.30000003865E+02 0.  0.
         12    1    1    2    0    0 -0.12936206863E+02 -0.32735241767E+02  0.20352495493E+02  0.40659138879E+02  0.00000000000E+00 0. -1.
         11    1    3    3    0    0 -0.75456117578E+01  0.15460845689E+01 -0.53205233208E+01  0.93613355331E+01  0.51100000000E-03 0. -1.
        -11    1    3    3    0    0  0.62449603923E+01  0.99315212131E+01 -0.92446428718E+01  0.14936467655E+02  0.51100000000E-03 0.  1.
         12    1    3    3    0    0  0.14236858229E+02  0.21257635985E+02 -0.57873293006E+01  0.26231057934E+02  0.00000000000E+00 0. -1.
</event>
<event>
 7    1  0.1369731E-013  0.5052886E+02  0.7816164E-02  0.1300439E+00
        -11   -1    0    0    0    0  0.00000000000E+00  0.00000000000E+00  0.45593999997E+02  0.45594000000E+02  0.51100000000E-03 0. -1.
         11   -1    0    0    0    0 -0.00000000000E+00 -0.00000000000E+00 -0.45593999997E+02  0.45594000000E+02  0.51100000000E-03 0.  1.
    9900012    2    1    2    0    0  0.96800922159E+01  0.17011218318E+02 -0.35638182521E+02  0.50528858502E+02  0.29999995902E+02 0.  0.
         12    1    1    2    0    0 -0.96800922159E+01 -0.17011218318E+02  0.35638182521E+02  0.40659141498E+02  0.00000000000E+00 0. -1.
         11    1    3    3    0    0  0.57459014173E+00  0.22788011784E+01 -0.19461619301E+02  0.19603002696E+02  0.51100000000E-03 0. -1.
        -11    1    3    3    0    0  0.85130781081E+01  0.63093609645E+01  0.20915297400E+01  0.10800695884E+02  0.51100000000E-03 0.  1.
        -12    1    3    3    0    0  0.59242396604E+00  0.84230561748E+01 -0.18268092961E+02  0.20125159922E+02  0.00000000000E+00 0.  1.
</event>
<event>
 7    1  0.1369731E-013  0.5052886E+02  0.7816164E-02  0.1300439E+00
        -11   -1    0    0    0    0  0.00000000000E+00  0.00000000000E+00  0.45593999997E+02  0.45594000000E+02  0.51100000000E-03 0.  1.
         11   -1    0    0    0    0 -0.00000000000E+00 -0.00000000000E+00 -0.45593999997E+02  0.45594000000E+02  0.51100000000E-03 0. -1.
    9900012    2    1    2    0    0  0.18767344322E+01 -0.40344404471E+02  0.46875164749E+01  0.50528856933E+02  0.29999991133E+02 0.  0.
        -12    1    1    2    0    0 -0.18767344322E+01  0.40344404471E+02 -0.46875164749E+01  0.40659143067E+02  0.00000000000E+00 0.  1.
         11    1    3    3    0    0  0.66831999385E+01 -0.31555287104E+02 -0.41444573796E+01  0.32520421782E+02  0.51100000000E-03 0. -1.
        -11    1    3    3    0    0 -0.33107802872E+01 -0.11332259807E+02  0.92898678527E+01  0.15022750195E+02  0.51100000000E-03 0.  1.
         12    1    3    3    0    0 -0.14956852191E+01  0.25431424398E+01 -0.45789399828E+00  0.29856849561E+01  0.00000000000E+00 0. -1.
</event>
<event>
 7    1  0.1369731E-013  0.5052886E+02  0.7816164E-02  0.1300439E+00
        -11   -1    0    0    0    0  0.00000000000E+00  0.00000000000E+00  0.45593999997E+02  0.45594000000E+02  0.51100000000E-03 0. -1.
         11   -1    0    0    0    0 -0.00000000000E+00 -0.00000000000E+00 -0.45593999997E+02  0.45594000000E+02  0.51100000000E-03 0.  1.
    9900012    2    1    2    0    0  0.28664386203E+02 -0.27379776722E+02  0.90480028348E+01  0.50528861236E+02  0.30000004212E+02 0.  0.
        -12    1    1    2    0    0 -0.28664386203E+02  0.27379776722E+02 -0.90480028348E+01  0.40659138764E+02  0.00000000000E+00 0.  1.
         11    1    3    3    0    0  0.28632463184E+02 -0.19320393943E+02  0.14070358784E+02  0.37297058418E+02  0.51100000000E-03 0. -1.
        -11    1    3    3    0    0  0.32404910517E+01 -0.23704634772E+01 -0.53538241189E+01  0.66920334959E+01  0.51100000000E-03 0.  1.
         12    1    3    3    0    0 -0.32085680319E+01 -0.56889193012E+01  0.33146816966E+00  0.65397693215E+01  0.00000000000E+00 0. -1.
</event>
<event>
 7    1  0.2017350E-013  0.5052886E+02  0.7816164E-02  0.1300439E+00
        -11   -1    0    0    0    0  0.00000000000E+00  0.00000000000E+00  0.45593999997E+02  0.45594000000E+02  0.51100000000E-03 0. -1.
         11   -1    0    0    0    0 -0.00000000000E+00 -0.00000000000E+00 -0.45593999997E+02  0.45594000000E+02  0.51100000000E-03 0.  1.
    9900012    2    1    2    0    0  0.12104900159E+02 -0.10550855797E+02 -0.37353935054E+02  0.50528860438E+02  0.30000001787E+02 0.  0.
         12    1    1    2    0    0 -0.12104900159E+02  0.10550855797E+02  0.37353935054E+02  0.40659139562E+02  0.00000000000E+00 0. -1.
         11    1    3    3    0    0 -0.54673150162E+01  0.20032002165E+01 -0.16399367252E+02  0.17402401878E+02  0.51100000000E-03 0. -1.
        -11    1    3    3    0    0  0.87597592474E+01 -0.12411301842E+02 -0.18577616795E+02  0.23997950778E+02  0.51100000000E-03 0.  1.
         12    1    3    3    0    0  0.88124559278E+01 -0.14275417168E+00 -0.23769510064E+01  0.91285077816E+01  0.00000000000E+00 0. -1.
</event>
<event>
 7    1  0.1369731E-013  0.5052885E+02  0.7816164E-02  0.1300439E+00
        -11   -1    0    0    0    0  0.00000000000E+00  0.00000000000E+00  0.45593999997E+02  0.45594000000E+02  0.51100000000E-03 0. -1.
         11   -1    0    0    0    0 -0.00000000000E+00 -0.00000000000E+00 -0.45593999997E+02  0.45594000000E+02  0.51100000000E-03 0.  1.
    9900012    2    1    2    0    0  0.17662166371E+02 -0.31869460809E+02 -0.18043061052E+02  0.50528847214E+02  0.29999961590E+02 0.  0.
         12    1    1    2    0    0 -0.17662166371E+02  0.31869460809E+02  0.18043061052E+02  0.40659152786E+02  0.00000000000E+00 0. -1.
         11    1    3    3    0    0  0.13497037311E+01 -0.56919860025E+01  0.14875869463E+01  0.60360019879E+01  0.51100000000E-03 0. -1.
        -11    1    3    3    0    0  0.22179543210E+02 -0.24504456701E+02 -0.19532968062E+02  0.38391892072E+02  0.51100000000E-03 0.  1.
        -12    1    3    3    0    0 -0.58670805708E+01 -0.16730181057E+01  0.23200640641E-02  0.61009531541E+01  0.00000000000E+00 0.  1.
</event>
<event>
 7    1  0.1369731E-013  0.5052886E+02  0.7816164E-02  0.1300439E+00
        -11   -1    0    0    0    0  0.00000000000E+00  0.00000000000E+00  0.45593999997E+02  0.45594000000E+02  0.51100000000E-03 0. -1.
         11   -1    0    0    0    0 -0.00000000000E+00 -0.00000000000E+00 -0.45593999997E+02  0.45594000000E+02  0.51100000000E-03 0.  1.
    9900012    2    1    2    0    0 -0.17253752666E+02 -0.10244526264E+02 -0.35362735347E+02  0.50528863872E+02  0.30000012227E+02 0.  0.
         12    1    1    2    0    0  0.17253752666E+02  0.10244526264E+02  0.35362735347E+02  0.40659136128E+02  0.00000000000E+00 0. -1.
         11    1    3    3    0    0  0.27916446002E+01 -0.11304936381E+02 -0.23481150978E+02  0.26209908769E+02  0.51100000000E-03 0. -1.
        -11    1    3    3    0    0 -0.19034482233E+02  0.12531800522E+01 -0.12773223248E+02  0.22957290923E+02  0.51100000000E-03 0.  1.
         12    1    3    3    0    0 -0.10109150327E+01 -0.19276993455E+00  0.89163887856E+00  0.13616641806E+01  0.00000000000E+00 0. -1.
</event>
<event>
 7    1  0.1369731E-013  0.5052886E+02  0.7816164E-02  0.1300439E+00
        -11   -1    0    0    0    0  0.00000000000E+00  0.00000000000E+00  0.45593999997E+02  0.45594000000E+02  0.51100000000E-03 0. -1.
         11   -1    0    0    0    0 -0.00000000000E+00 -0.00000000000E+00 -0.45593999997E+02  0.45594000000E+02  0.51100000000E-03 0.  1.
    9900012    2    1    2    0    0 -0.16389658852E+01 -0.39083250811E+02 -0.11089605394E+02  0.50528855261E+02  0.29999986050E+02 0.  0.
         12    1    1    2    0    0  0.16389658852E+01  0.39083250811E+02  0.11089605394E+02  0.40659144739E+02  0.00000000000E+00 0. -1.
         11    1    3    3    0    0 -0.79286124294E+01 -0.10626925586E+02  0.34912831089E+01  0.13710707512E+02  0.51100000000E-03 0. -1.
        -11    1    3    3    0    0  0.10727293995E+02 -0.26429563628E+02 -0.10295878057E+02  0.30324936525E+02  0.51100000000E-03 0.  1.
        -12    1    3    3    0    0 -0.44376474513E+01 -0.20267615970E+01 -0.42850104455E+01  0.64932112234E+01  0.00000000000E+00 0.  1.
</event>
<event>
 7    1  0.1369731E-013  0.5052889E+02  0.7816164E-02  0.1300439E+00
        -11   -1    0    0    0    0  0.00000000000E+00  0.00000000000E+00  0.45593999997E+02  0.45594000000E+02  0.51100000000E-03 0. -1.
         11   -1    0    0    0    0 -0.00000000000E+00 -0.00000000000E+00 -0.45593999997E+02  0.45594000000E+02  0.51100000000E-03 0.  1.
    9900012    2    1    2    0    0  0.13370906410E+02  0.85370096000E+01 -0.37436632705E+02  0.50528891065E+02  0.30000094880E+02 0.  0.
         12    1    1    2    0    0 -0.13370906410E+02 -0.85370096000E+01  0.37436632705E+02  0.40659108935E+02  0.00000000000E+00 0. -1.
         11    1    3    3    0    0  0.53719839378E+00 -0.32688787791E+01 -0.30733686682E+01  0.45188212864E+01  0.51100000000E-03 0. -1.
        -11    1    3    3    0    0  0.18667507928E+02  0.14180874697E+02 -0.31010932061E+02  0.38874811472E+02  0.51100000000E-03 0.  1.
        -12    1    3    3    0    0 -0.58337999117E+01 -0.23749863182E+01 -0.33523319758E+01  0.71352583063E+01  0.00000000000E+00 0.  1.
</event>
<event>
 7    1  0.1369731E-013  0.5052884E+02  0.7816164E-02  0.1300439E+00
        -11   -1    0    0    0    0  0.00000000000E+00  0.00000000000E+00  0.45593999997E+02  0.45594000000E+02  0.51100000000E-03 0. -1.
         11   -1    0    0    0    0 -0.00000000000E+00 -0.00000000000E+00 -0.45593999997E+02  0.45594000000E+02  0.51100000000E-03 0.  1.
    9900012    2    1    2    0    0 -0.25024594527E+02 -0.31640277905E+02  0.50822873292E+01  0.50528841602E+02  0.29999944532E+02 0.  0.
         12    1    1    2    0    0  0.25024594527E+02  0.31640277905E+02 -0.50822873292E+01  0.40659158398E+02  0.00000000000E+00 0. -1.
         11    1    3    3    0    0  0.21209182372E+01 -0.65754001609E+00  0.13523627148E+01  0.25999111937E+01  0.51100000000E-03 0. -1.
        -11    1    3    3    0    0 -0.19924579641E+02 -0.27917273505E+02 -0.66309821567E+01  0.34933264354E+02  0.51100000000E-03 0.  1.
        -12    1    3    3    0    0 -0.72209331235E+01 -0.30654643841E+01  0.10360906771E+02  0.12995666054E+02  0.00000000000E+00 0.  1.
</event>
<event>
 7    1  0.1369731E-013  0.5052886E+02  0.7816164E-02  0.1300439E+00
        -11   -1    0    0    0    0  0.00000000000E+00  0.00000000000E+00  0.45593999997E+02  0.45594000000E+02  0.51100000000E-03 0. -1.
         11   -1    0    0    0    0 -0.00000000000E+00 -0.00000000000E+00 -0.45593999997E+02  0.45594000000E+02  0.51100000000E-03 0.  1.
    9900012    2    1    2    0    0  0.26284334384E+02  0.20017448731E+02  0.23698121278E+02  0.50528862775E+02  0.30000008892E+02 0.  0.
        -12    1    1    2    0    0 -0.26284334384E+02 -0.20017448731E+02 -0.23698121278E+02  0.40659137225E+02  0.00000000000E+00 0.  1.
         11    1    3    3    0    0  0.43888519661E+01  0.12509732384E+02  0.21289119817E+02  0.25079514523E+02  0.51100000000E-03 0. -1.
        -11    1    3    3    0    0  0.49086861939E+00 -0.18922018286E+01  0.28265946580E+00  0.19751649036E+01  0.51100000000E-03 0.  1.
         12    1    3    3    0    0  0.21404613799E+02  0.93999181763E+01  0.21263419954E+01  0.23474183349E+02  0.00000000000E+00 0. -1.
</event>
<event>
 7    1  0.1369731E-013  0.5052886E+02  0.7816164E-02  0.1300439E+00
        -11   -1    0    0    0    0  0.00000000000E+00  0.00000000000E+00  0.45593999997E+02  0.45594000000E+02  0.51100000000E-03 0. -1.
         11   -1    0    0    0    0 -0.00000000000E+00 -0.00000000000E+00 -0.45593999997E+02  0.45594000000E+02  0.51100000000E-03 0.  1.
    9900012    2    1    2    0    0  0.22513505597E+02  0.80647795106E+01  0.32882624094E+02  0.50528861174E+02  0.30000004023E+02 0.  0.
        -12    1    1    2    0    0 -0.22513505597E+02 -0.80647795106E+01 -0.32882624094E+02  0.40659138826E+02  0.00000000000E+00 0.  1.
         11    1    3    3    0    0 -0.65077573542E+00 -0.59002817637E+00  0.15384993215E+02  0.15410050578E+02  0.51100000000E-03 0.  1.
        -11    1    3    3    0    0  0.81381137882E+01  0.12035142947E+02  0.52743901119E+01  0.15456155832E+02  0.51100000000E-03 0. -1.
        -12    1    3    3    0    0  0.15026167544E+02 -0.33803352600E+01  0.12223240766E+02  0.19662654764E+02  0.00000000000E+00 0.  1.
</event>
<event>
 7    1  0.1369731E-013  0.5052885E+02  0.7816164E-02  0.1300439E+00
        -11   -1    0    0    0    0  0.00000000000E+00  0.00000000000E+00  0.45593999997E+02  0.45594000000E+02  0.51100000000E-03 0. -1.
         11   -1    0    0    0    0 -0.00000000000E+00 -0.00000000000E+00 -0.45593999997E+02  0.45594000000E+02  0.51100000000E-03 0.  1.
    9900012    2    1    2    0    0 -0.17045936386E+02 -0.16446591529E+02 -0.33047119373E+02  0.50528850734E+02  0.29999972291E+02 0.  0.
         12    1    1    2    0    0  0.17045936386E+02  0.16446591529E+02  0.33047119373E+02  0.40659149266E+02  0.00000000000E+00 0. -1.
         11    1    3    3    0    0 -0.10332944437E+02  0.12052682855E+01 -0.94168764507E+01  0.14032105142E+02  0.51100000000E-03 0. -1.
        -11    1    3    3    0    0  0.71683422545E+01 -0.81429884744E+01 -0.75056822091E+01  0.13191992179E+02  0.51100000000E-03 0.  1.
        -12    1    3    3    0    0 -0.13881334204E+02 -0.95088713404E+01 -0.16124560713E+02  0.23304753413E+02  0.00000000000E+00 0.  1.
</event>
<event>
 7    1  0.1369731E-013  0.5052886E+02  0.7816164E-02  0.1300439E+00
        -11   -1    0    0    0    0  0.00000000000E+00  0.00000000000E+00  0.45593999997E+02  0.45594000000E+02  0.51100000000E-03 0. -1.
         11   -1    0    0    0    0 -0.00000000000E+00 -0.00000000000E+00 -0.45593999997E+02  0.45594000000E+02  0.51100000000E-03 0.  1.
    9900012    2    1    2    0    0  0.11655019651E+02  0.27729312829E+01  0.38854051349E+02  0.50528856659E+02  0.29999990301E+02 0.  0.
        -12    1    1    2    0    0 -0.11655019651E+02 -0.27729312829E+01 -0.38854051349E+02  0.40659143341E+02  0.00000000000E+00 0.  1.
         11    1    3    3    0    0  0.95365387795E+01 -0.24375758723E+00  0.42386698671E+02  0.43446947121E+02  0.51100000000E-03 0. -1.
        -11    1    3    3    0    0  0.31847401393E+01  0.34258832340E+01 -0.18109514202E+01  0.50158539647E+01  0.51100000000E-03 0.  1.
         12    1    3    3    0    0 -0.10662592679E+01 -0.40919436382E+00 -0.17216959015E+01  0.20660555731E+01  0.00000000000E+00 0. -1.
</event>
<event>
 7    1  0.1369731E-013  0.5052884E+02  0.7816164E-02  0.1300439E+00
        -11   -1    0    0    0    0  0.00000000000E+00  0.00000000000E+00  0.45593999997E+02  0.45594000000E+02  0.51100000000E-03 0.  1.
         11   -1    0    0    0    0 -0.00000000000E+00 -0.00000000000E+00 -0.45593999997E+02  0.45594000000E+02  0.51100000000E-03 0. -1.
    9900012    2    1    2    0    0 -0.13459673617E+02  0.36765156669E+02  0.10969386230E+02  0.50528843675E+02  0.29999950834E+02 0.  0.
        -12    1    1    2    0    0  0.13459673617E+02 -0.36765156669E+02 -0.10969386230E+02  0.40659156325E+02  0.00000000000E+00 0.  1.
         11    1    3    3    0    0 -0.14277453507E+02  0.19408582608E+01  0.21323838433E+01  0.14565701856E+02  0.51100000000E-03 0. -1.
        -11    1    3    3    0    0  0.23632476856E+00  0.27013647654E+02  0.64301166052E+01  0.27769396983E+02  0.51100000000E-03 0.  1.
         12    1    3    3    0    0  0.58145512169E+00  0.78106507545E+01  0.24068857818E+01  0.81937448358E+01  0.00000000000E+00 0. -1.
</event>
<event>
 7    1  0.1369731E-013  0.5052885E+02  0.7816164E-02  0.1300439E+00
        -11   -1    0    0    0    0  0.00000000000E+00  0.00000000000E+00  0.45593999997E+02  0.45594000000E+02  0.51100000000E-03 0. -1.
         11   -1    0    0    0    0 -0.00000000000E+00 -0.00000000000E+00 -0.45593999997E+02  0.45594000000E+02  0.51100000000E-03 0.  1.
    9900012    2    1    2    0    0 -0.21989991036E+02 -0.28112557119E+02 -0.19475385128E+02  0.50528853435E+02  0.29999980500E+02 0.  0.
         12    1    1    2    0    0  0.21989991036E+02  0.28112557119E+02  0.19475385128E+02  0.40659146565E+02  0.00000000000E+00 0. -1.
         11    1    3    3    0    0 -0.21189719292E+02 -0.87348124694E+01 -0.12269788785E+01  0.22952268515E+02  0.51100000000E-03 0. -1.
        -11    1    3    3    0    0 -0.74196410296E+00 -0.15248813928E+02 -0.17757660090E+02  0.23418183727E+02  0.51100000000E-03 0.  1.
         12    1    3    3    0    0 -0.58307641418E-01 -0.41289307217E+01 -0.49074615928E+00  0.41584011926E+01  0.00000000000E+00 0. -1.
</event>
<event>
 7    1  0.1369731E-013  0.5052886E+02  0.7816164E-02  0.1300439E+00
        -11   -1    0    0    0    0  0.00000000000E+00  0.00000000000E+00  0.45593999997E+02  0.45594000000E+02  0.51100000000E-03 0.  1.
         11   -1    0    0    0    0 -0.00000000000E+00 -0.00000000000E+00 -0.45593999997E+02  0.45594000000E+02  0.51100000000E-03 0. -1.
    9900012    2    1    2    0    0 -0.15641169618E+02  0.29202655742E+02 -0.23573810631E+02  0.50528857891E+02  0.29999994044E+02 0.  0.
         12    1    1    2    0    0  0.15641169618E+02 -0.29202655742E+02  0.23573810631E+02  0.40659142109E+02  0.00000000000E+00 0. -1.
         11    1    3    3    0    0 -0.98059653972E+01  0.73957299417E-01  0.17535860978E+01  0.99618016200E+01  0.51100000000E-03 0. -1.
        -11    1    3    3    0    0 -0.67081205132E+00  0.14954824385E+02 -0.61907812934E+01  0.16199460931E+02  0.51100000000E-03 0.  1.
         12    1    3    3    0    0 -0.51643921698E+01  0.14173874058E+02 -0.19136615436E+02  0.24367595339E+02  0.00000000000E+00 0. -1.
</event>
<event>
 7    1  0.1369731E-013  0.5052886E+02  0.7816164E-02  0.1300439E+00
        -11   -1    0    0    0    0  0.00000000000E+00  0.00000000000E+00  0.45593999997E+02  0.45594000000E+02  0.51100000000E-03 0. -1.
         11   -1    0    0    0    0 -0.00000000000E+00 -0.00000000000E+00 -0.45593999997E+02  0.45594000000E+02  0.51100000000E-03 0.  1.
    9900012    2    1    2    0    0 -0.15262253120E+02 -0.12001892963E+02 -0.35723717659E+02  0.50528858244E+02  0.29999995118E+02 0.  0.
         12    1    1    2    0    0  0.15262253120E+02  0.12001892963E+02  0.35723717659E+02  0.40659141756E+02  0.00000000000E+00 0. -1.
         11    1    3    3    0    0 -0.52022955243E+00 -0.12204096138E+02 -0.30537450745E+02  0.32889914862E+02  0.51100000000E-03 0. -1.
        -11    1    3    3    0    0 -0.71063033310E+01  0.30807323058E+01 -0.54561920487E+01  0.94742013122E+01  0.51100000000E-03 0.  1.
         12    1    3    3    0    0 -0.76357202365E+01 -0.28785291304E+01  0.26992513558E+00  0.81647420696E+01  0.00000000000E+00 0. -1.
</event>
<event>
 7    1  0.1369731E-013  0.5052886E+02  0.7816164E-02  0.1300439E+00
        -11   -1    0    0    0    0  0.00000000000E+00  0.00000000000E+00  0.45593999997E+02  0.45594000000E+02  0.51100000000E-03 0. -1.
         11   -1    0    0    0    0 -0.00000000000E+00 -0.00000000000E+00 -0.45593999997E+02  0.45594000000E+02  0.51100000000E-03 0.  1.
    9900012    2    1    2    0    0 -0.23455891082E+02  0.15921365971E+02  0.29146130521E+02  0.50528860250E+02  0.30000001217E+02 0.  0.
        -12    1    1    2    0    0  0.23455891082E+02 -0.15921365971E+02 -0.29146130521E+02  0.40659139750E+02  0.00000000000E+00 0.  1.
         11    1    3    3    0    0  0.31623167114E+01  0.43524309915E+01  0.14117748170E+02  0.15108101011E+02  0.51100000000E-03 0. -1.
        -11    1    3    3    0    0 -0.96578834135E+01 -0.20539201767E+01  0.20336924411E+01  0.10081131153E+02  0.51100000000E-03 0.  1.
         12    1    3    3    0    0 -0.16960324379E+02  0.13622855156E+02  0.12994689910E+02  0.25339628086E+02  0.00000000000E+00 0. -1.
</event>
<event>
 7    1  0.1369731E-013  0.5052886E+02  0.7816164E-02  0.1300439E+00
        -11   -1    0    0    0    0  0.00000000000E+00  0.00000000000E+00  0.45593999997E+02  0.45594000000E+02  0.51100000000E-03 0. -1.
         11   -1    0    0    0    0 -0.00000000000E+00 -0.00000000000E+00 -0.45593999997E+02  0.45594000000E+02  0.51100000000E-03 0.  1.
    9900012    2    1    2    0    0 -0.12624589405E+02 -0.14460332456E+02  0.35842486511E+02  0.50528864352E+02  0.30000013684E+02 0.  0.
        -12    1    1    2    0    0  0.12624589405E+02  0.14460332456E+02 -0.35842486511E+02  0.40659135648E+02  0.00000000000E+00 0.  1.
         11    1    3    3    0    0  0.23489321227E+00  0.24794674436E+01  0.42635900092E+01  0.49377255546E+01  0.51100000000E-03 0. -1.
        -11    1    3    3    0    0 -0.13265332376E+02 -0.22555766520E+02  0.29861542972E+02  0.39704450573E+02  0.51100000000E-03 0.  1.
        -12    1    3    3    0    0  0.40584975846E+00  0.56159666203E+01  0.17173535294E+01  0.58866882244E+01  0.00000000000E+00 0.  1.
</event>
<event>
 7    1  0.1557049E-013  0.5052885E+02  0.7816164E-02  0.1300439E+00
        -11   -1    0    0    0    0  0.00000000000E+00  0.00000000000E+00  0.45593999997E+02  0.45594000000E+02  0.51100000000E-03 0. -1.
         11   -1    0    0    0    0 -0.00000000000E+00 -0.00000000000E+00 -0.45593999997E+02  0.45594000000E+02  0.51100000000E-03 0.  1.
    9900012    2    1    2    0    0  0.10500437739E+02 -0.54453803052E+01 -0.38900580015E+02  0.50528849924E+02  0.29999969829E+02 0.  0.
         12    1    1    2    0    0 -0.10500437739E+02  0.54453803052E+01  0.38900580015E+02  0.40659150076E+02  0.00000000000E+00 0. -1.
         11    1    3    3    0    0  0.54792309010E+00  0.10388491042E+02 -0.10070299891E+02  0.14478670726E+02  0.51100000000E-03 0. -1.
        -11    1    3    3    0    0  0.72144071802E+01 -0.39268270248E+01 -0.17741244991E+02  0.19550432618E+02  0.51100000000E-03 0.  1.
         12    1    3    3    0    0  0.27381074685E+01 -0.11907044323E+02 -0.11089035133E+02  0.16499746580E+02  0.00000000000E+00 0. -1.
</event>
<event>
 7    1  0.1369731E-013  0.5052891E+02  0.7816164E-02  0.1300439E+00
        -11   -1    0    0    0    0  0.00000000000E+00  0.00000000000E+00  0.45593999997E+02  0.45594000000E+02  0.51100000000E-03 0. -1.
         11   -1    0    0    0    0 -0.00000000000E+00 -0.00000000000E+00 -0.45593999997E+02  0.45594000000E+02  0.51100000000E-03 0.  1.
    9900012    2    1    2    0    0 -0.12279722670E+02 -0.12092602057E+02 -0.36825797646E+02  0.50528905254E+02  0.30000138009E+02 0.  0.
         12    1    1    2    0    0  0.12279722670E+02  0.12092602057E+02  0.36825797646E+02  0.40659094746E+02  0.00000000000E+00 0. -1.
         11    1    3    3    0    0 -0.14441989683E+02 -0.89660068140E+01 -0.10262669069E+02  0.19856553600E+02  0.51100000000E-03 0. -1.
        -11    1    3    3    0    0  0.25990858385E+01 -0.10276595568E+01 -0.27969197900E+02  0.28108492717E+02  0.51100000000E-03 0.  1.
         12    1    3    3    0    0 -0.43681882530E+00 -0.20989356863E+01  0.14060693239E+01  0.25638589363E+01  0.00000000000E+00 0. -1.
</event>
<event>
 7    1  0.1369731E-013  0.5052886E+02  0.7816164E-02  0.1300439E+00
        -11   -1    0    0    0    0  0.00000000000E+00  0.00000000000E+00  0.45593999997E+02  0.45594000000E+02  0.51100000000E-03 0. -1.
         11   -1    0    0    0    0 -0.00000000000E+00 -0.00000000000E+00 -0.45593999997E+02  0.45594000000E+02  0.51100000000E-03 0.  1.
    9900012    2    1    2    0    0 -0.72997609506E+01  0.38722770048E+01  0.39810606184E+02  0.50528863218E+02  0.30000010237E+02 0.  0.
        -12    1    1    2    0    0  0.72997609506E+01 -0.38722770048E+01 -0.39810606184E+02  0.40659136782E+02  0.00000000000E+00 0.  1.
         11    1    3    3    0    0 -0.35791884313E+01 -0.28359030309E+01  0.30725774659E+02  0.31063260686E+02  0.51100000000E-03 0. -1.
        -11    1    3    3    0    0 -0.12344527288E+01  0.83455532393E+00 -0.43475744698E+01  0.45958416161E+01  0.51100000000E-03 0.  1.
         12    1    3    3    0    0 -0.24861197905E+01  0.58736247118E+01  0.13432405995E+02  0.14869760915E+02  0.00000000000E+00 0. -1.
</event>
<event>
 7    1  0.1369731E-013  0.5052885E+02  0.7816164E-02  0.1300439E+00
        -11   -1    0    0    0    0  0.00000000000E+00  0.00000000000E+00  0.45593999997E+02  0.45594000000E+02  0.51100000000E-03 0.  1.
         11   -1    0    0    0    0 -0.00000000000E+00 -0.00000000000E+00 -0.45593999997E+02  0.45594000000E+02  0.51100000000E-03 0. -1.
    9900012    2    1    2    0    0  0.35087756750E+02 -0.18164164957E+02  0.95957559831E+01  0.50528854716E+02  0.29999984394E+02 0.  0.
        -12    1    1    2    0    0 -0.35087756750E+02  0.18164164957E+02 -0.95957559831E+01  0.40659145284E+02  0.00000000000E+00 0.  1.
         11    1    3    3    0    0  0.39833520417E+00  0.35256627436E+01 -0.14276866237E+01  0.38245598535E+01  0.51100000000E-03 0.  1.
        -11    1    3    3    0    0  0.12660708160E+02 -0.18450476224E+02  0.97317585710E+01  0.24401244418E+02  0.51100000000E-03 0. -1.
        -12    1    3    3    0    0  0.22028713387E+02 -0.32393514762E+01  0.12916840359E+01  0.22303050444E+02  0.00000000000E+00 0.  1.
</event>
<event>
 7    1  0.1369731E-013  0.5052882E+02  0.7816164E-02  0.1300439E+00
        -11   -1    0    0    0    0  0.00000000000E+00  0.00000000000E+00  0.45593999997E+02  0.45594000000E+02  0.51100000000E-03 0. -1.
         11   -1    0    0    0    0 -0.00000000000E+00 -0.00000000000E+00 -0.45593999997E+02  0.45594000000E+02  0.51100000000E-03 0.  1.
    9900012    2    1    2    0    0 -0.15258006532E+02 -0.37192827055E+02  0.60873450863E+01  0.50528820005E+02  0.29999878887E+02 0.  0.
        -12    1    1    2    0    0  0.15258006532E+02  0.37192827055E+02 -0.60873450863E+01  0.40659179995E+02  0.00000000000E+00 0.  1.
         11    1    3    3    0    0 -0.54492018760E+01 -0.30339052290E+02  0.82160640158E+01  0.31900714775E+02  0.51100000000E-03 0. -1.
        -11    1    3    3    0    0  0.51701342717E+00  0.35586599000E+01 -0.16487246183E+01  0.39559646480E+01  0.51100000000E-03 0.  1.
         12    1    3    3    0    0 -0.10325818083E+02 -0.10412434664E+02 -0.47999431120E+00  0.14672140583E+02  0.00000000000E+00 0. -1.
</event>
<event>
 7    1  0.1705515E-013  0.5052886E+02  0.7816164E-02  0.1300439E+00
        -11   -1    0    0    0    0  0.00000000000E+00  0.00000000000E+00  0.45593999997E+02  0.45594000000E+02  0.51100000000E-03 0. -1.
         11   -1    0    0    0    0 -0.00000000000E+00 -0.00000000000E+00 -0.45593999997E+02  0.45594000000E+02  0.51100000000E-03 0.  1.
    9900012    2    1    2    0    0 -0.22130217903E+02 -0.10105978123E+02 -0.32577423111E+02  0.50528857918E+02  0.29999994129E+02 0.  0.
         12    1    1    2    0    0  0.22130217903E+02  0.10105978123E+02  0.32577423111E+02  0.40659142082E+02  0.00000000000E+00 0. -1.
         11    1    3    3    0    0 -0.26015494708E+01 -0.11848210358E+02 -0.80667994872E+01  0.14567820790E+02  0.51100000000E-03 0. -1.
        -11    1    3    3    0    0 -0.12890665120E+02  0.58808780370E+01 -0.51429521665E+01  0.15073285341E+02  0.51100000000E-03 0.  1.
        -12    1    3    3    0    0 -0.66380033117E+01 -0.41386458019E+01 -0.19367671457E+02  0.20887751787E+02  0.00000000000E+00 0.  1.
</event>
<event>
 7    1  0.1369731E-013  0.5052886E+02  0.7816164E-02  0.1300439E+00
        -11   -1    0    0    0    0  0.00000000000E+00  0.00000000000E+00  0.45593999997E+02  0.45594000000E+02  0.51100000000E-03 0.  1.
         11   -1    0    0    0    0 -0.00000000000E+00 -0.00000000000E+00 -0.45593999997E+02  0.45594000000E+02  0.51100000000E-03 0. -1.
    9900012    2    1    2    0    0 -0.20436398796E+02 -0.33935767509E+02 -0.91587582195E+01  0.50528861244E+02  0.30000004239E+02 0.  0.
        -12    1    1    2    0    0  0.20436398796E+02  0.33935767509E+02  0.91587582195E+01  0.40659138756E+02  0.00000000000E+00 0.  1.
         11    1    3    3    0    0 -0.29090743598E+01 -0.20908937390E+02 -0.16248996477E+02  0.26639749683E+02  0.51100000000E-03 0. -1.
        -11    1    3    3    0    0 -0.11288421574E+02 -0.11818728570E+02  0.61634948921E+01  0.17467096959E+02  0.51100000000E-03 0.  1.
         12    1    3    3    0    0 -0.62389028627E+01 -0.12081015497E+01  0.92674336542E+00  0.64220146021E+01  0.00000000000E+00 0. -1.
</event>
<event>
 7    1  0.1369731E-013  0.5052883E+02  0.7816164E-02  0.1300439E+00
        -11   -1    0    0    0    0  0.00000000000E+00  0.00000000000E+00  0.45593999997E+02  0.45594000000E+02  0.51100000000E-03 0. -1.
         11   -1    0    0    0    0 -0.00000000000E+00 -0.00000000000E+00 -0.45593999997E+02  0.45594000000E+02  0.51100000000E-03 0.  1.
    9900012    2    1    2    0    0  0.15942936738E+02  0.33296990495E+01 -0.37254579067E+02  0.50528833887E+02  0.29999921081E+02 0.  0.
         12    1    1    2    0    0 -0.15942936738E+02 -0.33296990495E+01  0.37254579067E+02  0.40659166113E+02  0.00000000000E+00 0. -1.
         11    1    3    3    0    0 -0.21552039607E+01  0.13713830356E+01 -0.30970343865E+01  0.40146254863E+01  0.51100000000E-03 0. -1.
        -11    1    3    3    0    0  0.21786291188E+02 -0.61148505662E+01 -0.23120606452E+02  0.32351141003E+02  0.51100000000E-03 0.  1.
        -12    1    3    3    0    0 -0.36881504892E+01  0.80731665801E+01 -0.11036938228E+02  0.14163067398E+02  0.00000000000E+00 0.  1.
</event>
<event>
 7    1  0.1369731E-013  0.5052886E+02  0.7816164E-02  0.1300439E+00
        -11   -1    0    0    0    0  0.00000000000E+00  0.00000000000E+00  0.45593999997E+02  0.45594000000E+02  0.51100000000E-03 0. -1.
         11   -1    0    0    0    0 -0.00000000000E+00 -0.00000000000E+00 -0.45593999997E+02  0.45594000000E+02  0.51100000000E-03 0.  1.
    9900012    2    1    2    0    0 -0.26801036506E+02 -0.82856295591E+01 -0.29431594877E+02  0.50528855985E+02  0.29999988253E+02 0.  0.
         12    1    1    2    0    0  0.26801036506E+02  0.82856295591E+01  0.29431594877E+02  0.40659144015E+02  0.00000000000E+00 0. -1.
         11    1    3    3    0    0 -0.20334223116E+02 -0.13477404017E+02 -0.28417766847E+02  0.37452510217E+02  0.51100000000E-03 0.  1.
        -11    1    3    3    0    0 -0.34691814726E+01 -0.26411719671E+01  0.95021551381E+00  0.44625014547E+01  0.51100000000E-03 0. -1.
         12    1    3    3    0    0 -0.29976319180E+01  0.78329464248E+01 -0.19640435443E+01  0.86138443133E+01  0.00000000000E+00 0. -1.
</event>
<event>
 7    1  0.1369731E-013  0.5052886E+02  0.7816164E-02  0.1300439E+00
        -11   -1    0    0    0    0  0.00000000000E+00  0.00000000000E+00  0.45593999997E+02  0.45594000000E+02  0.51100000000E-03 0. -1.
         11   -1    0    0    0    0 -0.00000000000E+00 -0.00000000000E+00 -0.45593999997E+02  0.45594000000E+02  0.51100000000E-03 0.  1.
    9900012    2    1    2    0    0 -0.65832560294E+01 -0.36434450681E+02  0.16803480652E+02  0.50528863039E+02  0.30000009694E+02 0.  0.
        -12    1    1    2    0    0  0.65832560294E+01  0.36434450681E+02 -0.16803480652E+02  0.40659136961E+02  0.00000000000E+00 0.  1.
         11    1    3    3    0    0  0.17254945815E+01 -0.25087490026E+02  0.36503119936E+01  0.25410318087E+02  0.51100000000E-03 0. -1.
        -11    1    3    3    0    0 -0.11254678764E+02 -0.41956321672E+01  0.12533042633E+02  0.17359385970E+02  0.51100000000E-03 0.  1.
        -12    1    3    3    0    0  0.29459281528E+01 -0.71513284878E+01  0.62012602484E+00  0.77591589820E+01  0.00000000000E+00 0.  1.
</event>
<event>
 7    1  0.1369731E-013  0.5052886E+02  0.7816164E-02  0.1300439E+00
        -11   -1    0    0    0    0  0.00000000000E+00  0.00000000000E+00  0.45593999997E+02  0.45594000000E+02  0.51100000000E-03 0. -1.
         11   -1    0    0    0    0 -0.00000000000E+00 -0.00000000000E+00 -0.45593999997E+02  0.45594000000E+02  0.51100000000E-03 0.  1.
    9900012    2    1    2    0    0  0.22190753639E+01 -0.21904910461E+02  0.34182107475E+02  0.50528857495E+02  0.29999992843E+02 0.  0.
        -12    1    1    2    0    0 -0.22190753639E+01  0.21904910461E+02 -0.34182107475E+02  0.40659142505E+02  0.00000000000E+00 0.  1.
         11    1    3    3    0    0  0.22649730089E+01 -0.23529219249E+02  0.35490408349E+02  0.42641802802E+02  0.51100000000E-03 0. -1.
        -11    1    3    3    0    0  0.10133179204E+01  0.23387778788E+01  0.26803434222E+01  0.36987749724E+01  0.51100000000E-03 0.  1.
         12    1    3    3    0    0 -0.10592155653E+01 -0.71446909108E+00 -0.39886442963E+01  0.41882797207E+01  0.00000000000E+00 0. -1.
</event>
<event>
 7    1  0.1369731E-013  0.5052886E+02  0.7816164E-02  0.1300439E+00
        -11   -1    0    0    0    0  0.00000000000E+00  0.00000000000E+00  0.45593999997E+02  0.45594000000E+02  0.51100000000E-03 0. -1.
         11   -1    0    0    0    0 -0.00000000000E+00 -0.00000000000E+00 -0.45593999997E+02  0.45594000000E+02  0.51100000000E-03 0.  1.
    9900012    2    1    2    0    0 -0.28749743170E+01  0.76080350438E+01  0.39837397904E+02  0.50528856548E+02  0.29999989962E+02 0.  0.
        -12    1    1    2    0    0  0.28749743170E+01 -0.76080350438E+01 -0.39837397904E+02  0.40659143452E+02  0.00000000000E+00 0.  1.
         11    1    3    3    0    0 -0.57075988827E+01 -0.69496719459E+01  0.29690760708E+02  0.31022828640E+02  0.51100000000E-03 0. -1.
        -11    1    3    3    0    0  0.18998682842E+01  0.95512428566E+01  0.10598761531E+02  0.14393383405E+02  0.51100000000E-03 0.  1.
         12    1    3    3    0    0  0.93275628149E+00  0.50064641331E+01 -0.45212433475E+00  0.51126445027E+01  0.00000000000E+00 0. -1.
</event>
<event>
 7    1  0.1369731E-013  0.5052886E+02  0.7816164E-02  0.1300439E+00
        -11   -1    0    0    0    0  0.00000000000E+00  0.00000000000E+00  0.45593999997E+02  0.45594000000E+02  0.51100000000E-03 0.  1.
         11   -1    0    0    0    0 -0.00000000000E+00 -0.00000000000E+00 -0.45593999997E+02  0.45594000000E+02  0.51100000000E-03 0. -1.
    9900012    2    1    2    0    0  0.21314829227E+02  0.30165700260E+02  0.16996303561E+02  0.50528858938E+02  0.29999997227E+02 0.  0.
        -12    1    1    2    0    0 -0.21314829227E+02 -0.30165700260E+02 -0.16996303561E+02  0.40659141062E+02  0.00000000000E+00 0.  1.
         11    1    3    3    0    0  0.24406686309E+02  0.23547566233E+02  0.50324662072E+01  0.34285564433E+02  0.51100000000E-03 0. -1.
        -11    1    3    3    0    0 -0.28696450454E+01  0.42496486335E+00  0.88390244496E+01  0.93028926310E+01  0.51100000000E-03 0.  1.
         12    1    3    3    0    0 -0.22221203629E+00  0.61931691642E+01  0.31248129043E+01  0.69404018740E+01  0.00000000000E+00 0. -1.
</event>
<event>
 7    1  0.1369731E-013  0.5052888E+02  0.7816164E-02  0.1300439E+00
        -11   -1    0    0    0    0  0.00000000000E+00  0.00000000000E+00  0.45593999997E+02  0.45594000000E+02  0.51100000000E-03 0. -1.
         11   -1    0    0    0    0 -0.00000000000E+00 -0.00000000000E+00 -0.45593999997E+02  0.45594000000E+02  0.51100000000E-03 0.  1.
    9900012    2    1    2    0    0 -0.79194140804E+01  0.18524332777E+02  0.35317072594E+02  0.50528884899E+02  0.30000076139E+02 0.  0.
        -12    1    1    2    0    0  0.79194140804E+01 -0.18524332777E+02 -0.35317072594E+02  0.40659115101E+02  0.00000000000E+00 0.  1.
         11    1    3    3    0    0 -0.95415906827E+01  0.51715314931E+01  0.87254984339E+00  0.10887976590E+02  0.51100000000E-03 0. -1.
        -11    1    3    3    0    0  0.33893202727E+01 -0.17303388605E+01  0.11608404056E+02  0.12216243672E+02  0.51100000000E-03 0.  1.
         12    1    3    3    0    0 -0.17671436704E+01  0.15083140144E+02  0.22836118695E+02  0.27424664636E+02  0.00000000000E+00 0. -1.
</event>
<event>
 7    1  0.1369731E-013  0.5052885E+02  0.7816164E-02  0.1300439E+00
        -11   -1    0    0    0    0  0.00000000000E+00  0.00000000000E+00  0.45593999997E+02  0.45594000000E+02  0.51100000000E-03 0. -1.
         11   -1    0    0    0    0 -0.00000000000E+00 -0.00000000000E+00 -0.45593999997E+02  0.45594000000E+02  0.51100000000E-03 0.  1.
    9900012    2    1    2    0    0 -0.63837803873E+01  0.73312349350E+01  0.39479959097E+02  0.50528845704E+02  0.29999957003E+02 0.  0.
        -12    1    1    2    0    0  0.63837803873E+01 -0.73312349350E+01 -0.39479959097E+02  0.40659154296E+02  0.00000000000E+00 0.  1.
         11    1    3    3    0    0 -0.10799745197E+02 -0.60927624401E+01  0.61365960962E+01  0.13835247102E+02  0.51100000000E-03 0. -1.
        -11    1    3    3    0    0  0.10032842661E+01  0.60927057587E+01  0.80909662806E+01  0.10177984987E+02  0.51100000000E-03 0.  1.
         12    1    3    3    0    0  0.34126805433E+01  0.73312916164E+01  0.25252396721E+02  0.26515613615E+02  0.00000000000E+00 0. -1.
</event>
<event>
 7    1  0.1369731E-013  0.5052886E+02  0.7816164E-02  0.1300439E+00
        -11   -1    0    0    0    0  0.00000000000E+00  0.00000000000E+00  0.45593999997E+02  0.45594000000E+02  0.51100000000E-03 0. -1.
         11   -1    0    0    0    0 -0.00000000000E+00 -0.00000000000E+00 -0.45593999997E+02  0.45594000000E+02  0.51100000000E-03 0.  1.
    9900012    2    1    2    0    0 -0.19173490989E+02 -0.17954829038E+02 -0.31034932029E+02  0.50528860209E+02  0.30000001092E+02 0.  0.
         12    1    1    2    0    0  0.19173490989E+02  0.17954829038E+02  0.31034932029E+02  0.40659139791E+02  0.00000000000E+00 0. -1.
         11    1    3    3    0    0 -0.52222854872E+00 -0.11837178273E+02 -0.11997322936E+00  0.11849299809E+02  0.51100000000E-03 0. -1.
        -11    1    3    3    0    0 -0.14101454940E+02 -0.58560726522E+01 -0.30493542708E+02  0.34102797033E+02  0.51100000000E-03 0.  1.
         12    1    3    3    0    0 -0.45498075005E+01 -0.26157811341E+00 -0.42141609154E+00  0.45767633676E+01  0.00000000000E+00 0. -1.
</event>
<event>
 7    1  0.1369731E-013  0.5052886E+02  0.7816164E-02  0.1300439E+00
        -11   -1    0    0    0    0  0.00000000000E+00  0.00000000000E+00  0.45593999997E+02  0.45594000000E+02  0.51100000000E-03 0. -1.
         11   -1    0    0    0    0 -0.00000000000E+00 -0.00000000000E+00 -0.45593999997E+02  0.45594000000E+02  0.51100000000E-03 0.  1.
    9900012    2    1    2    0    0  0.14340025797E+02  0.11744141411E+02 -0.36188457795E+02  0.50528859885E+02  0.30000000106E+02 0.  0.
         12    1    1    2    0    0 -0.14340025797E+02 -0.11744141411E+02  0.36188457795E+02  0.40659140115E+02  0.00000000000E+00 0. -1.
         11    1    3    3    0    0 -0.38507517611E+01 -0.45696667238E+01 -0.91924560403E+01  0.10964095558E+02  0.51100000000E-03 0. -1.
        -11    1    3    3    0    0  0.91600412524E+01  0.16467070269E+02 -0.22875750289E+02  0.29637319557E+02  0.51100000000E-03 0.  1.
        -12    1    3    3    0    0  0.90307363061E+01 -0.15326213472E+00 -0.41202514654E+01  0.99274447694E+01  0.00000000000E+00 0.  1.
</event>
<event>
 7    1  0.1369731E-013  0.5052886E+02  0.7816164E-02  0.1300439E+00
        -11   -1    0    0    0    0  0.00000000000E+00  0.00000000000E+00  0.45593999997E+02  0.45594000000E+02  0.51100000000E-03 0. -1.
         11   -1    0    0    0    0 -0.00000000000E+00 -0.00000000000E+00 -0.45593999997E+02  0.45594000000E+02  0.51100000000E-03 0.  1.
    9900012    2    1    2    0    0  0.10278143686E+02  0.13092324626E+02 -0.37096047137E+02  0.50528856933E+02  0.29999991134E+02 0.  0.
         12    1    1    2    0    0 -0.10278143686E+02 -0.13092324626E+02  0.37096047137E+02  0.40659143067E+02  0.00000000000E+00 0. -1.
         11    1    3    3    0    0 -0.52138615310E+01  0.12977217907E+01  0.85329305266E+00  0.54402705085E+01  0.51100000000E-03 0. -1.
        -11    1    3    3    0    0  0.13730027416E+02  0.18789398547E+01 -0.17761071450E+02  0.22527754595E+02  0.51100000000E-03 0.  1.
         12    1    3    3    0    0  0.17619778013E+01  0.99156629804E+01 -0.20188268740E+02  0.22560831829E+02  0.00000000000E+00 0. -1.
</event>
<event>
 7    1  0.1369731E-013  0.5052886E+02  0.7816164E-02  0.1300439E+00
        -11   -1    0    0    0    0  0.00000000000E+00  0.00000000000E+00  0.45593999997E+02  0.45594000000E+02  0.51100000000E-03 0. -1.
         11   -1    0    0    0    0 -0.00000000000E+00 -0.00000000000E+00 -0.45593999997E+02  0.45594000000E+02  0.51100000000E-03 0.  1.
    9900012    2    1    2    0    0  0.85402789546E+01 -0.21617227723E+02 -0.33360531388E+02  0.50528856458E+02  0.29999989690E+02 0.  0.
         12    1    1    2    0    0 -0.85402789546E+01  0.21617227723E+02  0.33360531388E+02  0.40659143542E+02  0.00000000000E+00 0. -1.
         11    1    3    3    0    0  0.94177563766E+01 -0.13402575543E+02 -0.11002524451E+01  0.16417482208E+02  0.51100000000E-03 0. -1.
        -11    1    3    3    0    0  0.14365822660E+01 -0.86005665688E-01 -0.12986338427E+02  0.13065839108E+02  0.51100000000E-03 0.  1.
         12    1    3    3    0    0 -0.23140596880E+01 -0.81286465148E+01 -0.19273940516E+02  0.21045535142E+02  0.00000000000E+00 0. -1.
</event>
<event>
 7    1  0.1369731E-013  0.5052885E+02  0.7816164E-02  0.1300439E+00
        -11   -1    0    0    0    0  0.00000000000E+00  0.00000000000E+00  0.45593999997E+02  0.45594000000E+02  0.51100000000E-03 0. -1.
         11   -1    0    0    0    0 -0.00000000000E+00 -0.00000000000E+00 -0.45593999997E+02  0.45594000000E+02  0.51100000000E-03 0.  1.
    9900012    2    1    2    0    0 -0.66153325279E+01  0.26800615269E+02 -0.29851814340E+02  0.50528850690E+02  0.29999972157E+02 0.  0.
         12    1    1    2    0    0  0.66153325279E+01 -0.26800615269E+02  0.29851814340E+02  0.40659149310E+02  0.00000000000E+00 0. -1.
         11    1    3    3    0    0  0.93783621495E+01  0.36729595715E+01 -0.59025036213E+01  0.11674067752E+02  0.51100000000E-03 0. -1.
        -11    1    3    3    0    0 -0.14512038547E+02  0.11307767860E+02 -0.11897539066E+02  0.21909274585E+02  0.51100000000E-03 0.  1.
         12    1    3    3    0    0 -0.14816561306E+01  0.11819887837E+02 -0.12051771652E+02  0.16945508352E+02  0.00000000000E+00 0. -1.
</event>
<event>
 7    1  0.1369731E-013  0.5052885E+02  0.7816164E-02  0.1300439E+00
        -11   -1    0    0    0    0  0.00000000000E+00  0.00000000000E+00  0.45593999997E+02  0.45594000000E+02  0.51100000000E-03 0. -1.
         11   -1    0    0    0    0 -0.00000000000E+00 -0.00000000000E+00 -0.45593999997E+02  0.45594000000E+02  0.51100000000E-03 0.  1.
    9900012    2    1    2    0    0 -0.80416687562E+01 -0.28540420161E+02  0.27819824257E+02  0.50528848004E+02  0.29999963992E+02 0.  0.
        -12    1    1    2    0    0  0.80416687562E+01  0.28540420161E+02 -0.27819824257E+02  0.40659151996E+02  0.00000000000E+00 0.  1.
         11    1    3    3    0    0  0.58086204568E+00 -0.30773651049E+01  0.81714234895E+01  0.87509850194E+01  0.51100000000E-03 0. -1.
        -11    1    3    3    0    0 -0.90856207724E+01 -0.25260012263E+02  0.52280633242E+01  0.27348663052E+02  0.51100000000E-03 0.  1.
        -12    1    3    3    0    0  0.46308997043E+00 -0.20304279329E+00  0.14420337443E+02  0.14429199932E+02  0.00000000000E+00 0.  1.
</event>
<event>
 7    1  0.1369731E-013  0.5052885E+02  0.7816164E-02  0.1300439E+00
        -11   -1    0    0    0    0  0.00000000000E+00  0.00000000000E+00  0.45593999997E+02  0.45594000000E+02  0.51100000000E-03 0.  1.
         11   -1    0    0    0    0 -0.00000000000E+00 -0.00000000000E+00 -0.45593999997E+02  0.45594000000E+02  0.51100000000E-03 0. -1.
    9900012    2    1    2    0    0 -0.14803347824E+02  0.34154442705E+02  0.16355478636E+02  0.50528846729E+02  0.29999960118E+02 0.  0.
        -12    1    1    2    0    0  0.14803347824E+02 -0.34154442705E+02 -0.16355478636E+02  0.40659153271E+02  0.00000000000E+00 0.  1.
         11    1    3    3    0    0 -0.79492919816E+01  0.27471645629E+02  0.11914992650E+02  0.30981439713E+02  0.51100000000E-03 0. -1.
        -11    1    3    3    0    0 -0.11313857049E+01  0.23185196134E+00 -0.59406062120E+01  0.60518254578E+01  0.51100000000E-03 0.  1.
        -12    1    3    3    0    0 -0.57226701372E+01  0.64509451146E+01  0.10381092198E+02  0.13495581558E+02  0.00000000000E+00 0.  1.
</event>
<event>
 7    1  0.1369731E-013  0.5052887E+02  0.7816164E-02  0.1300439E+00
        -11   -1    0    0    0    0  0.00000000000E+00  0.00000000000E+00  0.45593999997E+02  0.45594000000E+02  0.51100000000E-03 0. -1.
         11   -1    0    0    0    0 -0.00000000000E+00 -0.00000000000E+00 -0.45593999997E+02  0.45594000000E+02  0.51100000000E-03 0.  1.
    9900012    2    1    2    0    0 -0.27366897014E+02 -0.49115382583E+01 -0.29666394321E+02  0.50528865575E+02  0.30000017400E+02 0.  0.
         12    1    1    2    0    0  0.27366897014E+02  0.49115382583E+01  0.29666394321E+02  0.40659134425E+02  0.00000000000E+00 0. -1.
         11    1    3    3    0    0  0.29692782116E+01 -0.18468426511E+01 -0.39835087934E+00  0.35193926407E+01  0.51100000000E-03 0. -1.
        -11    1    3    3    0    0 -0.18495065690E+02  0.41340523410E+01 -0.59126807640E+01  0.19852396272E+02  0.51100000000E-03 0.  1.
        -12    1    3    3    0    0 -0.11841109535E+02 -0.71987479482E+01 -0.23355362677E+02  0.27157076662E+02  0.00000000000E+00 0.  1.
</event>
<event>
 7    1  0.1369731E-013  0.5052886E+02  0.7816164E-02  0.1300439E+00
        -11   -1    0    0    0    0  0.00000000000E+00  0.00000000000E+00  0.45593999997E+02  0.45594000000E+02  0.51100000000E-03 0. -1.
         11   -1    0    0    0    0 -0.00000000000E+00 -0.00000000000E+00 -0.45593999997E+02  0.45594000000E+02  0.51100000000E-03 0.  1.
    9900012    2    1    2    0    0 -0.48820797727E+01  0.11817263665E+02  0.38596415169E+02  0.50528859732E+02  0.29999999642E+02 0.  0.
        -12    1    1    2    0    0  0.48820797727E+01 -0.11817263665E+02 -0.38596415169E+02  0.40659140268E+02  0.00000000000E+00 0.  1.
         11    1    3    3    0    0  0.26474315062E+01 -0.56554677624E+01  0.23679155866E+02  0.24488683754E+02  0.51100000000E-03 0. -1.
        -11    1    3    3    0    0  0.11454263133E+01 -0.31666905725E+00 -0.10486577781E+00  0.11930120802E+01  0.51100000000E-03 0.  1.
         12    1    3    3    0    0 -0.86749375922E+01  0.17789400485E+02  0.15022125080E+02  0.24847163898E+02  0.00000000000E+00 0. -1.
</event>
<event>
 7    1  0.1369731E-013  0.5052887E+02  0.7816164E-02  0.1300439E+00
        -11   -1    0    0    0    0  0.00000000000E+00  0.00000000000E+00  0.45593999997E+02  0.45594000000E+02  0.51100000000E-03 0. -1.
         11   -1    0    0    0    0 -0.00000000000E+00 -0.00000000000E+00 -0.45593999997E+02  0.45594000000E+02  0.51100000000E-03 0.  1.
    9900012    2    1    2    0    0 -0.16179757085E+02 -0.13021213054E+02 -0.34954665062E+02  0.50528866483E+02  0.30000020163E+02 0.  0.
         12    1    1    2    0    0  0.16179757085E+02  0.13021213054E+02  0.34954665062E+02  0.40659133517E+02  0.00000000000E+00 0. -1.
         11    1    3    3    0    0  0.13293383295E+01  0.21736562802E+01 -0.10130534248E+02  0.10446034962E+02  0.51100000000E-03 0. -1.
        -11    1    3    3    0    0 -0.21712535173E+02 -0.16247580982E+02 -0.20916727273E+02  0.34248029892E+02  0.51100000000E-03 0.  1.
        -12    1    3    3    0    0  0.42034397588E+01  0.10527116478E+01 -0.39074035415E+01  0.58348016294E+01  0.00000000000E+00 0.  1.
</event>
<event>
 7    1  0.2176557E-013  0.5052887E+02  0.7816164E-02  0.1300439E+00
        -11   -1    0    0    0    0  0.00000000000E+00  0.00000000000E+00  0.45593999997E+02  0.45594000000E+02  0.51100000000E-03 0. -1.
         11   -1    0    0    0    0 -0.00000000000E+00 -0.00000000000E+00 -0.45593999997E+02  0.45594000000E+02  0.51100000000E-03 0.  1.
    9900012    2    1    2    0    0  0.62724190590E+01 -0.58270106785E+01  0.39747543147E+02  0.50528874573E+02  0.30000044752E+02 0.  0.
        -12    1    1    2    0    0 -0.62724190590E+01  0.58270106785E+01 -0.39747543147E+02  0.40659125427E+02  0.00000000000E+00 0.  1.
         11    1    3    3    0    0 -0.46844967108E+01 -0.58324031453E+01  0.26980817867E+02  0.27998677986E+02  0.51100000000E-03 0. -1.
        -11    1    3    3    0    0  0.11127857768E+02 -0.50585518248E+01  0.48920381295E+01  0.13166252405E+02  0.51100000000E-03 0.  1.
         12    1    3    3    0    0 -0.17094199795E+00  0.50639442916E+01  0.78746871496E+01  0.93639441828E+01  0.00000000000E+00 0. -1.
</event>
<event>
 7    1  0.1369731E-013  0.5052886E+02  0.7816164E-02  0.1300439E+00
        -11   -1    0    0    0    0  0.00000000000E+00  0.00000000000E+00  0.45593999997E+02  0.45594000000E+02  0.51100000000E-03 0. -1.
         11   -1    0    0    0    0 -0.00000000000E+00 -0.00000000000E+00 -0.45593999997E+02  0.45594000000E+02  0.51100000000E-03 0.  1.
    9900012    2    1    2    0    0  0.18297728778E+02 -0.96244921709E+01  0.35010395147E+02  0.50528862081E+02  0.30000006782E+02 0.  0.
        -12    1    1    2    0    0 -0.18297728778E+02  0.96244921709E+01 -0.35010395147E+02  0.40659137919E+02  0.00000000000E+00 0.  1.
         11    1    3    3    0    0 -0.24184875186E+01 -0.13326994656E+02  0.18526017831E+02  0.22949318189E+02  0.51100000000E-03 0. -1.
        -11    1    3    3    0    0  0.37476969427E+01  0.12073967262E+01  0.22083927330E+00  0.39435782577E+01  0.51100000000E-03 0.  1.
         12    1    3    3    0    0  0.16968519354E+02  0.24951057586E+01  0.16263538043E+02  0.23635965634E+02  0.00000000000E+00 0. -1.
</event>
<event>
 7    1  0.1369731E-013  0.5052887E+02  0.7816164E-02  0.1300439E+00
        -11   -1    0    0    0    0  0.00000000000E+00  0.00000000000E+00  0.45593999997E+02  0.45594000000E+02  0.51100000000E-03 0. -1.
         11   -1    0    0    0    0 -0.00000000000E+00 -0.00000000000E+00 -0.45593999997E+02  0.45594000000E+02  0.51100000000E-03 0.  1.
    9900012    2    1    2    0    0 -0.10219014806E+02  0.33835073710E+01 -0.39208265987E+02  0.50528874242E+02  0.30000043745E+02 0.  0.
         12    1    1    2    0    0  0.10219014806E+02 -0.33835073710E+01  0.39208265987E+02  0.40659125758E+02  0.00000000000E+00 0. -1.
         11    1    3    3    0    0 -0.41990608267E+01  0.12758518743E+02 -0.25581682691E+02  0.28893501033E+02  0.51100000000E-03 0.  1.
        -11    1    3    3    0    0 -0.37621879327E+01 -0.98644500711E+01 -0.15435864319E+02  0.18700998390E+02  0.51100000000E-03 0. -1.
         12    1    3    3    0    0 -0.22577660462E+01  0.48943869951E+00  0.18092810234E+01  0.29343748195E+01  0.00000000000E+00 0. -1.
</event>
<event>
 7    1  0.1369731E-013  0.5052886E+02  0.7816164E-02  0.1300439E+00
        -11   -1    0    0    0    0  0.00000000000E+00  0.00000000000E+00  0.45593999997E+02  0.45594000000E+02  0.51100000000E-03 0. -1.
         11   -1    0    0    0    0 -0.00000000000E+00 -0.00000000000E+00 -0.45593999997E+02  0.45594000000E+02  0.51100000000E-03 0.  1.
    9900012    2    1    2    0    0 -0.32156419052E+02 -0.19576969055E+02 -0.15358149402E+02  0.50528858879E+02  0.29999997048E+02 0.  0.
         12    1    1    2    0    0  0.32156419052E+02  0.19576969055E+02  0.15358149402E+02  0.40659141121E+02  0.00000000000E+00 0. -1.
         11    1    3    3    0    0 -0.17219925405E+02 -0.53351980846E+01 -0.21053107987E+02  0.27716845523E+02  0.51100000000E-03 0. -1.
        -11    1    3    3    0    0 -0.96144571041E+01 -0.76413273518E+01 -0.53131326082E+00  0.12292679250E+02  0.51100000000E-03 0.  1.
         12    1    3    3    0    0 -0.53220365429E+01 -0.66004436189E+01  0.62262718460E+01  0.10519334106E+02  0.00000000000E+00 0. -1.
</event>
<event>
 7    1  0.1369731E-013  0.5052885E+02  0.7816164E-02  0.1300439E+00
        -11   -1    0    0    0    0  0.00000000000E+00  0.00000000000E+00  0.45593999997E+02  0.45594000000E+02  0.51100000000E-03 0. -1.
         11   -1    0    0    0    0 -0.00000000000E+00 -0.00000000000E+00 -0.45593999997E+02  0.45594000000E+02  0.51100000000E-03 0.  1.
    9900012    2    1    2    0    0 -0.36284084494E-01  0.10375382125E+02  0.39313054698E+02  0.50528854159E+02  0.29999982703E+02 0.  0.
        -12    1    1    2    0    0  0.36284084494E-01 -0.10375382125E+02 -0.39313054698E+02  0.40659145841E+02  0.00000000000E+00 0.  1.
         11    1    3    3    0    0 -0.20093126725E+01  0.99640698570E+01  0.57263412839E+01  0.11666662346E+02  0.51100000000E-03 0. -1.
        -11    1    3    3    0    0  0.85300074008E+01 -0.58563752896E+01  0.20134915601E+02  0.22637866160E+02  0.51100000000E-03 0.  1.
        -12    1    3    3    0    0 -0.65569788128E+01  0.62676875579E+01  0.13451797814E+02  0.16224325653E+02  0.00000000000E+00 0.  1.
</event>
<event>
 7    1  0.1369731E-013  0.5052886E+02  0.7816164E-02  0.1300439E+00
        -11   -1    0    0    0    0  0.00000000000E+00  0.00000000000E+00  0.45593999997E+02  0.45594000000E+02  0.51100000000E-03 0. -1.
         11   -1    0    0    0    0 -0.00000000000E+00 -0.00000000000E+00 -0.45593999997E+02  0.45594000000E+02  0.51100000000E-03 0.  1.
    9900012    2    1    2    0    0  0.22985939412E+02 -0.19744723178E+02 -0.27110112739E+02  0.50528859370E+02  0.29999998542E+02 0.  0.
         12    1    1    2    0    0 -0.22985939412E+02  0.19744723178E+02  0.27110112739E+02  0.40659140630E+02  0.00000000000E+00 0. -1.
         11    1    3    3    0    0 -0.30581559332E+01 -0.11282616794E+01  0.32326442772E+01  0.45907822224E+01  0.51100000000E-03 0. -1.
        -11    1    3    3    0    0  0.85377542575E+01 -0.12451643578E+01 -0.13682426355E+02  0.16175675357E+02  0.51100000000E-03 0.  1.
         12    1    3    3    0    0  0.17506341088E+02 -0.17371297140E+02 -0.16660330661E+02  0.29762401791E+02  0.00000000000E+00 0. -1.
</event>
<event>
 7    1  0.1369731E-013  0.5052887E+02  0.7816164E-02  0.1300439E+00
        -11   -1    0    0    0    0  0.00000000000E+00  0.00000000000E+00  0.45593999997E+02  0.45594000000E+02  0.51100000000E-03 0. -1.
         11   -1    0    0    0    0 -0.00000000000E+00 -0.00000000000E+00 -0.45593999997E+02  0.45594000000E+02  0.51100000000E-03 0.  1.
    9900012    2    1    2    0    0 -0.23408426148E+02  0.30694952907E+02  0.12768338553E+02  0.50528867961E+02  0.30000024656E+02 0.  0.
        -12    1    1    2    0    0  0.23408426148E+02 -0.30694952907E+02 -0.12768338553E+02  0.40659132039E+02  0.00000000000E+00 0.  1.
         11    1    3    3    0    0 -0.56379381863E+01  0.36374167390E+01 -0.82562297666E+01  0.10638725382E+02  0.51100000000E-03 0. -1.
        -11    1    3    3    0    0 -0.37286748348E+01  0.14075406579E+02  0.68824599503E+01  0.16105537607E+02  0.51100000000E-03 0.  1.
         12    1    3    3    0    0 -0.14041813127E+02  0.12982129589E+02  0.14142108369E+02  0.23784604973E+02  0.00000000000E+00 0. -1.
</event>
<event>
 7    1  0.1369731E-013  0.5052887E+02  0.7816164E-02  0.1300439E+00
        -11   -1    0    0    0    0  0.00000000000E+00  0.00000000000E+00  0.45593999997E+02  0.45594000000E+02  0.51100000000E-03 0. -1.
         11   -1    0    0    0    0 -0.00000000000E+00 -0.00000000000E+00 -0.45593999997E+02  0.45594000000E+02  0.51100000000E-03 0.  1.
    9900012    2    1    2    0    0 -0.38834894702E+02  0.11635524098E+02 -0.31032851395E+01  0.50528870075E+02  0.30000031080E+02 0.  0.
         12    1    1    2    0    0  0.38834894702E+02 -0.11635524098E+02  0.31032851395E+01  0.40659129925E+02  0.00000000000E+00 0. -1.
         11    1    3    3    0    0 -0.36608355646E+02  0.47085696847E+01  0.18896367921E+01  0.36958261039E+02  0.51100000000E-03 0.  1.
        -11    1    3    3    0    0  0.10758350083E+01  0.34572942192E+01 -0.73787869146E+01  0.82192944269E+01  0.51100000000E-03 0. -1.
        -12    1    3    3    0    0 -0.33023740649E+01  0.34696601945E+01  0.23858649831E+01  0.53513146093E+01  0.00000000000E+00 0.  1.
</event>
<event>
 7    1  0.1369731E-013  0.5052885E+02  0.7816164E-02  0.1300439E+00
        -11   -1    0    0    0    0  0.00000000000E+00  0.00000000000E+00  0.45593999997E+02  0.45594000000E+02  0.51100000000E-03 0. -1.
         11   -1    0    0    0    0 -0.00000000000E+00 -0.00000000000E+00 -0.45593999997E+02  0.45594000000E+02  0.51100000000E-03 0.  1.
    9900012    2    1    2    0    0  0.60236505006E+01  0.75137182491E+01  0.39502226433E+02  0.50528853176E+02  0.29999979714E+02 0.  0.
        -12    1    1    2    0    0 -0.60236505006E+01 -0.75137182491E+01 -0.39502226433E+02  0.40659146824E+02  0.00000000000E+00 0.  1.
         11    1    3    3    0    0  0.32747992854E+01 -0.10012112371E+02  0.76160228582E+01  0.12998865679E+02  0.51100000000E-03 0. -1.
        -11    1    3    3    0    0 -0.16784065796E+01  0.14087787691E+02  0.22756344398E+02  0.26816674314E+02  0.51100000000E-03 0.  1.
         12    1    3    3    0    0  0.44272577948E+01  0.34380429296E+01  0.91298591768E+01  0.10713313183E+02  0.00000000000E+00 0. -1.
</event>
<event>
 7    1  0.1369731E-013  0.5052898E+02  0.7816164E-02  0.1300438E+00
        -11   -1    0    0    0    0  0.00000000000E+00  0.00000000000E+00  0.45593999997E+02  0.45594000000E+02  0.51100000000E-03 0. -1.
         11   -1    0    0    0    0 -0.00000000000E+00 -0.00000000000E+00 -0.45593999997E+02  0.45594000000E+02  0.51100000000E-03 0.  1.
    9900012    2    1    2    0    0 -0.94969216354E+01 -0.18485302393E+02 -0.34946507333E+02  0.50528975173E+02  0.30000350533E+02 0.  0.
         12    1    1    2    0    0  0.94969216354E+01  0.18485302393E+02  0.34946507333E+02  0.40659024827E+02  0.00000000000E+00 0. -1.
         11    1    3    3    0    0  0.30936881018E+01 -0.16429358860E+01 -0.27238929770E+00  0.35134513783E+01  0.51100000000E-03 0. -1.
        -11    1    3    3    0    0 -0.11253128527E+02 -0.22342575112E+02 -0.32355232158E+02  0.40898467117E+02  0.51100000000E-03 0.  1.
        -12    1    3    3    0    0 -0.13374812106E+01  0.55002086044E+01 -0.23188858774E+01  0.61170566773E+01  0.00000000000E+00 0.  1.
</event>
<event>
 7    1  0.1369731E-013  0.5052882E+02  0.7816164E-02  0.1300439E+00
        -11   -1    0    0    0    0  0.00000000000E+00  0.00000000000E+00  0.45593999997E+02  0.45594000000E+02  0.51100000000E-03 0. -1.
         11   -1    0    0    0    0 -0.00000000000E+00 -0.00000000000E+00 -0.45593999997E+02  0.45594000000E+02  0.51100000000E-03 0.  1.
    9900012    2    1    2    0    0 -0.28186811377E+02 -0.55837432923E+01  0.28766206536E+02  0.50528816988E+02  0.29999869717E+02 0.  0.
        -12    1    1    2    0    0  0.28186811377E+02  0.55837432923E+01 -0.28766206536E+02  0.40659183012E+02  0.00000000000E+00 0.  1.
         11    1    3    3    0    0 -0.15310482940E+01 -0.10285728459E+02  0.15180506100E+02  0.18400763151E+02  0.51100000000E-03 0. -1.
        -11    1    3    3    0    0 -0.23452452368E+02  0.66175929771E+01  0.14404039254E+02  0.28307002773E+02  0.51100000000E-03 0.  1.
         12    1    3    3    0    0 -0.32033107148E+01 -0.19156078103E+01 -0.81833881838E+00  0.38210510649E+01  0.00000000000E+00 0. -1.
</event>
<event>
 7    1  0.1369731E-013  0.5052886E+02  0.7816164E-02  0.1300439E+00
        -11   -1    0    0    0    0  0.00000000000E+00  0.00000000000E+00  0.45593999997E+02  0.45594000000E+02  0.51100000000E-03 0. -1.
         11   -1    0    0    0    0 -0.00000000000E+00 -0.00000000000E+00 -0.45593999997E+02  0.45594000000E+02  0.51100000000E-03 0.  1.
    9900012    2    1    2    0    0  0.27383935184E+02  0.54469351229E+01 -0.29557010876E+02  0.50528857113E+02  0.29999991679E+02 0.  0.
         12    1    1    2    0    0 -0.27383935184E+02 -0.54469351229E+01  0.29557010876E+02  0.40659142887E+02  0.00000000000E+00 0. -1.
         11    1    3    3    0    0  0.21883583961E+02  0.16519764751E+02 -0.20724733897E+02  0.34370168312E+02  0.51100000000E-03 0. -1.
        -11    1    3    3    0    0 -0.78588079842E+00 -0.39447238237E+01 -0.28275262280E+01  0.49166410796E+01  0.51100000000E-03 0.  1.
         12    1    3    3    0    0  0.62862320216E+01 -0.71281058042E+01 -0.60047507510E+01  0.11242047721E+02  0.00000000000E+00 0. -1.
</event>
<event>
 7    1  0.1369731E-013  0.5052885E+02  0.7816164E-02  0.1300439E+00
        -11   -1    0    0    0    0  0.00000000000E+00  0.00000000000E+00  0.45593999997E+02  0.45594000000E+02  0.51100000000E-03 0. -1.
         11   -1    0    0    0    0 -0.00000000000E+00 -0.00000000000E+00 -0.45593999997E+02  0.45594000000E+02  0.51100000000E-03 0.  1.
    9900012    2    1    2    0    0  0.14552970128E+02  0.15835464754E+02 -0.34505300010E+02  0.50528848358E+02  0.29999965068E+02 0.  0.
         12    1    1    2    0    0 -0.14552970128E+02 -0.15835464754E+02  0.34505300010E+02  0.40659151642E+02  0.00000000000E+00 0. -1.
         11    1    3    3    0    0  0.12098295141E+02  0.65648417576E+01 -0.41067773584E+01  0.14364244260E+02  0.51100000000E-03 0.  1.
        -11    1    3    3    0    0 -0.43089031695E+01  0.10033673038E+02 -0.25614631844E+02  0.27845118170E+02  0.51100000000E-03 0. -1.
         12    1    3    3    0    0  0.67635781558E+01 -0.76305004116E+00 -0.47838908073E+01  0.83194859271E+01  0.00000000000E+00 0. -1.
</event>
<event>
 7    1  0.1369731E-013  0.5052886E+02  0.7816164E-02  0.1300439E+00
        -11   -1    0    0    0    0  0.00000000000E+00  0.00000000000E+00  0.45593999997E+02  0.45594000000E+02  0.51100000000E-03 0. -1.
         11   -1    0    0    0    0 -0.00000000000E+00 -0.00000000000E+00 -0.45593999997E+02  0.45594000000E+02  0.51100000000E-03 0.  1.
    9900012    2    1    2    0    0 -0.11179190594E+02 -0.56296507804E+01  0.38684600085E+02  0.50528861372E+02  0.30000004626E+02 0.  0.
        -12    1    1    2    0    0  0.11179190594E+02  0.56296507804E+01 -0.38684600085E+02  0.40659138628E+02  0.00000000000E+00 0.  1.
         11    1    3    3    0    0 -0.16918509799E+01 -0.57655889932E+00  0.85060884460E+01  0.86918537042E+01  0.51100000000E-03 0. -1.
        -11    1    3    3    0    0 -0.50546872988E+01 -0.76313369231E+01 -0.19021588219E+01  0.93490841994E+01  0.51100000000E-03 0.  1.
        -12    1    3    3    0    0 -0.44326523152E+01  0.25782450420E+01  0.32080670461E+02  0.32487923468E+02  0.00000000000E+00 0.  1.
</event>
<event>
 7    1  0.1369731E-013  0.5052886E+02  0.7816164E-02  0.1300439E+00
        -11   -1    0    0    0    0  0.00000000000E+00  0.00000000000E+00  0.45593999997E+02  0.45594000000E+02  0.51100000000E-03 0.  1.
         11   -1    0    0    0    0 -0.00000000000E+00 -0.00000000000E+00 -0.45593999997E+02  0.45594000000E+02  0.51100000000E-03 0. -1.
    9900012    2    1    2    0    0  0.34641466427E+02  0.85007904206E+01 -0.19515916510E+02  0.50528860422E+02  0.30000001737E+02 0.  0.
         12    1    1    2    0    0 -0.34641466427E+02 -0.85007904206E+01  0.19515916510E+02  0.40659139578E+02  0.00000000000E+00 0. -1.
         11    1    3    3    0    0  0.17182263418E+02 -0.79258374564E+01 -0.10742934610E+02  0.21759129575E+02  0.51100000000E-03 0. -1.
        -11    1    3    3    0    0  0.16027999017E+02  0.12960574493E+02 -0.15984810841E+01  0.20674341240E+02  0.51100000000E-03 0.  1.
         12    1    3    3    0    0  0.14312039929E+01  0.34660533839E+01 -0.71745008159E+01  0.80953896068E+01  0.00000000000E+00 0. -1.
</event>
<event>
 7    1  0.1369731E-013  0.5052886E+02  0.7816164E-02  0.1300439E+00
        -11   -1    0    0    0    0  0.00000000000E+00  0.00000000000E+00  0.45593999997E+02  0.45594000000E+02  0.51100000000E-03 0. -1.
         11   -1    0    0    0    0 -0.00000000000E+00 -0.00000000000E+00 -0.45593999997E+02  0.45594000000E+02  0.51100000000E-03 0.  1.
    9900012    2    1    2    0    0  0.54403262704E+01 -0.39612811414E+01  0.40098340233E+02  0.50528858498E+02  0.29999995892E+02 0.  0.
        -12    1    1    2    0    0 -0.54403262704E+01  0.39612811414E+01 -0.40098340233E+02  0.40659141502E+02  0.00000000000E+00 0.  1.
         11    1    3    3    0    0  0.27216190242E+01 -0.28844383515E+01  0.53918636186E+01  0.66932345140E+01  0.51100000000E-03 0. -1.
        -11    1    3    3    0    0 -0.93222980732E+01 -0.56098391254E+01  0.61103674799E+01  0.12478466548E+02  0.51100000000E-03 0.  1.
        -12    1    3    3    0    0  0.12041005319E+02  0.45329963355E+01  0.28596109135E+02  0.31357157437E+02  0.00000000000E+00 0.  1.
</event>
<event>
 7    1  0.1369731E-013  0.5052886E+02  0.7816164E-02  0.1300439E+00
        -11   -1    0    0    0    0  0.00000000000E+00  0.00000000000E+00  0.45593999997E+02  0.45594000000E+02  0.51100000000E-03 0. -1.
         11   -1    0    0    0    0 -0.00000000000E+00 -0.00000000000E+00 -0.45593999997E+02  0.45594000000E+02  0.51100000000E-03 0.  1.
    9900012    2    1    2    0    0  0.17421463890E+02  0.21505938899E+02  0.29785107801E+02  0.50528862543E+02  0.30000008186E+02 0.  0.
        -12    1    1    2    0    0 -0.17421463890E+02 -0.21505938899E+02 -0.29785107801E+02  0.40659137457E+02  0.00000000000E+00 0.  1.
         11    1    3    3    0    0  0.19838388444E+02  0.11949199770E+02  0.16309887761E+02  0.28325915171E+02  0.51100000000E-03 0. -1.
        -11    1    3    3    0    0 -0.10934358703E+01  0.51643150569E+01  0.16082241321E+02  0.16926436074E+02  0.51100000000E-03 0.  1.
        -12    1    3    3    0    0 -0.13234886839E+01  0.43924240720E+01 -0.26070212809E+01  0.52765112985E+01  0.00000000000E+00 0.  1.
</event>
<event>
 7    1  0.1369731E-013  0.5052885E+02  0.7816164E-02  0.1300439E+00
        -11   -1    0    0    0    0  0.00000000000E+00  0.00000000000E+00  0.45593999997E+02  0.45594000000E+02  0.51100000000E-03 0.  1.
         11   -1    0    0    0    0 -0.00000000000E+00 -0.00000000000E+00 -0.45593999997E+02  0.45594000000E+02  0.51100000000E-03 0. -1.
    9900012    2    1    2    0    0  0.35306802151E+02  0.18346610083E+02  0.83664692043E+01  0.50528853592E+02  0.29999980978E+02 0.  0.
        -12    1    1    2    0    0 -0.35306802151E+02 -0.18346610083E+02 -0.83664692043E+01  0.40659146408E+02  0.00000000000E+00 0.  1.
         11    1    3    3    0    0  0.21086154878E+02  0.19240492084E+01  0.10468627576E+02  0.23620331422E+02  0.51100000000E-03 0. -1.
        -11    1    3    3    0    0  0.25219308012E+01 -0.14300381561E+01 -0.45805144829E+01  0.54209092672E+01  0.51100000000E-03 0.  1.
         12    1    3    3    0    0  0.11698716472E+02  0.17852599031E+02  0.24783561113E+01  0.21487612903E+02  0.00000000000E+00 0. -1.
</event>
<event>
 7    1  0.1369731E-013  0.5052886E+02  0.7816164E-02  0.1300439E+00
        -11   -1    0    0    0    0  0.00000000000E+00  0.00000000000E+00  0.45593999997E+02  0.45594000000E+02  0.51100000000E-03 0. -1.
         11   -1    0    0    0    0 -0.00000000000E+00 -0.00000000000E+00 -0.45593999997E+02  0.45594000000E+02  0.51100000000E-03 0.  1.
    9900012    2    1    2    0    0  0.34239286448E+01  0.24086648672E+02  0.32577230279E+02  0.50528857556E+02  0.29999993027E+02 0.  0.
        -12    1    1    2    0    0 -0.34239286448E+01 -0.24086648672E+02 -0.32577230279E+02  0.40659142444E+02  0.00000000000E+00 0.  1.
         11    1    3    3    0    0  0.75470863714E-01  0.12444071932E+02  0.18279085165E+02  0.22113018266E+02  0.51100000000E-03 0. -1.
        -11    1    3    3    0    0  0.73533900680E+01  0.13018596823E+02  0.16082884029E+01  0.15038045105E+02  0.51100000000E-03 0.  1.
        -12    1    3    3    0    0 -0.40049322869E+01 -0.13760200831E+01  0.12689856711E+02  0.13377794185E+02  0.00000000000E+00 0.  1.
</event>
<event>
 7    1  0.1369731E-013  0.5052881E+02  0.7816164E-02  0.1300439E+00
        -11   -1    0    0    0    0  0.00000000000E+00  0.00000000000E+00  0.45593999997E+02  0.45594000000E+02  0.51100000000E-03 0. -1.
         11   -1    0    0    0    0 -0.00000000000E+00 -0.00000000000E+00 -0.45593999997E+02  0.45594000000E+02  0.51100000000E-03 0.  1.
    9900012    2    1    2    0    0 -0.22454393263E+02  0.46732230209E+01 -0.33572766293E+02  0.50528813747E+02  0.29999859864E+02 0.  0.
         12    1    1    2    0    0  0.22454393263E+02 -0.46732230209E+01  0.33572766293E+02  0.40659186253E+02  0.00000000000E+00 0. -1.
         11    1    3    3    0    0 -0.72282187851E+01  0.87836283020E+01 -0.16555927957E+01  0.11495227737E+02  0.51100000000E-03 0. -1.
        -11    1    3    3    0    0 -0.46378940776E+01 -0.90597640105E+01 -0.19401300761E+02  0.21908899034E+02  0.51100000000E-03 0.  1.
        -12    1    3    3    0    0 -0.10588280400E+02  0.49493587294E+01 -0.12515872737E+02  0.17124686976E+02  0.00000000000E+00 0.  1.
</event>
<event>
 7    1  0.1369731E-013  0.5052886E+02  0.7816164E-02  0.1300439E+00
        -11   -1    0    0    0    0  0.00000000000E+00  0.00000000000E+00  0.45593999997E+02  0.45594000000E+02  0.51100000000E-03 0. -1.
         11   -1    0    0    0    0 -0.00000000000E+00 -0.00000000000E+00 -0.45593999997E+02  0.45594000000E+02  0.51100000000E-03 0.  1.
    9900012    2    1    2    0    0 -0.39087174493E+02 -0.33950343735E+01 -0.10669225726E+02  0.50528857783E+02  0.29999993716E+02 0.  0.
         12    1    1    2    0    0  0.39087174493E+02  0.33950343735E+01  0.10669225726E+02  0.40659142217E+02  0.00000000000E+00 0. -1.
         11    1    3    3    0    0 -0.40945762836E+01  0.19027742863E+01 -0.96120326722E+01  0.10619664650E+02  0.51100000000E-03 0. -1.
        -11    1    3    3    0    0 -0.30491709158E+02 -0.23715804817E+01  0.58732888278E+01  0.31142643486E+02  0.51100000000E-03 0.  1.
        -12    1    3    3    0    0 -0.45008890515E+01 -0.29262281781E+01 -0.69304818814E+01  0.87665496470E+01  0.00000000000E+00 0.  1.
</event>
<event>
 7    1  0.1369731E-013  0.5052888E+02  0.7816164E-02  0.1300439E+00
        -11   -1    0    0    0    0  0.00000000000E+00  0.00000000000E+00  0.45593999997E+02  0.45594000000E+02  0.51100000000E-03 0. -1.
         11   -1    0    0    0    0 -0.00000000000E+00 -0.00000000000E+00 -0.45593999997E+02  0.45594000000E+02  0.51100000000E-03 0.  1.
    9900012    2    1    2    0    0 -0.96815754155E+01  0.14130105370E+02  0.36875079554E+02  0.50528877131E+02  0.30000052529E+02 0.  0.
        -12    1    1    2    0    0  0.96815754155E+01 -0.14130105370E+02 -0.36875079554E+02  0.40659122869E+02  0.00000000000E+00 0.  1.
         11    1    3    3    0    0 -0.10612501836E+02  0.96581691663E+00  0.53157529159E+01  0.11908619856E+02  0.51100000000E-03 0. -1.
        -11    1    3    3    0    0  0.44705706084E+01 -0.17659632454E+01  0.16245997553E+02  0.16942168235E+02  0.51100000000E-03 0.  1.
         12    1    3    3    0    0 -0.35396441874E+01  0.14930251699E+02  0.15313329085E+02  0.21678089040E+02  0.00000000000E+00 0. -1.
</event>
<event>
 7    1  0.1369731E-013  0.5052886E+02  0.7816164E-02  0.1300439E+00
        -11   -1    0    0    0    0  0.00000000000E+00  0.00000000000E+00  0.45593999997E+02  0.45594000000E+02  0.51100000000E-03 0.  1.
         11   -1    0    0    0    0 -0.00000000000E+00 -0.00000000000E+00 -0.45593999997E+02  0.45594000000E+02  0.51100000000E-03 0. -1.
    9900012    2    1    2    0    0  0.27690672245E+02  0.13918717472E+02  0.26318464895E+02  0.50528860562E+02  0.30000002164E+02 0.  0.
        -12    1    1    2    0    0 -0.27690672245E+02 -0.13918717472E+02 -0.26318464895E+02  0.40659139438E+02  0.00000000000E+00 0.  1.
         11    1    3    3    0    0  0.15537208563E+02  0.18713041093E+02  0.18187754501E+02  0.30370662998E+02  0.51100000000E-03 0. -1.
        -11    1    3    3    0    0  0.11919896469E+02 -0.85094324246E+01  0.57182124780E+01  0.15722351167E+02  0.51100000000E-03 0.  1.
         12    1    3    3    0    0  0.23356721312E+00  0.37151088033E+01  0.24124979157E+01  0.44358463969E+01  0.00000000000E+00 0. -1.
</event>
<event>
 7    1  0.1369731E-013  0.5052886E+02  0.7816164E-02  0.1300439E+00
        -11   -1    0    0    0    0  0.00000000000E+00  0.00000000000E+00  0.45593999997E+02  0.45594000000E+02  0.51100000000E-03 0.  1.
         11   -1    0    0    0    0 -0.00000000000E+00 -0.00000000000E+00 -0.45593999997E+02  0.45594000000E+02  0.51100000000E-03 0. -1.
    9900012    2    1    2    0    0 -0.55754064382E-01 -0.18625606572E+02  0.36142070326E+02  0.50528861099E+02  0.30000003798E+02 0.  0.
        -12    1    1    2    0    0  0.55754064382E-01  0.18625606572E+02 -0.36142070326E+02  0.40659138901E+02  0.00000000000E+00 0.  1.
         11    1    3    3    0    0 -0.22370682410E+01  0.64693640922E+01  0.14357263066E+01  0.69941730291E+01  0.51100000000E-03 0. -1.
        -11    1    3    3    0    0  0.30350266284E+01 -0.23555833347E+02  0.28579992884E+02  0.37160525627E+02  0.51100000000E-03 0.  1.
        -12    1    3    3    0    0 -0.85371245181E+00 -0.15391373173E+01  0.61263511349E+01  0.63741624438E+01  0.00000000000E+00 0.  1.
</event>
<event>
 7    1  0.1369731E-013  0.5052885E+02  0.7816164E-02  0.1300439E+00
        -11   -1    0    0    0    0  0.00000000000E+00  0.00000000000E+00  0.45593999997E+02  0.45594000000E+02  0.51100000000E-03 0. -1.
         11   -1    0    0    0    0 -0.00000000000E+00 -0.00000000000E+00 -0.45593999997E+02  0.45594000000E+02  0.51100000000E-03 0.  1.
    9900012    2    1    2    0    0  0.27644108026E+02 -0.50370543371E+01  0.29387036540E+02  0.50528849227E+02  0.29999967711E+02 0.  0.
        -12    1    1    2    0    0 -0.27644108026E+02  0.50370543371E+01 -0.29387036540E+02  0.40659150773E+02  0.00000000000E+00 0.  1.
         11    1    3    3    0    0  0.27195082223E+02  0.26996411196E+01  0.29405432000E+02  0.40143990717E+02  0.51100000000E-03 0. -1.
        -11    1    3    3    0    0  0.17642482772E+00 -0.47708194229E+01 -0.34132125642E+01  0.58687191068E+01  0.51100000000E-03 0.  1.
         12    1    3    3    0    0  0.27260097533E+00 -0.29658760337E+01  0.33948171046E+01  0.45161394036E+01  0.00000000000E+00 0. -1.
</event>
<event>
 7    1  0.1369731E-013  0.5052882E+02  0.7816164E-02  0.1300439E+00
        -11   -1    0    0    0    0  0.00000000000E+00  0.00000000000E+00  0.45593999997E+02  0.45594000000E+02  0.51100000000E-03 0. -1.
         11   -1    0    0    0    0 -0.00000000000E+00 -0.00000000000E+00 -0.45593999997E+02  0.45594000000E+02  0.51100000000E-03 0.  1.
    9900012    2    1    2    0    0  0.28444834512E+01 -0.37991708220E+01  0.40381237313E+02  0.50528817618E+02  0.29999871632E+02 0.  0.
        -12    1    1    2    0    0 -0.28444834512E+01  0.37991708220E+01 -0.40381237313E+02  0.40659182382E+02  0.00000000000E+00 0.  1.
         11    1    3    3    0    0  0.21829836073E+01 -0.92005126803E+01  0.14562975536E+02  0.17363614478E+02  0.51100000000E-03 0. -1.
        -11    1    3    3    0    0  0.55297847315E+01  0.96569578501E+01  0.67147552773E+01  0.12997049388E+02  0.51100000000E-03 0.  1.
        -12    1    3    3    0    0 -0.48682848877E+01 -0.42556159919E+01  0.19103506500E+02  0.20168153753E+02  0.00000000000E+00 0.  1.
</event>
<event>
 7    1  0.1369731E-013  0.5052884E+02  0.7816164E-02  0.1300439E+00
        -11   -1    0    0    0    0  0.00000000000E+00  0.00000000000E+00  0.45593999997E+02  0.45594000000E+02  0.51100000000E-03 0. -1.
         11   -1    0    0    0    0 -0.00000000000E+00 -0.00000000000E+00 -0.45593999997E+02  0.45594000000E+02  0.51100000000E-03 0.  1.
    9900012    2    1    2    0    0 -0.23524398666E+02  0.24572363384E+01  0.33071619632E+02  0.50528839063E+02  0.29999936815E+02 0.  0.
        -12    1    1    2    0    0  0.23524398666E+02 -0.24572363384E+01 -0.33071619632E+02  0.40659160937E+02  0.00000000000E+00 0.  1.
         11    1    3    3    0    0 -0.81111694176E+01 -0.38668852097E+01 -0.11599120688E+01  0.90603127327E+01  0.51100000000E-03 0. -1.
        -11    1    3    3    0    0 -0.36183471593E+01 -0.33791698724E+01  0.19961179328E+02  0.20565989050E+02  0.51100000000E-03 0.  1.
         12    1    3    3    0    0 -0.11794882089E+02  0.97032914205E+01  0.14270352373E+02  0.20902537280E+02  0.00000000000E+00 0. -1.
</event>
<event>
 7    1  0.1369731E-013  0.5052887E+02  0.7816164E-02  0.1300439E+00
        -11   -1    0    0    0    0  0.00000000000E+00  0.00000000000E+00  0.45593999997E+02  0.45594000000E+02  0.51100000000E-03 0. -1.
         11   -1    0    0    0    0 -0.00000000000E+00 -0.00000000000E+00 -0.45593999997E+02  0.45594000000E+02  0.51100000000E-03 0.  1.
    9900012    2    1    2    0    0  0.30169646445E+02  0.53780387040E+00 -0.27251939019E+02  0.50528868432E+02  0.30000026086E+02 0.  0.
         12    1    1    2    0    0 -0.30169646445E+02 -0.53780387040E+00  0.27251939019E+02  0.40659131568E+02  0.00000000000E+00 0. -1.
         11    1    3    3    0    0  0.18244250133E+02 -0.11637318368E+02 -0.79182607425E+01  0.23042974963E+02  0.51100000000E-03 0. -1.
        -11    1    3    3    0    0  0.43130085710E+01  0.10852678333E+02 -0.13170998644E+02  0.17602780333E+02  0.51100000000E-03 0.  1.
         12    1    3    3    0    0  0.76123877409E+01  0.13224439054E+01 -0.61626796324E+01  0.98831131356E+01  0.00000000000E+00 0. -1.
</event>
<event>
 7    1  0.1369731E-013  0.5052886E+02  0.7816164E-02  0.1300439E+00
        -11   -1    0    0    0    0  0.00000000000E+00  0.00000000000E+00  0.45593999997E+02  0.45594000000E+02  0.51100000000E-03 0. -1.
         11   -1    0    0    0    0 -0.00000000000E+00 -0.00000000000E+00 -0.45593999997E+02  0.45594000000E+02  0.51100000000E-03 0.  1.
    9900012    2    1    2    0    0 -0.20042013562E+02 -0.21211101481E+02 -0.28312050817E+02  0.50528863817E+02  0.30000012058E+02 0.  0.
         12    1    1    2    0    0  0.20042013562E+02  0.21211101481E+02  0.28312050817E+02  0.40659136183E+02  0.00000000000E+00 0. -1.
         11    1    3    3    0    0 -0.17558934660E+02 -0.16108982272E+00 -0.14817476362E+02  0.22976068905E+02  0.51100000000E-03 0. -1.
        -11    1    3    3    0    0  0.26508588331E+00 -0.19680218014E+02 -0.14358632415E+02  0.24362913962E+02  0.51100000000E-03 0.  1.
        -12    1    3    3    0    0 -0.27481647859E+01 -0.13697936437E+01  0.86405796041E+00  0.31898809501E+01  0.00000000000E+00 0.  1.
</event>
<event>
 7    1  0.1369731E-013  0.5052887E+02  0.7816164E-02  0.1300439E+00
        -11   -1    0    0    0    0  0.00000000000E+00  0.00000000000E+00  0.45593999997E+02  0.45594000000E+02  0.51100000000E-03 0. -1.
         11   -1    0    0    0    0 -0.00000000000E+00 -0.00000000000E+00 -0.45593999997E+02  0.45594000000E+02  0.51100000000E-03 0.  1.
    9900012    2    1    2    0    0  0.35119470851E+00 -0.15970254107E+02 -0.37389742343E+02  0.50528865891E+02  0.30000018363E+02 0.  0.
         12    1    1    2    0    0 -0.35119470851E+00  0.15970254107E+02  0.37389742343E+02  0.40659134109E+02  0.00000000000E+00 0. -1.
         11    1    3    3    0    0  0.97963045096E+01 -0.13956084877E+02 -0.19280595439E+02  0.25738711076E+02  0.51100000000E-03 0. -1.
        -11    1    3    3    0    0 -0.25200923829E+01  0.58942217718E+01 -0.72171885255E+01  0.96530060803E+01  0.51100000000E-03 0.  1.
        -12    1    3    3    0    0 -0.69250174182E+01 -0.79083910022E+01 -0.10891958379E+02  0.15137148735E+02  0.00000000000E+00 0.  1.
</event>
<event>
 7    1  0.1848180E-013  0.5052886E+02  0.7816164E-02  0.1300439E+00
        -11   -1    0    0    0    0  0.00000000000E+00  0.00000000000E+00  0.45593999997E+02  0.45594000000E+02  0.51100000000E-03 0. -1.
         11   -1    0    0    0    0 -0.00000000000E+00 -0.00000000000E+00 -0.45593999997E+02  0.45594000000E+02  0.51100000000E-03 0.  1.
    9900012    2    1    2    0    0 -0.22194070631E+02  0.12830059101E+02  0.31559127109E+02  0.50528859680E+02  0.29999999482E+02 0.  0.
        -12    1    1    2    0    0  0.22194070631E+02 -0.12830059101E+02 -0.31559127109E+02  0.40659140320E+02  0.00000000000E+00 0.  1.
         11    1    3    3    0    0 -0.93418553080E+01  0.11930986792E+02  0.29189915591E+02  0.32888750036E+02  0.51100000000E-03 0. -1.
        -11    1    3    3    0    0  0.18231817991E+00 -0.13325025119E+01 -0.30617792329E+01  0.33441434172E+01  0.51100000000E-03 0.  1.
         12    1    3    3    0    0 -0.13034533503E+02  0.22315748207E+01  0.54309907511E+01  0.14295966227E+02  0.00000000000E+00 0. -1.
</event>
<event>
 7    1  0.2506914E-013  0.5052886E+02  0.7816164E-02  0.1300439E+00
        -11   -1    0    0    0    0  0.00000000000E+00  0.00000000000E+00  0.45593999997E+02  0.45594000000E+02  0.51100000000E-03 0. -1.
         11   -1    0    0    0    0 -0.00000000000E+00 -0.00000000000E+00 -0.45593999997E+02  0.45594000000E+02  0.51100000000E-03 0.  1.
    9900012    2    1    2    0    0 -0.26780942816E+02  0.22131547105E+02 -0.21122054356E+02  0.50528862582E+02  0.30000008305E+02 0.  0.
         12    1    1    2    0    0  0.26780942816E+02 -0.22131547105E+02  0.21122054356E+02  0.40659137418E+02  0.00000000000E+00 0. -1.
         11    1    3    3    0    0  0.54989388500E+01  0.46073862025E+01 -0.16417136248E+01  0.73594537829E+01  0.51100000000E-03 0. -1.
        -11    1    3    3    0    0 -0.19117988373E+02  0.12101313939E+02 -0.17892602797E+02  0.28845875157E+02  0.51100000000E-03 0.  1.
         12    1    3    3    0    0 -0.13161893293E+02  0.54228469631E+01 -0.15877379339E+01  0.14323533642E+02  0.00000000000E+00 0. -1.
</event>
<event>
 7    1  0.1369731E-013  0.5052886E+02  0.7816164E-02  0.1300439E+00
        -11   -1    0    0    0    0  0.00000000000E+00  0.00000000000E+00  0.45593999997E+02  0.45594000000E+02  0.51100000000E-03 0. -1.
         11   -1    0    0    0    0 -0.00000000000E+00 -0.00000000000E+00 -0.45593999997E+02  0.45594000000E+02  0.51100000000E-03 0.  1.
    9900012    2    1    2    0    0  0.77509085029E+00 -0.11551392686E+02  0.38976019875E+02  0.50528861248E+02  0.30000004248E+02 0.  0.
        -12    1    1    2    0    0 -0.77509085029E+00  0.11551392686E+02 -0.38976019875E+02  0.40659138752E+02  0.00000000000E+00 0.  1.
         11    1    3    3    0    0  0.32380752876E+00 -0.15575720147E+02  0.38277645095E+02  0.41326577692E+02  0.51100000000E-03 0. -1.
        -11    1    3    3    0    0  0.32026057696E+01  0.43867203179E+01  0.24097166570E+01  0.59419469445E+01  0.51100000000E-03 0.  1.
         12    1    3    3    0    0 -0.27513224481E+01 -0.36239285700E+00 -0.17113418777E+01  0.32603366112E+01  0.00000000000E+00 0. -1.
</event>
<event>
 7    1  0.1369731E-013  0.5052887E+02  0.7816164E-02  0.1300439E+00
        -11   -1    0    0    0    0  0.00000000000E+00  0.00000000000E+00  0.45593999997E+02  0.45594000000E+02  0.51100000000E-03 0.  1.
         11   -1    0    0    0    0 -0.00000000000E+00 -0.00000000000E+00 -0.45593999997E+02  0.45594000000E+02  0.51100000000E-03 0. -1.
    9900012    2    1    2    0    0  0.27653483169E+02 -0.29455705540E+02  0.45618805495E+01  0.50528874648E+02  0.30000044981E+02 0.  0.
        -12    1    1    2    0    0 -0.27653483169E+02  0.29455705540E+02 -0.45618805495E+01  0.40659125352E+02  0.00000000000E+00 0.  1.
         11    1    3    3    0    0  0.15390342728E+02 -0.31193009052E+02 -0.75998559126E+00  0.34791436322E+02  0.51100000000E-03 0. -1.
        -11    1    3    3    0    0  0.62137036830E+01  0.12710809238E+01 -0.15916874135E+01  0.65390541563E+01  0.51100000000E-03 0.  1.
         12    1    3    3    0    0  0.60494367579E+01  0.46622258838E+00  0.69135535543E+01  0.91983841699E+01  0.00000000000E+00 0. -1.
</event>
<event>
 7    1  0.1369731E-013  0.5052884E+02  0.7816164E-02  0.1300439E+00
        -11   -1    0    0    0    0  0.00000000000E+00  0.00000000000E+00  0.45593999997E+02  0.45594000000E+02  0.51100000000E-03 0.  1.
         11   -1    0    0    0    0 -0.00000000000E+00 -0.00000000000E+00 -0.45593999997E+02  0.45594000000E+02  0.51100000000E-03 0. -1.
    9900012    2    1    2    0    0 -0.32112607857E+02  0.21575857514E+02 -0.12507188340E+02  0.50528843946E+02  0.29999951659E+02 0.  0.
         12    1    1    2    0    0  0.32112607857E+02 -0.21575857514E+02  0.12507188340E+02  0.40659156054E+02  0.00000000000E+00 0. -1.
         11    1    3    3    0    0 -0.49970533365E+01  0.20550397703E+00 -0.13573219746E+02  0.14465305682E+02  0.51100000000E-03 0. -1.
        -11    1    3    3    0    0 -0.94091841842E+01  0.94014609251E+01 -0.43883238053E+01  0.14006341443E+02  0.51100000000E-03 0.  1.
         12    1    3    3    0    0 -0.17706370336E+02  0.11968892612E+02  0.54543552112E+01  0.22057196821E+02  0.00000000000E+00 0. -1.
</event>
<event>
 7    1  0.1369731E-013  0.5052886E+02  0.7816164E-02  0.1300439E+00
        -11   -1    0    0    0    0  0.00000000000E+00  0.00000000000E+00  0.45593999997E+02  0.45594000000E+02  0.51100000000E-03 0. -1.
         11   -1    0    0    0    0 -0.00000000000E+00 -0.00000000000E+00 -0.45593999997E+02  0.45594000000E+02  0.51100000000E-03 0.  1.
    9900012    2    1    2    0    0 -0.10744641546E+02  0.14781082008E+02 -0.36321312071E+02  0.50528863047E+02  0.30000009716E+02 0.  0.
         12    1    1    2    0    0  0.10744641546E+02 -0.14781082008E+02  0.36321312071E+02  0.40659136953E+02  0.00000000000E+00 0. -1.
         11    1    3    3    0    0  0.14322392969E+01 -0.25366476787E+01 -0.91403138782E+01  0.95932908276E+01  0.51100000000E-03 0. -1.
        -11    1    3    3    0    0 -0.17445803721E+02  0.18062413831E+02 -0.23998538714E+02  0.34735237462E+02  0.51100000000E-03 0.  1.
        -12    1    3    3    0    0  0.52689228780E+01 -0.74468414444E+00 -0.31824594788E+01  0.62003347574E+01  0.00000000000E+00 0.  1.
</event>
<event>
 7    1  0.1369731E-013  0.5052886E+02  0.7816164E-02  0.1300439E+00
        -11   -1    0    0    0    0  0.00000000000E+00  0.00000000000E+00  0.45593999997E+02  0.45594000000E+02  0.51100000000E-03 0. -1.
         11   -1    0    0    0    0 -0.00000000000E+00 -0.00000000000E+00 -0.45593999997E+02  0.45594000000E+02  0.51100000000E-03 0.  1.
    9900012    2    1    2    0    0  0.88665680299E+01 -0.31036693494E+02 -0.24723935807E+02  0.50528863592E+02  0.30000011375E+02 0.  0.
         12    1    1    2    0    0 -0.88665680299E+01  0.31036693494E+02  0.24723935807E+02  0.40659136408E+02  0.00000000000E+00 0. -1.
         11    1    3    3    0    0 -0.15271992232E+01  0.13822744070E+01  0.15551943248E+01  0.25810171741E+01  0.51100000000E-03 0. -1.
        -11    1    3    3    0    0  0.13703010653E+02 -0.32677060412E+02 -0.19609956280E+02  0.40498310628E+02  0.51100000000E-03 0.  1.
        -12    1    3    3    0    0 -0.33092434002E+01  0.25809251167E+00 -0.66691738516E+01  0.74495357901E+01  0.00000000000E+00 0.  1.
</event>
<event>
 7    1  0.1369731E-013  0.5052886E+02  0.7816164E-02  0.1300439E+00
        -11   -1    0    0    0    0  0.00000000000E+00  0.00000000000E+00  0.45593999997E+02  0.45594000000E+02  0.51100000000E-03 0. -1.
         11   -1    0    0    0    0 -0.00000000000E+00 -0.00000000000E+00 -0.45593999997E+02  0.45594000000E+02  0.51100000000E-03 0.  1.
    9900012    2    1    2    0    0  0.24709040577E+02  0.21413168753E+02  0.24168274435E+02  0.50528856238E+02  0.29999989022E+02 0.  0.
        -12    1    1    2    0    0 -0.24709040577E+02 -0.21413168753E+02 -0.24168274435E+02  0.40659143762E+02  0.00000000000E+00 0.  1.
         11    1    3    3    0    0  0.21077591550E+02  0.13532228135E+01  0.10315960219E+02  0.23505640026E+02  0.51100000000E-03 0.  1.
        -11    1    3    3    0    0 -0.35542673105E+01  0.11065938649E+02  0.59254477133E+01  0.13046024113E+02  0.51100000000E-03 0. -1.
         12    1    3    3    0    0  0.71857163373E+01  0.89940072904E+01  0.79268665020E+01  0.13977192099E+02  0.00000000000E+00 0. -1.
</event>
<event>
 7    1  0.1369731E-013  0.5052884E+02  0.7816164E-02  0.1300439E+00
        -11   -1    0    0    0    0  0.00000000000E+00  0.00000000000E+00  0.45593999997E+02  0.45594000000E+02  0.51100000000E-03 0. -1.
         11   -1    0    0    0    0 -0.00000000000E+00 -0.00000000000E+00 -0.45593999997E+02  0.45594000000E+02  0.51100000000E-03 0.  1.
    9900012    2    1    2    0    0 -0.54571478392E+01  0.29387577686E+01  0.40183956810E+02  0.50528841810E+02  0.29999945167E+02 0.  0.
        -12    1    1    2    0    0  0.54571478392E+01 -0.29387577686E+01 -0.40183956810E+02  0.40659158190E+02  0.00000000000E+00 0.  1.
         11    1    3    3    0    0 -0.99940424199E+01 -0.69333976328E+01  0.17572962261E+02  0.21371988432E+02  0.51100000000E-03 0. -1.
        -11    1    3    3    0    0  0.81159700212E+01  0.10775352750E+02  0.21352741121E+02  0.25257013876E+02  0.51100000000E-03 0.  1.
        -12    1    3    3    0    0 -0.35790754404E+01 -0.90319734862E+00  0.12582534276E+01  0.38998395027E+01  0.00000000000E+00 0.  1.
</event>
<event>
 7    1  0.1369731E-013  0.5052886E+02  0.7816164E-02  0.1300439E+00
        -11   -1    0    0    0    0  0.00000000000E+00  0.00000000000E+00  0.45593999997E+02  0.45594000000E+02  0.51100000000E-03 0. -1.
         11   -1    0    0    0    0 -0.00000000000E+00 -0.00000000000E+00 -0.45593999997E+02  0.45594000000E+02  0.51100000000E-03 0.  1.
    9900012    2    1    2    0    0  0.20372771396E+02  0.29024257156E+02 -0.19892428062E+02  0.50528855739E+02  0.29999987505E+02 0.  0.
         12    1    1    2    0    0 -0.20372771396E+02 -0.29024257156E+02  0.19892428062E+02  0.40659144261E+02  0.00000000000E+00 0. -1.
         11    1    3    3    0    0  0.82519874649E+01 -0.30238153620E+01  0.23827617290E+01  0.91058393453E+01  0.51100000000E-03 0. -1.
        -11    1    3    3    0    0  0.19432963799E+01  0.11150345771E+02 -0.45809685207E+01  0.12210318771E+02  0.51100000000E-03 0.  1.
         12    1    3    3    0    0  0.10177487551E+02  0.20897726747E+02 -0.17694221271E+02  0.29212697623E+02  0.00000000000E+00 0. -1.
</event>
<event>
 7    1  0.1369731E-013  0.5052886E+02  0.7816164E-02  0.1300439E+00
        -11   -1    0    0    0    0  0.00000000000E+00  0.00000000000E+00  0.45593999997E+02  0.45594000000E+02  0.51100000000E-03 0. -1.
         11   -1    0    0    0    0 -0.00000000000E+00 -0.00000000000E+00 -0.45593999997E+02  0.45594000000E+02  0.51100000000E-03 0.  1.
    9900012    2    1    2    0    0 -0.54813487978E+01 -0.65864768064E+01 -0.39745931247E+02  0.50528856968E+02  0.29999991241E+02 0.  0.
         12    1    1    2    0    0  0.54813487978E+01  0.65864768064E+01  0.39745931247E+02  0.40659143032E+02  0.00000000000E+00 0. -1.
         11    1    3    3    0    0 -0.13135200776E+02 -0.13489184013E+02 -0.29716233239E+02  0.35178773471E+02  0.51100000000E-03 0. -1.
        -11    1    3    3    0    0  0.43643686769E+01  0.64691678001E+01 -0.89193997776E+01  0.11851309574E+02  0.51100000000E-03 0.  1.
         12    1    3    3    0    0  0.32894833010E+01  0.43353940617E+00 -0.11102982302E+01  0.34987739230E+01  0.00000000000E+00 0. -1.
</event>
<event>
 7    1  0.1369731E-013  0.5052886E+02  0.7816164E-02  0.1300439E+00
        -11   -1    0    0    0    0  0.00000000000E+00  0.00000000000E+00  0.45593999997E+02  0.45594000000E+02  0.51100000000E-03 0. -1.
         11   -1    0    0    0    0 -0.00000000000E+00 -0.00000000000E+00 -0.45593999997E+02  0.45594000000E+02  0.51100000000E-03 0.  1.
    9900012    2    1    2    0    0 -0.28432466892E+02  0.12062279857E+02 -0.26443557381E+02  0.50528862086E+02  0.30000006798E+02 0.  0.
         12    1    1    2    0    0  0.28432466892E+02 -0.12062279857E+02  0.26443557381E+02  0.40659137914E+02  0.00000000000E+00 0. -1.
         11    1    3    3    0    0 -0.23688549999E+02  0.10042189431E+02 -0.10162460136E+02  0.27663487956E+02  0.51100000000E-03 0. -1.
        -11    1    3    3    0    0 -0.82230842421E+01 -0.38086090583E+01 -0.11078586492E+02  0.14312920608E+02  0.51100000000E-03 0.  1.
         12    1    3    3    0    0  0.34791673488E+01  0.58286994841E+01 -0.52025107527E+01  0.85524535221E+01  0.00000000000E+00 0. -1.
</event>
<event>
 7    1  0.1369731E-013  0.5052886E+02  0.7816164E-02  0.1300439E+00
        -11   -1    0    0    0    0  0.00000000000E+00  0.00000000000E+00  0.45593999997E+02  0.45594000000E+02  0.51100000000E-03 0. -1.
         11   -1    0    0    0    0 -0.00000000000E+00 -0.00000000000E+00 -0.45593999997E+02  0.45594000000E+02  0.51100000000E-03 0.  1.
    9900012    2    1    2    0    0  0.84234157769E+01 -0.32729526081E+02  0.22605083549E+02  0.50528860645E+02  0.30000002418E+02 0.  0.
        -12    1    1    2    0    0 -0.84234157769E+01  0.32729526081E+02 -0.22605083549E+02  0.40659139355E+02  0.00000000000E+00 0.  1.
         11    1    3    3    0    0  0.12495849332E+02 -0.19434164422E+02  0.10027864428E+02  0.25187120966E+02  0.51100000000E-03 0. -1.
        -11    1    3    3    0    0 -0.83649394690E+01 -0.13709686704E+02  0.13442347955E+02  0.20943362687E+02  0.51100000000E-03 0.  1.
        -12    1    3    3    0    0  0.42925059138E+01  0.41432504516E+00 -0.86512883471E+00  0.43983769920E+01  0.00000000000E+00 0.  1.
</event>
<event>
 7    1  0.1369731E-013  0.5052886E+02  0.7816164E-02  0.1300439E+00
        -11   -1    0    0    0    0  0.00000000000E+00  0.00000000000E+00  0.45593999997E+02  0.45594000000E+02  0.51100000000E-03 0. -1.
         11   -1    0    0    0    0 -0.00000000000E+00 -0.00000000000E+00 -0.45593999997E+02  0.45594000000E+02  0.51100000000E-03 0.  1.
    9900012    2    1    2    0    0 -0.15567530440E+01  0.40579821410E+01  0.40426169162E+02  0.50528857705E+02  0.29999993479E+02 0.  0.
        -12    1    1    2    0    0  0.15567530440E+01 -0.40579821410E+01 -0.40426169162E+02  0.40659142295E+02  0.00000000000E+00 0.  1.
         11    1    3    3    0    0 -0.24218740870E+00 -0.95148164693E+01  0.13826096853E+02  0.16785450296E+02  0.51100000000E-03 0. -1.
        -11    1    3    3    0    0 -0.25715211927E+01  0.14543005133E+02  0.11923207365E+02  0.18980900761E+02  0.51100000000E-03 0.  1.
        -12    1    3    3    0    0  0.12569555573E+01 -0.97020652295E+00  0.14676864943E+02  0.14762506648E+02  0.00000000000E+00 0.  1.
</event>
<event>
 7    1  0.1369731E-013  0.5052886E+02  0.7816164E-02  0.1300439E+00
        -11   -1    0    0    0    0  0.00000000000E+00  0.00000000000E+00  0.45593999997E+02  0.45594000000E+02  0.51100000000E-03 0. -1.
         11   -1    0    0    0    0 -0.00000000000E+00 -0.00000000000E+00 -0.45593999997E+02  0.45594000000E+02  0.51100000000E-03 0.  1.
    9900012    2    1    2    0    0 -0.15853745047E+02 -0.39268731075E+01 -0.37234445917E+02  0.50528861702E+02  0.30000005630E+02 0.  0.
         12    1    1    2    0    0  0.15853745047E+02  0.39268731075E+01  0.37234445917E+02  0.40659138298E+02  0.00000000000E+00 0. -1.
         11    1    3    3    0    0  0.48423175504E+01 -0.15719060579E+01 -0.22851036617E+02  0.23411296475E+02  0.51100000000E-03 0. -1.
        -11    1    3    3    0    0 -0.12697256444E+02 -0.26064494431E+01 -0.14038443122E+02  0.19107375159E+02  0.51100000000E-03 0.  1.
         12    1    3    3    0    0 -0.79988061527E+01  0.25148239349E+00 -0.34496617786E+00  0.80101900681E+01  0.00000000000E+00 0. -1.
</event>
<event>
 7    1  0.1369731E-013  0.5052886E+02  0.7816164E-02  0.1300439E+00
        -11   -1    0    0    0    0  0.00000000000E+00  0.00000000000E+00  0.45593999997E+02  0.45594000000E+02  0.51100000000E-03 0. -1.
         11   -1    0    0    0    0 -0.00000000000E+00 -0.00000000000E+00 -0.45593999997E+02  0.45594000000E+02  0.51100000000E-03 0.  1.
    9900012    2    1    2    0    0  0.14092465081E+02 -0.36076356248E+02 -0.12371928637E+02  0.50528859940E+02  0.30000000274E+02 0.  0.
         12    1    1    2    0    0 -0.14092465081E+02  0.36076356248E+02  0.12371928637E+02  0.40659140060E+02  0.00000000000E+00 0. -1.
         11    1    3    3    0    0  0.99383814236E+01 -0.29112795620E+01 -0.10354757325E+02  0.14644725109E+02  0.51100000000E-03 0.  1.
        -11    1    3    3    0    0  0.77522146196E+01 -0.28095923533E+02  0.56884892964E+00  0.29151352285E+02  0.51100000000E-03 0. -1.
         12    1    3    3    0    0 -0.35981309626E+01 -0.50691531537E+01 -0.25860202420E+01  0.67327825460E+01  0.00000000000E+00 0. -1.
</event>
<event>
 7    1  0.1369731E-013  0.5052886E+02  0.7816164E-02  0.1300439E+00
        -11   -1    0    0    0    0  0.00000000000E+00  0.00000000000E+00  0.45593999997E+02  0.45594000000E+02  0.51100000000E-03 0. -1.
         11   -1    0    0    0    0 -0.00000000000E+00 -0.00000000000E+00 -0.45593999997E+02  0.45594000000E+02  0.51100000000E-03 0.  1.
    9900012    2    1    2    0    0  0.17610193381E+02 -0.29783326116E+01 -0.36526381262E+02  0.50528857066E+02  0.29999991538E+02 0.  0.
         12    1    1    2    0    0 -0.17610193381E+02  0.29783326116E+01  0.36526381262E+02  0.40659142934E+02  0.00000000000E+00 0. -1.
         11    1    3    3    0    0  0.77794597750E+01  0.74372603692E+01 -0.27966009501E+02  0.29965488881E+02  0.51100000000E-03 0.  1.
        -11    1    3    3    0    0  0.75103885323E+01 -0.13019836941E+02 -0.80113415391E+01  0.17032430343E+02  0.51100000000E-03 0. -1.
        -12    1    3    3    0    0  0.23203450734E+01  0.26042439598E+01 -0.54903022137E+00  0.35309378422E+01  0.00000000000E+00 0.  1.
</event>
<event>
 7    1  0.1369731E-013  0.5052886E+02  0.7816164E-02  0.1300439E+00
        -11   -1    0    0    0    0  0.00000000000E+00  0.00000000000E+00  0.45593999997E+02  0.45594000000E+02  0.51100000000E-03 0. -1.
         11   -1    0    0    0    0 -0.00000000000E+00 -0.00000000000E+00 -0.45593999997E+02  0.45594000000E+02  0.51100000000E-03 0.  1.
    9900012    2    1    2    0    0  0.49012820403E+01 -0.12729394845E+02 -0.38302816118E+02  0.50528858577E+02  0.29999996129E+02 0.  0.
         12    1    1    2    0    0 -0.49012820403E+01  0.12729394845E+02  0.38302816118E+02  0.40659141423E+02  0.00000000000E+00 0. -1.
         11    1    3    3    0    0  0.10876800205E+02 -0.52529445399E+00 -0.12542778837E+01  0.10961474820E+02  0.51100000000E-03 0. -1.
        -11    1    3    3    0    0 -0.12419355267E+01 -0.19002396783E+01 -0.96845195518E+01  0.99470213581E+01  0.51100000000E-03 0.  1.
         12    1    3    3    0    0 -0.47335826381E+01 -0.10303860712E+02 -0.27364018682E+02  0.29620362398E+02  0.00000000000E+00 0. -1.
</event>
<event>
 7    1  0.1369731E-013  0.5052886E+02  0.7816164E-02  0.1300439E+00
        -11   -1    0    0    0    0  0.00000000000E+00  0.00000000000E+00  0.45593999997E+02  0.45594000000E+02  0.51100000000E-03 0. -1.
         11   -1    0    0    0    0 -0.00000000000E+00 -0.00000000000E+00 -0.45593999997E+02  0.45594000000E+02  0.51100000000E-03 0.  1.
    9900012    2    1    2    0    0  0.30538364211E+02  0.17968531270E+02 -0.19942569159E+02  0.50528857494E+02  0.29999992839E+02 0.  0.
         12    1    1    2    0    0 -0.30538364211E+02 -0.17968531270E+02  0.19942569159E+02  0.40659142506E+02  0.00000000000E+00 0. -1.
         11    1    3    3    0    0  0.23824493541E+02  0.34243966864E+01 -0.18624082518E+02  0.30433360562E+02  0.51100000000E-03 0.  1.
        -11    1    3    3    0    0 -0.30617685918E+01  0.54278968063E+01 -0.24159523581E+01  0.66838100442E+01  0.51100000000E-03 0. -1.
        -12    1    3    3    0    0  0.97756392618E+01  0.91162377769E+01  0.10974657179E+01  0.13411686888E+02  0.00000000000E+00 0.  1.
</event>
<event>
 7    1  0.1369731E-013  0.5052886E+02  0.7816164E-02  0.1300439E+00
        -11   -1    0    0    0    0  0.00000000000E+00  0.00000000000E+00  0.45593999997E+02  0.45594000000E+02  0.51100000000E-03 0. -1.
         11   -1    0    0    0    0 -0.00000000000E+00 -0.00000000000E+00 -0.45593999997E+02  0.45594000000E+02  0.51100000000E-03 0.  1.
    9900012    2    1    2    0    0 -0.24049330658E+02  0.16745346630E+02 -0.28184903722E+02  0.50528859125E+02  0.29999997797E+02 0.  0.
         12    1    1    2    0    0  0.24049330658E+02 -0.16745346630E+02  0.28184903722E+02  0.40659140875E+02  0.00000000000E+00 0. -1.
         11    1    3    3    0    0  0.48706477835E+01  0.76585739059E+01 -0.57668770930E+01  0.10753317431E+02  0.51100000000E-03 0. -1.
        -11    1    3    3    0    0 -0.18244971548E+02 -0.64856430696E+00 -0.10604134143E+02  0.21112728001E+02  0.51100000000E-03 0.  1.
         12    1    3    3    0    0 -0.10675006893E+02  0.97353370309E+01 -0.11813892486E+02  0.18662813693E+02  0.00000000000E+00 0. -1.
</event>
<event>
 7    1  0.1369731E-013  0.5052885E+02  0.7816164E-02  0.1300439E+00
        -11   -1    0    0    0    0  0.00000000000E+00  0.00000000000E+00  0.45593999997E+02  0.45594000000E+02  0.51100000000E-03 0. -1.
         11   -1    0    0    0    0 -0.00000000000E+00 -0.00000000000E+00 -0.45593999997E+02  0.45594000000E+02  0.51100000000E-03 0.  1.
    9900012    2    1    2    0    0 -0.30854202811E+02 -0.99113256952E+01  0.24555051216E+02  0.50528846684E+02  0.29999959982E+02 0.  0.
        -12    1    1    2    0    0  0.30854202811E+02  0.99113256952E+01 -0.24555051216E+02  0.40659153316E+02  0.00000000000E+00 0.  1.
         11    1    3    3    0    0 -0.31635777885E+01 -0.33274126341E+01 -0.11869429625E+01  0.47422287079E+01  0.51100000000E-03 0. -1.
        -11    1    3    3    0    0  0.20029277537E+01  0.49745902583E+01  0.70049719136E+01  0.88220122192E+01  0.51100000000E-03 0.  1.
        -12    1    3    3    0    0 -0.29693552776E+02 -0.11558503319E+02  0.18737022264E+02  0.36964605757E+02  0.00000000000E+00 0.  1.
</event>
<event>
 7    1  0.1369731E-013  0.5052886E+02  0.7816164E-02  0.1300439E+00
        -11   -1    0    0    0    0  0.00000000000E+00  0.00000000000E+00  0.45593999997E+02  0.45594000000E+02  0.51100000000E-03 0. -1.
         11   -1    0    0    0    0 -0.00000000000E+00 -0.00000000000E+00 -0.45593999997E+02  0.45594000000E+02  0.51100000000E-03 0.  1.
    9900012    2    1    2    0    0 -0.92638436552E+01  0.25537067477E+02  0.30252357496E+02  0.50528858978E+02  0.29999997350E+02 0.  0.
        -12    1    1    2    0    0  0.92638436552E+01 -0.25537067477E+02 -0.30252357496E+02  0.40659141022E+02  0.00000000000E+00 0.  1.
         11    1    3    3    0    0 -0.91725346378E+01  0.14253549723E+01  0.14297158727E+02  0.17046283360E+02  0.51100000000E-03 0. -1.
        -11    1    3    3    0    0  0.74865347291E+01  0.64316705998E+01  0.78419273984E+01  0.12605967418E+02  0.51100000000E-03 0.  1.
        -12    1    3    3    0    0 -0.75778437465E+01  0.17680041905E+02  0.81132713707E+01  0.20876608200E+02  0.00000000000E+00 0.  1.
</event>
<event>
 7    1  0.1369731E-013  0.5052886E+02  0.7816164E-02  0.1300439E+00
        -11   -1    0    0    0    0  0.00000000000E+00  0.00000000000E+00  0.45593999997E+02  0.45594000000E+02  0.51100000000E-03 0.  1.
         11   -1    0    0    0    0 -0.00000000000E+00 -0.00000000000E+00 -0.45593999997E+02  0.45594000000E+02  0.51100000000E-03 0. -1.
    9900012    2    1    2    0    0  0.87282631591E+01 -0.39465933487E+02  0.44071992420E+01  0.50528857253E+02  0.29999992106E+02 0.  0.
         12    1    1    2    0    0 -0.87282631591E+01  0.39465933487E+02 -0.44071992420E+01  0.40659142747E+02  0.00000000000E+00 0. -1.
         11    1    3    3    0    0  0.15159215448E+02 -0.28491500950E+02  0.46773708798E+01  0.32610508091E+02  0.51100000000E-03 0.  1.
        -11    1    3    3    0    0 -0.30783255093E+01 -0.13292560488E+02 -0.13236533809E+01  0.13708402927E+02  0.51100000000E-03 0. -1.
         12    1    3    3    0    0 -0.33526267792E+01  0.23181279510E+01  0.10534817431E+01  0.42099462350E+01  0.00000000000E+00 0. -1.
</event>
<event>
 7    1  0.1369731E-013  0.5052885E+02  0.7816164E-02  0.1300439E+00
        -11   -1    0    0    0    0  0.00000000000E+00  0.00000000000E+00  0.45593999997E+02  0.45594000000E+02  0.51100000000E-03 0. -1.
         11   -1    0    0    0    0 -0.00000000000E+00 -0.00000000000E+00 -0.45593999997E+02  0.45594000000E+02  0.51100000000E-03 0.  1.
    9900012    2    1    2    0    0 -0.30996071376E+01 -0.15924504339E+02  0.37282285403E+02  0.50528853332E+02  0.29999980188E+02 0.  0.
        -12    1    1    2    0    0  0.30996071376E+01  0.15924504339E+02 -0.37282285403E+02  0.40659146668E+02  0.00000000000E+00 0.  1.
         11    1    3    3    0    0  0.79188999554E+00 -0.13829771093E+01  0.17453262876E+02  0.17525869471E+02  0.51100000000E-03 0. -1.
        -11    1    3    3    0    0 -0.50153479484E+01 -0.80519347566E+00 -0.33153693327E+01  0.60657831852E+01  0.51100000000E-03 0.  1.
        -12    1    3    3    0    0  0.11238508153E+01 -0.13736333754E+02  0.23144391860E+02  0.26937200676E+02  0.00000000000E+00 0.  1.
</event>
<event>
 7    1  0.1369731E-013  0.5052886E+02  0.7816164E-02  0.1300439E+00
        -11   -1    0    0    0    0  0.00000000000E+00  0.00000000000E+00  0.45593999997E+02  0.45594000000E+02  0.51100000000E-03 0. -1.
         11   -1    0    0    0    0 -0.00000000000E+00 -0.00000000000E+00 -0.45593999997E+02  0.45594000000E+02  0.51100000000E-03 0.  1.
    9900012    2    1    2    0    0  0.34957915202E+02  0.49797888247E+01  0.20157173168E+02  0.50528858813E+02  0.29999996847E+02 0.  0.
        -12    1    1    2    0    0 -0.34957915202E+02 -0.49797888247E+01 -0.20157173168E+02  0.40659141187E+02  0.00000000000E+00 0.  1.
         11    1    3    3    0    0  0.15200099319E+02  0.15664407705E+02  0.13980780218E+02  0.25920626995E+02  0.51100000000E-03 0. -1.
        -11    1    3    3    0    0  0.39562840798E+01 -0.45233372607E+01 -0.11751924907E+01  0.61232214843E+01  0.51100000000E-03 0.  1.
         12    1    3    3    0    0  0.15801531803E+02 -0.61612816201E+01  0.73515854408E+01  0.18485010333E+02  0.00000000000E+00 0. -1.
</event>
<event>
 7    1  0.1369731E-013  0.5052886E+02  0.7816164E-02  0.1300439E+00
        -11   -1    0    0    0    0  0.00000000000E+00  0.00000000000E+00  0.45593999997E+02  0.45594000000E+02  0.51100000000E-03 0.  1.
         11   -1    0    0    0    0 -0.00000000000E+00 -0.00000000000E+00 -0.45593999997E+02  0.45594000000E+02  0.51100000000E-03 0. -1.
    9900012    2    1    2    0    0 -0.71247246124E+01  0.19065662309E+02 -0.35198078606E+02  0.50528856900E+02  0.29999991032E+02 0.  0.
         12    1    1    2    0    0  0.71247246124E+01 -0.19065662309E+02  0.35198078606E+02  0.40659143100E+02  0.00000000000E+00 0. -1.
         11    1    3    3    0    0 -0.57252335869E+01 -0.26762269324E+01 -0.25517448808E+02  0.26288413497E+02  0.51100000000E-03 0. -1.
        -11    1    3    3    0    0 -0.78649798419E+00  0.17303558571E+02 -0.95017984072E+01  0.19756413934E+02  0.51100000000E-03 0.  1.
         12    1    3    3    0    0 -0.61299304133E+00  0.44383306710E+01 -0.17883139055E+00  0.44840294691E+01  0.00000000000E+00 0. -1.
</event>
<event>
 7    1  0.1369731E-013  0.5052886E+02  0.7816164E-02  0.1300439E+00
        -11   -1    0    0    0    0  0.00000000000E+00  0.00000000000E+00  0.45593999997E+02  0.45594000000E+02  0.51100000000E-03 0. -1.
         11   -1    0    0    0    0 -0.00000000000E+00 -0.00000000000E+00 -0.45593999997E+02  0.45594000000E+02  0.51100000000E-03 0.  1.
    9900012    2    1    2    0    0  0.98321307596E+01 -0.33045124480E+02 -0.21552605284E+02  0.50528857834E+02  0.29999993871E+02 0.  0.
         12    1    1    2    0    0 -0.98321307596E+01  0.33045124480E+02  0.21552605284E+02  0.40659142166E+02  0.00000000000E+00 0. -1.
         11    1    3    3    0    0  0.84719589704E+01 -0.33871955062E+02 -0.77050367703E+01  0.35755433439E+02  0.51100000000E-03 0. -1.
        -11    1    3    3    0    0  0.10179587401E+01  0.28558373264E+01 -0.71315842921E+01  0.77492929747E+01  0.51100000000E-03 0.  1.
        -12    1    3    3    0    0  0.34221304915E+00 -0.20290067448E+01 -0.67159842212E+01  0.70241314197E+01  0.00000000000E+00 0.  1.
</event>
<event>
 7    1  0.1369731E-013  0.5052889E+02  0.7816164E-02  0.1300439E+00
        -11   -1    0    0    0    0  0.00000000000E+00  0.00000000000E+00  0.45593999997E+02  0.45594000000E+02  0.51100000000E-03 0. -1.
         11   -1    0    0    0    0 -0.00000000000E+00 -0.00000000000E+00 -0.45593999997E+02  0.45594000000E+02  0.51100000000E-03 0.  1.
    9900012    2    1    2    0    0 -0.10627087973E+02  0.25613099403E+01  0.39162076416E+02  0.50528886180E+02  0.30000080032E+02 0.  0.
        -12    1    1    2    0    0  0.10627087973E+02 -0.25613099403E+01 -0.39162076416E+02  0.40659113820E+02  0.00000000000E+00 0.  1.
         11    1    3    3    0    0 -0.19525641521E+02  0.34938625901E+01  0.15946405708E+02  0.25450846899E+02  0.51100000000E-03 0. -1.
        -11    1    3    3    0    0  0.57644783133E+01 -0.19681174869E+01  0.16653435719E+02  0.17732445353E+02  0.51100000000E-03 0.  1.
         12    1    3    3    0    0  0.31340752344E+01  0.10355648371E+01  0.65622349888E+01  0.73455939280E+01  0.00000000000E+00 0. -1.
</event>
<event>
 7    1  0.1369731E-013  0.5052888E+02  0.7816164E-02  0.1300439E+00
        -11   -1    0    0    0    0  0.00000000000E+00  0.00000000000E+00  0.45593999997E+02  0.45594000000E+02  0.51100000000E-03 0. -1.
         11   -1    0    0    0    0 -0.00000000000E+00 -0.00000000000E+00 -0.45593999997E+02  0.45594000000E+02  0.51100000000E-03 0.  1.
    9900012    2    1    2    0    0 -0.26783082609E+02 -0.26360674554E+02 -0.15522426947E+02  0.50528875374E+02  0.30000047188E+02 0.  0.
         12    1    1    2    0    0  0.26783082609E+02  0.26360674554E+02  0.15522426947E+02  0.40659124626E+02  0.00000000000E+00 0. -1.
         11    1    3    3    0    0  0.35824416069E+01 -0.54113118472E+01  0.16566032373E+01  0.66977995134E+01  0.51100000000E-03 0. -1.
        -11    1    3    3    0    0 -0.21918405635E+02 -0.65107144514E+01 -0.13979240584E+02  0.26799721562E+02  0.51100000000E-03 0.  1.
        -12    1    3    3    0    0 -0.84471185817E+01 -0.14438648255E+02 -0.31997895998E+01  0.17031354299E+02  0.00000000000E+00 0.  1.
</event>
<event>
 7    1  0.1369731E-013  0.5052886E+02  0.7816164E-02  0.1300439E+00
        -11   -1    0    0    0    0  0.00000000000E+00  0.00000000000E+00  0.45593999997E+02  0.45594000000E+02  0.51100000000E-03 0. -1.
         11   -1    0    0    0    0 -0.00000000000E+00 -0.00000000000E+00 -0.45593999997E+02  0.45594000000E+02  0.51100000000E-03 0.  1.
    9900012    2    1    2    0    0 -0.29733289583E+01  0.44028244119E+01 -0.40310544029E+02  0.50528861940E+02  0.30000006352E+02 0.  0.
         12    1    1    2    0    0  0.29733289583E+01 -0.44028244119E+01  0.40310544029E+02  0.40659138060E+02  0.00000000000E+00 0. -1.
         11    1    3    3    0    0 -0.60964471679E+01  0.93662799368E+01 -0.37375576737E+01  0.11784023318E+02  0.51100000000E-03 0. -1.
        -11    1    3    3    0    0  0.36051570014E+00 -0.48543541417E+01 -0.35414019202E+02  0.35746992629E+02  0.51100000000E-03 0.  1.
         12    1    3    3    0    0  0.27626025095E+01 -0.10910138309E+00 -0.11589671536E+01  0.29978459934E+01  0.00000000000E+00 0. -1.
</event>
<event>
 7    1  0.1369731E-013  0.5052887E+02  0.7816164E-02  0.1300439E+00
        -11   -1    0    0    0    0  0.00000000000E+00  0.00000000000E+00  0.45593999997E+02  0.45594000000E+02  0.51100000000E-03 0. -1.
         11   -1    0    0    0    0 -0.00000000000E+00 -0.00000000000E+00 -0.45593999997E+02  0.45594000000E+02  0.51100000000E-03 0.  1.
    9900012    2    1    2    0    0  0.29985325254E+02  0.30842422082E+01  0.27286127299E+02  0.50528867895E+02  0.30000024452E+02 0.  0.
        -12    1    1    2    0    0 -0.29985325254E+02 -0.30842422082E+01 -0.27286127299E+02  0.40659132105E+02  0.00000000000E+00 0.  1.
         11    1    3    3    0    0  0.81599271276E+01 -0.97044680101E+01  0.93411561255E+00  0.12713523600E+02  0.51100000000E-03 0. -1.
        -11    1    3    3    0    0  0.32836402924E+01  0.59874674590E+01  0.10333938655E+02  0.12386377538E+02  0.51100000000E-03 0.  1.
         12    1    3    3    0    0  0.18541757834E+02  0.68012427592E+01  0.16018073032E+02  0.25428966756E+02  0.00000000000E+00 0. -1.
</event>
<event>
 7    1  0.1369731E-013  0.5052886E+02  0.7816164E-02  0.1300439E+00
        -11   -1    0    0    0    0  0.00000000000E+00  0.00000000000E+00  0.45593999997E+02  0.45594000000E+02  0.51100000000E-03 0. -1.
         11   -1    0    0    0    0 -0.00000000000E+00 -0.00000000000E+00 -0.45593999997E+02  0.45594000000E+02  0.51100000000E-03 0.  1.
    9900012    2    1    2    0    0 -0.89984744609E+00  0.68117291888E+01  0.40074389434E+02  0.50528855045E+02  0.29999985395E+02 0.  0.
        -12    1    1    2    0    0  0.89984744609E+00 -0.68117291888E+01 -0.40074389434E+02  0.40659144955E+02  0.00000000000E+00 0.  1.
         11    1    3    3    0    0  0.10435441278E+01  0.64204610241E+01  0.30592872788E+02  0.31276751267E+02  0.51100000000E-03 0. -1.
        -11    1    3    3    0    0  0.31550551985E+01 -0.19656775766E+01 -0.35011323797E+01  0.51064850771E+01  0.51100000000E-03 0.  1.
        -12    1    3    3    0    0 -0.50984467724E+01  0.23569457414E+01  0.12982649025E+02  0.14145618701E+02  0.00000000000E+00 0.  1.
</event>
<event>
 7    1  0.1369731E-013  0.5052886E+02  0.7816164E-02  0.1300439E+00
        -11   -1    0    0    0    0  0.00000000000E+00  0.00000000000E+00  0.45593999997E+02  0.45594000000E+02  0.51100000000E-03 0. -1.
         11   -1    0    0    0    0 -0.00000000000E+00 -0.00000000000E+00 -0.45593999997E+02  0.45594000000E+02  0.51100000000E-03 0.  1.
    9900012    2    1    2    0    0 -0.18264200239E+02 -0.14340316658E+02  0.33375743318E+02  0.50528856695E+02  0.29999990411E+02 0.  0.
        -12    1    1    2    0    0  0.18264200239E+02  0.14340316658E+02 -0.33375743318E+02  0.40659143305E+02  0.00000000000E+00 0.  1.
         11    1    3    3    0    0 -0.77871726515E+01 -0.21912535639E+02  0.20884812566E+02  0.31256594060E+02  0.51100000000E-03 0. -1.
        -11    1    3    3    0    0 -0.30018523211E+01  0.44228058597E+01  0.13891971988E+01  0.55228795160E+01  0.51100000000E-03 0.  1.
         12    1    3    3    0    0 -0.74751752666E+01  0.31494131212E+01  0.11101733553E+02  0.13749383119E+02  0.00000000000E+00 0. -1.
</event>
<event>
 7    1  0.1369731E-013  0.5052887E+02  0.7816164E-02  0.1300439E+00
        -11   -1    0    0    0    0  0.00000000000E+00  0.00000000000E+00  0.45593999997E+02  0.45594000000E+02  0.51100000000E-03 0. -1.
         11   -1    0    0    0    0 -0.00000000000E+00 -0.00000000000E+00 -0.45593999997E+02  0.45594000000E+02  0.51100000000E-03 0.  1.
    9900012    2    1    2    0    0 -0.10582990120E+01  0.92452015540E+01 -0.39579935716E+02  0.50528867448E+02  0.30000023095E+02 0.  0.
         12    1    1    2    0    0  0.10582990120E+01 -0.92452015540E+01  0.39579935716E+02  0.40659132552E+02  0.00000000000E+00 0. -1.
         11    1    3    3    0    0 -0.31931983914E+01  0.11514790680E+02 -0.36554232968E+02  0.38457754336E+02  0.51100000000E-03 0. -1.
        -11    1    3    3    0    0 -0.16960554985E+01  0.32082597085E+01 -0.39027803825E+01  0.53292804005E+01  0.51100000000E-03 0.  1.
         12    1    3    3    0    0  0.38309548779E+01 -0.54778488350E+01  0.87707763444E+00  0.67418327117E+01  0.00000000000E+00 0. -1.
</event>
<event>
 7    1  0.1369731E-013  0.5052886E+02  0.7816164E-02  0.1300439E+00
        -11   -1    0    0    0    0  0.00000000000E+00  0.00000000000E+00  0.45593999997E+02  0.45594000000E+02  0.51100000000E-03 0. -1.
         11   -1    0    0    0    0 -0.00000000000E+00 -0.00000000000E+00 -0.45593999997E+02  0.45594000000E+02  0.51100000000E-03 0.  1.
    9900012    2    1    2    0    0 -0.32438373301E+02  0.16843571553E+02 -0.17810435576E+02  0.50528861046E+02  0.30000003636E+02 0.  0.
         12    1    1    2    0    0  0.32438373301E+02 -0.16843571553E+02  0.17810435576E+02  0.40659138954E+02  0.00000000000E+00 0. -1.
         11    1    3    3    0    0 -0.21396858832E+02 -0.34095317612E+01 -0.10599581657E+02  0.24120563971E+02  0.51100000000E-03 0. -1.
        -11    1    3    3    0    0 -0.59786643593E+01  0.12542000568E+02 -0.95893232515E+01  0.16881982302E+02  0.51100000000E-03 0.  1.
         12    1    3    3    0    0 -0.50628501094E+01  0.77111027465E+01  0.23784693326E+01  0.95263147734E+01  0.00000000000E+00 0. -1.
</event>
<event>
 7    1  0.1369731E-013  0.5052887E+02  0.7816164E-02  0.1300439E+00
        -11   -1    0    0    0    0  0.00000000000E+00  0.00000000000E+00  0.45593999997E+02  0.45594000000E+02  0.51100000000E-03 0. -1.
         11   -1    0    0    0    0 -0.00000000000E+00 -0.00000000000E+00 -0.45593999997E+02  0.45594000000E+02  0.51100000000E-03 0.  1.
    9900012    2    1    2    0    0 -0.39793270499E+01 -0.26803211861E+02  0.30313660059E+02  0.50528865774E+02  0.30000018007E+02 0.  0.
        -12    1    1    2    0    0  0.39793270499E+01  0.26803211861E+02 -0.30313660059E+02  0.40659134226E+02  0.00000000000E+00 0.  1.
         11    1    3    3    0    0 -0.27643697775E+01 -0.24570406082E+02  0.21277529321E+02  0.32620236810E+02  0.51100000000E-03 0. -1.
        -11    1    3    3    0    0 -0.79964445860E+01 -0.22975233153E+01  0.30454790858E+01  0.88598353553E+01  0.51100000000E-03 0.  1.
        -12    1    3    3    0    0  0.67814873136E+01  0.64717536829E-01  0.59906516525E+01  0.90487936083E+01  0.00000000000E+00 0.  1.
</event>
<event>
 7    1  0.1369731E-013  0.5052887E+02  0.7816164E-02  0.1300439E+00
        -11   -1    0    0    0    0  0.00000000000E+00  0.00000000000E+00  0.45593999997E+02  0.45594000000E+02  0.51100000000E-03 0. -1.
         11   -1    0    0    0    0 -0.00000000000E+00 -0.00000000000E+00 -0.45593999997E+02  0.45594000000E+02  0.51100000000E-03 0.  1.
    9900012    2    1    2    0    0 -0.35609411754E+01 -0.10269560596E+02  0.39179343661E+02  0.50528866382E+02  0.30000019855E+02 0.  0.
        -12    1    1    2    0    0  0.35609411754E+01  0.10269560596E+02 -0.39179343661E+02  0.40659133618E+02  0.00000000000E+00 0.  1.
         11    1    3    3    0    0  0.13487961043E+01 -0.31017561247E+01  0.37316325362E+02  0.37469297842E+02  0.51100000000E-03 0. -1.
        -11    1    3    3    0    0 -0.66745830837E+01 -0.81133255142E+01  0.27647612311E+01  0.10863701725E+02  0.51100000000E-03 0.  1.
         12    1    3    3    0    0  0.17648458040E+01  0.94552104315E+00 -0.90174293234E+00  0.21958668154E+01  0.00000000000E+00 0. -1.
</event>
<event>
 7    1  0.1369731E-013  0.5052887E+02  0.7816164E-02  0.1300439E+00
        -11   -1    0    0    0    0  0.00000000000E+00  0.00000000000E+00  0.45593999997E+02  0.45594000000E+02  0.51100000000E-03 0. -1.
         11   -1    0    0    0    0 -0.00000000000E+00 -0.00000000000E+00 -0.45593999997E+02  0.45594000000E+02  0.51100000000E-03 0.  1.
    9900012    2    1    2    0    0 -0.24238235401E+02 -0.21996574213E+02  0.24121016089E+02  0.50528871263E+02  0.30000034691E+02 0.  0.
        -12    1    1    2    0    0  0.24238235401E+02  0.21996574213E+02 -0.24121016089E+02  0.40659128737E+02  0.00000000000E+00 0.  1.
         11    1    3    3    0    0 -0.23631464475E+02 -0.24771672952E+02  0.24744592045E+02  0.42241883597E+02  0.51100000000E-03 0. -1.
        -11    1    3    3    0    0  0.42081922357E+00 -0.24904428588E+01  0.94621013167E+00  0.26971667220E+01  0.51100000000E-03 0.  1.
         12    1    3    3    0    0 -0.10275901494E+01  0.52655415971E+01 -0.15697860879E+01  0.55898209442E+01  0.00000000000E+00 0. -1.
</event>
<event>
 7    1  0.1369731E-013  0.5052885E+02  0.7816164E-02  0.1300439E+00
        -11   -1    0    0    0    0  0.00000000000E+00  0.00000000000E+00  0.45593999997E+02  0.45594000000E+02  0.51100000000E-03 0. -1.
         11   -1    0    0    0    0 -0.00000000000E+00 -0.00000000000E+00 -0.45593999997E+02  0.45594000000E+02  0.51100000000E-03 0.  1.
    9900012    2    1    2    0    0 -0.21598869991E+02  0.19486099057E+02 -0.28406815235E+02  0.50528851052E+02  0.29999973259E+02 0.  0.
         12    1    1    2    0    0  0.21598869991E+02 -0.19486099057E+02  0.28406815235E+02  0.40659148948E+02  0.00000000000E+00 0. -1.
         11    1    3    3    0    0 -0.86625055362E+01  0.12766034911E+02 -0.85586480446E+01  0.17642593521E+02  0.51100000000E-03 0. -1.
        -11    1    3    3    0    0 -0.11500508393E+02 -0.51215283799E+01 -0.15986402560E+02  0.20348386013E+02  0.51100000000E-03 0.  1.
        -12    1    3    3    0    0 -0.14358560621E+01  0.11841592526E+02 -0.38617646299E+01  0.12537871519E+02  0.00000000000E+00 0.  1.
</event>
<event>
 7    1  0.1369731E-013  0.5052885E+02  0.7816164E-02  0.1300439E+00
        -11   -1    0    0    0    0  0.00000000000E+00  0.00000000000E+00  0.45593999997E+02  0.45594000000E+02  0.51100000000E-03 0. -1.
         11   -1    0    0    0    0 -0.00000000000E+00 -0.00000000000E+00 -0.45593999997E+02  0.45594000000E+02  0.51100000000E-03 0.  1.
    9900012    2    1    2    0    0 -0.73980439591E+01  0.33844951707E+01  0.39836930101E+02  0.50528845289E+02  0.29999955739E+02 0.  0.
        -12    1    1    2    0    0  0.73980439591E+01 -0.33844951707E+01 -0.39836930101E+02  0.40659154711E+02  0.00000000000E+00 0.  1.
         11    1    3    3    0    0 -0.92783219274E+01  0.61633695821E+01  0.30206153378E+02  0.32194503950E+02  0.51100000000E-03 0. -1.
        -11    1    3    3    0    0  0.12399364991E+01  0.53858216646E+01 -0.21097317746E+00  0.55307348036E+01  0.51100000000E-03 0.  1.
        -12    1    3    3    0    0  0.64034146923E+00 -0.81646960760E+01  0.98417499001E+01  0.12803606535E+02  0.00000000000E+00 0.  1.
</event>
<event>
 7    1  0.1854010E-013  0.5052886E+02  0.7816164E-02  0.1300439E+00
        -11   -1    0    0    0    0  0.00000000000E+00  0.00000000000E+00  0.45593999997E+02  0.45594000000E+02  0.51100000000E-03 0. -1.
         11   -1    0    0    0    0 -0.00000000000E+00 -0.00000000000E+00 -0.45593999997E+02  0.45594000000E+02  0.51100000000E-03 0.  1.
    9900012    2    1    2    0    0  0.88652215213E+01  0.97415123504E+00  0.39668937665E+02  0.50528859100E+02  0.29999997721E+02 0.  0.
        -12    1    1    2    0    0 -0.88652215213E+01 -0.97415123504E+00 -0.39668937665E+02  0.40659140900E+02  0.00000000000E+00 0.  1.
         11    1    3    3    0    0  0.18351895042E+01  0.15980972087E+01  0.31668097966E+02  0.31761458787E+02  0.51100000000E-03 0. -1.
        -11    1    3    3    0    0 -0.38028142877E+01 -0.17245042721E+01 -0.13773540083E+01  0.43968643164E+01  0.51100000000E-03 0.  1.
         12    1    3    3    0    0  0.10832846305E+02  0.11005582985E+01  0.93781937067E+01  0.14370535997E+02  0.00000000000E+00 0. -1.
</event>
<event>
 7    1  0.1369731E-013  0.5052886E+02  0.7816164E-02  0.1300439E+00
        -11   -1    0    0    0    0  0.00000000000E+00  0.00000000000E+00  0.45593999997E+02  0.45594000000E+02  0.51100000000E-03 0. -1.
         11   -1    0    0    0    0 -0.00000000000E+00 -0.00000000000E+00 -0.45593999997E+02  0.45594000000E+02  0.51100000000E-03 0.  1.
    9900012    2    1    2    0    0  0.24834749207E+02 -0.23532061392E+02 -0.21969135265E+02  0.50528860980E+02  0.30000003435E+02 0.  0.
         12    1    1    2    0    0 -0.24834749207E+02  0.23532061392E+02  0.21969135265E+02  0.40659139020E+02  0.00000000000E+00 0. -1.
         11    1    3    3    0    0  0.11525573269E+02 -0.13694373422E+02 -0.28823018052E+01  0.18129599183E+02  0.51100000000E-03 0.  1.
        -11    1    3    3    0    0  0.11264175630E+01 -0.45793143936E+01 -0.18527602645E+02  0.19118341897E+02  0.51100000000E-03 0. -1.
         12    1    3    3    0    0  0.12182758375E+02 -0.52583735772E+01 -0.55923081507E+00  0.13280919901E+02  0.00000000000E+00 0. -1.
</event>
<event>
 7    1  0.1369731E-013  0.5052887E+02  0.7816164E-02  0.1300439E+00
        -11   -1    0    0    0    0  0.00000000000E+00  0.00000000000E+00  0.45593999997E+02  0.45594000000E+02  0.51100000000E-03 0.  1.
         11   -1    0    0    0    0 -0.00000000000E+00 -0.00000000000E+00 -0.45593999997E+02  0.45594000000E+02  0.51100000000E-03 0. -1.
    9900012    2    1    2    0    0 -0.37688018552E+02  0.11512585912E+02  0.10011936304E+02  0.50528865168E+02  0.30000016163E+02 0.  0.
         12    1    1    2    0    0  0.37688018552E+02 -0.11512585912E+02 -0.10011936304E+02  0.40659134832E+02  0.00000000000E+00 0. -1.
         11    1    3    3    0    0 -0.19987093247E+02  0.18468831137E+02  0.15149977912E+01  0.27255767070E+02  0.51100000000E-03 0. -1.
        -11    1    3    3    0    0 -0.17893019662E+02 -0.58246786452E+01  0.48249911717E+01  0.19425951045E+02  0.51100000000E-03 0.  1.
         12    1    3    3    0    0  0.19209435692E+00 -0.11315665795E+01  0.36719473407E+01  0.38471470519E+01  0.00000000000E+00 0. -1.
</event>
<event>
 7    1  0.1369731E-013  0.5052886E+02  0.7816164E-02  0.1300439E+00
        -11   -1    0    0    0    0  0.00000000000E+00  0.00000000000E+00  0.45593999997E+02  0.45594000000E+02  0.51100000000E-03 0. -1.
         11   -1    0    0    0    0 -0.00000000000E+00 -0.00000000000E+00 -0.45593999997E+02  0.45594000000E+02  0.51100000000E-03 0.  1.
    9900012    2    1    2    0    0 -0.43395126955E+01  0.29155068194E+02 -0.28005642893E+02  0.50528863196E+02  0.30000010169E+02 0.  0.
         12    1    1    2    0    0  0.43395126955E+01 -0.29155068194E+02  0.28005642893E+02  0.40659136804E+02  0.00000000000E+00 0. -1.
         11    1    3    3    0    0  0.36911983793E+01  0.16671989093E+02 -0.10753735290E+02  0.20179766815E+02  0.51100000000E-03 0. -1.
        -11    1    3    3    0    0 -0.33574094434E+01 -0.30956099257E+01 -0.12645484929E+02  0.13444823849E+02  0.51100000000E-03 0.  1.
        -12    1    3    3    0    0 -0.46733016313E+01  0.15578689028E+02 -0.46064226739E+01  0.16904272531E+02  0.00000000000E+00 0.  1.
</event>
<event>
 7    1  0.1369731E-013  0.5052885E+02  0.7816164E-02  0.1300439E+00
        -11   -1    0    0    0    0  0.00000000000E+00  0.00000000000E+00  0.45593999997E+02  0.45594000000E+02  0.51100000000E-03 0. -1.
         11   -1    0    0    0    0 -0.00000000000E+00 -0.00000000000E+00 -0.45593999997E+02  0.45594000000E+02  0.51100000000E-03 0.  1.
    9900012    2    1    2    0    0 -0.26338607001E+02 -0.96955098628E+01 -0.29418383724E+02  0.50528850585E+02  0.29999971838E+02 0.  0.
         12    1    1    2    0    0  0.26338607001E+02  0.96955098628E+01  0.29418383724E+02  0.40659149415E+02  0.00000000000E+00 0. -1.
         11    1    3    3    0    0 -0.47994049277E+01  0.42933756247E+01  0.17811956264E+01  0.66813187348E+01  0.51100000000E-03 0. -1.
        -11    1    3    3    0    0 -0.12364179292E+02 -0.14116950680E+02 -0.11226934797E+02  0.21867905507E+02  0.51100000000E-03 0.  1.
        -12    1    3    3    0    0 -0.91750227811E+01  0.12806519246E+00 -0.19972644554E+02  0.21979626343E+02  0.00000000000E+00 0.  1.
</event>
<event>
 7    1  0.1369731E-013  0.5052884E+02  0.7816164E-02  0.1300439E+00
        -11   -1    0    0    0    0  0.00000000000E+00  0.00000000000E+00  0.45593999997E+02  0.45594000000E+02  0.51100000000E-03 0. -1.
         11   -1    0    0    0    0 -0.00000000000E+00 -0.00000000000E+00 -0.45593999997E+02  0.45594000000E+02  0.51100000000E-03 0.  1.
    9900012    2    1    2    0    0  0.14033739464E+02  0.33914310064E+02 -0.17494028255E+02  0.50528839961E+02  0.29999939546E+02 0.  0.
         12    1    1    2    0    0 -0.14033739464E+02 -0.33914310064E+02  0.17494028255E+02  0.40659160039E+02  0.00000000000E+00 0. -1.
         11    1    3    3    0    0 -0.52744855389E+01  0.79023874540E+01 -0.20811985038E+01  0.97262177976E+01  0.51100000000E-03 0. -1.
        -11    1    3    3    0    0  0.17143256814E+02  0.25982889117E+02 -0.67222068476E+01  0.31846347454E+02  0.51100000000E-03 0.  1.
        -12    1    3    3    0    0  0.21649681898E+01  0.29033493386E-01 -0.86906229040E+01  0.89562747092E+01  0.00000000000E+00 0.  1.
</event>
<event>
 7    1  0.1369731E-013  0.5052886E+02  0.7816164E-02  0.1300439E+00
        -11   -1    0    0    0    0  0.00000000000E+00  0.00000000000E+00  0.45593999997E+02  0.45594000000E+02  0.51100000000E-03 0. -1.
         11   -1    0    0    0    0 -0.00000000000E+00 -0.00000000000E+00 -0.45593999997E+02  0.45594000000E+02  0.51100000000E-03 0.  1.
    9900012    2    1    2    0    0  0.18031344583E+02 -0.20119072418E+01  0.36386648610E+02  0.50528863816E+02  0.30000012054E+02 0.  0.
        -12    1    1    2    0    0 -0.18031344583E+02  0.20119072418E+01 -0.36386648610E+02  0.40659136184E+02  0.00000000000E+00 0.  1.
         11    1    3    3    0    0  0.30220610726E+01  0.21529015952E+01  0.17520985962E+02  0.17909572517E+02  0.51100000000E-03 0. -1.
        -11    1    3    3    0    0  0.19589714947E+02 -0.58171915007E+01  0.10587104357E+02  0.23014852326E+02  0.51100000000E-03 0.  1.
        -12    1    3    3    0    0 -0.45804314367E+01  0.16523826637E+01  0.82785582907E+01  0.96044389730E+01  0.00000000000E+00 0.  1.
</event>
<event>
 7    1  0.1369731E-013  0.5052887E+02  0.7816164E-02  0.1300439E+00
        -11   -1    0    0    0    0  0.00000000000E+00  0.00000000000E+00  0.45593999997E+02  0.45594000000E+02  0.51100000000E-03 0. -1.
         11   -1    0    0    0    0 -0.00000000000E+00 -0.00000000000E+00 -0.45593999997E+02  0.45594000000E+02  0.51100000000E-03 0.  1.
    9900012    2    1    2    0    0  0.26264862848E+01 -0.15270310803E+02  0.37591011288E+02  0.50528868776E+02  0.30000027130E+02 0.  0.
        -12    1    1    2    0    0 -0.26264862848E+01  0.15270310803E+02 -0.37591011288E+02  0.40659131224E+02  0.00000000000E+00 0.  1.
         11    1    3    3    0    0  0.10114567661E+02 -0.50621907183E+01  0.14099641117E+02  0.18075677960E+02  0.51100000000E-03 0. -1.
        -11    1    3    3    0    0 -0.99934392697E+01 -0.50584551877E+01  0.24215846030E+02  0.26680779534E+02  0.51100000000E-03 0.  1.
        -12    1    3    3    0    0  0.25053578939E+01 -0.51496648972E+01 -0.72447585906E+00  0.57724112813E+01  0.00000000000E+00 0.  1.
</event>
<event>
 7    1  0.1369731E-013  0.5052886E+02  0.7816164E-02  0.1300439E+00
        -11   -1    0    0    0    0  0.00000000000E+00  0.00000000000E+00  0.45593999997E+02  0.45594000000E+02  0.51100000000E-03 0.  1.
         11   -1    0    0    0    0 -0.00000000000E+00 -0.00000000000E+00 -0.45593999997E+02  0.45594000000E+02  0.51100000000E-03 0. -1.
    9900012    2    1    2    0    0  0.34301909901E+02  0.16257435162E+02  0.14568482064E+02  0.50528857233E+02  0.29999992046E+02 0.  0.
        -12    1    1    2    0    0 -0.34301909901E+02 -0.16257435162E+02 -0.14568482064E+02  0.40659142767E+02  0.00000000000E+00 0.  1.
         11    1    3    3    0    0  0.30131014958E+02  0.10739699703E+02  0.98183985530E+01  0.33460725672E+02  0.51100000000E-03 0. -1.
        -11    1    3    3    0    0  0.39124811919E+01  0.77739169996E+01  0.88304966242E+01  0.12398345272E+02  0.51100000000E-03 0.  1.
         12    1    3    3    0    0  0.25841375123E+00 -0.22561815405E+01 -0.40804131137E+01  0.46697862894E+01  0.00000000000E+00 0. -1.
</event>
<event>
 7    1  0.1369731E-013  0.5052886E+02  0.7816164E-02  0.1300439E+00
        -11   -1    0    0    0    0  0.00000000000E+00  0.00000000000E+00  0.45593999997E+02  0.45594000000E+02  0.51100000000E-03 0. -1.
         11   -1    0    0    0    0 -0.00000000000E+00 -0.00000000000E+00 -0.45593999997E+02  0.45594000000E+02  0.51100000000E-03 0.  1.
    9900012    2    1    2    0    0  0.21035193356E+01 -0.53529334820E+01  0.40250308438E+02  0.50528855643E+02  0.29999987214E+02 0.  0.
        -12    1    1    2    0    0 -0.21035193356E+01  0.53529334820E+01 -0.40250308438E+02  0.40659144357E+02  0.00000000000E+00 0.  1.
         11    1    3    3    0    0 -0.84608537665E+01  0.41997074508E+01  0.25909625474E+02  0.27577749756E+02  0.51100000000E-03 0. -1.
        -11    1    3    3    0    0  0.75602042790E+01 -0.10487760420E+02  0.14930260615E+02  0.19749999738E+02  0.51100000000E-03 0.  1.
         12    1    3    3    0    0  0.30041688231E+01  0.93511948734E+00 -0.58957765088E+00  0.32011061494E+01  0.00000000000E+00 0. -1.
</event>
<event>
 7    1  0.1369731E-013  0.5052887E+02  0.7816164E-02  0.1300439E+00
        -11   -1    0    0    0    0  0.00000000000E+00  0.00000000000E+00  0.45593999997E+02  0.45594000000E+02  0.51100000000E-03 0. -1.
         11   -1    0    0    0    0 -0.00000000000E+00 -0.00000000000E+00 -0.45593999997E+02  0.45594000000E+02  0.51100000000E-03 0.  1.
    9900012    2    1    2    0    0  0.83651040407E+01 -0.58970151229E+01 -0.39349910015E+02  0.50528866079E+02  0.30000018934E+02 0.  0.
         12    1    1    2    0    0 -0.83651040407E+01  0.58970151229E+01  0.39349910015E+02  0.40659133921E+02  0.00000000000E+00 0. -1.
         11    1    3    3    0    0  0.10859970588E+02 -0.59365099312E+01 -0.16041703745E+01  0.12480163227E+02  0.51100000000E-03 0. -1.
        -11    1    3    3    0    0 -0.35503871648E+01  0.22091673261E-01 -0.32797022056E+02  0.32988640364E+02  0.51100000000E-03 0.  1.
        -12    1    3    3    0    0  0.10555206177E+01  0.17403135096E-01 -0.49487175853E+01  0.50600624880E+01  0.00000000000E+00 0.  1.
</event>
<event>
 7    1  0.1369731E-013  0.5052887E+02  0.7816164E-02  0.1300439E+00
        -11   -1    0    0    0    0  0.00000000000E+00  0.00000000000E+00  0.45593999997E+02  0.45594000000E+02  0.51100000000E-03 0. -1.
         11   -1    0    0    0    0 -0.00000000000E+00 -0.00000000000E+00 -0.45593999997E+02  0.45594000000E+02  0.51100000000E-03 0.  1.
    9900012    2    1    2    0    0  0.18497931554E+02  0.32627126896E+02 -0.15699112051E+02  0.50528868179E+02  0.30000025318E+02 0.  0.
         12    1    1    2    0    0 -0.18497931554E+02 -0.32627126896E+02  0.15699112051E+02  0.40659131821E+02  0.00000000000E+00 0. -1.
         11    1    3    3    0    0 -0.36784910460E+01  0.68826818314E+01 -0.10028035288E+02  0.12706852386E+02  0.51100000000E-03 0. -1.
        -11    1    3    3    0    0  0.20396923060E+02  0.18109716637E+02  0.13339246194E+01  0.27308893463E+02  0.51100000000E-03 0.  1.
         12    1    3    3    0    0  0.17794995391E+01  0.76347284272E+01 -0.70050013825E+01  0.10513122330E+02  0.00000000000E+00 0. -1.
</event>
<event>
 7    1  0.1369731E-013  0.5052886E+02  0.7816164E-02  0.1300439E+00
        -11   -1    0    0    0    0  0.00000000000E+00  0.00000000000E+00  0.45593999997E+02  0.45594000000E+02  0.51100000000E-03 0. -1.
         11   -1    0    0    0    0 -0.00000000000E+00 -0.00000000000E+00 -0.45593999997E+02  0.45594000000E+02  0.51100000000E-03 0.  1.
    9900012    2    1    2    0    0 -0.10208354974E+02 -0.16856605538E+02 -0.35564171464E+02  0.50528856459E+02  0.29999989693E+02 0.  0.
         12    1    1    2    0    0  0.10208354974E+02  0.16856605538E+02  0.35564171464E+02  0.40659143541E+02  0.00000000000E+00 0. -1.
         11    1    3    3    0    0 -0.14140088288E+02 -0.13762635032E+02 -0.78542868492E+01  0.21237750398E+02  0.51100000000E-03 0. -1.
        -11    1    3    3    0    0 -0.26510938265E+00 -0.44014756112E+01 -0.19349011594E+02  0.19845088069E+02  0.51100000000E-03 0.  1.
         12    1    3    3    0    0  0.41968426972E+01  0.13075051047E+01 -0.83608730207E+01  0.94460179913E+01  0.00000000000E+00 0. -1.
</event>
<event>
 7    1  0.1369731E-013  0.5052882E+02  0.7816164E-02  0.1300439E+00
        -11   -1    0    0    0    0  0.00000000000E+00  0.00000000000E+00  0.45593999997E+02  0.45594000000E+02  0.51100000000E-03 0. -1.
         11   -1    0    0    0    0 -0.00000000000E+00 -0.00000000000E+00 -0.45593999997E+02  0.45594000000E+02  0.51100000000E-03 0.  1.
    9900012    2    1    2    0    0  0.22108934737E+02  0.32467273423E+02  0.10499511358E+02  0.50528824191E+02  0.29999891611E+02 0.  0.
        -12    1    1    2    0    0 -0.22108934737E+02 -0.32467273423E+02 -0.10499511358E+02  0.40659175809E+02  0.00000000000E+00 0.  1.
         11    1    3    3    0    0  0.79681010249E+01  0.13428876137E+02  0.10796916781E+02  0.18984171315E+02  0.51100000000E-03 0. -1.
        -11    1    3    3    0    0  0.10844875021E+02  0.55397200543E+01 -0.90057695708E+01  0.15146078645E+02  0.51100000000E-03 0.  1.
        -12    1    3    3    0    0  0.32959586903E+01  0.13498677231E+02  0.87083641478E+01  0.16398574231E+02  0.00000000000E+00 0.  1.
</event>
<event>
 7    1  0.1369731E-013  0.5052887E+02  0.7816164E-02  0.1300439E+00
        -11   -1    0    0    0    0  0.00000000000E+00  0.00000000000E+00  0.45593999997E+02  0.45594000000E+02  0.51100000000E-03 0. -1.
         11   -1    0    0    0    0 -0.00000000000E+00 -0.00000000000E+00 -0.45593999997E+02  0.45594000000E+02  0.51100000000E-03 0.  1.
    9900012    2    1    2    0    0 -0.98510999689E+01  0.12672913180E+02 -0.37356636052E+02  0.50528866263E+02  0.30000019494E+02 0.  0.
         12    1    1    2    0    0  0.98510999689E+01 -0.12672913180E+02  0.37356636052E+02  0.40659133737E+02  0.00000000000E+00 0. -1.
         11    1    3    3    0    0  0.23951124557E+01 -0.20768260297E+01 -0.32796614707E+01  0.45613539280E+01  0.51100000000E-03 0. -1.
        -11    1    3    3    0    0 -0.71721423978E+01  0.48840726031E+01 -0.33772388546E+02  0.34869299106E+02  0.51100000000E-03 0.  1.
        -12    1    3    3    0    0 -0.50740700267E+01  0.98656666071E+01 -0.30458603563E+00  0.11098213230E+02  0.00000000000E+00 0.  1.
</event>
<event>
 7    1  0.1369731E-013  0.5052886E+02  0.7816164E-02  0.1300439E+00
        -11   -1    0    0    0    0  0.00000000000E+00  0.00000000000E+00  0.45593999997E+02  0.45594000000E+02  0.51100000000E-03 0. -1.
         11   -1    0    0    0    0 -0.00000000000E+00 -0.00000000000E+00 -0.45593999997E+02  0.45594000000E+02  0.51100000000E-03 0.  1.
    9900012    2    1    2    0    0  0.51976484344E+00 -0.16463810032E+02  0.37173089738E+02  0.50528858385E+02  0.29999995546E+02 0.  0.
        -12    1    1    2    0    0 -0.51976484344E+00  0.16463810032E+02 -0.37173089738E+02  0.40659141615E+02  0.00000000000E+00 0.  1.
         11    1    3    3    0    0 -0.59499161380E+01 -0.19448183414E+02  0.27867967225E+02  0.34500100546E+02  0.51100000000E-03 0. -1.
        -11    1    3    3    0    0  0.92926196373E+01  0.79743048241E+00  0.55801629050E+01  0.10868619664E+02  0.51100000000E-03 0.  1.
        -12    1    3    3    0    0 -0.28229386558E+01  0.21869428997E+01  0.37249596075E+01  0.51601381744E+01  0.00000000000E+00 0.  1.
</event>
<event>
 7    1  0.1843592E-013  0.5052883E+02  0.7816164E-02  0.1300439E+00
        -11   -1    0    0    0    0  0.00000000000E+00  0.00000000000E+00  0.45593999997E+02  0.45594000000E+02  0.51100000000E-03 0. -1.
         11   -1    0    0    0    0 -0.00000000000E+00 -0.00000000000E+00 -0.45593999997E+02  0.45594000000E+02  0.51100000000E-03 0.  1.
    9900012    2    1    2    0    0 -0.18751109501E+02 -0.30156124016E+01  0.35950942438E+02  0.50528827753E+02  0.29999902437E+02 0.  0.
        -12    1    1    2    0    0  0.18751109501E+02  0.30156124016E+01 -0.35950942438E+02  0.40659172247E+02  0.00000000000E+00 0.  1.
         11    1    3    3    0    0 -0.14999950628E+02 -0.10772054261E+02  0.22123875781E+02  0.28818423823E+02  0.51100000000E-03 0. -1.
        -11    1    3    3    0    0  0.76336861428E+00  0.19491018451E+01 -0.28192161232E+01  0.35113686013E+01  0.51100000000E-03 0.  1.
         12    1    3    3    0    0 -0.45145274874E+01  0.58073400139E+01  0.16646282780E+02  0.18199035328E+02  0.00000000000E+00 0. -1.
</event>
<event>
 7    1  0.1369731E-013  0.5052888E+02  0.7816164E-02  0.1300439E+00
        -11   -1    0    0    0    0  0.00000000000E+00  0.00000000000E+00  0.45593999997E+02  0.45594000000E+02  0.51100000000E-03 0. -1.
         11   -1    0    0    0    0 -0.00000000000E+00 -0.00000000000E+00 -0.45593999997E+02  0.45594000000E+02  0.51100000000E-03 0.  1.
    9900012    2    1    2    0    0 -0.18763768325E+02  0.57968928629E+01 -0.35601702285E+02  0.50528878339E+02  0.30000056200E+02 0.  0.
         12    1    1    2    0    0  0.18763768325E+02 -0.57968928629E+01  0.35601702285E+02  0.40659121661E+02  0.00000000000E+00 0. -1.
         11    1    3    3    0    0  0.16256064036E+01 -0.22343787192E+01 -0.79057591730E+00  0.28740311381E+01  0.51100000000E-03 0. -1.
        -11    1    3    3    0    0 -0.24816001014E+02  0.18581893871E+01 -0.25376377000E+02  0.35542190197E+02  0.51100000000E-03 0.  1.
        -12    1    3    3    0    0  0.44266262854E+01  0.61730821950E+01 -0.94347493679E+01  0.12112657004E+02  0.00000000000E+00 0.  1.
</event>
<event>
 7    1  0.1369731E-013  0.5052886E+02  0.7816164E-02  0.1300439E+00
        -11   -1    0    0    0    0  0.00000000000E+00  0.00000000000E+00  0.45593999997E+02  0.45594000000E+02  0.51100000000E-03 0.  1.
         11   -1    0    0    0    0 -0.00000000000E+00 -0.00000000000E+00 -0.45593999997E+02  0.45594000000E+02  0.51100000000E-03 0. -1.
    9900012    2    1    2    0    0 -0.13706828521E+02  0.37475763353E+02 -0.78010024209E+01  0.50528860489E+02  0.30000001942E+02 0.  0.
         12    1    1    2    0    0  0.13706828521E+02 -0.37475763353E+02  0.78010024209E+01  0.40659139511E+02  0.00000000000E+00 0. -1.
         11    1    3    3    0    0  0.66813790705E+01  0.76929009706E+01 -0.21003103646E+01  0.10403502079E+02  0.51100000000E-03 0. -1.
        -11    1    3    3    0    0 -0.19828546199E+02  0.31804684004E+02 -0.46129152947E+01  0.37762258364E+02  0.51100000000E-03 0.  1.
         12    1    3    3    0    0 -0.55966139331E+00 -0.20218216213E+01 -0.10877767616E+01  0.23631000458E+01  0.00000000000E+00 0. -1.
</event>
<event>
 7    1  0.1369731E-013  0.5052886E+02  0.7816164E-02  0.1300439E+00
        -11   -1    0    0    0    0  0.00000000000E+00  0.00000000000E+00  0.45593999997E+02  0.45594000000E+02  0.51100000000E-03 0. -1.
         11   -1    0    0    0    0 -0.00000000000E+00 -0.00000000000E+00 -0.45593999997E+02  0.45594000000E+02  0.51100000000E-03 0.  1.
    9900012    2    1    2    0    0 -0.19951000611E+02 -0.29749473994E+02 -0.19237775869E+02  0.50528860207E+02  0.30000001085E+02 0.  0.
         12    1    1    2    0    0  0.19951000611E+02  0.29749473994E+02  0.19237775869E+02  0.40659139793E+02  0.00000000000E+00 0. -1.
         11    1    3    3    0    0 -0.13502386443E+02 -0.27016580141E+01 -0.28742155981E+01  0.14066787524E+02  0.51100000000E-03 0. -1.
        -11    1    3    3    0    0  0.13697186924E+00 -0.88886461281E+01 -0.14563001786E+02  0.17061881858E+02  0.51100000000E-03 0.  1.
        -12    1    3    3    0    0 -0.65855860376E+01 -0.18159169852E+02 -0.18005584852E+01  0.19400190824E+02  0.00000000000E+00 0.  1.
</event>
<event>
 7    1  0.1369731E-013  0.5052887E+02  0.7816164E-02  0.1300439E+00
        -11   -1    0    0    0    0  0.00000000000E+00  0.00000000000E+00  0.45593999997E+02  0.45594000000E+02  0.51100000000E-03 0.  1.
         11   -1    0    0    0    0 -0.00000000000E+00 -0.00000000000E+00 -0.45593999997E+02  0.45594000000E+02  0.51100000000E-03 0. -1.
    9900012    2    1    2    0    0 -0.57649555142E+01 -0.38507292640E+02 -0.11709746367E+02  0.50528874843E+02  0.30000045573E+02 0.  0.
         12    1    1    2    0    0  0.57649555142E+01  0.38507292640E+02  0.11709746367E+02  0.40659125157E+02  0.00000000000E+00 0. -1.
         11    1    3    3    0    0 -0.81864261924E+01 -0.16233845510E+02 -0.40024672556E+01  0.18616526481E+02  0.51100000000E-03 0.  1.
        -11    1    3    3    0    0  0.38375265796E+00  0.40060296490E+01  0.10112833994E+01  0.41494859954E+01  0.51100000000E-03 0. -1.
        -12    1    3    3    0    0  0.20377180202E+01 -0.26279476779E+02 -0.87185625107E+01  0.27762862366E+02  0.00000000000E+00 0.  1.
</event>
<event>
 7    1  0.1369731E-013  0.5052883E+02  0.7816164E-02  0.1300439E+00
        -11   -1    0    0    0    0  0.00000000000E+00  0.00000000000E+00  0.45593999997E+02  0.45594000000E+02  0.51100000000E-03 0. -1.
         11   -1    0    0    0    0 -0.00000000000E+00 -0.00000000000E+00 -0.45593999997E+02  0.45594000000E+02  0.51100000000E-03 0.  1.
    9900012    2    1    2    0    0 -0.18917941670E+01  0.32967135673E+02  0.23722497121E+02  0.50528833883E+02  0.29999921070E+02 0.  0.
        -12    1    1    2    0    0  0.18917941670E+01 -0.32967135673E+02 -0.23722497121E+02  0.40659166117E+02  0.00000000000E+00 0.  1.
         11    1    3    3    0    0 -0.38194381290E+01  0.21956158074E+02  0.29015295318E+02  0.36586177002E+02  0.51100000000E-03 0. -1.
        -11    1    3    3    0    0  0.32411440134E+01  0.25400271658E+01 -0.29201750429E+01  0.50481853236E+01  0.51100000000E-03 0.  1.
         12    1    3    3    0    0 -0.13135000514E+01  0.84709504340E+01 -0.23726231543E+01  0.88944715567E+01  0.00000000000E+00 0. -1.
</event>
<event>
 7    1  0.1369731E-013  0.5052885E+02  0.7816164E-02  0.1300439E+00
        -11   -1    0    0    0    0  0.00000000000E+00  0.00000000000E+00  0.45593999997E+02  0.45594000000E+02  0.51100000000E-03 0. -1.
         11   -1    0    0    0    0 -0.00000000000E+00 -0.00000000000E+00 -0.45593999997E+02  0.45594000000E+02  0.51100000000E-03 0.  1.
    9900012    2    1    2    0    0  0.15754433583E+02  0.29271925659E+01  0.37368375859E+02  0.50528854065E+02  0.29999982416E+02 0.  0.
        -12    1    1    2    0    0 -0.15754433583E+02 -0.29271925659E+01 -0.37368375859E+02  0.40659145935E+02  0.00000000000E+00 0.  1.
         11    1    3    3    0    0 -0.35717154803E+01 -0.53289390663E+01  0.28073582475E+01  0.70025712161E+01  0.51100000000E-03 0. -1.
        -11    1    3    3    0    0  0.17063875517E+02  0.11208858338E+02  0.34145328832E+02  0.39783386409E+02  0.51100000000E-03 0.  1.
        -12    1    3    3    0    0  0.22622735466E+01 -0.29527267055E+01  0.41568877947E+00  0.37428964397E+01  0.00000000000E+00 0.  1.
</event>
<event>
 7    1  0.1369731E-013  0.5052886E+02  0.7816164E-02  0.1300439E+00
        -11   -1    0    0    0    0  0.00000000000E+00  0.00000000000E+00  0.45593999997E+02  0.45594000000E+02  0.51100000000E-03 0. -1.
         11   -1    0    0    0    0 -0.00000000000E+00 -0.00000000000E+00 -0.45593999997E+02  0.45594000000E+02  0.51100000000E-03 0.  1.
    9900012    2    1    2    0    0 -0.31080434354E+02  0.11222310247E+02 -0.23690337490E+02  0.50528859118E+02  0.29999997774E+02 0.  0.
         12    1    1    2    0    0  0.31080434354E+02 -0.11222310247E+02  0.23690337490E+02  0.40659140882E+02  0.00000000000E+00 0. -1.
         11    1    3    3    0    0 -0.98551978198E+01  0.10825614486E+02 -0.10371761091E+02  0.17941356734E+02  0.51100000000E-03 0. -1.
        -11    1    3    3    0    0 -0.17843748728E+02 -0.12623534037E+01  0.86803573120E+00  0.17909393934E+02  0.51100000000E-03 0.  1.
        -12    1    3    3    0    0 -0.33814878060E+01  0.16590491641E+01 -0.14186612131E+02  0.14678108450E+02  0.00000000000E+00 0.  1.
</event>
<event>
 7    1  0.1369731E-013  0.5052885E+02  0.7816164E-02  0.1300439E+00
        -11   -1    0    0    0    0  0.00000000000E+00  0.00000000000E+00  0.45593999997E+02  0.45594000000E+02  0.51100000000E-03 0. -1.
         11   -1    0    0    0    0 -0.00000000000E+00 -0.00000000000E+00 -0.45593999997E+02  0.45594000000E+02  0.51100000000E-03 0.  1.
    9900012    2    1    2    0    0 -0.23567597877E+02 -0.25484734688E+02 -0.21172222295E+02  0.50528851353E+02  0.29999974172E+02 0.  0.
         12    1    1    2    0    0  0.23567597877E+02  0.25484734688E+02  0.21172222295E+02  0.40659148647E+02  0.00000000000E+00 0. -1.
         11    1    3    3    0    0 -0.18975003121E+02 -0.26736355541E+02 -0.79211416626E+01  0.33728740512E+02  0.51100000000E-03 0. -1.
        -11    1    3    3    0    0 -0.25837476022E+01 -0.39412575264E+01 -0.68746205676E+01  0.83348467755E+01  0.51100000000E-03 0.  1.
         12    1    3    3    0    0 -0.20088471535E+01  0.51928783786E+01 -0.63764600644E+01  0.84652640652E+01  0.00000000000E+00 0. -1.
</event>
<event>
 7    1  0.1369731E-013  0.5052887E+02  0.7816164E-02  0.1300439E+00
        -11   -1    0    0    0    0  0.00000000000E+00  0.00000000000E+00  0.45593999997E+02  0.45594000000E+02  0.51100000000E-03 0. -1.
         11   -1    0    0    0    0 -0.00000000000E+00 -0.00000000000E+00 -0.45593999997E+02  0.45594000000E+02  0.51100000000E-03 0.  1.
    9900012    2    1    2    0    0  0.35043004377E+01  0.39602173676E+02 -0.85177722332E+01  0.50528871563E+02  0.30000035602E+02 0.  0.
         12    1    1    2    0    0 -0.35043004377E+01 -0.39602173676E+02  0.85177722332E+01  0.40659128437E+02  0.00000000000E+00 0. -1.
         11    1    3    3    0    0  0.11098671902E+02  0.59127201983E+01 -0.68983721281E+01  0.14343232425E+02  0.51100000000E-03 0. -1.
        -11    1    3    3    0    0  0.47533299409E+00  0.16257406144E+02  0.27254287198E+01  0.16491123611E+02  0.51100000000E-03 0.  1.
         12    1    3    3    0    0 -0.80697044582E+01  0.17432047335E+02 -0.43448288250E+01  0.19694515527E+02  0.00000000000E+00 0. -1.
</event>
<event>
 7    1  0.1369731E-013  0.5052886E+02  0.7816164E-02  0.1300439E+00
        -11   -1    0    0    0    0  0.00000000000E+00  0.00000000000E+00  0.45593999997E+02  0.45594000000E+02  0.51100000000E-03 0. -1.
         11   -1    0    0    0    0 -0.00000000000E+00 -0.00000000000E+00 -0.45593999997E+02  0.45594000000E+02  0.51100000000E-03 0.  1.
    9900012    2    1    2    0    0  0.54571905936E+01 -0.23421449959E+02 -0.32784456794E+02  0.50528857675E+02  0.29999993388E+02 0.  0.
         12    1    1    2    0    0 -0.54571905936E+01  0.23421449959E+02  0.32784456794E+02  0.40659142325E+02  0.00000000000E+00 0. -1.
         11    1    3    3    0    0 -0.30597294096E+01 -0.11042818803E+02 -0.18153001649E+02  0.21467120448E+02  0.51100000000E-03 0. -1.
        -11    1    3    3    0    0 -0.89634268486E+00 -0.63469729774E+01  0.38387316294E+01  0.74715029925E+01  0.51100000000E-03 0.  1.
        -12    1    3    3    0    0  0.94132626881E+01 -0.60316581781E+01 -0.18470186774E+02  0.21590234234E+02  0.00000000000E+00 0.  1.
</event>
<event>
 7    1  0.1549345E-013  0.5052886E+02  0.7816164E-02  0.1300439E+00
        -11   -1    0    0    0    0  0.00000000000E+00  0.00000000000E+00  0.45593999997E+02  0.45594000000E+02  0.51100000000E-03 0. -1.
         11   -1    0    0    0    0 -0.00000000000E+00 -0.00000000000E+00 -0.45593999997E+02  0.45594000000E+02  0.51100000000E-03 0.  1.
    9900012    2    1    2    0    0  0.22785078992E+02 -0.28191031477E+01 -0.33556793608E+02  0.50528861242E+02  0.30000004232E+02 0.  0.
         12    1    1    2    0    0 -0.22785078992E+02  0.28191031477E+01  0.33556793608E+02  0.40659138758E+02  0.00000000000E+00 0. -1.
         11    1    3    3    0    0 -0.46072260328E+01 -0.25224860285E+01 -0.12763870102E+01  0.54054261204E+01  0.51100000000E-03 0. -1.
        -11    1    3    3    0    0  0.16509898442E+02 -0.13281721550E+01 -0.29519767086E+02  0.33849038936E+02  0.51100000000E-03 0.  1.
         12    1    3    3    0    0  0.10882406583E+02  0.10315550358E+01 -0.27606395120E+01  0.11274396186E+02  0.00000000000E+00 0. -1.
</event>
<event>
 7    1  0.1369731E-013  0.5052887E+02  0.7816164E-02  0.1300439E+00
        -11   -1    0    0    0    0  0.00000000000E+00  0.00000000000E+00  0.45593999997E+02  0.45594000000E+02  0.51100000000E-03 0. -1.
         11   -1    0    0    0    0 -0.00000000000E+00 -0.00000000000E+00 -0.45593999997E+02  0.45594000000E+02  0.51100000000E-03 0.  1.
    9900012    2    1    2    0    0  0.21582096647E+02  0.34124391102E+02 -0.47858316454E+01  0.50528866361E+02  0.30000019791E+02 0.  0.
         12    1    1    2    0    0 -0.21582096647E+02 -0.34124391102E+02  0.47858316454E+01  0.40659133639E+02  0.00000000000E+00 0. -1.
         11    1    3    3    0    0  0.11603488191E+02  0.12771368659E+02 -0.11575260405E+02  0.20778244616E+02  0.51100000000E-03 0.  1.
        -11    1    3    3    0    0  0.95605826315E+01  0.24181825586E+02  0.68505897511E+01  0.26890444569E+02  0.51100000000E-03 0. -1.
         12    1    3    3    0    0  0.41802582427E+00 -0.28288031430E+01 -0.61160991251E-01  0.28601771761E+01  0.00000000000E+00 0. -1.
</event>
<event>
 7    1  0.1369731E-013  0.5052887E+02  0.7816164E-02  0.1300439E+00
        -11   -1    0    0    0    0  0.00000000000E+00  0.00000000000E+00  0.45593999997E+02  0.45594000000E+02  0.51100000000E-03 0.  1.
         11   -1    0    0    0    0 -0.00000000000E+00 -0.00000000000E+00 -0.45593999997E+02  0.45594000000E+02  0.51100000000E-03 0. -1.
    9900012    2    1    2    0    0  0.10645420808E+02  0.37810902932E+02  0.10496460071E+02  0.50528867708E+02  0.30000023885E+02 0.  0.
        -12    1    1    2    0    0 -0.10645420808E+02 -0.37810902932E+02 -0.10496460071E+02  0.40659132292E+02  0.00000000000E+00 0.  1.
         11    1    3    3    0    0 -0.52777244758E+01  0.13947043169E+01  0.13855599842E+01  0.56319936528E+01  0.51100000000E-03 0.  1.
        -11    1    3    3    0    0  0.53076229533E+01  0.30998649545E+02  0.98493979572E+01  0.32955997563E+02  0.51100000000E-03 0. -1.
         12    1    3    3    0    0  0.10615522331E+02  0.54175490703E+01 -0.73849786998E+00  0.11940876492E+02  0.00000000000E+00 0. -1.
</event>
<event>
 7    1  0.1369731E-013  0.5052889E+02  0.7816164E-02  0.1300439E+00
        -11   -1    0    0    0    0  0.00000000000E+00  0.00000000000E+00  0.45593999997E+02  0.45594000000E+02  0.51100000000E-03 0. -1.
         11   -1    0    0    0    0 -0.00000000000E+00 -0.00000000000E+00 -0.45593999997E+02  0.45594000000E+02  0.51100000000E-03 0.  1.
    9900012    2    1    2    0    0  0.37608463010E+02  0.67274480859E+01  0.13910716131E+02  0.50528891906E+02  0.30000097439E+02 0.  0.
        -12    1    1    2    0    0 -0.37608463010E+02 -0.67274480859E+01 -0.13910716131E+02  0.40659108094E+02  0.00000000000E+00 0.  1.
         11    1    3    3    0    0  0.18902641711E+02  0.13375424570E+02  0.72619470755E+01  0.24268245130E+02  0.51100000000E-03 0. -1.
        -11    1    3    3    0    0 -0.53935125204E+00 -0.36745530662E+01 -0.27659091295E+01  0.46307119952E+01  0.51100000000E-03 0.  1.
         12    1    3    3    0    0  0.19245172551E+02 -0.29734234181E+01  0.94146781847E+01  0.21629934781E+02  0.00000000000E+00 0. -1.
</event>
<event>
 7    1  0.1369731E-013  0.5052884E+02  0.7816164E-02  0.1300439E+00
        -11   -1    0    0    0    0  0.00000000000E+00  0.00000000000E+00  0.45593999997E+02  0.45594000000E+02  0.51100000000E-03 0. -1.
         11   -1    0    0    0    0 -0.00000000000E+00 -0.00000000000E+00 -0.45593999997E+02  0.45594000000E+02  0.51100000000E-03 0.  1.
    9900012    2    1    2    0    0 -0.17379077088E+01 -0.17941654075E+02 -0.36445079765E+02  0.50528842197E+02  0.29999946343E+02 0.  0.
         12    1    1    2    0    0  0.17379077088E+01  0.17941654075E+02  0.36445079765E+02  0.40659157803E+02  0.00000000000E+00 0. -1.
         11    1    3    3    0    0  0.11852034945E+01  0.74535442988E+01 -0.41465693332E+01  0.86112755985E+01  0.51100000000E-03 0. -1.
        -11    1    3    3    0    0  0.43292704476E+00 -0.93430958763E+01 -0.66564243837E+01  0.11479932588E+02  0.51100000000E-03 0.  1.
         12    1    3    3    0    0 -0.33560382481E+01 -0.16052102497E+02 -0.25642086048E+02  0.30437634011E+02  0.00000000000E+00 0. -1.
</event>
<event>
 7    1  0.1369731E-013  0.5052884E+02  0.7816164E-02  0.1300439E+00
        -11   -1    0    0    0    0  0.00000000000E+00  0.00000000000E+00  0.45593999997E+02  0.45594000000E+02  0.51100000000E-03 0. -1.
         11   -1    0    0    0    0 -0.00000000000E+00 -0.00000000000E+00 -0.45593999997E+02  0.45594000000E+02  0.51100000000E-03 0.  1.
    9900012    2    1    2    0    0  0.71081472897E+00 -0.24781762272E+02 -0.32226170076E+02  0.50528843139E+02  0.29999949205E+02 0.  0.
         12    1    1    2    0    0 -0.71081472897E+00  0.24781762272E+02  0.32226170076E+02  0.40659156861E+02  0.00000000000E+00 0. -1.
         11    1    3    3    0    0 -0.25538507471E+01 -0.96970604557E+01  0.24485381051E+01  0.10322328915E+02  0.51100000000E-03 0. -1.
        -11    1    3    3    0    0 -0.30453739227E+01 -0.11857961322E+02 -0.15421459270E+02  0.19690275654E+02  0.51100000000E-03 0.  1.
         12    1    3    3    0    0  0.63100393988E+01 -0.32267404942E+01 -0.19253248911E+02  0.20516238570E+02  0.00000000000E+00 0. -1.
</event>
<event>
 7    1  0.1369731E-013  0.5052886E+02  0.7816164E-02  0.1300439E+00
        -11   -1    0    0    0    0  0.00000000000E+00  0.00000000000E+00  0.45593999997E+02  0.45594000000E+02  0.51100000000E-03 0. -1.
         11   -1    0    0    0    0 -0.00000000000E+00 -0.00000000000E+00 -0.45593999997E+02  0.45594000000E+02  0.51100000000E-03 0.  1.
    9900012    2    1    2    0    0 -0.23596845643E+02  0.22894831697E+02 -0.23920309238E+02  0.50528860354E+02  0.30000001532E+02 0.  0.
         12    1    1    2    0    0  0.23596845643E+02 -0.22894831697E+02  0.23920309238E+02  0.40659139646E+02  0.00000000000E+00 0. -1.
         11    1    3    3    0    0  0.34510825154E+01  0.14605320779E+02 -0.61095311883E+01  0.16203448312E+02  0.51100000000E-03 0. -1.
        -11    1    3    3    0    0 -0.79570274684E+01 -0.79586003204E+00 -0.31385009036E+01  0.85905685206E+01  0.51100000000E-03 0.  1.
         12    1    3    3    0    0 -0.19090900690E+02  0.90853709498E+01 -0.14672277146E+02  0.25734843521E+02  0.00000000000E+00 0. -1.
</event>
<event>
 7    1  0.1424141E-013  0.5052887E+02  0.7816164E-02  0.1300439E+00
        -11   -1    0    0    0    0  0.00000000000E+00  0.00000000000E+00  0.45593999997E+02  0.45594000000E+02  0.51100000000E-03 0. -1.
         11   -1    0    0    0    0 -0.00000000000E+00 -0.00000000000E+00 -0.45593999997E+02  0.45594000000E+02  0.51100000000E-03 0.  1.
    9900012    2    1    2    0    0 -0.15270895712E+02 -0.16781926577E+02 -0.33739173645E+02  0.50528866293E+02  0.30000019585E+02 0.  0.
         12    1    1    2    0    0  0.15270895712E+02  0.16781926577E+02  0.33739173645E+02  0.40659133707E+02  0.00000000000E+00 0. -1.
         11    1    3    3    0    0  0.12911887369E+01  0.15560232244E+01  0.21461796661E+01  0.29486376599E+01  0.51100000000E-03 0. -1.
        -11    1    3    3    0    0 -0.20751831132E+02 -0.13138344259E+02 -0.27895608084E+02  0.37167452641E+02  0.51100000000E-03 0.  1.
        -12    1    3    3    0    0  0.41897466829E+01 -0.51996055429E+01 -0.79897452275E+01  0.10412775992E+02  0.00000000000E+00 0.  1.
</event>
<event>
 7    1  0.1369731E-013  0.5052886E+02  0.7816164E-02  0.1300439E+00
        -11   -1    0    0    0    0  0.00000000000E+00  0.00000000000E+00  0.45593999997E+02  0.45594000000E+02  0.51100000000E-03 0.  1.
         11   -1    0    0    0    0 -0.00000000000E+00 -0.00000000000E+00 -0.45593999997E+02  0.45594000000E+02  0.51100000000E-03 0. -1.
    9900012    2    1    2    0    0  0.44434343490E+01 -0.37848027925E+02  0.14175615003E+02  0.50528863422E+02  0.30000010856E+02 0.  0.
        -12    1    1    2    0    0 -0.44434343490E+01  0.37848027925E+02 -0.14175615003E+02  0.40659136578E+02  0.00000000000E+00 0.  1.
         11    1    3    3    0    0  0.90809438356E+01 -0.28081523604E+02  0.99589394246E+01  0.31148290219E+02  0.51100000000E-03 0. -1.
        -11    1    3    3    0    0  0.12934692472E+01  0.38478675509E+01  0.69470104626E+00  0.41184653923E+01  0.51100000000E-03 0.  1.
        -12    1    3    3    0    0 -0.59309787338E+01 -0.13614371871E+02  0.35219745322E+01  0.15262107810E+02  0.00000000000E+00 0.  1.
</event>
<event>
 7    1  0.1369731E-013  0.5052886E+02  0.7816164E-02  0.1300439E+00
        -11   -1    0    0    0    0  0.00000000000E+00  0.00000000000E+00  0.45593999997E+02  0.45594000000E+02  0.51100000000E-03 0. -1.
         11   -1    0    0    0    0 -0.00000000000E+00 -0.00000000000E+00 -0.45593999997E+02  0.45594000000E+02  0.51100000000E-03 0.  1.
    9900012    2    1    2    0    0 -0.12640215776E+02 -0.23391624211E+02 -0.30760724389E+02  0.50528864458E+02  0.30000014006E+02 0.  0.
         12    1    1    2    0    0  0.12640215776E+02  0.23391624211E+02  0.30760724389E+02  0.40659135542E+02  0.00000000000E+00 0. -1.
         11    1    3    3    0    0 -0.16843085527E+02 -0.13711640713E+02 -0.95571167685E+01  0.23728402860E+02  0.51100000000E-03 0. -1.
        -11    1    3    3    0    0  0.65616641591E+01 -0.60809553865E+01 -0.20595499187E+02  0.22454577306E+02  0.51100000000E-03 0.  1.
        -12    1    3    3    0    0 -0.23587944085E+01 -0.35990281113E+01 -0.60810843299E+00  0.43458842913E+01  0.00000000000E+00 0.  1.
</event>
<event>
 7    1  0.1369731E-013  0.5052886E+02  0.7816164E-02  0.1300439E+00
        -11   -1    0    0    0    0  0.00000000000E+00  0.00000000000E+00  0.45593999997E+02  0.45594000000E+02  0.51100000000E-03 0. -1.
         11   -1    0    0    0    0 -0.00000000000E+00 -0.00000000000E+00 -0.45593999997E+02  0.45594000000E+02  0.51100000000E-03 0.  1.
    9900012    2    1    2    0    0 -0.17483844471E+02 -0.17108043303E+02 -0.32477613680E+02  0.50528863837E+02  0.30000012119E+02 0.  0.
         12    1    1    2    0    0  0.17483844471E+02  0.17108043303E+02  0.32477613680E+02  0.40659136163E+02  0.00000000000E+00 0. -1.
         11    1    3    3    0    0  0.75308147341E+00  0.46747366347E+01 -0.13571049197E+02  0.14373366720E+02  0.51100000000E-03 0. -1.
        -11    1    3    3    0    0 -0.11863694619E+01  0.10327459655E+01 -0.33509247223E+01  0.37017203413E+01  0.51100000000E-03 0.  1.
         12    1    3    3    0    0 -0.17050556483E+02 -0.22815525903E+02 -0.15555639761E+02  0.32453776775E+02  0.00000000000E+00 0. -1.
</event>
<event>
 7    1  0.1369731E-013  0.5052887E+02  0.7816164E-02  0.1300439E+00
        -11   -1    0    0    0    0  0.00000000000E+00  0.00000000000E+00  0.45593999997E+02  0.45594000000E+02  0.51100000000E-03 0. -1.
         11   -1    0    0    0    0 -0.00000000000E+00 -0.00000000000E+00 -0.45593999997E+02  0.45594000000E+02  0.51100000000E-03 0.  1.
    9900012    2    1    2    0    0  0.14086385226E+02  0.22181552795E+01  0.38076483690E+02  0.50528867302E+02  0.30000022651E+02 0.  0.
        -12    1    1    2    0    0 -0.14086385226E+02 -0.22181552795E+01 -0.38076483690E+02  0.40659132698E+02  0.00000000000E+00 0.  1.
         11    1    3    3    0    0  0.73833342251E+01  0.21553702978E+01  0.30909172726E+01  0.82893314113E+01  0.51100000000E-03 0. -1.
        -11    1    3    3    0    0  0.20358421836E+01  0.10140746937E+02  0.25905394324E+02  0.27893885659E+02  0.51100000000E-03 0.  1.
        -12    1    3    3    0    0  0.46672088174E+01 -0.10077961955E+02  0.90801720936E+01  0.14345650232E+02  0.00000000000E+00 0.  1.
</event>
<event>
 7    1  0.1369731E-013  0.5052887E+02  0.7816164E-02  0.1300439E+00
        -11   -1    0    0    0    0  0.00000000000E+00  0.00000000000E+00  0.45593999997E+02  0.45594000000E+02  0.51100000000E-03 0. -1.
         11   -1    0    0    0    0 -0.00000000000E+00 -0.00000000000E+00 -0.45593999997E+02  0.45594000000E+02  0.51100000000E-03 0.  1.
    9900012    2    1    2    0    0  0.62424206726E+01 -0.30136620252E+02  0.26570311044E+02  0.50528866646E+02  0.30000020658E+02 0.  0.
        -12    1    1    2    0    0 -0.62424206726E+01  0.30136620252E+02 -0.26570311044E+02  0.40659133354E+02  0.00000000000E+00 0.  1.
         11    1    3    3    0    0  0.23507863170E+01 -0.25037574274E+02  0.27603521868E+02  0.37341140069E+02  0.51100000000E-03 0. -1.
        -11    1    3    3    0    0  0.39957282175E+01 -0.23627909930E+01 -0.59579854466E+01  0.75528945516E+01  0.51100000000E-03 0.  1.
        -12    1    3    3    0    0 -0.10409386187E+00 -0.27362549847E+01  0.49247746228E+01  0.56348320257E+01  0.00000000000E+00 0.  1.
</event>
<event>
 7    1  0.1369731E-013  0.5052885E+02  0.7816164E-02  0.1300439E+00
        -11   -1    0    0    0    0  0.00000000000E+00  0.00000000000E+00  0.45593999997E+02  0.45594000000E+02  0.51100000000E-03 0. -1.
         11   -1    0    0    0    0 -0.00000000000E+00 -0.00000000000E+00 -0.45593999997E+02  0.45594000000E+02  0.51100000000E-03 0.  1.
    9900012    2    1    2    0    0 -0.10569803257E+02  0.14517362691E+01  0.39234405699E+02  0.50528845193E+02  0.29999955448E+02 0.  0.
        -12    1    1    2    0    0  0.10569803257E+02 -0.14517362691E+01 -0.39234405699E+02  0.40659154807E+02  0.00000000000E+00 0.  1.
         11    1    3    3    0    0 -0.15011457751E+02  0.10129066885E+02  0.35878607657E+02  0.40189754259E+02  0.51100000000E-03 0. -1.
        -11    1    3    3    0    0  0.38136366799E+01 -0.68007244750E+01  0.27854147091E+01  0.82796264091E+01  0.51100000000E-03 0.  1.
         12    1    3    3    0    0  0.62801781384E+00 -0.18766061406E+01  0.57038333335E+00  0.20594645247E+01  0.00000000000E+00 0. -1.
</event>
<event>
 7    1  0.1369731E-013  0.5052886E+02  0.7816164E-02  0.1300439E+00
        -11   -1    0    0    0    0  0.00000000000E+00  0.00000000000E+00  0.45593999997E+02  0.45594000000E+02  0.51100000000E-03 0. -1.
         11   -1    0    0    0    0 -0.00000000000E+00 -0.00000000000E+00 -0.45593999997E+02  0.45594000000E+02  0.51100000000E-03 0.  1.
    9900012    2    1    2    0    0  0.29646489096E+02  0.13967480080E+01 -0.27790296276E+02  0.50528858496E+02  0.29999995885E+02 0.  0.
         12    1    1    2    0    0 -0.29646489096E+02 -0.13967480080E+01  0.27790296276E+02  0.40659141504E+02  0.00000000000E+00 0. -1.
         11    1    3    3    0    0  0.21283679834E+02 -0.10624525686E+02 -0.20427205911E+02  0.31355164087E+02  0.51100000000E-03 0. -1.
        -11    1    3    3    0    0  0.44025697795E+01  0.11579762736E+02 -0.85069040473E+01  0.15028005271E+02  0.51100000000E-03 0.  1.
         12    1    3    3    0    0  0.39602394828E+01  0.44151095802E+00  0.11438136828E+01  0.41456891379E+01  0.00000000000E+00 0. -1.
</event>
<event>
 7    1  0.1369731E-013  0.5052885E+02  0.7816164E-02  0.1300439E+00
        -11   -1    0    0    0    0  0.00000000000E+00  0.00000000000E+00  0.45593999997E+02  0.45594000000E+02  0.51100000000E-03 0. -1.
         11   -1    0    0    0    0 -0.00000000000E+00 -0.00000000000E+00 -0.45593999997E+02  0.45594000000E+02  0.51100000000E-03 0.  1.
    9900012    2    1    2    0    0 -0.16801272557E+02 -0.33768148154E+02  0.15185380670E+02  0.50528851271E+02  0.29999973924E+02 0.  0.
        -12    1    1    2    0    0  0.16801272557E+02  0.33768148154E+02 -0.15185380670E+02  0.40659148729E+02  0.00000000000E+00 0.  1.
         11    1    3    3    0    0 -0.77953606223E+01 -0.47144561267E+00 -0.42746540220E+01  0.89029531879E+01  0.51100000000E-03 0. -1.
        -11    1    3    3    0    0 -0.51679441263E+01 -0.14086541467E+02  0.15627633591E+02  0.21664746223E+02  0.51100000000E-03 0.  1.
         12    1    3    3    0    0 -0.38379678085E+01 -0.19210161075E+02  0.38324011009E+01  0.19961151861E+02  0.00000000000E+00 0. -1.
</event>
<event>
 7    1  0.1369731E-013  0.5052883E+02  0.7816164E-02  0.1300439E+00
        -11   -1    0    0    0    0  0.00000000000E+00  0.00000000000E+00  0.45593999997E+02  0.45594000000E+02  0.51100000000E-03 0.  1.
         11   -1    0    0    0    0 -0.00000000000E+00 -0.00000000000E+00 -0.45593999997E+02  0.45594000000E+02  0.51100000000E-03 0. -1.
    9900012    2    1    2    0    0 -0.36921778416E+02 -0.12054068059E+00 -0.17027502159E+02  0.50528830293E+02  0.29999910158E+02 0.  0.
        -12    1    1    2    0    0  0.36921778416E+02  0.12054068059E+00  0.17027502159E+02  0.40659169707E+02  0.00000000000E+00 0.  1.
         11    1    3    3    0    0 -0.29327925967E+02 -0.70297233948E+00 -0.19694906870E+02  0.35334271869E+02  0.51100000000E-03 0. -1.
        -11    1    3    3    0    0 -0.11005964016E+02  0.20897338910E+01  0.16125169905E+01  0.11318058268E+02  0.51100000000E-03 0.  1.
         12    1    3    3    0    0  0.34121115660E+01 -0.15073022322E+01  0.10548877205E+01  0.38765001562E+01  0.00000000000E+00 0. -1.
</event>
<event>
 7    1  0.1369731E-013  0.5052886E+02  0.7816164E-02  0.1300439E+00
        -11   -1    0    0    0    0  0.00000000000E+00  0.00000000000E+00  0.45593999997E+02  0.45594000000E+02  0.51100000000E-03 0. -1.
         11   -1    0    0    0    0 -0.00000000000E+00 -0.00000000000E+00 -0.45593999997E+02  0.45594000000E+02  0.51100000000E-03 0.  1.
    9900012    2    1    2    0    0  0.25814876970E+02 -0.19254463476E+02 -0.24819820577E+02  0.50528859205E+02  0.29999998040E+02 0.  0.
         12    1    1    2    0    0 -0.25814876970E+02  0.19254463476E+02  0.24819820577E+02  0.40659140795E+02  0.00000000000E+00 0. -1.
         11    1    3    3    0    0  0.21588958020E+02 -0.22667004650E+02 -0.83585684503E+01  0.32399720291E+02  0.51100000000E-03 0. -1.
        -11    1    3    3    0    0  0.35608993474E+01  0.38338861425E+01 -0.16530475987E+02  0.17338838593E+02  0.51100000000E-03 0.  1.
        -12    1    3    3    0    0  0.66501960273E+00 -0.42134496847E+00  0.69223860587E-01  0.79030032098E+00  0.00000000000E+00 0.  1.
</event>
<event>
 7    1  0.1369731E-013  0.5052886E+02  0.7816164E-02  0.1300439E+00
        -11   -1    0    0    0    0  0.00000000000E+00  0.00000000000E+00  0.45593999997E+02  0.45594000000E+02  0.51100000000E-03 0.  1.
         11   -1    0    0    0    0 -0.00000000000E+00 -0.00000000000E+00 -0.45593999997E+02  0.45594000000E+02  0.51100000000E-03 0. -1.
    9900012    2    1    2    0    0  0.28685515968E+02  0.10154429358E+02  0.26966546619E+02  0.50528857135E+02  0.29999991748E+02 0.  0.
        -12    1    1    2    0    0 -0.28685515968E+02 -0.10154429358E+02 -0.26966546619E+02  0.40659142865E+02  0.00000000000E+00 0.  1.
         11    1    3    3    0    0  0.10863191439E+02  0.23121730954E+01  0.20896854196E+00  0.11108498583E+02  0.51100000000E-03 0. -1.
        -11    1    3    3    0    0  0.64270651960E+01  0.14187451159E+02  0.11579260924E+02  0.19407993745E+02  0.51100000000E-03 0.  1.
        -12    1    3    3    0    0  0.11395259333E+02 -0.63451948959E+01  0.15178317153E+02  0.20012364806E+02  0.00000000000E+00 0.  1.
</event>
<event>
 7    1  0.1369731E-013  0.5052887E+02  0.7816164E-02  0.1300439E+00
        -11   -1    0    0    0    0  0.00000000000E+00  0.00000000000E+00  0.45593999997E+02  0.45594000000E+02  0.51100000000E-03 0. -1.
         11   -1    0    0    0    0 -0.00000000000E+00 -0.00000000000E+00 -0.45593999997E+02  0.45594000000E+02  0.51100000000E-03 0.  1.
    9900012    2    1    2    0    0  0.19459223917E+02 -0.10173461816E+02  0.34219936609E+02  0.50528870861E+02  0.30000033471E+02 0.  0.
        -12    1    1    2    0    0 -0.19459223917E+02  0.10173461816E+02 -0.34219936609E+02  0.40659129139E+02  0.00000000000E+00 0.  1.
         11    1    3    3    0    0  0.14275875560E+02 -0.17016109439E+01  0.43121957853E+01  0.15009701381E+02  0.51100000000E-03 0. -1.
        -11    1    3    3    0    0  0.11654914679E+01 -0.12658928397E+02  0.24427645497E+02  0.27537550786E+02  0.51100000000E-03 0.  1.
        -12    1    3    3    0    0  0.40178568897E+01  0.41870775252E+01  0.54800953269E+01  0.79816186942E+01  0.00000000000E+00 0.  1.
</event>
<event>
 7    1  0.1519441E-013  0.5052887E+02  0.7816164E-02  0.1300439E+00
        -11   -1    0    0    0    0  0.00000000000E+00  0.00000000000E+00  0.45593999997E+02  0.45594000000E+02  0.51100000000E-03 0. -1.
         11   -1    0    0    0    0 -0.00000000000E+00 -0.00000000000E+00 -0.45593999997E+02  0.45594000000E+02  0.51100000000E-03 0.  1.
    9900012    2    1    2    0    0 -0.22775463888E+02  0.23018370860E+02  0.24588569265E+02  0.50528869526E+02  0.30000029412E+02 0.  0.
        -12    1    1    2    0    0  0.22775463888E+02 -0.23018370860E+02 -0.24588569265E+02  0.40659130474E+02  0.00000000000E+00 0.  1.
         11    1    3    3    0    0 -0.10267893175E+02  0.19789529542E+02  0.14064370703E+02  0.26360228248E+02  0.51100000000E-03 0. -1.
        -11    1    3    3    0    0 -0.12754244271E+02 -0.14420708170E+01  0.20309478123E+00  0.12837116612E+02  0.51100000000E-03 0.  1.
         12    1    3    3    0    0  0.24667355757E+00  0.46709121358E+01  0.10321103781E+02  0.11331524667E+02  0.00000000000E+00 0. -1.
</event>
<event>
 7    1  0.1369731E-013  0.5052887E+02  0.7816164E-02  0.1300439E+00
        -11   -1    0    0    0    0  0.00000000000E+00  0.00000000000E+00  0.45593999997E+02  0.45594000000E+02  0.51100000000E-03 0. -1.
         11   -1    0    0    0    0 -0.00000000000E+00 -0.00000000000E+00 -0.45593999997E+02  0.45594000000E+02  0.51100000000E-03 0.  1.
    9900012    2    1    2    0    0 -0.23389365888E+02 -0.43407806051E+01  0.32973632258E+02  0.50528865268E+02  0.30000016468E+02 0.  0.
        -12    1    1    2    0    0  0.23389365888E+02  0.43407806051E+01 -0.32973632258E+02  0.40659134732E+02  0.00000000000E+00 0.  1.
         11    1    3    3    0    0  0.12799133715E+00  0.51429533877E+01  0.14748601668E+02  0.15620102521E+02  0.51100000000E-03 0.  1.
        -11    1    3    3    0    0 -0.24564106790E+02 -0.55995677881E+01  0.17833108095E+02  0.30866976632E+02  0.51100000000E-03 0. -1.
        -12    1    3    3    0    0  0.10467495652E+01 -0.38841662046E+01  0.39192249478E+00  0.40417861150E+01  0.00000000000E+00 0.  1.
</event>
<event>
 7    1  0.1369731E-013  0.5052886E+02  0.7816164E-02  0.1300439E+00
        -11   -1    0    0    0    0  0.00000000000E+00  0.00000000000E+00  0.45593999997E+02  0.45594000000E+02  0.51100000000E-03 0. -1.
         11   -1    0    0    0    0 -0.00000000000E+00 -0.00000000000E+00 -0.45593999997E+02  0.45594000000E+02  0.51100000000E-03 0.  1.
    9900012    2    1    2    0    0 -0.14935102463E+02  0.33087679445E+02  0.18311579464E+02  0.50528858850E+02  0.29999996959E+02 0.  0.
        -12    1    1    2    0    0  0.14935102463E+02 -0.33087679445E+02 -0.18311579464E+02  0.40659141150E+02  0.00000000000E+00 0.  1.
         11    1    3    3    0    0 -0.16853435072E+02  0.10630621423E+02  0.93484193598E+01  0.22010027950E+02  0.51100000000E-03 0. -1.
        -11    1    3    3    0    0  0.54522185102E+01  0.21041930586E+02  0.37408580233E+01  0.22056372061E+02  0.51100000000E-03 0.  1.
        -12    1    3    3    0    0 -0.35338859015E+01  0.14151274355E+01  0.52223020805E+01  0.64624588388E+01  0.00000000000E+00 0.  1.
</event>
<event>
 7    1  0.1369731E-013  0.5052886E+02  0.7816164E-02  0.1300439E+00
        -11   -1    0    0    0    0  0.00000000000E+00  0.00000000000E+00  0.45593999997E+02  0.45594000000E+02  0.51100000000E-03 0. -1.
         11   -1    0    0    0    0 -0.00000000000E+00 -0.00000000000E+00 -0.45593999997E+02  0.45594000000E+02  0.51100000000E-03 0.  1.
    9900012    2    1    2    0    0  0.10951161382E+02 -0.88488616096E+01  0.38143617380E+02  0.50528857926E+02  0.29999994150E+02 0.  0.
        -12    1    1    2    0    0 -0.10951161382E+02  0.88488616096E+01 -0.38143617380E+02  0.40659142074E+02  0.00000000000E+00 0.  1.
         11    1    3    3    0    0  0.10493676316E+02 -0.76445257022E+01  0.69415912869E+01  0.14722150173E+02  0.51100000000E-03 0. -1.
        -11    1    3    3    0    0 -0.75809416951E+01 -0.30439618682E+01  0.21909089028E+02  0.23382569644E+02  0.51100000000E-03 0.  1.
         12    1    3    3    0    0  0.80384267608E+01  0.18396259608E+01  0.92929370646E+01  0.12424138109E+02  0.00000000000E+00 0. -1.
</event>
<event>
 7    1  0.1369731E-013  0.5052886E+02  0.7816164E-02  0.1300439E+00
        -11   -1    0    0    0    0  0.00000000000E+00  0.00000000000E+00  0.45593999997E+02  0.45594000000E+02  0.51100000000E-03 0. -1.
         11   -1    0    0    0    0 -0.00000000000E+00 -0.00000000000E+00 -0.45593999997E+02  0.45594000000E+02  0.51100000000E-03 0.  1.
    9900012    2    1    2    0    0  0.83585814136E+01 -0.97325597497E+01  0.38582085470E+02  0.50528856850E+02  0.29999990880E+02 0.  0.
        -12    1    1    2    0    0 -0.83585814136E+01  0.97325597497E+01 -0.38582085470E+02  0.40659143150E+02  0.00000000000E+00 0.  1.
         11    1    3    3    0    0 -0.88602434692E+01 -0.48101225508E+01  0.24534222862E+02  0.26524880490E+02  0.51100000000E-03 0.  1.
        -11    1    3    3    0    0  0.12458344581E+02 -0.12290796133E+00  0.72392219058E+01  0.14409434067E+02  0.51100000000E-03 0. -1.
        -12    1    3    3    0    0  0.47604803015E+01 -0.47995292376E+01  0.68086407018E+01  0.95945422929E+01  0.00000000000E+00 0.  1.
</event>
<event>
 7    1  0.1369731E-013  0.5052886E+02  0.7816164E-02  0.1300439E+00
        -11   -1    0    0    0    0  0.00000000000E+00  0.00000000000E+00  0.45593999997E+02  0.45594000000E+02  0.51100000000E-03 0. -1.
         11   -1    0    0    0    0 -0.00000000000E+00 -0.00000000000E+00 -0.45593999997E+02  0.45594000000E+02  0.51100000000E-03 0.  1.
    9900012    2    1    2    0    0 -0.33414070297E+02  0.90556014244E+01  0.21322801246E+02  0.50528857560E+02  0.29999993039E+02 0.  0.
        -12    1    1    2    0    0  0.33414070297E+02 -0.90556014244E+01 -0.21322801246E+02  0.40659142440E+02  0.00000000000E+00 0.  1.
         11    1    3    3    0    0 -0.13660677840E+02  0.53064801206E+01  0.16949475240E+02  0.22406641013E+02  0.51100000000E-03 0. -1.
        -11    1    3    3    0    0 -0.19962050051E+01 -0.67645689084E+01  0.12974832940E+00  0.70541520985E+01  0.51100000000E-03 0.  1.
        -12    1    3    3    0    0 -0.17757187453E+02  0.10513690212E+02  0.42435776768E+01  0.21068064448E+02  0.00000000000E+00 0.  1.
</event>
<event>
 7    1  0.1369731E-013  0.5052886E+02  0.7816164E-02  0.1300439E+00
        -11   -1    0    0    0    0  0.00000000000E+00  0.00000000000E+00  0.45593999997E+02  0.45594000000E+02  0.51100000000E-03 0.  1.
         11   -1    0    0    0    0 -0.00000000000E+00 -0.00000000000E+00 -0.45593999997E+02  0.45594000000E+02  0.51100000000E-03 0. -1.
    9900012    2    1    2    0    0 -0.32538675858E+02  0.15233334310E+02  0.19035384998E+02  0.50528858558E+02  0.29999996072E+02 0.  0.
        -12    1    1    2    0    0  0.32538675858E+02 -0.15233334310E+02 -0.19035384998E+02  0.40659141442E+02  0.00000000000E+00 0.  1.
         11    1    3    3    0    0 -0.30732213879E+01  0.70334019980E+01 -0.62143887120E+01  0.98758321517E+01  0.51100000000E-03 0. -1.
        -11    1    3    3    0    0 -0.20227052467E+02  0.16707962887E+01  0.13707176825E+02  0.24491057725E+02  0.51100000000E-03 0.  1.
         12    1    3    3    0    0 -0.92384020038E+01  0.65291360236E+01  0.11542596885E+02  0.16161968681E+02  0.00000000000E+00 0. -1.
</event>
<event>
 7    1  0.1460533E-013  0.5052886E+02  0.7816164E-02  0.1300439E+00
        -11   -1    0    0    0    0  0.00000000000E+00  0.00000000000E+00  0.45593999997E+02  0.45594000000E+02  0.51100000000E-03 0. -1.
         11   -1    0    0    0    0 -0.00000000000E+00 -0.00000000000E+00 -0.45593999997E+02  0.45594000000E+02  0.51100000000E-03 0.  1.
    9900012    2    1    2    0    0 -0.11910999992E+02 -0.21858327921E+02 -0.32148204109E+02  0.50528862678E+02  0.30000008597E+02 0.  0.
         12    1    1    2    0    0  0.11910999992E+02  0.21858327921E+02  0.32148204109E+02  0.40659137322E+02  0.00000000000E+00 0. -1.
         11    1    3    3    0    0 -0.77243392231E+01 -0.51667215928E-01 -0.24207496453E+01  0.80949437948E+01  0.51100000000E-03 0. -1.
        -11    1    3    3    0    0 -0.74401433510E+01 -0.24671495689E+02 -0.26940024992E+02  0.37280066784E+02  0.51100000000E-03 0.  1.
        -12    1    3    3    0    0  0.32534825825E+01  0.28648349840E+01 -0.27874294718E+01  0.51538520992E+01  0.00000000000E+00 0.  1.
</event>
<event>
 7    1  0.1369731E-013  0.5052886E+02  0.7816164E-02  0.1300439E+00
        -11   -1    0    0    0    0  0.00000000000E+00  0.00000000000E+00  0.45593999997E+02  0.45594000000E+02  0.51100000000E-03 0. -1.
         11   -1    0    0    0    0 -0.00000000000E+00 -0.00000000000E+00 -0.45593999997E+02  0.45594000000E+02  0.51100000000E-03 0.  1.
    9900012    2    1    2    0    0 -0.27379004996E+02 -0.54045017185E+01 -0.29569363122E+02  0.50528858484E+02  0.29999995848E+02 0.  0.
         12    1    1    2    0    0  0.27379004996E+02  0.54045017185E+01  0.29569363122E+02  0.40659141516E+02  0.00000000000E+00 0. -1.
         11    1    3    3    0    0 -0.10014861766E+02 -0.10330791517E+02 -0.75730344138E+01  0.16259568262E+02  0.51100000000E-03 0. -1.
        -11    1    3    3    0    0 -0.41321486612E+01  0.91436731995E+01 -0.25147753119E+01  0.10344346633E+02  0.51100000000E-03 0.  1.
        -12    1    3    3    0    0 -0.13231994569E+02 -0.42173834007E+01 -0.19481553396E+02  0.23924943589E+02  0.00000000000E+00 0.  1.
</event>
<event>
 7    1  0.1369731E-013  0.5052885E+02  0.7816164E-02  0.1300439E+00
        -11   -1    0    0    0    0  0.00000000000E+00  0.00000000000E+00  0.45593999997E+02  0.45594000000E+02  0.51100000000E-03 0.  1.
         11   -1    0    0    0    0 -0.00000000000E+00 -0.00000000000E+00 -0.45593999997E+02  0.45594000000E+02  0.51100000000E-03 0. -1.
    9900012    2    1    2    0    0 -0.24013474632E+01  0.37290252229E+02 -0.16026149582E+02  0.50528845418E+02  0.29999956131E+02 0.  0.
         12    1    1    2    0    0  0.24013474632E+01 -0.37290252229E+02  0.16026149582E+02  0.40659154582E+02  0.00000000000E+00 0. -1.
         11    1    3    3    0    0 -0.13258673549E+02  0.15710955629E+02 -0.91648496000E+01  0.22508243368E+02  0.51100000000E-03 0. -1.
        -11    1    3    3    0    0  0.11674287992E+02  0.15409859859E+02 -0.82428014473E+00  0.19350251136E+02  0.51100000000E-03 0.  1.
        -12    1    3    3    0    0 -0.81696190594E+00  0.61694367406E+01 -0.60370198371E+01  0.86703509137E+01  0.00000000000E+00 0.  1.
</event>
<event>
 7    1  0.1369731E-013  0.5052886E+02  0.7816164E-02  0.1300439E+00
        -11   -1    0    0    0    0  0.00000000000E+00  0.00000000000E+00  0.45593999997E+02  0.45594000000E+02  0.51100000000E-03 0. -1.
         11   -1    0    0    0    0 -0.00000000000E+00 -0.00000000000E+00 -0.45593999997E+02  0.45594000000E+02  0.51100000000E-03 0.  1.
    9900012    2    1    2    0    0  0.26110742598E+02  0.85974850764E+01 -0.29957934027E+02  0.50528862776E+02  0.30000008893E+02 0.  0.
         12    1    1    2    0    0 -0.26110742598E+02 -0.85974850764E+01  0.29957934027E+02  0.40659137224E+02  0.00000000000E+00 0. -1.
         11    1    3    3    0    0  0.12467754412E+01  0.14069370313E+02 -0.65368005279E+01  0.15563784611E+02  0.51100000000E-03 0. -1.
        -11    1    3    3    0    0  0.15090072290E+02 -0.94937448519E+00 -0.14952325056E+02  0.21264609530E+02  0.51100000000E-03 0.  1.
         12    1    3    3    0    0  0.97738948663E+01 -0.45225107518E+01 -0.84688084437E+01  0.13700468635E+02  0.00000000000E+00 0. -1.
</event>
<event>
 7    1  0.1369731E-013  0.5052887E+02  0.7816164E-02  0.1300439E+00
        -11   -1    0    0    0    0  0.00000000000E+00  0.00000000000E+00  0.45593999997E+02  0.45594000000E+02  0.51100000000E-03 0. -1.
         11   -1    0    0    0    0 -0.00000000000E+00 -0.00000000000E+00 -0.45593999997E+02  0.45594000000E+02  0.51100000000E-03 0.  1.
    9900012    2    1    2    0    0 -0.23374691938E+01  0.23377242158E+02  0.33184416308E+02  0.50528871888E+02  0.30000036591E+02 0.  0.
        -12    1    1    2    0    0  0.23374691938E+01 -0.23377242158E+02 -0.33184416308E+02  0.40659128112E+02  0.00000000000E+00 0.  1.
         11    1    3    3    0    0  0.44685934204E+01  0.62893062643E+01  0.79123094863E+01  0.11051169264E+02  0.51100000000E-03 0. -1.
        -11    1    3    3    0    0 -0.67519968698E+01 -0.17658252865E-01 -0.22120500537E+01  0.71051347098E+01  0.51100000000E-03 0.  1.
        -12    1    3    3    0    0 -0.54065744478E-01  0.17105594146E+02  0.27484156875E+02  0.32372567914E+02  0.00000000000E+00 0.  1.
</event>
<event>
 7    1  0.1369731E-013  0.5052887E+02  0.7816164E-02  0.1300439E+00
        -11   -1    0    0    0    0  0.00000000000E+00  0.00000000000E+00  0.45593999997E+02  0.45594000000E+02  0.51100000000E-03 0. -1.
         11   -1    0    0    0    0 -0.00000000000E+00 -0.00000000000E+00 -0.45593999997E+02  0.45594000000E+02  0.51100000000E-03 0.  1.
    9900012    2    1    2    0    0 -0.32679997347E+02  0.45447158829E+01 -0.23759799631E+02  0.50528871289E+02  0.30000034769E+02 0.  0.
         12    1    1    2    0    0  0.32679997347E+02 -0.45447158829E+01  0.23759799631E+02  0.40659128711E+02  0.00000000000E+00 0. -1.
         11    1    3    3    0    0 -0.16022154542E+02 -0.10102413480E+02 -0.67950767413E+01  0.20123152399E+02  0.51100000000E-03 0. -1.
        -11    1    3    3    0    0 -0.16864013331E+02  0.85161460097E+01 -0.14409682752E+02  0.23760442879E+02  0.51100000000E-03 0.  1.
         12    1    3    3    0    0  0.20617052695E+00  0.61309833528E+01 -0.25550401376E+01  0.66452760111E+01  0.00000000000E+00 0. -1.
</event>
<event>
 7    1  0.1369731E-013  0.5052890E+02  0.7816164E-02  0.1300439E+00
        -11   -1    0    0    0    0  0.00000000000E+00  0.00000000000E+00  0.45593999997E+02  0.45594000000E+02  0.51100000000E-03 0. -1.
         11   -1    0    0    0    0 -0.00000000000E+00 -0.00000000000E+00 -0.45593999997E+02  0.45594000000E+02  0.51100000000E-03 0.  1.
    9900012    2    1    2    0    0  0.20757311936E+02 -0.25167632038E+02 -0.24266993457E+02  0.50528896805E+02  0.30000112328E+02 0.  0.
         12    1    1    2    0    0 -0.20757311936E+02  0.25167632038E+02  0.24266993457E+02  0.40659103195E+02  0.00000000000E+00 0. -1.
         11    1    3    3    0    0 -0.57902990108E+01 -0.10091140937E+02 -0.47606638249E+01  0.12570704370E+02  0.51100000000E-03 0. -1.
        -11    1    3    3    0    0  0.22492930275E+02 -0.97256246301E+01 -0.10343371094E+02  0.26598966383E+02  0.51100000000E-03 0.  1.
        -12    1    3    3    0    0  0.40546806713E+01 -0.53508664714E+01 -0.91629585375E+01  0.11359226052E+02  0.00000000000E+00 0.  1.
</event>
<event>
 7    1  0.1369731E-013  0.5052886E+02  0.7816164E-02  0.1300439E+00
        -11   -1    0    0    0    0  0.00000000000E+00  0.00000000000E+00  0.45593999997E+02  0.45594000000E+02  0.51100000000E-03 0. -1.
         11   -1    0    0    0    0 -0.00000000000E+00 -0.00000000000E+00 -0.45593999997E+02  0.45594000000E+02  0.51100000000E-03 0.  1.
    9900012    2    1    2    0    0  0.49457339813E+01 -0.23201114549E+02 -0.33021409689E+02  0.50528862051E+02  0.30000006690E+02 0.  0.
         12    1    1    2    0    0 -0.49457339813E+01  0.23201114549E+02  0.33021409689E+02  0.40659137949E+02  0.00000000000E+00 0. -1.
         11    1    3    3    0    0  0.91011425073E+01 -0.27898550913E+02 -0.27047910338E+02  0.39909264487E+02  0.51100000000E-03 0. -1.
        -11    1    3    3    0    0  0.15788285218E+01  0.86851347020E+00 -0.67649465441E+00  0.19247494454E+01  0.51100000000E-03 0.  1.
         12    1    3    3    0    0 -0.57342370479E+01  0.38289228940E+01 -0.52970046963E+01  0.86948481184E+01  0.00000000000E+00 0. -1.
</event>
<event>
 7    1  0.1369731E-013  0.5052884E+02  0.7816164E-02  0.1300439E+00
        -11   -1    0    0    0    0  0.00000000000E+00  0.00000000000E+00  0.45593999997E+02  0.45594000000E+02  0.51100000000E-03 0.  1.
         11   -1    0    0    0    0 -0.00000000000E+00 -0.00000000000E+00 -0.45593999997E+02  0.45594000000E+02  0.51100000000E-03 0. -1.
    9900012    2    1    2    0    0 -0.20079169725E+02  0.24780511419E+02  0.25217468467E+02  0.50528837208E+02  0.29999931179E+02 0.  0.
        -12    1    1    2    0    0  0.20079169725E+02 -0.24780511419E+02 -0.25217468467E+02  0.40659162792E+02  0.00000000000E+00 0.  1.
         11    1    3    3    0    0 -0.53975591985E+01  0.81788049285E+01 -0.24470596477E+00  0.98023658690E+01  0.51100000000E-03 0. -1.
        -11    1    3    3    0    0 -0.20035834643E+02  0.10724874260E+02  0.23164951508E+02  0.32451079741E+02  0.51100000000E-03 0.  1.
        -12    1    3    3    0    0  0.53542241162E+01  0.58768322297E+01  0.22972229240E+01  0.82753915983E+01  0.00000000000E+00 0.  1.
</event>
<event>
 7    1  0.1369731E-013  0.5052886E+02  0.7816164E-02  0.1300439E+00
        -11   -1    0    0    0    0  0.00000000000E+00  0.00000000000E+00  0.45593999997E+02  0.45594000000E+02  0.51100000000E-03 0. -1.
         11   -1    0    0    0    0 -0.00000000000E+00 -0.00000000000E+00 -0.45593999997E+02  0.45594000000E+02  0.51100000000E-03 0.  1.
    9900012    2    1    2    0    0 -0.34734197599E+02 -0.89469819323E+01 -0.19148176018E+02  0.50528860642E+02  0.30000002407E+02 0.  0.
         12    1    1    2    0    0  0.34734197599E+02  0.89469819323E+01  0.19148176018E+02  0.40659139358E+02  0.00000000000E+00 0. -1.
         11    1    3    3    0    0  0.72370001886E+00  0.13749628086E+01  0.17068939607E+01  0.23081923006E+01  0.51100000000E-03 0. -1.
        -11    1    3    3    0    0 -0.36143250409E+02 -0.35338699345E+01 -0.15236744276E+02  0.39382498184E+02  0.51100000000E-03 0.  1.
        -12    1    3    3    0    0  0.68535279122E+00 -0.67880748065E+01 -0.56183257032E+01  0.88381701575E+01  0.00000000000E+00 0.  1.
</event>
<event>
 7    1  0.1369731E-013  0.5052887E+02  0.7816164E-02  0.1300439E+00
        -11   -1    0    0    0    0  0.00000000000E+00  0.00000000000E+00  0.45593999997E+02  0.45594000000E+02  0.51100000000E-03 0. -1.
         11   -1    0    0    0    0 -0.00000000000E+00 -0.00000000000E+00 -0.45593999997E+02  0.45594000000E+02  0.51100000000E-03 0.  1.
    9900012    2    1    2    0    0 -0.25858826688E+02  0.28712606639E+02  0.12651967118E+02  0.50528868558E+02  0.30000026469E+02 0.  0.
        -12    1    1    2    0    0  0.25858826688E+02 -0.28712606639E+02 -0.12651967118E+02  0.40659131442E+02  0.00000000000E+00 0.  1.
         11    1    3    3    0    0 -0.19068777421E+02  0.13979992461E+02  0.14105462396E+02  0.27532208978E+02  0.51100000000E-03 0. -1.
        -11    1    3    3    0    0 -0.40191659601E+01  0.53444159089E+00 -0.65125264057E+01  0.76715267890E+01  0.51100000000E-03 0.  1.
         12    1    3    3    0    0 -0.27708833069E+01  0.14198172587E+02  0.50590311275E+01  0.15325132791E+02  0.00000000000E+00 0. -1.
</event>
<event>
 7    1  0.1369731E-013  0.5052886E+02  0.7816164E-02  0.1300439E+00
        -11   -1    0    0    0    0  0.00000000000E+00  0.00000000000E+00  0.45593999997E+02  0.45594000000E+02  0.51100000000E-03 0. -1.
         11   -1    0    0    0    0 -0.00000000000E+00 -0.00000000000E+00 -0.45593999997E+02  0.45594000000E+02  0.51100000000E-03 0.  1.
    9900012    2    1    2    0    0 -0.12766267171E+02  0.30139326545E+02  0.24120720544E+02  0.50528859065E+02  0.29999997613E+02 0.  0.
        -12    1    1    2    0    0  0.12766267171E+02 -0.30139326545E+02 -0.24120720544E+02  0.40659140935E+02  0.00000000000E+00 0.  1.
         11    1    3    3    0    0 -0.19441672040E+02  0.23120028708E+02  0.15873533850E+02  0.34124528075E+02  0.51100000000E-03 0. -1.
        -11    1    3    3    0    0  0.34003141879E+01  0.46441094834E+01 -0.14168063048E+01  0.59276664749E+01  0.51100000000E-03 0.  1.
         12    1    3    3    0    0  0.32750906811E+01  0.23751883536E+01  0.96639929986E+01  0.10476664515E+02  0.00000000000E+00 0. -1.
</event>
<event>
 7    1  0.1369731E-013  0.5052886E+02  0.7816164E-02  0.1300439E+00
        -11   -1    0    0    0    0  0.00000000000E+00  0.00000000000E+00  0.45593999997E+02  0.45594000000E+02  0.51100000000E-03 0. -1.
         11   -1    0    0    0    0 -0.00000000000E+00 -0.00000000000E+00 -0.45593999997E+02  0.45594000000E+02  0.51100000000E-03 0.  1.
    9900012    2    1    2    0    0  0.76116066003E+01 -0.20802987871E+02  0.34094941983E+02  0.50528856770E+02  0.29999990638E+02 0.  0.
        -12    1    1    2    0    0 -0.76116066003E+01  0.20802987871E+02 -0.34094941983E+02  0.40659143230E+02  0.00000000000E+00 0.  1.
         11    1    3    3    0    0  0.74372437517E+01 -0.23638614177E+02  0.21480162900E+02  0.32794726303E+02  0.51100000000E-03 0. -1.
        -11    1    3    3    0    0 -0.39980627453E+01  0.68269397079E+00 -0.22567657314E+00  0.40622046908E+01  0.51100000000E-03 0.  1.
        -12    1    3    3    0    0  0.41724255939E+01  0.21529323352E+01  0.12840455655E+02  0.13671925776E+02  0.00000000000E+00 0.  1.
</event>
<event>
 7    1  0.1369731E-013  0.5052887E+02  0.7816164E-02  0.1300439E+00
        -11   -1    0    0    0    0  0.00000000000E+00  0.00000000000E+00  0.45593999997E+02  0.45594000000E+02  0.51100000000E-03 0.  1.
         11   -1    0    0    0    0 -0.00000000000E+00 -0.00000000000E+00 -0.45593999997E+02  0.45594000000E+02  0.51100000000E-03 0. -1.
    9900012    2    1    2    0    0  0.26560019562E+02  0.52894388255E+01 -0.30327420004E+02  0.50528865647E+02  0.30000017621E+02 0.  0.
         12    1    1    2    0    0 -0.26560019562E+02 -0.52894388255E+01  0.30327420004E+02  0.40659134353E+02  0.00000000000E+00 0. -1.
         11    1    3    3    0    0 -0.31318525587E+01 -0.34178526817E+00 -0.52594450788E+01  0.61308303203E+01  0.51100000000E-03 0. -1.
        -11    1    3    3    0    0  0.25838926628E+02 -0.18957618375E+01 -0.11354693946E+02  0.28287331388E+02  0.51100000000E-03 0.  1.
        -12    1    3    3    0    0  0.38529454926E+01  0.75269859311E+01 -0.13713280979E+02  0.16110703939E+02  0.00000000000E+00 0.  1.
</event>
<event>
 7    1  0.1369731E-013  0.5052887E+02  0.7816164E-02  0.1300439E+00
        -11   -1    0    0    0    0  0.00000000000E+00  0.00000000000E+00  0.45593999997E+02  0.45594000000E+02  0.51100000000E-03 0. -1.
         11   -1    0    0    0    0 -0.00000000000E+00 -0.00000000000E+00 -0.45593999997E+02  0.45594000000E+02  0.51100000000E-03 0.  1.
    9900012    2    1    2    0    0  0.13474795756E+02  0.28312344420E+01 -0.38256750412E+02  0.50528868661E+02  0.30000026783E+02 0.  0.
         12    1    1    2    0    0 -0.13474795756E+02 -0.28312344420E+01  0.38256750412E+02  0.40659131339E+02  0.00000000000E+00 0. -1.
         11    1    3    3    0    0 -0.57155721028E+01 -0.43091402803E+01 -0.22610989240E+00  0.71615347770E+01  0.51100000000E-03 0. -1.
        -11    1    3    3    0    0  0.13228986932E+02  0.29891914569E+01 -0.25550331704E+02  0.28926818202E+02  0.51100000000E-03 0.  1.
         12    1    3    3    0    0  0.59613809261E+01  0.41511832654E+01 -0.12480308816E+02  0.14440515683E+02  0.00000000000E+00 0. -1.
</event>
<event>
 7    1  0.1369731E-013  0.5052886E+02  0.7816164E-02  0.1300439E+00
        -11   -1    0    0    0    0  0.00000000000E+00  0.00000000000E+00  0.45593999997E+02  0.45594000000E+02  0.51100000000E-03 0. -1.
         11   -1    0    0    0    0 -0.00000000000E+00 -0.00000000000E+00 -0.45593999997E+02  0.45594000000E+02  0.51100000000E-03 0.  1.
    9900012    2    1    2    0    0  0.19309833446E+02  0.12721301067E+02 -0.33443451062E+02  0.50528860959E+02  0.30000003371E+02 0.  0.
         12    1    1    2    0    0 -0.19309833446E+02 -0.12721301067E+02  0.33443451062E+02  0.40659139041E+02  0.00000000000E+00 0. -1.
         11    1    3    3    0    0  0.17243597193E+01  0.25352692270E+01 -0.22160902940E+02  0.22372005406E+02  0.51100000000E-03 0. -1.
        -11    1    3    3    0    0  0.15035797349E+02  0.14391087649E+02 -0.83099168419E+01  0.22410562773E+02  0.51100000000E-03 0.  1.
         12    1    3    3    0    0  0.25496763780E+01 -0.42050558083E+01 -0.29726312801E+01  0.57462927798E+01  0.00000000000E+00 0. -1.
</event>
<event>
 7    1  0.1369731E-013  0.5052885E+02  0.7816164E-02  0.1300439E+00
        -11   -1    0    0    0    0  0.00000000000E+00  0.00000000000E+00  0.45593999997E+02  0.45594000000E+02  0.51100000000E-03 0. -1.
         11   -1    0    0    0    0 -0.00000000000E+00 -0.00000000000E+00 -0.45593999997E+02  0.45594000000E+02  0.51100000000E-03 0.  1.
    9900012    2    1    2    0    0  0.69914851907E+01  0.27559430828E+02  0.29064817968E+02  0.50528846834E+02  0.29999960435E+02 0.  0.
        -12    1    1    2    0    0 -0.69914851907E+01 -0.27559430828E+02 -0.29064817968E+02  0.40659153166E+02  0.00000000000E+00 0.  1.
         11    1    3    3    0    0  0.43032427508E+01 -0.50181855916E+01  0.18937275370E+01  0.68765026757E+01  0.51100000000E-03 0. -1.
        -11    1    3    3    0    0 -0.12239702041E+01  0.14476320849E+01  0.46784608210E+01  0.50479439011E+01  0.51100000000E-03 0.  1.
         12    1    3    3    0    0  0.39122126440E+01  0.31129984334E+02  0.22492629610E+02  0.38604400257E+02  0.00000000000E+00 0. -1.
</event>
<event>
 7    1  0.1369731E-013  0.5052880E+02  0.7816164E-02  0.1300439E+00
        -11   -1    0    0    0    0  0.00000000000E+00  0.00000000000E+00  0.45593999997E+02  0.45594000000E+02  0.51100000000E-03 0. -1.
         11   -1    0    0    0    0 -0.00000000000E+00 -0.00000000000E+00 -0.45593999997E+02  0.45594000000E+02  0.51100000000E-03 0.  1.
    9900012    2    1    2    0    0 -0.30195628732E+01  0.29837394970E+02  0.27455099957E+02  0.50528801629E+02  0.29999823030E+02 0.  0.
        -12    1    1    2    0    0  0.30195628732E+01 -0.29837394970E+02 -0.27455099957E+02  0.40659198371E+02  0.00000000000E+00 0.  1.
         11    1    3    3    0    0  0.43377503306E+01  0.78980205933E+01  0.20385427141E+01  0.92385314786E+01  0.51100000000E-03 0. -1.
        -11    1    3    3    0    0 -0.54802671436E+01  0.25618633135E+02  0.26239045217E+02  0.37078770015E+02  0.51100000000E-03 0.  1.
        -12    1    3    3    0    0 -0.18770460602E+01 -0.36792587580E+01 -0.82248797451E+00  0.42115001352E+01  0.00000000000E+00 0.  1.
</event>
<event>
 7    1  0.1369731E-013  0.5052886E+02  0.7816164E-02  0.1300439E+00
        -11   -1    0    0    0    0  0.00000000000E+00  0.00000000000E+00  0.45593999997E+02  0.45594000000E+02  0.51100000000E-03 0. -1.
         11   -1    0    0    0    0 -0.00000000000E+00 -0.00000000000E+00 -0.45593999997E+02  0.45594000000E+02  0.51100000000E-03 0.  1.
    9900012    2    1    2    0    0  0.28446822784E+02 -0.11113001189E+02  0.26841111084E+02  0.50528858763E+02  0.29999996696E+02 0.  0.
        -12    1    1    2    0    0 -0.28446822784E+02  0.11113001189E+02 -0.26841111084E+02  0.40659141237E+02  0.00000000000E+00 0.  1.
         11    1    3    3    0    0  0.16428637194E+02  0.57036291970E+01  0.17295566562E+02  0.24526885840E+02  0.51100000000E-03 0. -1.
        -11    1    3    3    0    0  0.10945669797E+02 -0.80090119362E+01  0.86691735407E+00  0.13590566782E+02  0.51100000000E-03 0.  1.
         12    1    3    3    0    0  0.10725157932E+01 -0.88076184493E+01  0.86786271679E+01  0.12411406141E+02  0.00000000000E+00 0. -1.
</event>
<event>
 7    1  0.1369731E-013  0.5052886E+02  0.7816164E-02  0.1300439E+00
        -11   -1    0    0    0    0  0.00000000000E+00  0.00000000000E+00  0.45593999997E+02  0.45594000000E+02  0.51100000000E-03 0. -1.
         11   -1    0    0    0    0 -0.00000000000E+00 -0.00000000000E+00 -0.45593999997E+02  0.45594000000E+02  0.51100000000E-03 0.  1.
    9900012    2    1    2    0    0  0.15812074441E+02 -0.30841942831E+02  0.21258378530E+02  0.50528858427E+02  0.29999995676E+02 0.  0.
        -12    1    1    2    0    0 -0.15812074441E+02  0.30841942831E+02 -0.21258378530E+02  0.40659141573E+02  0.00000000000E+00 0.  1.
         11    1    3    3    0    0  0.11570649419E+02  0.70103531427E+00  0.50197984778E+01  0.12632092285E+02  0.51100000000E-03 0.  1.
        -11    1    3    3    0    0  0.46075106410E+01 -0.19916680984E+02  0.36663778554E+01  0.20768862814E+02  0.51100000000E-03 0. -1.
         12    1    3    3    0    0 -0.36608561936E+00 -0.11626297161E+02  0.12572202197E+02  0.17127903328E+02  0.00000000000E+00 0. -1.
</event>
<event>
 7    1  0.1369731E-013  0.5052887E+02  0.7816164E-02  0.1300439E+00
        -11   -1    0    0    0    0  0.00000000000E+00  0.00000000000E+00  0.45593999997E+02  0.45594000000E+02  0.51100000000E-03 0. -1.
         11   -1    0    0    0    0 -0.00000000000E+00 -0.00000000000E+00 -0.45593999997E+02  0.45594000000E+02  0.51100000000E-03 0.  1.
    9900012    2    1    2    0    0  0.25874076370E+02 -0.89074467907E+01 -0.30072485834E+02  0.50528870145E+02  0.30000031292E+02 0.  0.
         12    1    1    2    0    0 -0.25874076370E+02  0.89074467907E+01  0.30072485834E+02  0.40659129855E+02  0.00000000000E+00 0. -1.
         11    1    3    3    0    0  0.20795622827E+01  0.24724194426E+01  0.23995950326E+01  0.40243625296E+01  0.51100000000E-03 0. -1.
        -11    1    3    3    0    0  0.64907892835E+01 -0.87881237105E+01 -0.25367923295E+02  0.27620517671E+02  0.51100000000E-03 0.  1.
        -12    1    3    3    0    0  0.17303724804E+02 -0.25917425229E+01 -0.71041575724E+01  0.18883989944E+02  0.00000000000E+00 0.  1.
</event>
<event>
 7    1  0.1369731E-013  0.5052886E+02  0.7816164E-02  0.1300439E+00
        -11   -1    0    0    0    0  0.00000000000E+00  0.00000000000E+00  0.45593999997E+02  0.45594000000E+02  0.51100000000E-03 0. -1.
         11   -1    0    0    0    0 -0.00000000000E+00 -0.00000000000E+00 -0.45593999997E+02  0.45594000000E+02  0.51100000000E-03 0.  1.
    9900012    2    1    2    0    0 -0.29656153355E+02  0.23224950179E+02 -0.15306201767E+02  0.50528861358E+02  0.30000004583E+02 0.  0.
         12    1    1    2    0    0  0.29656153355E+02 -0.23224950179E+02  0.15306201767E+02  0.40659138642E+02  0.00000000000E+00 0. -1.
         11    1    3    3    0    0  0.26779393482E+01 -0.53047045820E+00 -0.14327682132E+01  0.30831125626E+01  0.51100000000E-03 0. -1.
        -11    1    3    3    0    0 -0.18159156096E+02  0.24983893792E+02 -0.11818594619E+02  0.33070063171E+02  0.51100000000E-03 0.  1.
        -12    1    3    3    0    0 -0.14174936607E+02 -0.12284731553E+01 -0.20548389345E+01  0.14375685624E+02  0.00000000000E+00 0.  1.
</event>
<event>
 7    1  0.1369731E-013  0.5052886E+02  0.7816164E-02  0.1300439E+00
        -11   -1    0    0    0    0  0.00000000000E+00  0.00000000000E+00  0.45593999997E+02  0.45594000000E+02  0.51100000000E-03 0. -1.
         11   -1    0    0    0    0 -0.00000000000E+00 -0.00000000000E+00 -0.45593999997E+02  0.45594000000E+02  0.51100000000E-03 0.  1.
    9900012    2    1    2    0    0  0.20286988749E+02 -0.27122858038E+02 -0.22493422129E+02  0.50528863515E+02  0.30000011141E+02 0.  0.
         12    1    1    2    0    0 -0.20286988749E+02  0.27122858038E+02  0.22493422129E+02  0.40659136485E+02  0.00000000000E+00 0. -1.
         11    1    3    3    0    0  0.56345107082E+01 -0.91651590956E+01 -0.13894300440E+02  0.17572690094E+02  0.51100000000E-03 0. -1.
        -11    1    3    3    0    0  0.13953289551E+02 -0.57493376902E+01  0.37780805749E+01  0.15557090546E+02  0.51100000000E-03 0.  1.
        -12    1    3    3    0    0  0.69918848941E+00 -0.12208361252E+02 -0.12377202264E+02  0.17399082875E+02  0.00000000000E+00 0.  1.
</event>
<event>
 7    1  0.1369731E-013  0.5052886E+02  0.7816164E-02  0.1300439E+00
        -11   -1    0    0    0    0  0.00000000000E+00  0.00000000000E+00  0.45593999997E+02  0.45594000000E+02  0.51100000000E-03 0. -1.
         11   -1    0    0    0    0 -0.00000000000E+00 -0.00000000000E+00 -0.45593999997E+02  0.45594000000E+02  0.51100000000E-03 0.  1.
    9900012    2    1    2    0    0 -0.26434442108E+02 -0.21620197378E+02  0.22067013986E+02  0.50528858710E+02  0.29999996534E+02 0.  0.
        -12    1    1    2    0    0  0.26434442108E+02  0.21620197378E+02 -0.22067013986E+02  0.40659141290E+02  0.00000000000E+00 0.  1.
         11    1    3    3    0    0 -0.28017459037E+02 -0.99784205592E+01  0.15713032828E+02  0.33636977996E+02  0.51100000000E-03 0. -1.
        -11    1    3    3    0    0  0.26624634098E+01 -0.75070014185E+01  0.88791182802E+01  0.11928223816E+02  0.51100000000E-03 0.  1.
        -12    1    3    3    0    0 -0.10794464802E+01 -0.41347754002E+01 -0.25251371225E+01  0.49636568980E+01  0.00000000000E+00 0.  1.
</event>
<event>
 7    1  0.1369731E-013  0.5052890E+02  0.7816164E-02  0.1300439E+00
        -11   -1    0    0    0    0  0.00000000000E+00  0.00000000000E+00  0.45593999997E+02  0.45594000000E+02  0.51100000000E-03 0. -1.
         11   -1    0    0    0    0 -0.00000000000E+00 -0.00000000000E+00 -0.45593999997E+02  0.45594000000E+02  0.51100000000E-03 0.  1.
    9900012    2    1    2    0    0 -0.67736190843E+01 -0.60393607216E+01 -0.39633407447E+02  0.50528895494E+02  0.30000108343E+02 0.  0.
         12    1    1    2    0    0  0.67736190843E+01  0.60393607216E+01  0.39633407447E+02  0.40659104506E+02  0.00000000000E+00 0. -1.
         11    1    3    3    0    0  0.22363608934E+01  0.76311977423E+01 -0.84182358996E+01  0.11580292956E+02  0.51100000000E-03 0. -1.
        -11    1    3    3    0    0 -0.10610234831E+02 -0.20476655384E+01 -0.19922111124E+02  0.22664080154E+02  0.51100000000E-03 0.  1.
        -12    1    3    3    0    0  0.16002548530E+01 -0.11622892925E+02 -0.11293060423E+02  0.16284522384E+02  0.00000000000E+00 0.  1.
</event>
<event>
 7    1  0.1369731E-013  0.5052887E+02  0.7816164E-02  0.1300439E+00
        -11   -1    0    0    0    0  0.00000000000E+00  0.00000000000E+00  0.45593999997E+02  0.45594000000E+02  0.51100000000E-03 0. -1.
         11   -1    0    0    0    0 -0.00000000000E+00 -0.00000000000E+00 -0.45593999997E+02  0.45594000000E+02  0.51100000000E-03 0.  1.
    9900012    2    1    2    0    0  0.12660400766E+01  0.10331956765E+02  0.39304105750E+02  0.50528869206E+02  0.30000028439E+02 0.  0.
        -12    1    1    2    0    0 -0.12660400766E+01 -0.10331956765E+02 -0.39304105750E+02  0.40659130794E+02  0.00000000000E+00 0.  1.
         11    1    3    3    0    0  0.18342855392E+01  0.73702665217E+00  0.54198135518E+01  0.57690719291E+01  0.51100000000E-03 0. -1.
        -11    1    3    3    0    0  0.54256463213E+01 -0.85082122285E+01  0.10134635142E+02  0.14301683225E+02  0.51100000000E-03 0.  1.
        -12    1    3    3    0    0 -0.59938917839E+01  0.18103142341E+02  0.23749657057E+02  0.30458114053E+02  0.00000000000E+00 0.  1.
</event>
<event>
 7    1  0.1369731E-013  0.5052883E+02  0.7816164E-02  0.1300439E+00
        -11   -1    0    0    0    0  0.00000000000E+00  0.00000000000E+00  0.45593999997E+02  0.45594000000E+02  0.51100000000E-03 0. -1.
         11   -1    0    0    0    0 -0.00000000000E+00 -0.00000000000E+00 -0.45593999997E+02  0.45594000000E+02  0.51100000000E-03 0.  1.
    9900012    2    1    2    0    0  0.28269328972E+02 -0.18412882387E+01 -0.29165437170E+02  0.50528830945E+02  0.29999912140E+02 0.  0.
         12    1    1    2    0    0 -0.28269328972E+02  0.18412882387E+01  0.29165437170E+02  0.40659169055E+02  0.00000000000E+00 0. -1.
         11    1    3    3    0    0  0.81400052807E+01  0.99194577085E+01 -0.73040602813E+01  0.14764979650E+02  0.51100000000E-03 0. -1.
        -11    1    3    3    0    0  0.19590524063E+02 -0.96520275589E+01 -0.24180818029E+02  0.32583158685E+02  0.51100000000E-03 0.  1.
         12    1    3    3    0    0  0.53879962819E+00 -0.21087183883E+01  0.23194411398E+01  0.31806926104E+01  0.00000000000E+00 0. -1.
</event>
<event>
 7    1  0.1369731E-013  0.5052887E+02  0.7816164E-02  0.1300439E+00
        -11   -1    0    0    0    0  0.00000000000E+00  0.00000000000E+00  0.45593999997E+02  0.45594000000E+02  0.51100000000E-03 0. -1.
         11   -1    0    0    0    0 -0.00000000000E+00 -0.00000000000E+00 -0.45593999997E+02  0.45594000000E+02  0.51100000000E-03 0.  1.
    9900012    2    1    2    0    0 -0.21236008528E+02 -0.87725747542E+01 -0.33544574947E+02  0.50528872680E+02  0.30000038998E+02 0.  0.
         12    1    1    2    0    0  0.21236008528E+02  0.87725747542E+01  0.33544574947E+02  0.40659127320E+02  0.00000000000E+00 0. -1.
         11    1    3    3    0    0 -0.82005880000E+01  0.40886944939E+01 -0.60861022925E+01  0.11000350339E+02  0.51100000000E-03 0. -1.
        -11    1    3    3    0    0 -0.13468785619E+02 -0.18198487670E+02 -0.24694732535E+02  0.33502581315E+02  0.51100000000E-03 0.  1.
        -12    1    3    3    0    0  0.43336509121E+00  0.53372184223E+01 -0.27637401199E+01  0.60259410253E+01  0.00000000000E+00 0.  1.
</event>
<event>
 7    1  0.1369731E-013  0.5052887E+02  0.7816164E-02  0.1300439E+00
        -11   -1    0    0    0    0  0.00000000000E+00  0.00000000000E+00  0.45593999997E+02  0.45594000000E+02  0.51100000000E-03 0.  1.
         11   -1    0    0    0    0 -0.00000000000E+00 -0.00000000000E+00 -0.45593999997E+02  0.45594000000E+02  0.51100000000E-03 0. -1.
    9900012    2    1    2    0    0 -0.34945174804E+02 -0.12215405817E+02 -0.16816175723E+02  0.50528866372E+02  0.30000019826E+02 0.  0.
         12    1    1    2    0    0  0.34945174804E+02  0.12215405817E+02  0.16816175723E+02  0.40659133628E+02  0.00000000000E+00 0. -1.
         11    1    3    3    0    0 -0.98994749022E+00 -0.60738667307E+01 -0.87997409540E+01  0.10738123403E+02  0.51100000000E-03 0. -1.
        -11    1    3    3    0    0 -0.24635524598E+02 -0.33613329549E+01  0.30590388714E+01  0.25051254471E+02  0.51100000000E-03 0.  1.
        -12    1    3    3    0    0 -0.93197027158E+01 -0.27802061312E+01 -0.11075473641E+02  0.14739488499E+02  0.00000000000E+00 0.  1.
</event>
<event>
 7    1  0.1369731E-013  0.5052886E+02  0.7816164E-02  0.1300439E+00
        -11   -1    0    0    0    0  0.00000000000E+00  0.00000000000E+00  0.45593999997E+02  0.45594000000E+02  0.51100000000E-03 0. -1.
         11   -1    0    0    0    0 -0.00000000000E+00 -0.00000000000E+00 -0.45593999997E+02  0.45594000000E+02  0.51100000000E-03 0.  1.
    9900012    2    1    2    0    0  0.20944228220E+02 -0.21457135939E+02 -0.27460814909E+02  0.50528859159E+02  0.29999997900E+02 0.  0.
         12    1    1    2    0    0 -0.20944228220E+02  0.21457135939E+02  0.27460814909E+02  0.40659140841E+02  0.00000000000E+00 0. -1.
         11    1    3    3    0    0  0.15632383575E+02 -0.10482126050E+02 -0.13168287713E+01  0.18867443416E+02  0.51100000000E-03 0. -1.
        -11    1    3    3    0    0  0.62581513657E+00 -0.12464168066E+02 -0.15223707016E+02  0.19685232682E+02  0.51100000000E-03 0.  1.
         12    1    3    3    0    0  0.46860295082E+01  0.14891581769E+01 -0.10920279122E+02  0.11976183061E+02  0.00000000000E+00 0. -1.
</event>
<event>
 7    1  0.1369731E-013  0.5052885E+02  0.7816164E-02  0.1300439E+00
        -11   -1    0    0    0    0  0.00000000000E+00  0.00000000000E+00  0.45593999997E+02  0.45594000000E+02  0.51100000000E-03 0. -1.
         11   -1    0    0    0    0 -0.00000000000E+00 -0.00000000000E+00 -0.45593999997E+02  0.45594000000E+02  0.51100000000E-03 0.  1.
    9900012    2    1    2    0    0 -0.38030070924E+00 -0.23775449653E+02 -0.32981047020E+02  0.50528854690E+02  0.29999984316E+02 0.  0.
         12    1    1    2    0    0  0.38030070924E+00  0.23775449653E+02  0.32981047020E+02  0.40659145310E+02  0.00000000000E+00 0. -1.
         11    1    3    3    0    0 -0.89434266046E+01 -0.85599586886E+01 -0.63585695991E+01  0.13917226009E+02  0.51100000000E-03 0. -1.
        -11    1    3    3    0    0  0.14113715334E+02 -0.10304974942E+02 -0.16246420083E+02  0.23860755119E+02  0.51100000000E-03 0.  1.
        -12    1    3    3    0    0 -0.55505894382E+01 -0.49105160216E+01 -0.10376057338E+02  0.12750873562E+02  0.00000000000E+00 0.  1.
</event>
<event>
 7    1  0.1369731E-013  0.5052885E+02  0.7816164E-02  0.1300439E+00
        -11   -1    0    0    0    0  0.00000000000E+00  0.00000000000E+00  0.45593999997E+02  0.45594000000E+02  0.51100000000E-03 0. -1.
         11   -1    0    0    0    0 -0.00000000000E+00 -0.00000000000E+00 -0.45593999997E+02  0.45594000000E+02  0.51100000000E-03 0.  1.
    9900012    2    1    2    0    0 -0.18066782458E+02 -0.13571591311E+02 -0.33801922149E+02  0.50528847770E+02  0.29999963281E+02 0.  0.
         12    1    1    2    0    0  0.18066782458E+02  0.13571591311E+02  0.33801922149E+02  0.40659152230E+02  0.00000000000E+00 0. -1.
         11    1    3    3    0    0 -0.95263751021E+01 -0.19199848343E+01 -0.27503673119E+01  0.10099637863E+02  0.51100000000E-03 0. -1.
        -11    1    3    3    0    0 -0.47182039347E+01 -0.17577224644E+02 -0.26076413915E+02  0.31799365363E+02  0.51100000000E-03 0.  1.
        -12    1    3    3    0    0 -0.38222034207E+01  0.59256181669E+01 -0.49751409223E+01  0.86298445436E+01  0.00000000000E+00 0.  1.
</event>
<event>
 7    1  0.2362276E-013  0.5052886E+02  0.7816164E-02  0.1300439E+00
        -11   -1    0    0    0    0  0.00000000000E+00  0.00000000000E+00  0.45593999997E+02  0.45594000000E+02  0.51100000000E-03 0. -1.
         11   -1    0    0    0    0 -0.00000000000E+00 -0.00000000000E+00 -0.45593999997E+02  0.45594000000E+02  0.51100000000E-03 0.  1.
    9900012    2    1    2    0    0  0.13352470616E+02 -0.13811606308E+02 -0.35834578702E+02  0.50528856242E+02  0.29999989034E+02 0.  0.
         12    1    1    2    0    0 -0.13352470616E+02  0.13811606308E+02  0.35834578702E+02  0.40659143758E+02  0.00000000000E+00 0. -1.
         11    1    3    3    0    0  0.10721497947E+02 -0.16209664489E+01 -0.40005840560E+00  0.10850718752E+02  0.51100000000E-03 0. -1.
        -11    1    3    3    0    0 -0.46185245348E+01 -0.49772095426E+01 -0.20356491838E+02  0.21459034086E+02  0.51100000000E-03 0.  1.
        -12    1    3    3    0    0  0.72494972044E+01 -0.72134303168E+01 -0.15078028458E+02  0.18219103404E+02  0.00000000000E+00 0.  1.
</event>
<event>
 7    1  0.1369731E-013  0.5052884E+02  0.7816164E-02  0.1300439E+00
        -11   -1    0    0    0    0  0.00000000000E+00  0.00000000000E+00  0.45593999997E+02  0.45594000000E+02  0.51100000000E-03 0.  1.
         11   -1    0    0    0    0 -0.00000000000E+00 -0.00000000000E+00 -0.45593999997E+02  0.45594000000E+02  0.51100000000E-03 0. -1.
    9900012    2    1    2    0    0 -0.39694762720E+02  0.69215972087E+00 -0.87757485088E+01  0.50528843167E+02  0.29999949290E+02 0.  0.
         12    1    1    2    0    0  0.39694762720E+02 -0.69215972087E+00  0.87757485088E+01  0.40659156833E+02  0.00000000000E+00 0. -1.
         11    1    3    3    0    0 -0.18815219094E+02 -0.40159523417E+01 -0.15527021742E+02  0.24723040817E+02  0.51100000000E-03 0. -1.
        -11    1    3    3    0    0 -0.21547356524E+02  0.17541218627E+01  0.71060198404E+01  0.22756560261E+02  0.51100000000E-03 0.  1.
        -12    1    3    3    0    0  0.66781289770E+00  0.29539901999E+01 -0.35474660710E+00  0.30492420899E+01  0.00000000000E+00 0.  1.
</event>
<event>
 7    1  0.1369731E-013  0.5052884E+02  0.7816164E-02  0.1300439E+00
        -11   -1    0    0    0    0  0.00000000000E+00  0.00000000000E+00  0.45593999997E+02  0.45594000000E+02  0.51100000000E-03 0. -1.
         11   -1    0    0    0    0 -0.00000000000E+00 -0.00000000000E+00 -0.45593999997E+02  0.45594000000E+02  0.51100000000E-03 0.  1.
    9900012    2    1    2    0    0 -0.18417649275E+02  0.19727667859E+02 -0.30410134119E+02  0.50528844314E+02  0.29999952776E+02 0.  0.
         12    1    1    2    0    0  0.18417649275E+02 -0.19727667859E+02  0.30410134119E+02  0.40659155686E+02  0.00000000000E+00 0. -1.
         11    1    3    3    0    0  0.60227510791E+01  0.93074538443E+00 -0.14317939412E+02  0.15560951347E+02  0.51100000000E-03 0. -1.
        -11    1    3    3    0    0 -0.14475424281E+02  0.88597924984E+01 -0.86930223181E+01  0.19068363026E+02  0.51100000000E-03 0.  1.
         12    1    3    3    0    0 -0.99649760735E+01  0.99371299764E+01 -0.73991723884E+01  0.15899529941E+02  0.00000000000E+00 0. -1.
</event>
<event>
 7    1  0.1369731E-013  0.5052886E+02  0.7816164E-02  0.1300439E+00
        -11   -1    0    0    0    0  0.00000000000E+00  0.00000000000E+00  0.45593999997E+02  0.45594000000E+02  0.51100000000E-03 0. -1.
         11   -1    0    0    0    0 -0.00000000000E+00 -0.00000000000E+00 -0.45593999997E+02  0.45594000000E+02  0.51100000000E-03 0.  1.
    9900012    2    1    2    0    0 -0.12707325112E+01  0.34645951113E+02  0.21241679109E+02  0.50528860548E+02  0.30000002121E+02 0.  0.
        -12    1    1    2    0    0  0.12707325112E+01 -0.34645951113E+02 -0.21241679109E+02  0.40659139452E+02  0.00000000000E+00 0.  1.
         11    1    3    3    0    0  0.31528700990E+01  0.10436716736E+02  0.12908799247E+02  0.16896826458E+02  0.51100000000E-03 0. -1.
        -11    1    3    3    0    0 -0.12058023522E+02  0.74688732170E+01  0.37256855747E+01  0.14664949084E+02  0.51100000000E-03 0.  1.
        -12    1    3    3    0    0  0.76344209114E+01  0.16740361160E+02  0.46071942873E+01  0.18967085006E+02  0.00000000000E+00 0.  1.
</event>
<event>
 7    1  0.1369731E-013  0.5052886E+02  0.7816164E-02  0.1300439E+00
        -11   -1    0    0    0    0  0.00000000000E+00  0.00000000000E+00  0.45593999997E+02  0.45594000000E+02  0.51100000000E-03 0.  1.
         11   -1    0    0    0    0 -0.00000000000E+00 -0.00000000000E+00 -0.45593999997E+02  0.45594000000E+02  0.51100000000E-03 0. -1.
    9900012    2    1    2    0    0  0.36350662344E+02  0.12262291379E+02 -0.13469637097E+02  0.50528861221E+02  0.30000004168E+02 0.  0.
         12    1    1    2    0    0 -0.36350662344E+02 -0.12262291379E+02  0.13469637097E+02  0.40659138779E+02  0.00000000000E+00 0. -1.
         11    1    3    3    0    0  0.13066992245E+02 -0.44785857980E+01  0.40310330235E+01  0.14389344828E+02  0.51100000000E-03 0. -1.
        -11    1    3    3    0    0  0.22372492148E+01  0.85441747460E+01 -0.31364932055E+01  0.93726088166E+01  0.51100000000E-03 0.  1.
         12    1    3    3    0    0  0.21046420884E+02  0.81967024311E+01 -0.14364176915E+02  0.26766907577E+02  0.00000000000E+00 0. -1.
</event>
<event>
 7    1  0.1369731E-013  0.5052886E+02  0.7816164E-02  0.1300439E+00
        -11   -1    0    0    0    0  0.00000000000E+00  0.00000000000E+00  0.45593999997E+02  0.45594000000E+02  0.51100000000E-03 0. -1.
         11   -1    0    0    0    0 -0.00000000000E+00 -0.00000000000E+00 -0.45593999997E+02  0.45594000000E+02  0.51100000000E-03 0.  1.
    9900012    2    1    2    0    0 -0.66102674906E+01 -0.84946156010E+01 -0.39208569568E+02  0.50528855172E+02  0.29999985782E+02 0.  0.
         12    1    1    2    0    0  0.66102674906E+01  0.84946156010E+01  0.39208569568E+02  0.40659144828E+02  0.00000000000E+00 0. -1.
         11    1    3    3    0    0 -0.11349242440E+02 -0.14202370459E+02 -0.27626856211E+02  0.33071979302E+02  0.51100000000E-03 0. -1.
        -11    1    3    3    0    0  0.46861441749E+01  0.35348853301E+01 -0.13396037831E+02  0.14625634734E+02  0.51100000000E-03 0.  1.
        -12    1    3    3    0    0  0.52830774323E-01  0.21728695280E+01  0.18143244738E+01  0.28312411364E+01  0.00000000000E+00 0.  1.
</event>
<event>
 7    1  0.1369731E-013  0.5052886E+02  0.7816164E-02  0.1300439E+00
        -11   -1    0    0    0    0  0.00000000000E+00  0.00000000000E+00  0.45593999997E+02  0.45594000000E+02  0.51100000000E-03 0. -1.
         11   -1    0    0    0    0 -0.00000000000E+00 -0.00000000000E+00 -0.45593999997E+02  0.45594000000E+02  0.51100000000E-03 0.  1.
    9900012    2    1    2    0    0  0.17936278851E+02 -0.18851584768E+02 -0.31242172043E+02  0.50528860052E+02  0.30000000616E+02 0.  0.
         12    1    1    2    0    0 -0.17936278851E+02  0.18851584768E+02  0.31242172043E+02  0.40659139948E+02  0.00000000000E+00 0. -1.
         11    1    3    3    0    0  0.53620434763E+01 -0.32898910116E+01 -0.47073040864E-01  0.62910340361E+01  0.51100000000E-03 0. -1.
        -11    1    3    3    0    0 -0.65940023133E+01 -0.82904692811E+01 -0.79539707706E+01  0.13246825986E+02  0.51100000000E-03 0.  1.
        -12    1    3    3    0    0  0.19168237688E+02 -0.72712244754E+01 -0.23241128232E+02  0.30991000031E+02  0.00000000000E+00 0.  1.
</event>
<event>
 7    1  0.1369731E-013  0.5052886E+02  0.7816164E-02  0.1300439E+00
        -11   -1    0    0    0    0  0.00000000000E+00  0.00000000000E+00  0.45593999997E+02  0.45594000000E+02  0.51100000000E-03 0. -1.
         11   -1    0    0    0    0 -0.00000000000E+00 -0.00000000000E+00 -0.45593999997E+02  0.45594000000E+02  0.51100000000E-03 0.  1.
    9900012    2    1    2    0    0 -0.15045988769E+02 -0.29930395960E+02  0.23042470649E+02  0.50528857929E+02  0.29999994160E+02 0.  0.
        -12    1    1    2    0    0  0.15045988769E+02  0.29930395960E+02 -0.23042470649E+02  0.40659142071E+02  0.00000000000E+00 0.  1.
         11    1    3    3    0    0 -0.84115158725E+01 -0.13070588562E+02  0.24387850877E+02  0.28919909324E+02  0.51100000000E-03 0. -1.
        -11    1    3    3    0    0 -0.10092790809E+01 -0.19601033812E+01 -0.48269765548E+01  0.53066328731E+01  0.51100000000E-03 0.  1.
        -12    1    3    3    0    0 -0.56251938156E+01 -0.14899704017E+02  0.34815963272E+01  0.16302315732E+02  0.00000000000E+00 0.  1.
</event>
<event>
 7    1  0.1369731E-013  0.5052886E+02  0.7816164E-02  0.1300439E+00
        -11   -1    0    0    0    0  0.00000000000E+00  0.00000000000E+00  0.45593999997E+02  0.45594000000E+02  0.51100000000E-03 0. -1.
         11   -1    0    0    0    0 -0.00000000000E+00 -0.00000000000E+00 -0.45593999997E+02  0.45594000000E+02  0.51100000000E-03 0.  1.
    9900012    2    1    2    0    0 -0.36932714793E+02 -0.10058240334E+02  0.13710291338E+02  0.50528859464E+02  0.29999998826E+02 0.  0.
        -12    1    1    2    0    0  0.36932714793E+02  0.10058240334E+02 -0.13710291338E+02  0.40659140536E+02  0.00000000000E+00 0.  1.
         11    1    3    3    0    0 -0.52476426688E-01 -0.19072556038E+01  0.22126350239E+01  0.29216659158E+01  0.51100000000E-03 0. -1.
        -11    1    3    3    0    0  0.40240726930E+01 -0.28792014757E+01  0.97169904293E+00  0.50425352222E+01  0.51100000000E-03 0.  1.
        -12    1    3    3    0    0 -0.40904311059E+02 -0.52717832543E+01  0.10525957272E+02  0.42564658326E+02  0.00000000000E+00 0.  1.
</event>
<event>
 7    1  0.1369731E-013  0.5052886E+02  0.7816164E-02  0.1300439E+00
        -11   -1    0    0    0    0  0.00000000000E+00  0.00000000000E+00  0.45593999997E+02  0.45594000000E+02  0.51100000000E-03 0. -1.
         11   -1    0    0    0    0 -0.00000000000E+00 -0.00000000000E+00 -0.45593999997E+02  0.45594000000E+02  0.51100000000E-03 0.  1.
    9900012    2    1    2    0    0  0.93354765061E+01 -0.22866907279E+02  0.32297359697E+02  0.50528855721E+02  0.29999987449E+02 0.  0.
        -12    1    1    2    0    0 -0.93354765061E+01  0.22866907279E+02 -0.32297359697E+02  0.40659144279E+02  0.00000000000E+00 0.  1.
         11    1    3    3    0    0  0.94478910685E+01 -0.61425603879E+01  0.12908428067E+02  0.17135378875E+02  0.51100000000E-03 0. -1.
        -11    1    3    3    0    0 -0.10475913179E+02 -0.95590767913E+01  0.73766329863E+01  0.15985475298E+02  0.51100000000E-03 0.  1.
        -12    1    3    3    0    0  0.10363498617E+02 -0.71652700999E+01  0.12012298643E+02  0.17408001548E+02  0.00000000000E+00 0.  1.
</event>
<event>
 7    1  0.1369731E-013  0.5052885E+02  0.7816164E-02  0.1300439E+00
        -11   -1    0    0    0    0  0.00000000000E+00  0.00000000000E+00  0.45593999997E+02  0.45594000000E+02  0.51100000000E-03 0. -1.
         11   -1    0    0    0    0 -0.00000000000E+00 -0.00000000000E+00 -0.45593999997E+02  0.45594000000E+02  0.51100000000E-03 0.  1.
    9900012    2    1    2    0    0  0.24053013248E+02 -0.26958607900E+02  0.18650799870E+02  0.50528851927E+02  0.29999975917E+02 0.  0.
        -12    1    1    2    0    0 -0.24053013248E+02  0.26958607900E+02 -0.18650799870E+02  0.40659148073E+02  0.00000000000E+00 0.  1.
         11    1    3    3    0    0  0.93031578084E+01 -0.11168938852E+02  0.16662768007E+02  0.22112027908E+02  0.51100000000E-03 0. -1.
        -11    1    3    3    0    0  0.10729561320E+02 -0.24910960629E+01 -0.58430404134E+01  0.12468767672E+02  0.51100000000E-03 0.  1.
         12    1    3    3    0    0  0.40202941193E+01 -0.13298572986E+02  0.78310722765E+01  0.15948056347E+02  0.00000000000E+00 0. -1.
</event>
<event>
 7    1  0.1369731E-013  0.5052886E+02  0.7816164E-02  0.1300439E+00
        -11   -1    0    0    0    0  0.00000000000E+00  0.00000000000E+00  0.45593999997E+02  0.45594000000E+02  0.51100000000E-03 0. -1.
         11   -1    0    0    0    0 -0.00000000000E+00 -0.00000000000E+00 -0.45593999997E+02  0.45594000000E+02  0.51100000000E-03 0.  1.
    9900012    2    1    2    0    0 -0.26871481472E+00 -0.31448185053E+02  0.25770243847E+02  0.50528855657E+02  0.29999987256E+02 0.  0.
        -12    1    1    2    0    0  0.26871481472E+00  0.31448185053E+02 -0.25770243847E+02  0.40659144343E+02  0.00000000000E+00 0.  1.
         11    1    3    3    0    0  0.53605874796E+01 -0.26667440102E+02  0.24429696602E+02  0.36560885329E+02  0.51100000000E-03 0. -1.
        -11    1    3    3    0    0 -0.70914440215E+01 -0.50929551666E+01 -0.31137703683E+01  0.92694302310E+01  0.51100000000E-03 0.  1.
        -12    1    3    3    0    0  0.14621417272E+01  0.31221021562E+00  0.44543176129E+01  0.46985400973E+01  0.00000000000E+00 0.  1.
</event>
<event>
 7    1  0.1369731E-013  0.5052885E+02  0.7816164E-02  0.1300439E+00
        -11   -1    0    0    0    0  0.00000000000E+00  0.00000000000E+00  0.45593999997E+02  0.45594000000E+02  0.51100000000E-03 0. -1.
         11   -1    0    0    0    0 -0.00000000000E+00 -0.00000000000E+00 -0.45593999997E+02  0.45594000000E+02  0.51100000000E-03 0.  1.
    9900012    2    1    2    0    0  0.12207378651E+02  0.23654193881E+02  0.30734756697E+02  0.50528852801E+02  0.29999978575E+02 0.  0.
        -12    1    1    2    0    0 -0.12207378651E+02 -0.23654193881E+02 -0.30734756697E+02  0.40659147199E+02  0.00000000000E+00 0.  1.
         11    1    3    3    0    0  0.99807468533E+01  0.27668303584E+02  0.25607981083E+02  0.38998961863E+02  0.51100000000E-03 0. -1.
        -11    1    3    3    0    0  0.19099319415E+01 -0.31844426517E+01  0.78400629401E+01  0.86749698667E+01  0.51100000000E-03 0.  1.
         12    1    3    3    0    0  0.31669985661E+00 -0.82966705162E+00 -0.27132873255E+01  0.28549210718E+01  0.00000000000E+00 0. -1.
</event>
<event>
 7    1  0.1596402E-013  0.5052886E+02  0.7816164E-02  0.1300439E+00
        -11   -1    0    0    0    0  0.00000000000E+00  0.00000000000E+00  0.45593999997E+02  0.45594000000E+02  0.51100000000E-03 0. -1.
         11   -1    0    0    0    0 -0.00000000000E+00 -0.00000000000E+00 -0.45593999997E+02  0.45594000000E+02  0.51100000000E-03 0.  1.
    9900012    2    1    2    0    0 -0.65733805053E-01  0.16819117028E+02  0.37017277214E+02  0.50528857967E+02  0.29999994278E+02 0.  0.
        -12    1    1    2    0    0  0.65733805053E-01 -0.16819117028E+02 -0.37017277214E+02  0.40659142033E+02  0.00000000000E+00 0.  1.
         11    1    3    3    0    0 -0.27030170062E+01  0.17630922058E+02  0.27093797971E+02  0.32438088758E+02  0.51100000000E-03 0. -1.
        -11    1    3    3    0    0  0.71639849701E+01  0.26180364990E+01  0.12586084061E+01  0.77305168742E+01  0.51100000000E-03 0.  1.
         12    1    3    3    0    0 -0.45267017690E+01 -0.34298415297E+01  0.86648708368E+01  0.10360252335E+02  0.00000000000E+00 0. -1.
</event>
<event>
 7    1  0.1369731E-013  0.5052886E+02  0.7816164E-02  0.1300439E+00
        -11   -1    0    0    0    0  0.00000000000E+00  0.00000000000E+00  0.45593999997E+02  0.45594000000E+02  0.51100000000E-03 0.  1.
         11   -1    0    0    0    0 -0.00000000000E+00 -0.00000000000E+00 -0.45593999997E+02  0.45594000000E+02  0.51100000000E-03 0. -1.
    9900012    2    1    2    0    0  0.39809288385E+02  0.13441251204E+01 -0.81596289481E+01  0.50528860085E+02  0.30000000715E+02 0.  0.
         12    1    1    2    0    0 -0.39809288385E+02 -0.13441251204E+01  0.81596289481E+01  0.40659139915E+02  0.00000000000E+00 0. -1.
         11    1    3    3    0    0  0.35361219142E+02  0.27448718337E+01 -0.15123576964E+02  0.38557395154E+02  0.51100000000E-03 0. -1.
        -11    1    3    3    0    0  0.23972371392E+01 -0.15417413040E+00 -0.17248536836E+01  0.29573021583E+01  0.51100000000E-03 0.  1.
         12    1    3    3    0    0  0.20508321032E+01 -0.12465725829E+01  0.86888016996E+01  0.90141627728E+01  0.00000000000E+00 0. -1.
</event>
<event>
 7    1  0.1369731E-013  0.5052886E+02  0.7816164E-02  0.1300439E+00
        -11   -1    0    0    0    0  0.00000000000E+00  0.00000000000E+00  0.45593999997E+02  0.45594000000E+02  0.51100000000E-03 0. -1.
         11   -1    0    0    0    0 -0.00000000000E+00 -0.00000000000E+00 -0.45593999997E+02  0.45594000000E+02  0.51100000000E-03 0.  1.
    9900012    2    1    2    0    0  0.18109256442E+01  0.98482339061E+01 -0.39406833589E+02  0.50528859622E+02  0.29999999307E+02 0.  0.
         12    1    1    2    0    0 -0.18109256442E+01 -0.98482339061E+01  0.39406833589E+02  0.40659140378E+02  0.00000000000E+00 0. -1.
         11    1    3    3    0    0  0.66545463960E+01  0.57541979155E+01 -0.17875248637E+02  0.19922808424E+02  0.51100000000E-03 0.  1.
        -11    1    3    3    0    0 -0.48713811925E+01  0.10846207762E+02 -0.52838735700E+01  0.13011145134E+02  0.51100000000E-03 0. -1.
        -12    1    3    3    0    0  0.27760440588E-01 -0.67521717710E+01 -0.16247711382E+02  0.17594906065E+02  0.00000000000E+00 0.  1.
</event>
<event>
 7    1  0.1369731E-013  0.5052886E+02  0.7816164E-02  0.1300439E+00
        -11   -1    0    0    0    0  0.00000000000E+00  0.00000000000E+00  0.45593999997E+02  0.45594000000E+02  0.51100000000E-03 0. -1.
         11   -1    0    0    0    0 -0.00000000000E+00 -0.00000000000E+00 -0.45593999997E+02  0.45594000000E+02  0.51100000000E-03 0.  1.
    9900012    2    1    2    0    0  0.80517943935E+01  0.14699260293E+02  0.37044111919E+02  0.50528857437E+02  0.29999992665E+02 0.  0.
        -12    1    1    2    0    0 -0.80517943935E+01 -0.14699260293E+02 -0.37044111919E+02  0.40659142563E+02  0.00000000000E+00 0.  1.
         11    1    3    3    0    0  0.66076484494E+01  0.21826556964E+02  0.23150627789E+02  0.32496325549E+02  0.51100000000E-03 0. -1.
        -11    1    3    3    0    0  0.43455069214E+01 -0.72652694650E+01  0.11431529152E+02  0.14224887691E+02  0.51100000000E-03 0.  1.
        -12    1    3    3    0    0 -0.29013609773E+01  0.13797279373E+00  0.24619549785E+01  0.38076441967E+01  0.00000000000E+00 0.  1.
</event>
<event>
 7    1  0.1369731E-013  0.5052886E+02  0.7816164E-02  0.1300439E+00
        -11   -1    0    0    0    0  0.00000000000E+00  0.00000000000E+00  0.45593999997E+02  0.45594000000E+02  0.51100000000E-03 0. -1.
         11   -1    0    0    0    0 -0.00000000000E+00 -0.00000000000E+00 -0.45593999997E+02  0.45594000000E+02  0.51100000000E-03 0.  1.
    9900012    2    1    2    0    0 -0.73793098403E+01 -0.22787142929E+02  0.32855099034E+02  0.50528860448E+02  0.30000001817E+02 0.  0.
        -12    1    1    2    0    0  0.73793098403E+01  0.22787142929E+02 -0.32855099034E+02  0.40659139552E+02  0.00000000000E+00 0.  1.
         11    1    3    3    0    0  0.16700075296E+01 -0.87764060828E+01  0.16350637793E+02  0.18632165343E+02  0.51100000000E-03 0. -1.
        -11    1    3    3    0    0 -0.20411931676E+01 -0.15408187475E+02  0.19268924220E+01  0.15661788706E+02  0.51100000000E-03 0.  1.
        -12    1    3    3    0    0 -0.70081242023E+01  0.13974506286E+01  0.14577568820E+02  0.16234906399E+02  0.00000000000E+00 0.  1.
</event>
<event>
 7    1  0.1797528E-013  0.5052886E+02  0.7816164E-02  0.1300439E+00
        -11   -1    0    0    0    0  0.00000000000E+00  0.00000000000E+00  0.45593999997E+02  0.45594000000E+02  0.51100000000E-03 0. -1.
         11   -1    0    0    0    0 -0.00000000000E+00 -0.00000000000E+00 -0.45593999997E+02  0.45594000000E+02  0.51100000000E-03 0.  1.
    9900012    2    1    2    0    0  0.93836546997E+01 -0.11687574873E+02 -0.37795678522E+02  0.50528859615E+02  0.29999999285E+02 0.  0.
         12    1    1    2    0    0 -0.93836546997E+01  0.11687574873E+02  0.37795678522E+02  0.40659140385E+02  0.00000000000E+00 0. -1.
         11    1    3    3    0    0 -0.15923305527E+01  0.58037542609E+00  0.11612215355E+01  0.20544556311E+01  0.51100000000E-03 0. -1.
        -11    1    3    3    0    0  0.10146521310E+02 -0.56170625345E+01 -0.40039335101E+02  0.41685148936E+02  0.51100000000E-03 0.  1.
        -12    1    3    3    0    0  0.82946394217E+00 -0.66508877643E+01  0.10824350434E+01  0.67892550480E+01  0.00000000000E+00 0.  1.
</event>
<event>
 7    1  0.1369731E-013  0.5052885E+02  0.7816164E-02  0.1300439E+00
        -11   -1    0    0    0    0  0.00000000000E+00  0.00000000000E+00  0.45593999997E+02  0.45594000000E+02  0.51100000000E-03 0.  1.
         11   -1    0    0    0    0 -0.00000000000E+00 -0.00000000000E+00 -0.45593999997E+02  0.45594000000E+02  0.51100000000E-03 0. -1.
    9900012    2    1    2    0    0 -0.28277472190E+02 -0.29159537571E+02  0.18089191416E+01  0.50528852773E+02  0.29999978488E+02 0.  0.
        -12    1    1    2    0    0  0.28277472190E+02  0.29159537571E+02 -0.18089191416E+01  0.40659147227E+02  0.00000000000E+00 0.  1.
         11    1    3    3    0    0 -0.31679342693E+01 -0.58007314472E+01 -0.57848142501E+01  0.87834144287E+01  0.51100000000E-03 0. -1.
        -11    1    3    3    0    0 -0.44268258211E+01 -0.16842841980E+02  0.97417938965E+01  0.19954464698E+02  0.51100000000E-03 0.  1.
        -12    1    3    3    0    0 -0.20682712099E+02 -0.65159641442E+01 -0.21480605048E+01  0.21790973646E+02  0.00000000000E+00 0.  1.
</event>
<event>
 7    1  0.1369731E-013  0.5052886E+02  0.7816164E-02  0.1300439E+00
        -11   -1    0    0    0    0  0.00000000000E+00  0.00000000000E+00  0.45593999997E+02  0.45594000000E+02  0.51100000000E-03 0. -1.
         11   -1    0    0    0    0 -0.00000000000E+00 -0.00000000000E+00 -0.45593999997E+02  0.45594000000E+02  0.51100000000E-03 0.  1.
    9900012    2    1    2    0    0 -0.11815477784E+01  0.28819565931E+02 -0.28656630438E+02  0.50528857072E+02  0.29999991555E+02 0.  0.
         12    1    1    2    0    0  0.11815477784E+01 -0.28819565931E+02  0.28656630438E+02  0.40659142928E+02  0.00000000000E+00 0. -1.
         11    1    3    3    0    0  0.18412063864E+01 -0.50227638580E+01 -0.74833678332E+01  0.91988581964E+01  0.51100000000E-03 0. -1.
        -11    1    3    3    0    0 -0.52087194680E+01  0.16367585628E+02 -0.14563850477E+02  0.22519643842E+02  0.51100000000E-03 0.  1.
         12    1    3    3    0    0  0.21859653032E+01  0.17474744161E+02 -0.66094121278E+01  0.18810355033E+02  0.00000000000E+00 0. -1.
</event>
<event>
 7    1  0.1369731E-013  0.5052885E+02  0.7816164E-02  0.1300439E+00
        -11   -1    0    0    0    0  0.00000000000E+00  0.00000000000E+00  0.45593999997E+02  0.45594000000E+02  0.51100000000E-03 0. -1.
         11   -1    0    0    0    0 -0.00000000000E+00 -0.00000000000E+00 -0.45593999997E+02  0.45594000000E+02  0.51100000000E-03 0.  1.
    9900012    2    1    2    0    0 -0.21990621209E+02  0.23540198640E+02 -0.24808022823E+02  0.50528851342E+02  0.29999974139E+02 0.  0.
         12    1    1    2    0    0  0.21990621209E+02 -0.23540198640E+02  0.24808022823E+02  0.40659148658E+02  0.00000000000E+00 0. -1.
         11    1    3    3    0    0 -0.95976209129E+01  0.14937510079E+02 -0.35031866726E+01  0.18097399031E+02  0.51100000000E-03 0. -1.
        -11    1    3    3    0    0  0.35365778299E+01  0.57885604896E+01 -0.11960592915E+02  0.13750294486E+02  0.51100000000E-03 0.  1.
         12    1    3    3    0    0 -0.15929578126E+02  0.28141280718E+01 -0.93442432354E+01  0.18681157826E+02  0.00000000000E+00 0. -1.
</event>
<event>
 7    1  0.1369731E-013  0.5052881E+02  0.7816164E-02  0.1300439E+00
        -11   -1    0    0    0    0  0.00000000000E+00  0.00000000000E+00  0.45593999997E+02  0.45594000000E+02  0.51100000000E-03 0. -1.
         11   -1    0    0    0    0 -0.00000000000E+00 -0.00000000000E+00 -0.45593999997E+02  0.45594000000E+02  0.51100000000E-03 0.  1.
    9900012    2    1    2    0    0  0.26652937250E+02  0.43351277509E+00  0.30701841053E+02  0.50528806188E+02  0.29999836890E+02 0.  0.
        -12    1    1    2    0    0 -0.26652937250E+02 -0.43351277509E+00 -0.30701841053E+02  0.40659193812E+02  0.00000000000E+00 0.  1.
         11    1    3    3    0    0  0.79626394733E+01  0.10009836524E+02  0.98851993157E+01  0.16165321537E+02  0.51100000000E-03 0. -1.
        -11    1    3    3    0    0  0.20083404125E+01 -0.95827623805E+01  0.12024207095E+02  0.15506267203E+02  0.51100000000E-03 0.  1.
        -12    1    3    3    0    0  0.16681957364E+02  0.64386317088E-02  0.87924346424E+01  0.18857217448E+02  0.00000000000E+00 0.  1.
</event>
<event>
 7    1  0.1369731E-013  0.5052886E+02  0.7816164E-02  0.1300439E+00
        -11   -1    0    0    0    0  0.00000000000E+00  0.00000000000E+00  0.45593999997E+02  0.45594000000E+02  0.51100000000E-03 0. -1.
         11   -1    0    0    0    0 -0.00000000000E+00 -0.00000000000E+00 -0.45593999997E+02  0.45594000000E+02  0.51100000000E-03 0.  1.
    9900012    2    1    2    0    0  0.10782329618E+02 -0.32862815607E+02  0.21376204768E+02  0.50528863119E+02  0.30000009936E+02 0.  0.
        -12    1    1    2    0    0 -0.10782329618E+02  0.32862815607E+02 -0.21376204768E+02  0.40659136881E+02  0.00000000000E+00 0.  1.
         11    1    3    3    0    0 -0.35340070123E+01 -0.22879626000E+02  0.22989399158E+02  0.32626353847E+02  0.51100000000E-03 0. -1.
        -11    1    3    3    0    0  0.42998907682E+01 -0.37132972206E+01 -0.21470082432E+01  0.60734900613E+01  0.51100000000E-03 0.  1.
         12    1    3    3    0    0  0.10016445862E+02 -0.62698923864E+01  0.53381385365E+00  0.11829019210E+02  0.00000000000E+00 0. -1.
</event>
<event>
 7    1  0.1369731E-013  0.5052887E+02  0.7816164E-02  0.1300439E+00
        -11   -1    0    0    0    0  0.00000000000E+00  0.00000000000E+00  0.45593999997E+02  0.45594000000E+02  0.51100000000E-03 0. -1.
         11   -1    0    0    0    0 -0.00000000000E+00 -0.00000000000E+00 -0.45593999997E+02  0.45594000000E+02  0.51100000000E-03 0.  1.
    9900012    2    1    2    0    0 -0.80979136871E+01  0.28075245216E+02  0.28273116833E+02  0.50528871437E+02  0.30000035221E+02 0.  0.
        -12    1    1    2    0    0  0.80979136871E+01 -0.28075245216E+02 -0.28273116833E+02  0.40659128563E+02  0.00000000000E+00 0.  1.
         11    1    3    3    0    0 -0.14285403395E+02  0.14623397829E+02  0.24956443376E+02  0.32260511163E+02  0.51100000000E-03 0. -1.
        -11    1    3    3    0    0 -0.12929401320E+01  0.86402242442E+01 -0.10913960525E+00  0.87371094127E+01  0.51100000000E-03 0.  1.
         12    1    3    3    0    0  0.74804298398E+01  0.48116231430E+01  0.34258130620E+01  0.95312508620E+01  0.00000000000E+00 0. -1.
</event>
<event>
 7    1  0.1369731E-013  0.5052887E+02  0.7816164E-02  0.1300439E+00
        -11   -1    0    0    0    0  0.00000000000E+00  0.00000000000E+00  0.45593999997E+02  0.45594000000E+02  0.51100000000E-03 0. -1.
         11   -1    0    0    0    0 -0.00000000000E+00 -0.00000000000E+00 -0.45593999997E+02  0.45594000000E+02  0.51100000000E-03 0.  1.
    9900012    2    1    2    0    0  0.15258390537E+02 -0.37590574838E+02  0.27009789208E+01  0.50528867132E+02  0.30000022135E+02 0.  0.
        -12    1    1    2    0    0 -0.15258390537E+02  0.37590574838E+02 -0.27009789208E+01  0.40659132868E+02  0.00000000000E+00 0.  1.
         11    1    3    3    0    0  0.33676906458E+01 -0.34298889087E+02  0.25344893680E+01  0.34556891780E+02  0.51100000000E-03 0. -1.
        -11    1    3    3    0    0 -0.74500046735E+00 -0.28324736912E+00  0.26329723629E+01  0.27509631937E+01  0.51100000000E-03 0.  1.
         12    1    3    3    0    0  0.12635700359E+02 -0.30084383820E+01 -0.24664828100E+01  0.13221012159E+02  0.00000000000E+00 0. -1.
</event>
<event>
 7    1  0.1369731E-013  0.5052886E+02  0.7816164E-02  0.1300439E+00
        -11   -1    0    0    0    0  0.00000000000E+00  0.00000000000E+00  0.45593999997E+02  0.45594000000E+02  0.51100000000E-03 0. -1.
         11   -1    0    0    0    0 -0.00000000000E+00 -0.00000000000E+00 -0.45593999997E+02  0.45594000000E+02  0.51100000000E-03 0.  1.
    9900012    2    1    2    0    0  0.27733257974E+02 -0.29688649697E+02  0.16174540294E+01  0.50528859868E+02  0.30000000056E+02 0.  0.
         12    1    1    2    0    0 -0.27733257974E+02  0.29688649697E+02 -0.16174540294E+01  0.40659140132E+02  0.00000000000E+00 0. -1.
         11    1    3    3    0    0  0.14212939491E+02 -0.48151130123E+01  0.12964297165E+02  0.19830934510E+02  0.51100000000E-03 0. -1.
        -11    1    3    3    0    0  0.70757787834E+01 -0.13808288953E+02 -0.43886707631E+01  0.16124388997E+02  0.51100000000E-03 0.  1.
         12    1    3    3    0    0  0.64445396993E+01 -0.11065247732E+02 -0.69581723724E+01  0.14573536361E+02  0.00000000000E+00 0. -1.
</event>
<event>
 7    1  0.1369731E-013  0.5052886E+02  0.7816164E-02  0.1300439E+00
        -11   -1    0    0    0    0  0.00000000000E+00  0.00000000000E+00  0.45593999997E+02  0.45594000000E+02  0.51100000000E-03 0. -1.
         11   -1    0    0    0    0 -0.00000000000E+00 -0.00000000000E+00 -0.45593999997E+02  0.45594000000E+02  0.51100000000E-03 0.  1.
    9900012    2    1    2    0    0  0.18225439691E+02 -0.35453138164E+02  0.80046385252E+01  0.50528857172E+02  0.29999991860E+02 0.  0.
        -12    1    1    2    0    0 -0.18225439691E+02  0.35453138164E+02 -0.80046385252E+01  0.40659142828E+02  0.00000000000E+00 0.  1.
         11    1    3    3    0    0 -0.73240550149E+01 -0.11826012633E+02  0.45513922197E+01  0.14635966933E+02  0.51100000000E-03 0. -1.
        -11    1    3    3    0    0  0.12880408213E+02 -0.86429858964E+01 -0.17025946742E+01  0.15604645136E+02  0.51100000000E-03 0.  1.
         12    1    3    3    0    0  0.12669086493E+02 -0.14984139635E+02  0.51558409797E+01  0.20288245103E+02  0.00000000000E+00 0. -1.
</event>
<event>
 7    1  0.1369731E-013  0.5052886E+02  0.7816164E-02  0.1300439E+00
        -11   -1    0    0    0    0  0.00000000000E+00  0.00000000000E+00  0.45593999997E+02  0.45594000000E+02  0.51100000000E-03 0. -1.
         11   -1    0    0    0    0 -0.00000000000E+00 -0.00000000000E+00 -0.45593999997E+02  0.45594000000E+02  0.51100000000E-03 0.  1.
    9900012    2    1    2    0    0 -0.66900656618E+00  0.28273145760E+02  0.29212112777E+02  0.50528857438E+02  0.29999992669E+02 0.  0.
        -12    1    1    2    0    0  0.66900656618E+00 -0.28273145760E+02 -0.29212112777E+02  0.40659142562E+02  0.00000000000E+00 0.  1.
         11    1    3    3    0    0 -0.13449544980E+02  0.13573753329E+02  0.12489926957E+02  0.22828388363E+02  0.51100000000E-03 0. -1.
        -11    1    3    3    0    0  0.77705555127E+01  0.11845825011E+02  0.57182832261E+01  0.15277560881E+02  0.51100000000E-03 0.  1.
         12    1    3    3    0    0  0.50099829008E+01  0.28535674198E+01  0.11003902595E+02  0.12422908194E+02  0.00000000000E+00 0. -1.
</event>
<event>
 7    1  0.1369731E-013  0.5052884E+02  0.7816164E-02  0.1300439E+00
        -11   -1    0    0    0    0  0.00000000000E+00  0.00000000000E+00  0.45593999997E+02  0.45594000000E+02  0.51100000000E-03 0.  1.
         11   -1    0    0    0    0 -0.00000000000E+00 -0.00000000000E+00 -0.45593999997E+02  0.45594000000E+02  0.51100000000E-03 0. -1.
    9900012    2    1    2    0    0  0.81952714559E+01  0.35197300086E+02  0.18632098059E+02  0.50528837618E+02  0.29999932422E+02 0.  0.
        -12    1    1    2    0    0 -0.81952714559E+01 -0.35197300086E+02 -0.18632098059E+02  0.40659162382E+02  0.00000000000E+00 0.  1.
         11    1    3    3    0    0 -0.62618760201E+01  0.49066591501E+01 -0.42140843249E+01  0.90024942246E+01  0.51100000000E-03 0. -1.
        -11    1    3    3    0    0  0.11602657838E+02  0.19991469441E+02  0.19740444961E+02  0.30396803892E+02  0.51100000000E-03 0.  1.
         12    1    3    3    0    0  0.28544896383E+01  0.10299171495E+02  0.31057374231E+01  0.11129539501E+02  0.00000000000E+00 0. -1.
</event>
<event>
 7    1  0.1369731E-013  0.5052886E+02  0.7816164E-02  0.1300439E+00
        -11   -1    0    0    0    0  0.00000000000E+00  0.00000000000E+00  0.45593999997E+02  0.45594000000E+02  0.51100000000E-03 0. -1.
         11   -1    0    0    0    0 -0.00000000000E+00 -0.00000000000E+00 -0.45593999997E+02  0.45594000000E+02  0.51100000000E-03 0.  1.
    9900012    2    1    2    0    0  0.18771575516E+01  0.35473877904E+02 -0.19779938138E+02  0.50528859739E+02  0.29999999662E+02 0.  0.
         12    1    1    2    0    0 -0.18771575516E+01 -0.35473877904E+02  0.19779938138E+02  0.40659140261E+02  0.00000000000E+00 0. -1.
         11    1    3    3    0    0  0.29896342309E+01  0.84722479819E+01 -0.18141101232E+02  0.20243923851E+02  0.51100000000E-03 0. -1.
        -11    1    3    3    0    0 -0.65122994598E+01  0.11192316843E+02 -0.36617749091E+01  0.13456841989E+02  0.51100000000E-03 0.  1.
         12    1    3    3    0    0  0.53998227805E+01  0.15809313080E+02  0.20229380031E+01  0.16828093899E+02  0.00000000000E+00 0. -1.
</event>
<event>
 7    1  0.1369731E-013  0.5052886E+02  0.7816164E-02  0.1300439E+00
        -11   -1    0    0    0    0  0.00000000000E+00  0.00000000000E+00  0.45593999997E+02  0.45594000000E+02  0.51100000000E-03 0. -1.
         11   -1    0    0    0    0 -0.00000000000E+00 -0.00000000000E+00 -0.45593999997E+02  0.45594000000E+02  0.51100000000E-03 0.  1.
    9900012    2    1    2    0    0  0.14374676401E+02  0.20536161661E+02  0.32012505131E+02  0.50528859058E+02  0.29999997593E+02 0.  0.
        -12    1    1    2    0    0 -0.14374676401E+02 -0.20536161661E+02 -0.32012505131E+02  0.40659140942E+02  0.00000000000E+00 0.  1.
         11    1    3    3    0    0  0.59072512607E+01  0.52440624612E+00  0.27378058908E+02  0.28013009999E+02  0.51100000000E-03 0. -1.
        -11    1    3    3    0    0  0.27285499061E+01  0.97513215850E+01  0.34613916163E+01  0.10701144305E+02  0.51100000000E-03 0.  1.
         12    1    3    3    0    0  0.57388752346E+01  0.10260433830E+02  0.11730546066E+01  0.11814704755E+02  0.00000000000E+00 0. -1.
</event>
<event>
 7    1  0.1369731E-013  0.5052886E+02  0.7816164E-02  0.1300439E+00
        -11   -1    0    0    0    0  0.00000000000E+00  0.00000000000E+00  0.45593999997E+02  0.45594000000E+02  0.51100000000E-03 0. -1.
         11   -1    0    0    0    0 -0.00000000000E+00 -0.00000000000E+00 -0.45593999997E+02  0.45594000000E+02  0.51100000000E-03 0.  1.
    9900012    2    1    2    0    0 -0.30277852663E+02 -0.16538891233E+02 -0.21514705706E+02  0.50528857772E+02  0.29999993684E+02 0.  0.
         12    1    1    2    0    0  0.30277852663E+02  0.16538891233E+02  0.21514705706E+02  0.40659142228E+02  0.00000000000E+00 0. -1.
         11    1    3    3    0    0 -0.87685352765E+01 -0.13422353452E+02 -0.53250528446E+01  0.16893873776E+02  0.51100000000E-03 0. -1.
        -11    1    3    3    0    0 -0.18078499452E+02  0.34891491874E+00 -0.14848938220E+01  0.18142733917E+02  0.51100000000E-03 0.  1.
        -12    1    3    3    0    0 -0.34308179346E+01 -0.34654526995E+01 -0.14704759039E+02  0.15492250079E+02  0.00000000000E+00 0.  1.
</event>
<event>
 7    1  0.1369731E-013  0.5052887E+02  0.7816164E-02  0.1300439E+00
        -11   -1    0    0    0    0  0.00000000000E+00  0.00000000000E+00  0.45593999997E+02  0.45594000000E+02  0.51100000000E-03 0. -1.
         11   -1    0    0    0    0 -0.00000000000E+00 -0.00000000000E+00 -0.45593999997E+02  0.45594000000E+02  0.51100000000E-03 0.  1.
    9900012    2    1    2    0    0 -0.29407320618E+02  0.12611656324E+02  0.25086262814E+02  0.50528868637E+02  0.30000026710E+02 0.  0.
        -12    1    1    2    0    0  0.29407320618E+02 -0.12611656324E+02 -0.25086262814E+02  0.40659131363E+02  0.00000000000E+00 0.  1.
         11    1    3    3    0    0 -0.22126611371E+02  0.27862565254E+01  0.16161988767E+02  0.27541968654E+02  0.51100000000E-03 0. -1.
        -11    1    3    3    0    0  0.51747135201E+01 -0.16834899912E+00  0.16065614169E+01  0.54209815761E+01  0.51100000000E-03 0.  1.
        -12    1    3    3    0    0 -0.12455422767E+02  0.99937487981E+01  0.73177126306E+01  0.17565918407E+02  0.00000000000E+00 0.  1.
</event>
<event>
 7    1  0.1369731E-013  0.5052886E+02  0.7816164E-02  0.1300439E+00
        -11   -1    0    0    0    0  0.00000000000E+00  0.00000000000E+00  0.45593999997E+02  0.45594000000E+02  0.51100000000E-03 0. -1.
         11   -1    0    0    0    0 -0.00000000000E+00 -0.00000000000E+00 -0.45593999997E+02  0.45594000000E+02  0.51100000000E-03 0.  1.
    9900012    2    1    2    0    0 -0.34247382656E+02  0.14000088845E+02  0.16860610168E+02  0.50528857342E+02  0.29999992376E+02 0.  0.
        -12    1    1    2    0    0  0.34247382656E+02 -0.14000088845E+02 -0.16860610168E+02  0.40659142658E+02  0.00000000000E+00 0.  1.
         11    1    3    3    0    0 -0.18715220064E+02  0.16862415217E+02  0.16694118052E+02  0.30220755893E+02  0.51100000000E-03 0. -1.
        -11    1    3    3    0    0 -0.14759486976E+01 -0.45678150494E+01  0.32756266843E+01  0.58114618918E+01  0.51100000000E-03 0.  1.
        -12    1    3    3    0    0 -0.14056213894E+02  0.17054886777E+01 -0.31091345676E+01  0.14496639557E+02  0.00000000000E+00 0.  1.
</event>
<event>
 7    1  0.1369731E-013  0.5052886E+02  0.7816164E-02  0.1300439E+00
        -11   -1    0    0    0    0  0.00000000000E+00  0.00000000000E+00  0.45593999997E+02  0.45594000000E+02  0.51100000000E-03 0. -1.
         11   -1    0    0    0    0 -0.00000000000E+00 -0.00000000000E+00 -0.45593999997E+02  0.45594000000E+02  0.51100000000E-03 0.  1.
    9900012    2    1    2    0    0  0.19344764844E+02  0.29920043724E+02 -0.19589194598E+02  0.50528862179E+02  0.30000007079E+02 0.  0.
         12    1    1    2    0    0 -0.19344764844E+02 -0.29920043724E+02  0.19589194598E+02  0.40659137821E+02  0.00000000000E+00 0. -1.
         11    1    3    3    0    0  0.49499373519E+01  0.30970507024E+01  0.58235039068E+01  0.82466236033E+01  0.51100000000E-03 0. -1.
        -11    1    3    3    0    0  0.14415353740E+02  0.12584728879E+02 -0.17809463727E+02  0.26141056270E+02  0.51100000000E-03 0.  1.
         12    1    3    3    0    0 -0.20526247950E-01  0.14238264143E+02 -0.76032347776E+01  0.16141182306E+02  0.00000000000E+00 0. -1.
</event>
<event>
 7    1  0.1369731E-013  0.5052886E+02  0.7816164E-02  0.1300439E+00
        -11   -1    0    0    0    0  0.00000000000E+00  0.00000000000E+00  0.45593999997E+02  0.45594000000E+02  0.51100000000E-03 0. -1.
         11   -1    0    0    0    0 -0.00000000000E+00 -0.00000000000E+00 -0.45593999997E+02  0.45594000000E+02  0.51100000000E-03 0.  1.
    9900012    2    1    2    0    0 -0.13857615059E+02 -0.40145084768E+01 -0.38013367010E+02  0.50528857795E+02  0.29999993753E+02 0.  0.
         12    1    1    2    0    0  0.13857615059E+02  0.40145084768E+01  0.38013367010E+02  0.40659142205E+02  0.00000000000E+00 0. -1.
         11    1    3    3    0    0 -0.23855348567E+01 -0.10789934264E+02 -0.16367380349E+02  0.19748534065E+02  0.51100000000E-03 0. -1.
        -11    1    3    3    0    0  0.59998008159E-01  0.54703751528E+01 -0.17693669385E+02  0.18520111788E+02  0.51100000000E-03 0.  1.
         12    1    3    3    0    0 -0.11532078211E+02  0.13050506340E+01 -0.39523172767E+01  0.12260211942E+02  0.00000000000E+00 0. -1.
</event>
<event>
 7    1  0.1369731E-013  0.5052886E+02  0.7816164E-02  0.1300439E+00
        -11   -1    0    0    0    0  0.00000000000E+00  0.00000000000E+00  0.45593999997E+02  0.45594000000E+02  0.51100000000E-03 0. -1.
         11   -1    0    0    0    0 -0.00000000000E+00 -0.00000000000E+00 -0.45593999997E+02  0.45594000000E+02  0.51100000000E-03 0.  1.
    9900012    2    1    2    0    0  0.26884451112E+01 -0.34488707146E+02 -0.21365095833E+02  0.50528856162E+02  0.29999988789E+02 0.  0.
         12    1    1    2    0    0 -0.26884451112E+01  0.34488707146E+02  0.21365095833E+02  0.40659143838E+02  0.00000000000E+00 0. -1.
         11    1    3    3    0    0 -0.28343047074E+01  0.29432796743E+01 -0.89617135053E+01  0.98492886864E+01  0.51100000000E-03 0. -1.
        -11    1    3    3    0    0  0.41110490357E+01 -0.31560996062E+02 -0.13447052773E+02  0.34551706544E+02  0.51100000000E-03 0.  1.
         12    1    3    3    0    0  0.14117007829E+01 -0.58709907589E+01  0.10436704457E+01  0.61278609310E+01  0.00000000000E+00 0. -1.
</event>
<event>
 7    1  0.1369731E-013  0.5052885E+02  0.7816164E-02  0.1300439E+00
        -11   -1    0    0    0    0  0.00000000000E+00  0.00000000000E+00  0.45593999997E+02  0.45594000000E+02  0.51100000000E-03 0. -1.
         11   -1    0    0    0    0 -0.00000000000E+00 -0.00000000000E+00 -0.45593999997E+02  0.45594000000E+02  0.51100000000E-03 0.  1.
    9900012    2    1    2    0    0 -0.38794031310E+00 -0.36520248998E+02 -0.17868618860E+02  0.50528848207E+02  0.29999964610E+02 0.  0.
         12    1    1    2    0    0  0.38794031310E+00  0.36520248998E+02  0.17868618860E+02  0.40659151793E+02  0.00000000000E+00 0. -1.
         11    1    3    3    0    0  0.58483274426E+01  0.15694126791E-01  0.14025771910E+01  0.60141835039E+01  0.51100000000E-03 0. -1.
        -11    1    3    3    0    0 -0.48200910825E+01 -0.12669404466E+02 -0.15017877002E+02  0.20230761664E+02  0.51100000000E-03 0.  1.
         12    1    3    3    0    0 -0.14161766732E+01 -0.23866538658E+02 -0.42533190493E+01  0.24283903039E+02  0.00000000000E+00 0. -1.
</event>
<event>
 7    1  0.1435637E-013  0.5052886E+02  0.7816164E-02  0.1300439E+00
        -11   -1    0    0    0    0  0.00000000000E+00  0.00000000000E+00  0.45593999997E+02  0.45594000000E+02  0.51100000000E-03 0. -1.
         11   -1    0    0    0    0 -0.00000000000E+00 -0.00000000000E+00 -0.45593999997E+02  0.45594000000E+02  0.51100000000E-03 0.  1.
    9900012    2    1    2    0    0 -0.60203849028E+01  0.18333088392E+02 -0.35788521263E+02  0.50528863037E+02  0.30000009689E+02 0.  0.
         12    1    1    2    0    0  0.60203849028E+01 -0.18333088392E+02  0.35788521263E+02  0.40659136963E+02  0.00000000000E+00 0. -1.
         11    1    3    3    0    0  0.12579730265E+01  0.15805796320E+02 -0.64868897168E+01  0.17131416518E+02  0.51100000000E-03 0. -1.
        -11    1    3    3    0    0 -0.36774610149E+01  0.60666124227E+01 -0.26874891252E+02  0.27795454410E+02  0.51100000000E-03 0.  1.
         12    1    3    3    0    0 -0.36008969144E+01 -0.35393203513E+01 -0.24267402938E+01  0.56019921091E+01  0.00000000000E+00 0. -1.
</event>
<event>
 7    1  0.1369731E-013  0.5052886E+02  0.7816164E-02  0.1300439E+00
        -11   -1    0    0    0    0  0.00000000000E+00  0.00000000000E+00  0.45593999997E+02  0.45594000000E+02  0.51100000000E-03 0. -1.
         11   -1    0    0    0    0 -0.00000000000E+00 -0.00000000000E+00 -0.45593999997E+02  0.45594000000E+02  0.51100000000E-03 0.  1.
    9900012    2    1    2    0    0  0.22702094477E+02  0.15747877889E+02 -0.29829266176E+02  0.50528857458E+02  0.29999992729E+02 0.  0.
         12    1    1    2    0    0 -0.22702094477E+02 -0.15747877889E+02  0.29829266176E+02  0.40659142542E+02  0.00000000000E+00 0. -1.
         11    1    3    3    0    0  0.28506493034E+01 -0.34748039456E+01 -0.16688434612E+02  0.17283064368E+02  0.51100000000E-03 0. -1.
        -11    1    3    3    0    0  0.90544128428E+01  0.10029242740E+02  0.56570467137E+00  0.13523613567E+02  0.51100000000E-03 0.  1.
        -12    1    3    3    0    0  0.10797032331E+02  0.91934390949E+01 -0.13706536236E+02  0.19722179523E+02  0.00000000000E+00 0.  1.
</event>
<event>
 7    1  0.1369731E-013  0.5052886E+02  0.7816164E-02  0.1300439E+00
        -11   -1    0    0    0    0  0.00000000000E+00  0.00000000000E+00  0.45593999997E+02  0.45594000000E+02  0.51100000000E-03 0. -1.
         11   -1    0    0    0    0 -0.00000000000E+00 -0.00000000000E+00 -0.45593999997E+02  0.45594000000E+02  0.51100000000E-03 0.  1.
    9900012    2    1    2    0    0 -0.91598466557E+01 -0.61282905355E+01  0.39137029854E+02  0.50528857837E+02  0.29999993881E+02 0.  0.
        -12    1    1    2    0    0  0.91598466557E+01  0.61282905355E+01 -0.39137029854E+02  0.40659142163E+02  0.00000000000E+00 0.  1.
         11    1    3    3    0    0 -0.50119446047E+01  0.93043408727E+01  0.28306310377E+02  0.30214856532E+02  0.51100000000E-03 0. -1.
        -11    1    3    3    0    0  0.13856424561E+01 -0.55351332270E+01  0.24298412884E+01  0.62017605408E+01  0.51100000000E-03 0.  1.
         12    1    3    3    0    0 -0.55335445071E+01 -0.98974981811E+01  0.84008781883E+01  0.14112240764E+02  0.00000000000E+00 0. -1.
</event>
<event>
 7    1  0.1369731E-013  0.5052886E+02  0.7816164E-02  0.1300439E+00
        -11   -1    0    0    0    0  0.00000000000E+00  0.00000000000E+00  0.45593999997E+02  0.45594000000E+02  0.51100000000E-03 0. -1.
         11   -1    0    0    0    0 -0.00000000000E+00 -0.00000000000E+00 -0.45593999997E+02  0.45594000000E+02  0.51100000000E-03 0.  1.
    9900012    2    1    2    0    0 -0.24532406363E+02 -0.29945487722E+02  0.12433604454E+02  0.50528859372E+02  0.29999998548E+02 0.  0.
        -12    1    1    2    0    0  0.24532406363E+02  0.29945487722E+02 -0.12433604454E+02  0.40659140628E+02  0.00000000000E+00 0.  1.
         11    1    3    3    0    0 -0.41677853040E+01 -0.54484286519E+01  0.27113856179E+01  0.73761386474E+01  0.51100000000E-03 0. -1.
        -11    1    3    3    0    0 -0.19403613541E+02 -0.76456217279E+01  0.14746004875E+02  0.25542130102E+02  0.51100000000E-03 0.  1.
        -12    1    3    3    0    0 -0.96100751764E+00 -0.16851437342E+02 -0.50237860391E+01  0.17610590623E+02  0.00000000000E+00 0.  1.
</event>
<event>
 7    1  0.1369731E-013  0.5052886E+02  0.7816164E-02  0.1300439E+00
        -11   -1    0    0    0    0  0.00000000000E+00  0.00000000000E+00  0.45593999997E+02  0.45594000000E+02  0.51100000000E-03 0. -1.
         11   -1    0    0    0    0 -0.00000000000E+00 -0.00000000000E+00 -0.45593999997E+02  0.45594000000E+02  0.51100000000E-03 0.  1.
    9900012    2    1    2    0    0  0.11160900683E+01 -0.23180398919E+02 -0.33385459506E+02  0.50528862559E+02  0.30000008233E+02 0.  0.
         12    1    1    2    0    0 -0.11160900683E+01  0.23180398919E+02  0.33385459506E+02  0.40659137441E+02  0.00000000000E+00 0. -1.
         11    1    3    3    0    0 -0.45182486574E+01 -0.14847926257E+02 -0.28017537640E+01  0.15771027534E+02  0.51100000000E-03 0. -1.
        -11    1    3    3    0    0  0.58516596692E+01  0.16039020751E+01 -0.15978715030E+02  0.17091920811E+02  0.51100000000E-03 0.  1.
        -12    1    3    3    0    0 -0.21732094352E+00 -0.99363747371E+01 -0.14604990712E+02  0.17665914214E+02  0.00000000000E+00 0.  1.
</event>
<event>
 7    1  0.1369731E-013  0.5052879E+02  0.7816164E-02  0.1300439E+00
        -11   -1    0    0    0    0  0.00000000000E+00  0.00000000000E+00  0.45593999997E+02  0.45594000000E+02  0.51100000000E-03 0. -1.
         11   -1    0    0    0    0 -0.00000000000E+00 -0.00000000000E+00 -0.45593999997E+02  0.45594000000E+02  0.51100000000E-03 0.  1.
    9900012    2    1    2    0    0 -0.30548372140E+01 -0.32782088145E+02 -0.23857359845E+02  0.50528794986E+02  0.29999802840E+02 0.  0.
         12    1    1    2    0    0  0.30548372140E+01  0.32782088145E+02  0.23857359845E+02  0.40659205014E+02  0.00000000000E+00 0. -1.
         11    1    3    3    0    0 -0.37080393486E+01  0.71191914318E+00 -0.18942333131E+01  0.42242756518E+01  0.51100000000E-03 0. -1.
        -11    1    3    3    0    0  0.66953278069E+01 -0.31769966126E+02 -0.23194564879E+02  0.39901704253E+02  0.51100000000E-03 0.  1.
        -12    1    3    3    0    0 -0.60421256723E+01 -0.17240411625E+01  0.12314383471E+01  0.64028150819E+01  0.00000000000E+00 0.  1.
</event>
<event>
 7    1  0.1369731E-013  0.5052881E+02  0.7816164E-02  0.1300439E+00
        -11   -1    0    0    0    0  0.00000000000E+00  0.00000000000E+00  0.45593999997E+02  0.45594000000E+02  0.51100000000E-03 0. -1.
         11   -1    0    0    0    0 -0.00000000000E+00 -0.00000000000E+00 -0.45593999997E+02  0.45594000000E+02  0.51100000000E-03 0.  1.
    9900012    2    1    2    0    0  0.17615349787E+02 -0.35867357958E+02  0.75101021645E+01  0.50528812238E+02  0.29999855277E+02 0.  0.
        -12    1    1    2    0    0 -0.17615349787E+02  0.35867357958E+02 -0.75101021645E+01  0.40659187762E+02  0.00000000000E+00 0.  1.
         11    1    3    3    0    0  0.13491001264E+02 -0.11527783344E+02  0.97954994963E+01  0.20269403410E+02  0.51100000000E-03 0. -1.
        -11    1    3    3    0    0 -0.66798395103E+01 -0.11583048846E+02  0.11022118971E+00  0.13371590235E+02  0.51100000000E-03 0.  1.
        -12    1    3    3    0    0  0.10804188033E+02 -0.12756525768E+02 -0.23956185215E+01  0.16887818593E+02  0.00000000000E+00 0.  1.
</event>
<event>
 7    1  0.1369731E-013  0.5052885E+02  0.7816164E-02  0.1300439E+00
        -11   -1    0    0    0    0  0.00000000000E+00  0.00000000000E+00  0.45593999997E+02  0.45594000000E+02  0.51100000000E-03 0.  1.
         11   -1    0    0    0    0 -0.00000000000E+00 -0.00000000000E+00 -0.45593999997E+02  0.45594000000E+02  0.51100000000E-03 0. -1.
    9900012    2    1    2    0    0 -0.21411999432E+01  0.36432953128E+02  0.17922647228E+02  0.50528854725E+02  0.29999984421E+02 0.  0.
        -12    1    1    2    0    0  0.21411999432E+01 -0.36432953128E+02 -0.17922647228E+02  0.40659145275E+02  0.00000000000E+00 0.  1.
         11    1    3    3    0    0  0.26299942900E+01  0.10790064393E+01 -0.56339948002E+01  0.63105485127E+01  0.51100000000E-03 0. -1.
        -11    1    3    3    0    0 -0.35767679931E+01  0.27936965790E+02  0.23538144839E+02  0.36705743277E+02  0.51100000000E-03 0.  1.
        -12    1    3    3    0    0 -0.11944262401E+01  0.74169808992E+01  0.18497189522E-01  0.75125629347E+01  0.00000000000E+00 0.  1.
</event>
<event>
 7    1  0.1369731E-013  0.5052887E+02  0.7816164E-02  0.1300439E+00
        -11   -1    0    0    0    0  0.00000000000E+00  0.00000000000E+00  0.45593999997E+02  0.45594000000E+02  0.51100000000E-03 0. -1.
         11   -1    0    0    0    0 -0.00000000000E+00 -0.00000000000E+00 -0.45593999997E+02  0.45594000000E+02  0.51100000000E-03 0.  1.
    9900012    2    1    2    0    0 -0.21038323247E+02  0.23515607368E+02  0.25643131325E+02  0.50528867950E+02  0.30000024620E+02 0.  0.
        -12    1    1    2    0    0  0.21038323247E+02 -0.23515607368E+02 -0.25643131325E+02  0.40659132050E+02  0.00000000000E+00 0.  1.
         11    1    3    3    0    0 -0.95720548777E+01  0.11272714981E+02  0.56320230106E+01  0.15824601767E+02  0.51100000000E-03 0. -1.
        -11    1    3    3    0    0 -0.49999173098E+01 -0.18929782356E+01  0.18300887282E+02  0.19065807491E+02  0.51100000000E-03 0.  1.
        -12    1    3    3    0    0 -0.64663510596E+01  0.14135870623E+02  0.17102210323E+01  0.15638458692E+02  0.00000000000E+00 0.  1.
</event>
<event>
 7    1  0.1369731E-013  0.5052885E+02  0.7816164E-02  0.1300439E+00
        -11   -1    0    0    0    0  0.00000000000E+00  0.00000000000E+00  0.45593999997E+02  0.45594000000E+02  0.51100000000E-03 0. -1.
         11   -1    0    0    0    0 -0.00000000000E+00 -0.00000000000E+00 -0.45593999997E+02  0.45594000000E+02  0.51100000000E-03 0.  1.
    9900012    2    1    2    0    0  0.14652522735E+02  0.11938377708E+02 -0.35999235486E+02  0.50528852931E+02  0.29999978969E+02 0.  0.
         12    1    1    2    0    0 -0.14652522735E+02 -0.11938377708E+02  0.35999235486E+02  0.40659147069E+02  0.00000000000E+00 0. -1.
         11    1    3    3    0    0 -0.17413732233E+01  0.82250273246E+01 -0.12235751502E-02  0.84073454164E+01  0.51100000000E-03 0.  1.
        -11    1    3    3    0    0  0.71845789429E+01  0.57131663330E+01 -0.28902218727E+02  0.30324852708E+02  0.51100000000E-03 0. -1.
        -12    1    3    3    0    0  0.92093170157E+01 -0.19998159492E+01 -0.70957931835E+01  0.11796654807E+02  0.00000000000E+00 0.  1.
</event>
<event>
 7    1  0.1369731E-013  0.5052885E+02  0.7816164E-02  0.1300439E+00
        -11   -1    0    0    0    0  0.00000000000E+00  0.00000000000E+00  0.45593999997E+02  0.45594000000E+02  0.51100000000E-03 0.  1.
         11   -1    0    0    0    0 -0.00000000000E+00 -0.00000000000E+00 -0.45593999997E+02  0.45594000000E+02  0.51100000000E-03 0. -1.
    9900012    2    1    2    0    0  0.30348572766E+02 -0.12372886041E+02 -0.24063290767E+02  0.50528854160E+02  0.29999982703E+02 0.  0.
        -12    1    1    2    0    0 -0.30348572766E+02  0.12372886041E+02  0.24063290767E+02  0.40659145840E+02  0.00000000000E+00 0.  1.
         11    1    3    3    0    0  0.18352290056E+02  0.63470948604E+01 -0.15675426456E+02  0.24956184770E+02  0.51100000000E-03 0. -1.
        -11    1    3    3    0    0  0.11153988662E+02 -0.18815848686E+02 -0.97660670078E+01  0.23954617299E+02  0.51100000000E-03 0.  1.
        -12    1    3    3    0    0  0.84229404843E+00  0.95867785192E-01  0.13782026961E+01  0.16180520906E+01  0.00000000000E+00 0.  1.
</event>
<event>
 7    1  0.1369731E-013  0.5052886E+02  0.7816164E-02  0.1300439E+00
        -11   -1    0    0    0    0  0.00000000000E+00  0.00000000000E+00  0.45593999997E+02  0.45594000000E+02  0.51100000000E-03 0. -1.
         11   -1    0    0    0    0 -0.00000000000E+00 -0.00000000000E+00 -0.45593999997E+02  0.45594000000E+02  0.51100000000E-03 0.  1.
    9900012    2    1    2    0    0 -0.45281351583E+00 -0.22157750849E+02  0.34088043584E+02  0.50528859845E+02  0.29999999985E+02 0.  0.
        -12    1    1    2    0    0  0.45281351583E+00  0.22157750849E+02 -0.34088043584E+02  0.40659140155E+02  0.00000000000E+00 0.  1.
         11    1    3    3    0    0  0.52909858160E+01 -0.12972297648E+02 -0.20233806887E+00  0.14011280389E+02  0.51100000000E-03 0.  1.
        -11    1    3    3    0    0 -0.26475860848E+01 -0.66245071723E+01  0.29055094969E+02  0.29918094045E+02  0.51100000000E-03 0. -1.
        -12    1    3    3    0    0 -0.30962132471E+01 -0.25609460289E+01  0.52352866834E+01  0.65994854111E+01  0.00000000000E+00 0.  1.
</event>
<event>
 7    1  0.1369731E-013  0.5052887E+02  0.7816164E-02  0.1300439E+00
        -11   -1    0    0    0    0  0.00000000000E+00  0.00000000000E+00  0.45593999997E+02  0.45594000000E+02  0.51100000000E-03 0. -1.
         11   -1    0    0    0    0 -0.00000000000E+00 -0.00000000000E+00 -0.45593999997E+02  0.45594000000E+02  0.51100000000E-03 0.  1.
    9900012    2    1    2    0    0  0.28103973978E+02 -0.16440584698E+02 -0.24352393204E+02  0.50528865315E+02  0.30000016612E+02 0.  0.
         12    1    1    2    0    0 -0.28103973978E+02  0.16440584698E+02  0.24352393204E+02  0.40659134685E+02  0.00000000000E+00 0. -1.
         11    1    3    3    0    0  0.66198958260E+01 -0.15488171371E+02  0.18763857108E+00  0.16844633616E+02  0.51100000000E-03 0. -1.
        -11    1    3    3    0    0  0.16272538218E+02  0.16502995710E+01 -0.13524975892E+02  0.21223665138E+02  0.51100000000E-03 0.  1.
         12    1    3    3    0    0  0.52115399333E+01 -0.26027128975E+01 -0.11015055883E+02  0.12460566561E+02  0.00000000000E+00 0. -1.
</event>
<event>
 7    1  0.1369731E-013  0.5052885E+02  0.7816164E-02  0.1300439E+00
        -11   -1    0    0    0    0  0.00000000000E+00  0.00000000000E+00  0.45593999997E+02  0.45594000000E+02  0.51100000000E-03 0. -1.
         11   -1    0    0    0    0 -0.00000000000E+00 -0.00000000000E+00 -0.45593999997E+02  0.45594000000E+02  0.51100000000E-03 0.  1.
    9900012    2    1    2    0    0 -0.15192393606E+02  0.17080616492E+02  0.33624548990E+02  0.50528848779E+02  0.29999966349E+02 0.  0.
        -12    1    1    2    0    0  0.15192393606E+02 -0.17080616492E+02 -0.33624548990E+02  0.40659151221E+02  0.00000000000E+00 0.  1.
         11    1    3    3    0    0 -0.37795613902E+01  0.18475061951E+02  0.97357940535E+01  0.21222598439E+02  0.51100000000E-03 0. -1.
        -11    1    3    3    0    0 -0.68765055838E+01  0.44026344222E+01  0.18380489896E+02  0.20112481895E+02  0.51100000000E-03 0.  1.
         12    1    3    3    0    0 -0.45363266316E+01 -0.57970798814E+01  0.55082650404E+01  0.91937684447E+01  0.00000000000E+00 0. -1.
</event>
