<event>
 7    1  0.3837332E-009  0.4778729E+02  0.7816164E-02  0.1312668E+00
        -11   -1    0    0    0    0  0.00000000000E+00  0.00000000000E+00  0.45593999997E+02  0.45594000000E+02  0.51100000000E-03 0. -1.
         11   -1    0    0    0    0 -0.00000000000E+00 -0.00000000000E+00 -0.45593999997E+02  0.45594000000E+02  0.51100000000E-03 0.  1.
    9900012    2    1    2    0    0 -0.13412479006E+02  0.11057411853E+02  0.39767584563E+02  0.47787288808E+02  0.20000080992E+02 0.  0.
        -12    1    1    2    0    0  0.13412479006E+02 -0.11057411853E+02 -0.39767584563E+02  0.43400711192E+02  0.00000000000E+00 0.  1.
         11    1    3    3    0    0 -0.78562450788E+01  0.12137240085E+02  0.11553040730E+02  0.18506915842E+02  0.51100000000E-03 0.  1.
        -11    1    3    3    0    0 -0.14441437294E+01  0.21471179907E+01  0.10166372058E+02  0.10490509418E+02  0.51100000000E-03 0. -1.
         12    1    3    3    0    0 -0.41120901979E+01 -0.32269462228E+01  0.18048171775E+02  0.18789863548E+02  0.00000000000E+00 0. -1.
</event>
<event>
 7    1  0.3837332E-009  0.4778727E+02  0.7816164E-02  0.1312668E+00
        -11   -1    0    0    0    0  0.00000000000E+00  0.00000000000E+00  0.45593999997E+02  0.45594000000E+02  0.51100000000E-03 0.  1.
         11   -1    0    0    0    0 -0.00000000000E+00 -0.00000000000E+00 -0.45593999997E+02  0.45594000000E+02  0.51100000000E-03 0. -1.
    9900012    2    1    2    0    0  0.26593869491E+02 -0.25545691982E+02  0.22886838907E+02  0.47787266498E+02  0.19999979273E+02 0.  0.
        -12    1    1    2    0    0 -0.26593869491E+02  0.25545691982E+02 -0.22886838907E+02  0.43400733502E+02  0.00000000000E+00 0.  1.
         11    1    3    3    0    0  0.26110535533E+02 -0.17765977941E+02  0.19903611851E+02  0.37330199611E+02  0.51100000000E-03 0.  1.
        -11    1    3    3    0    0  0.26574994778E+01 -0.55461933668E+01  0.38071204037E+01  0.72330305105E+01  0.51100000000E-03 0. -1.
         12    1    3    3    0    0 -0.21741655200E+01 -0.22335206737E+01 -0.82389334838E+00  0.32240363766E+01  0.00000000000E+00 0. -1.
</event>
<event>
 7    1  0.3837332E-009  0.4778727E+02  0.7816164E-02  0.1312668E+00
        -11   -1    0    0    0    0  0.00000000000E+00  0.00000000000E+00  0.45593999997E+02  0.45594000000E+02  0.51100000000E-03 0.  1.
         11   -1    0    0    0    0 -0.00000000000E+00 -0.00000000000E+00 -0.45593999997E+02  0.45594000000E+02  0.51100000000E-03 0. -1.
    9900012    2    1    2    0    0  0.39666330700E+02 -0.15730953833E+02 -0.79210049600E+01  0.47787273978E+02  0.20000013374E+02 0.  0.
        -12    1    1    2    0    0 -0.39666330700E+02  0.15730953833E+02  0.79210049600E+01  0.43400726022E+02  0.00000000000E+00 0.  1.
         11    1    3    3    0    0  0.15952595627E+02 -0.84811812505E+01 -0.83494522032E+01  0.19902992111E+02  0.51100000000E-03 0. -1.
        -11    1    3    3    0    0  0.10859555072E+02  0.23205462566E+01 -0.29854960751E+01  0.11499045976E+02  0.51100000000E-03 0.  1.
        -12    1    3    3    0    0  0.12854180001E+02 -0.95703188395E+01  0.34139433183E+01  0.16385235890E+02  0.00000000000E+00 0.  1.
</event>
<event>
 7    1  0.3837332E-009  0.4778727E+02  0.7816164E-02  0.1312668E+00
        -11   -1    0    0    0    0  0.00000000000E+00  0.00000000000E+00  0.45593999997E+02  0.45594000000E+02  0.51100000000E-03 0. -1.
         11   -1    0    0    0    0 -0.00000000000E+00 -0.00000000000E+00 -0.45593999997E+02  0.45594000000E+02  0.51100000000E-03 0.  1.
    9900012    2    1    2    0    0  0.17900114999E+02 -0.29513658133E+02  0.26308801855E+02  0.47787272029E+02  0.20000004488E+02 0.  0.
        -12    1    1    2    0    0 -0.17900114999E+02  0.29513658133E+02 -0.26308801855E+02  0.43400727971E+02  0.00000000000E+00 0.  1.
         11    1    3    3    0    0 -0.13276100010E+01 -0.52743297578E+00  0.48194595749E+01  0.50267210698E+01  0.51100000000E-03 0. -1.
        -11    1    3    3    0    0 -0.17662782834E+01 -0.30797059588E+01  0.28981005813E+01  0.45829373776E+01  0.51100000000E-03 0.  1.
         12    1    3    3    0    0  0.20994003283E+02 -0.25906519199E+02  0.18591241699E+02  0.38177613581E+02  0.00000000000E+00 0. -1.
</event>
<event>
 7    1  0.3837332E-009  0.4778727E+02  0.7816164E-02  0.1312668E+00
        -11   -1    0    0    0    0  0.00000000000E+00  0.00000000000E+00  0.45593999997E+02  0.45594000000E+02  0.51100000000E-03 0.  1.
         11   -1    0    0    0    0 -0.00000000000E+00 -0.00000000000E+00 -0.45593999997E+02  0.45594000000E+02  0.51100000000E-03 0. -1.
    9900012    2    1    2    0    0 -0.40903859059E+02 -0.81304988426E+01  0.12016335709E+02  0.47787273955E+02  0.20000013271E+02 0.  0.
        -12    1    1    2    0    0  0.40903859059E+02  0.81304988426E+01 -0.12016335709E+02  0.43400726045E+02  0.00000000000E+00 0.  1.
         11    1    3    3    0    0 -0.11195971009E+01 -0.31146930927E+01 -0.57520499724E+00  0.33594153926E+01  0.51100000000E-03 0. -1.
        -11    1    3    3    0    0 -0.15541661525E+01 -0.10428143624E+01  0.48790710344E+01  0.52257275708E+01  0.51100000000E-03 0.  1.
         12    1    3    3    0    0 -0.38230095805E+02 -0.39729913875E+01  0.77124696722E+01  0.39202130992E+02  0.00000000000E+00 0. -1.
</event>
<event>
 7    1  0.3837332E-009  0.4778727E+02  0.7816164E-02  0.1312668E+00
        -11   -1    0    0    0    0  0.00000000000E+00  0.00000000000E+00  0.45593999997E+02  0.45594000000E+02  0.51100000000E-03 0.  1.
         11   -1    0    0    0    0 -0.00000000000E+00 -0.00000000000E+00 -0.45593999997E+02  0.45594000000E+02  0.51100000000E-03 0. -1.
    9900012    2    1    2    0    0 -0.30600075932E+02  0.20787302233E+02  0.22696851872E+02  0.47787266526E+02  0.19999979398E+02 0.  0.
        -12    1    1    2    0    0  0.30600075932E+02 -0.20787302233E+02 -0.22696851872E+02  0.43400733474E+02  0.00000000000E+00 0.  1.
         11    1    3    3    0    0 -0.14184467401E+01  0.99673162933E+00 -0.10924599421E+01  0.20491300792E+01  0.51100000000E-03 0. -1.
        -11    1    3    3    0    0  0.23031732398E+00  0.69789537951E+01  0.43600698464E+01  0.82321960296E+01  0.51100000000E-03 0.  1.
         12    1    3    3    0    0 -0.29411946516E+02  0.12811616809E+02  0.19429241967E+02  0.37505940417E+02  0.00000000000E+00 0. -1.
</event>
<event>
 7    1  0.3837332E-009  0.4778727E+02  0.7816164E-02  0.1312668E+00
        -11   -1    0    0    0    0  0.00000000000E+00  0.00000000000E+00  0.45593999997E+02  0.45594000000E+02  0.51100000000E-03 0.  1.
         11   -1    0    0    0    0 -0.00000000000E+00 -0.00000000000E+00 -0.45593999997E+02  0.45594000000E+02  0.51100000000E-03 0. -1.
    9900012    2    1    2    0    0 -0.13290017501E+02  0.51326898755E+01 -0.40995780929E+02  0.47787272765E+02  0.20000007844E+02 0.  0.
        -12    1    1    2    0    0  0.13290017501E+02 -0.51326898755E+01  0.40995780929E+02  0.43400727235E+02  0.00000000000E+00 0.  1.
         11    1    3    3    0    0  0.29211860776E+01  0.23058492034E+01 -0.48646494120E+01  0.61249557395E+01  0.51100000000E-03 0.  1.
        -11    1    3    3    0    0  0.12991762841E+01  0.14856583114E+01 -0.99024889005E+01  0.10097243501E+02  0.51100000000E-03 0. -1.
         12    1    3    3    0    0 -0.17510379863E+02  0.13411823606E+01 -0.26228642617E+02  0.31565073524E+02  0.00000000000E+00 0. -1.
</event>
<event>
 7    1  0.3837332E-009  0.4778727E+02  0.7816164E-02  0.1312668E+00
        -11   -1    0    0    0    0  0.00000000000E+00  0.00000000000E+00  0.45593999997E+02  0.45594000000E+02  0.51100000000E-03 0.  1.
         11   -1    0    0    0    0 -0.00000000000E+00 -0.00000000000E+00 -0.45593999997E+02  0.45594000000E+02  0.51100000000E-03 0. -1.
    9900012    2    1    2    0    0 -0.33797546613E+02 -0.19571247776E+02 -0.18929217936E+02  0.47787272031E+02  0.20000004498E+02 0.  0.
        -12    1    1    2    0    0  0.33797546613E+02  0.19571247776E+02  0.18929217936E+02  0.43400727969E+02  0.00000000000E+00 0.  1.
         11    1    3    3    0    0 -0.13825955678E+02 -0.11129162950E+02 -0.88635462282E+01  0.19838794579E+02  0.51100000000E-03 0. -1.
        -11    1    3    3    0    0 -0.15859556976E+02 -0.12049663617E+02 -0.50996196668E+01  0.20560303056E+02  0.51100000000E-03 0.  1.
        -12    1    3    3    0    0 -0.41120339595E+01  0.36075787910E+01 -0.49660520410E+01  0.73881743951E+01  0.00000000000E+00 0.  1.
</event>
<event>
 7    1  0.3837332E-009  0.4778727E+02  0.7816164E-02  0.1312668E+00
        -11   -1    0    0    0    0  0.00000000000E+00  0.00000000000E+00  0.45593999997E+02  0.45594000000E+02  0.51100000000E-03 0.  1.
         11   -1    0    0    0    0 -0.00000000000E+00 -0.00000000000E+00 -0.45593999997E+02  0.45594000000E+02  0.51100000000E-03 0. -1.
    9900012    2    1    2    0    0 -0.15938373311E+02 -0.20960834936E+02 -0.34499779082E+02  0.47787273028E+02  0.20000009044E+02 0.  0.
        -12    1    1    2    0    0  0.15938373311E+02  0.20960834936E+02  0.34499779082E+02  0.43400726972E+02  0.00000000000E+00 0.  1.
         11    1    3    3    0    0 -0.11766202815E+01 -0.26789679194E+01 -0.17763258803E+02  0.18002629474E+02  0.51100000000E-03 0. -1.
        -11    1    3    3    0    0 -0.70562478220E+01 -0.61675785445E+01 -0.10661604736E+02  0.14195051047E+02  0.51100000000E-03 0.  1.
        -12    1    3    3    0    0 -0.77055052076E+01 -0.12114288472E+02 -0.60749155428E+01  0.15589592507E+02  0.00000000000E+00 0.  1.
</event>
<event>
 7    1  0.3837332E-009  0.4778728E+02  0.7816164E-02  0.1312668E+00
        -11   -1    0    0    0    0  0.00000000000E+00  0.00000000000E+00  0.45593999997E+02  0.45594000000E+02  0.51100000000E-03 0.  1.
         11   -1    0    0    0    0 -0.00000000000E+00 -0.00000000000E+00 -0.45593999997E+02  0.45594000000E+02  0.51100000000E-03 0. -1.
    9900012    2    1    2    0    0  0.55031283403E+01  0.37854413249E+02 -0.20503211750E+02  0.47787277471E+02  0.20000029304E+02 0.  0.
        -12    1    1    2    0    0 -0.55031283403E+01 -0.37854413249E+02  0.20503211750E+02  0.43400722529E+02  0.00000000000E+00 0.  1.
         11    1    3    3    0    0  0.95962602986E+01  0.25147677716E+02 -0.88214760593E+01  0.28325118647E+02  0.51100000000E-03 0. -1.
        -11    1    3    3    0    0 -0.18608538513E+01  0.10962807711E+02 -0.49751621160E+01  0.12181878685E+02  0.51100000000E-03 0.  1.
        -12    1    3    3    0    0 -0.22322781070E+01  0.17439278216E+01 -0.67065735747E+01  0.72802801393E+01  0.00000000000E+00 0.  1.
</event>
<event>
 7    1  0.3837332E-009  0.4778727E+02  0.7816164E-02  0.1312668E+00
        -11   -1    0    0    0    0  0.00000000000E+00  0.00000000000E+00  0.45593999997E+02  0.45594000000E+02  0.51100000000E-03 0. -1.
         11   -1    0    0    0    0 -0.00000000000E+00 -0.00000000000E+00 -0.45593999997E+02  0.45594000000E+02  0.51100000000E-03 0.  1.
    9900012    2    1    2    0    0  0.55837289076E+01  0.27730139754E+02 -0.32916331342E+02  0.47787267883E+02  0.19999985587E+02 0.  0.
        -12    1    1    2    0    0 -0.55837289076E+01 -0.27730139754E+02  0.32916331342E+02  0.43400732117E+02  0.00000000000E+00 0.  1.
         11    1    3    3    0    0  0.21219075330E+01  0.13087172447E+02 -0.64130832272E+01  0.14727668212E+02  0.51100000000E-03 0. -1.
        -11    1    3    3    0    0  0.73380089183E+01  0.68497448143E+01 -0.88719481358E+01  0.13396896763E+02  0.51100000000E-03 0.  1.
        -12    1    3    3    0    0 -0.38761875437E+01  0.77932224929E+01 -0.17631299979E+02  0.19662702908E+02  0.00000000000E+00 0.  1.
</event>
<event>
 7    1  0.3837332E-009  0.4778727E+02  0.7816164E-02  0.1312668E+00
        -11   -1    0    0    0    0  0.00000000000E+00  0.00000000000E+00  0.45593999997E+02  0.45594000000E+02  0.51100000000E-03 0. -1.
         11   -1    0    0    0    0 -0.00000000000E+00 -0.00000000000E+00 -0.45593999997E+02  0.45594000000E+02  0.51100000000E-03 0.  1.
    9900012    2    1    2    0    0  0.24036902400E+02 -0.96025804040E+01  0.34837351670E+02  0.47787270757E+02  0.19999998691E+02 0.  0.
        -12    1    1    2    0    0 -0.24036902400E+02  0.96025804040E+01 -0.34837351670E+02  0.43400729243E+02  0.00000000000E+00 0.  1.
         11    1    3    3    0    0  0.29768776512E+01  0.93340217990E+00  0.39645069958E+01  0.50448346019E+01  0.51100000000E-03 0. -1.
        -11    1    3    3    0    0  0.13374082328E+02  0.28891474463E+01  0.10985543443E+02  0.17546948910E+02  0.51100000000E-03 0.  1.
         12    1    3    3    0    0  0.76859424210E+01 -0.13425130030E+02  0.19887301232E+02  0.25195487245E+02  0.00000000000E+00 0. -1.
</event>
<event>
 7    1  0.3837332E-009  0.4778727E+02  0.7816164E-02  0.1312668E+00
        -11   -1    0    0    0    0  0.00000000000E+00  0.00000000000E+00  0.45593999997E+02  0.45594000000E+02  0.51100000000E-03 0.  1.
         11   -1    0    0    0    0 -0.00000000000E+00 -0.00000000000E+00 -0.45593999997E+02  0.45594000000E+02  0.51100000000E-03 0. -1.
    9900012    2    1    2    0    0  0.16445379267E+02  0.39029915481E+02 -0.94783232601E+01  0.47787269436E+02  0.19999992665E+02 0.  0.
        -12    1    1    2    0    0 -0.16445379267E+02 -0.39029915481E+02  0.94783232601E+01  0.43400730564E+02  0.00000000000E+00 0.  1.
         11    1    3    3    0    0  0.26392267360E+01  0.22212168361E+02 -0.92200336315E+01  0.24194110058E+02  0.51100000000E-03 0. -1.
        -11    1    3    3    0    0  0.24030415350E+01  0.99402264539E+01  0.63801817019E+00  0.10246451972E+02  0.51100000000E-03 0.  1.
        -12    1    3    3    0    0  0.11403110996E+02  0.68775206660E+01 -0.89630779884E+00  0.13346707406E+02  0.00000000000E+00 0.  1.
</event>
<event>
 7    1  0.3837332E-009  0.4778727E+02  0.7816164E-02  0.1312668E+00
        -11   -1    0    0    0    0  0.00000000000E+00  0.00000000000E+00  0.45593999997E+02  0.45594000000E+02  0.51100000000E-03 0.  1.
         11   -1    0    0    0    0 -0.00000000000E+00 -0.00000000000E+00 -0.45593999997E+02  0.45594000000E+02  0.51100000000E-03 0. -1.
    9900012    2    1    2    0    0 -0.35708471758E+01 -0.77284961898E+01 -0.42557522932E+02  0.47787270041E+02  0.19999995424E+02 0.  0.
        -12    1    1    2    0    0  0.35708471758E+01  0.77284961898E+01  0.42557522932E+02  0.43400729959E+02  0.00000000000E+00 0.  1.
         11    1    3    3    0    0 -0.52999868236E+01 -0.18061990855E+01 -0.34451190551E+01  0.65742726618E+01  0.51100000000E-03 0. -1.
        -11    1    3    3    0    0 -0.22549480871E+01  0.26786197873E+01 -0.98678382197E+01  0.10470626831E+02  0.51100000000E-03 0.  1.
         12    1    3    3    0    0  0.39840877349E+01 -0.86009168916E+01 -0.29244565657E+02  0.30742370548E+02  0.00000000000E+00 0. -1.
</event>
<event>
 7    1  0.3837332E-009  0.4778727E+02  0.7816164E-02  0.1312668E+00
        -11   -1    0    0    0    0  0.00000000000E+00  0.00000000000E+00  0.45593999997E+02  0.45594000000E+02  0.51100000000E-03 0. -1.
         11   -1    0    0    0    0 -0.00000000000E+00 -0.00000000000E+00 -0.45593999997E+02  0.45594000000E+02  0.51100000000E-03 0.  1.
    9900012    2    1    2    0    0  0.18454499010E+02  0.38982583267E+02 -0.48387235693E+01  0.47787267545E+02  0.19999984043E+02 0.  0.
        -12    1    1    2    0    0 -0.18454499010E+02 -0.38982583267E+02  0.48387235693E+01  0.43400732455E+02  0.00000000000E+00 0.  1.
         11    1    3    3    0    0  0.15959516424E+02  0.35863243108E+02 -0.59069732044E+01  0.39695978429E+02  0.51100000000E-03 0. -1.
        -11    1    3    3    0    0  0.23055554985E+01  0.40838348937E+01 -0.18275551715E+01  0.50332148535E+01  0.51100000000E-03 0.  1.
        -12    1    3    3    0    0  0.18942708719E+00 -0.96449473469E+00  0.28958048066E+01  0.30580742621E+01  0.00000000000E+00 0.  1.
</event>
<event>
 7    1  0.3837332E-009  0.4778727E+02  0.7816164E-02  0.1312668E+00
        -11   -1    0    0    0    0  0.00000000000E+00  0.00000000000E+00  0.45593999997E+02  0.45594000000E+02  0.51100000000E-03 0.  1.
         11   -1    0    0    0    0 -0.00000000000E+00 -0.00000000000E+00 -0.45593999997E+02  0.45594000000E+02  0.51100000000E-03 0. -1.
    9900012    2    1    2    0    0  0.39307742757E+02  0.49438635077E+01 -0.17722384459E+02  0.47787270307E+02  0.19999996636E+02 0.  0.
        -12    1    1    2    0    0 -0.39307742757E+02 -0.49438635077E+01  0.17722384459E+02  0.43400729693E+02  0.00000000000E+00 0.  1.
         11    1    3    3    0    0  0.14855559788E+02 -0.24204449196E+00 -0.13567049301E+02  0.20119917225E+02  0.51100000000E-03 0. -1.
        -11    1    3    3    0    0  0.14926366714E+02  0.46017823736E+01 -0.77906560055E+01  0.17454717000E+02  0.51100000000E-03 0.  1.
        -12    1    3    3    0    0  0.95258162545E+01  0.58412562603E+00  0.36353208479E+01  0.10212636081E+02  0.00000000000E+00 0.  1.
</event>
<event>
 7    1  0.3837332E-009  0.4778727E+02  0.7816164E-02  0.1312668E+00
        -11   -1    0    0    0    0  0.00000000000E+00  0.00000000000E+00  0.45593999997E+02  0.45594000000E+02  0.51100000000E-03 0. -1.
         11   -1    0    0    0    0 -0.00000000000E+00 -0.00000000000E+00 -0.45593999997E+02  0.45594000000E+02  0.51100000000E-03 0.  1.
    9900012    2    1    2    0    0 -0.51600602900E+01  0.11484353891E+02  0.41534402597E+02  0.47787271831E+02  0.20000003587E+02 0.  0.
        -12    1    1    2    0    0  0.51600602900E+01 -0.11484353891E+02 -0.41534402597E+02  0.43400728169E+02  0.00000000000E+00 0.  1.
         11    1    3    3    0    0  0.40365257115E+01  0.52898394541E+01  0.10811130231E+02  0.12694742155E+02  0.51100000000E-03 0. -1.
        -11    1    3    3    0    0 -0.30207836988E+01  0.69361162513E+01  0.61662785967E+01  0.97600120287E+01  0.51100000000E-03 0.  1.
         12    1    3    3    0    0 -0.61758023026E+01 -0.74160181401E+00  0.24556993770E+02  0.25332517647E+02  0.00000000000E+00 0. -1.
</event>
<event>
 7    1  0.3837332E-009  0.4778727E+02  0.7816164E-02  0.1312668E+00
        -11   -1    0    0    0    0  0.00000000000E+00  0.00000000000E+00  0.45593999997E+02  0.45594000000E+02  0.51100000000E-03 0.  1.
         11   -1    0    0    0    0 -0.00000000000E+00 -0.00000000000E+00 -0.45593999997E+02  0.45594000000E+02  0.51100000000E-03 0. -1.
    9900012    2    1    2    0    0  0.44221854567E+01  0.84248044825E+01 -0.42344894518E+02  0.47787272511E+02  0.20000006688E+02 0.  0.
        -12    1    1    2    0    0 -0.44221854567E+01 -0.84248044825E+01  0.42344894518E+02  0.43400727489E+02  0.00000000000E+00 0.  1.
         11    1    3    3    0    0 -0.48240375508E+01  0.43878586044E+01 -0.16937919900E+02  0.18149869758E+02  0.51100000000E-03 0. -1.
        -11    1    3    3    0    0  0.30866458107E+00  0.55972415148E+01 -0.59820081697E+01  0.81980978526E+01  0.51100000000E-03 0.  1.
         12    1    3    3    0    0  0.89375584265E+01 -0.15602956367E+01 -0.19424966449E+02  0.21439304901E+02  0.00000000000E+00 0. -1.
</event>
<event>
 7    1  0.3837332E-009  0.4778727E+02  0.7816164E-02  0.1312668E+00
        -11   -1    0    0    0    0  0.00000000000E+00  0.00000000000E+00  0.45593999997E+02  0.45594000000E+02  0.51100000000E-03 0. -1.
         11   -1    0    0    0    0 -0.00000000000E+00 -0.00000000000E+00 -0.45593999997E+02  0.45594000000E+02  0.51100000000E-03 0.  1.
    9900012    2    1    2    0    0  0.49488441440E-01 -0.28742307183E+02  0.32519230105E+02  0.47787274223E+02  0.20000014493E+02 0.  0.
        -12    1    1    2    0    0 -0.49488441440E-01  0.28742307183E+02 -0.32519230105E+02  0.43400725777E+02  0.00000000000E+00 0.  1.
         11    1    3    3    0    0 -0.55451750499E+01 -0.15662295642E+02  0.16229908435E+02  0.23226415978E+02  0.51100000000E-03 0. -1.
        -11    1    3    3    0    0 -0.11114880923E+01 -0.10831657545E+02  0.72422941072E+01  0.13077118764E+02  0.51100000000E-03 0.  1.
        -12    1    3    3    0    0  0.67061515836E+01 -0.22483539955E+01  0.90470275631E+01  0.11483739481E+02  0.00000000000E+00 0.  1.
</event>
<event>
 7    1  0.3837332E-009  0.4778727E+02  0.7816164E-02  0.1312668E+00
        -11   -1    0    0    0    0  0.00000000000E+00  0.00000000000E+00  0.45593999997E+02  0.45594000000E+02  0.51100000000E-03 0.  1.
         11   -1    0    0    0    0 -0.00000000000E+00 -0.00000000000E+00 -0.45593999997E+02  0.45594000000E+02  0.51100000000E-03 0. -1.
    9900012    2    1    2    0    0 -0.41663791557E+02 -0.32572003063E+01 -0.11710782021E+02  0.47787270786E+02  0.19999998822E+02 0.  0.
        -12    1    1    2    0    0  0.41663791557E+02  0.32572003063E+01  0.11710782021E+02  0.43400729214E+02  0.00000000000E+00 0.  1.
         11    1    3    3    0    0 -0.75454547761E+01 -0.56647642990E+01 -0.88688310315E-02  0.94352276739E+01  0.51100000000E-03 0. -1.
        -11    1    3    3    0    0  0.10782604827E+01 -0.27378081254E+00 -0.91972198249E+00  0.14434300773E+01  0.51100000000E-03 0.  1.
         12    1    3    3    0    0 -0.35196597264E+02  0.26813448052E+01 -0.10782191208E+02  0.36908613035E+02  0.00000000000E+00 0. -1.
</event>
<event>
 7    1  0.3837332E-009  0.4778727E+02  0.7816164E-02  0.1312668E+00
        -11   -1    0    0    0    0  0.00000000000E+00  0.00000000000E+00  0.45593999997E+02  0.45594000000E+02  0.51100000000E-03 0.  1.
         11   -1    0    0    0    0 -0.00000000000E+00 -0.00000000000E+00 -0.45593999997E+02  0.45594000000E+02  0.51100000000E-03 0. -1.
    9900012    2    1    2    0    0 -0.27563188809E+02 -0.31243294229E+02 -0.12155270859E+02  0.47787269346E+02  0.19999992256E+02 0.  0.
        -12    1    1    2    0    0  0.27563188809E+02  0.31243294229E+02  0.12155270859E+02  0.43400730654E+02  0.00000000000E+00 0.  1.
         11    1    3    3    0    0 -0.11746038099E+02 -0.84405110205E+01 -0.68409529259E+01  0.16000321075E+02  0.51100000000E-03 0. -1.
        -11    1    3    3    0    0 -0.16974848690E+02 -0.16621645094E+02 -0.32557669483E+00  0.23759852148E+02  0.51100000000E-03 0.  1.
         12    1    3    3    0    0  0.11576979800E+01 -0.61811381151E+01 -0.49887412385E+01  0.80270961222E+01  0.00000000000E+00 0. -1.
</event>
<event>
 7    1  0.3837332E-009  0.4778728E+02  0.7816164E-02  0.1312668E+00
        -11   -1    0    0    0    0  0.00000000000E+00  0.00000000000E+00  0.45593999997E+02  0.45594000000E+02  0.51100000000E-03 0.  1.
         11   -1    0    0    0    0 -0.00000000000E+00 -0.00000000000E+00 -0.45593999997E+02  0.45594000000E+02  0.51100000000E-03 0. -1.
    9900012    2    1    2    0    0 -0.39246225826E+02  0.76302705734E+00 -0.18514157862E+02  0.47787280038E+02  0.20000041004E+02 0.  0.
        -12    1    1    2    0    0  0.39246225826E+02 -0.76302705734E+00  0.18514157862E+02  0.43400719962E+02  0.00000000000E+00 0.  1.
         11    1    3    3    0    0 -0.12985547933E+01  0.25509618356E+01 -0.74907771790E+00  0.29588458098E+01  0.51100000000E-03 0.  1.
        -11    1    3    3    0    0 -0.57326049623E+01 -0.11885368601E+01  0.29171567090E+01  0.65410383769E+01  0.51100000000E-03 0. -1.
         12    1    3    3    0    0 -0.32215066071E+02 -0.59939791812E+00 -0.20682236853E+02  0.38287395851E+02  0.00000000000E+00 0. -1.
</event>
<event>
 7    1  0.3837332E-009  0.4778727E+02  0.7816164E-02  0.1312668E+00
        -11   -1    0    0    0    0  0.00000000000E+00  0.00000000000E+00  0.45593999997E+02  0.45594000000E+02  0.51100000000E-03 0.  1.
         11   -1    0    0    0    0 -0.00000000000E+00 -0.00000000000E+00 -0.45593999997E+02  0.45594000000E+02  0.51100000000E-03 0. -1.
    9900012    2    1    2    0    0  0.95532995418E+01  0.28676316748E+02 -0.31145248397E+02  0.47787272218E+02  0.20000005349E+02 0.  0.
        -12    1    1    2    0    0 -0.95532995418E+01 -0.28676316748E+02  0.31145248397E+02  0.43400727782E+02  0.00000000000E+00 0.  1.
         11    1    3    3    0    0  0.73596134723E+01  0.19279384079E+02 -0.25818506594E+02  0.33052289541E+02  0.51100000000E-03 0. -1.
        -11    1    3    3    0    0  0.42127590185E+01  0.86553638706E+01 -0.70886240213E+01  0.11954549471E+02  0.51100000000E-03 0.  1.
        -12    1    3    3    0    0 -0.20190729490E+01  0.74156879879E+00  0.17618822186E+01  0.27804332053E+01  0.00000000000E+00 0.  1.
</event>
<event>
 7    1  0.3837332E-009  0.4778727E+02  0.7816164E-02  0.1312668E+00
        -11   -1    0    0    0    0  0.00000000000E+00  0.00000000000E+00  0.45593999997E+02  0.45594000000E+02  0.51100000000E-03 0.  1.
         11   -1    0    0    0    0 -0.00000000000E+00 -0.00000000000E+00 -0.45593999997E+02  0.45594000000E+02  0.51100000000E-03 0. -1.
    9900012    2    1    2    0    0 -0.53047432382E+01  0.21670956764E+01 -0.43020770915E+02  0.47787270345E+02  0.19999996811E+02 0.  0.
        -12    1    1    2    0    0  0.53047432382E+01 -0.21670956764E+01  0.43020770915E+02  0.43400729655E+02  0.00000000000E+00 0.  1.
         11    1    3    3    0    0  0.80603995407E+00  0.32359688725E+01 -0.21184755664E+02  0.21445630505E+02  0.51100000000E-03 0. -1.
        -11    1    3    3    0    0  0.40693767776E+01 -0.13576008416E+01 -0.88810829908E+01  0.98628871409E+01  0.51100000000E-03 0.  1.
         12    1    3    3    0    0 -0.10180159970E+02  0.28872764552E+00 -0.12954932260E+02  0.16478752699E+02  0.00000000000E+00 0. -1.
</event>
<event>
 7    1  0.4015004E-009  0.4778727E+02  0.7816164E-02  0.1312668E+00
        -11   -1    0    0    0    0  0.00000000000E+00  0.00000000000E+00  0.45593999997E+02  0.45594000000E+02  0.51100000000E-03 0. -1.
         11   -1    0    0    0    0 -0.00000000000E+00 -0.00000000000E+00 -0.45593999997E+02  0.45594000000E+02  0.51100000000E-03 0.  1.
    9900012    2    1    2    0    0 -0.43393729744E+02  0.37671840866E+00  0.68231552566E+00  0.47787271292E+02  0.20000001130E+02 0.  0.
        -12    1    1    2    0    0  0.43393729744E+02 -0.37671840866E+00 -0.68231552566E+00  0.43400728708E+02  0.00000000000E+00 0.  1.
         11    1    3    3    0    0 -0.25520876988E+02 -0.64248226465E+01 -0.39906041023E+01  0.26618009498E+02  0.51100000000E-03 0. -1.
        -11    1    3    3    0    0  0.58706182378E+00  0.78610352191E+00 -0.46484717582E+00  0.10856719072E+01  0.51100000000E-03 0.  1.
         12    1    3    3    0    0 -0.18459914580E+02  0.60154375332E+01  0.51377668038E+01  0.20083589887E+02  0.00000000000E+00 0. -1.
</event>
<event>
 7    1  0.3837332E-009  0.4778727E+02  0.7816164E-02  0.1312668E+00
        -11   -1    0    0    0    0  0.00000000000E+00  0.00000000000E+00  0.45593999997E+02  0.45594000000E+02  0.51100000000E-03 0. -1.
         11   -1    0    0    0    0 -0.00000000000E+00 -0.00000000000E+00 -0.45593999997E+02  0.45594000000E+02  0.51100000000E-03 0.  1.
    9900012    2    1    2    0    0  0.34487578452E+02  0.49464952585E+01  0.25879768663E+02  0.47787270641E+02  0.19999998162E+02 0.  0.
        -12    1    1    2    0    0 -0.34487578452E+02 -0.49464952585E+01 -0.25879768663E+02  0.43400729359E+02  0.00000000000E+00 0.  1.
         11    1    3    3    0    0  0.15374340846E+02  0.13215912818E+01  0.69520599884E+01  0.16924777644E+02  0.51100000000E-03 0. -1.
        -11    1    3    3    0    0  0.93420160677E+01  0.89139832503E+01  0.75415304245E+01  0.14953496013E+02  0.51100000000E-03 0.  1.
        -12    1    3    3    0    0  0.97712215382E+01 -0.52890792735E+01  0.11386178250E+02  0.15908996984E+02  0.00000000000E+00 0.  1.
</event>
<event>
 7    1  0.3837332E-009  0.4778728E+02  0.7816164E-02  0.1312668E+00
        -11   -1    0    0    0    0  0.00000000000E+00  0.00000000000E+00  0.45593999997E+02  0.45594000000E+02  0.51100000000E-03 0. -1.
         11   -1    0    0    0    0 -0.00000000000E+00 -0.00000000000E+00 -0.45593999997E+02  0.45594000000E+02  0.51100000000E-03 0.  1.
    9900012    2    1    2    0    0 -0.28524956759E+02 -0.28149001919E+01  0.32588735846E+02  0.47787279669E+02  0.20000039323E+02 0.  0.
        -12    1    1    2    0    0  0.28524956759E+02  0.28149001919E+01 -0.32588735846E+02  0.43400720331E+02  0.00000000000E+00 0.  1.
         11    1    3    3    0    0 -0.18159140379E+02  0.11520516611E+01  0.16563400777E+02  0.24605443461E+02  0.51100000000E-03 0. -1.
        -11    1    3    3    0    0 -0.68753944674E+01  0.23489756548E+01  0.13858040356E+02  0.15647172859E+02  0.51100000000E-03 0.  1.
        -12    1    3    3    0    0 -0.34904219124E+01 -0.63159275078E+01  0.21672947127E+01  0.75346633490E+01  0.00000000000E+00 0.  1.
</event>
<event>
 7    1  0.3837332E-009  0.4778727E+02  0.7816164E-02  0.1312668E+00
        -11   -1    0    0    0    0  0.00000000000E+00  0.00000000000E+00  0.45593999997E+02  0.45594000000E+02  0.51100000000E-03 0.  1.
         11   -1    0    0    0    0 -0.00000000000E+00 -0.00000000000E+00 -0.45593999997E+02  0.45594000000E+02  0.51100000000E-03 0. -1.
    9900012    2    1    2    0    0 -0.39963036844E+02  0.15959206348E+02  0.56464708873E+01  0.47787271729E+02  0.20000003120E+02 0.  0.
        -12    1    1    2    0    0  0.39963036844E+02 -0.15959206348E+02 -0.56464708873E+01  0.43400728271E+02  0.00000000000E+00 0.  1.
         11    1    3    3    0    0 -0.94176897210E+01  0.47095248668E+01 -0.20562711237E+01  0.10728502009E+02  0.51100000000E-03 0. -1.
        -11    1    3    3    0    0 -0.13787885827E+02  0.12585829346E+02  0.78393347021E+01  0.20247569354E+02  0.51100000000E-03 0.  1.
        -12    1    3    3    0    0 -0.16757461295E+02 -0.13361478654E+01 -0.13659269112E+00  0.16811200366E+02  0.00000000000E+00 0.  1.
</event>
<event>
 7    1  0.3837332E-009  0.4778727E+02  0.7816164E-02  0.1312668E+00
        -11   -1    0    0    0    0  0.00000000000E+00  0.00000000000E+00  0.45593999997E+02  0.45594000000E+02  0.51100000000E-03 0. -1.
         11   -1    0    0    0    0 -0.00000000000E+00 -0.00000000000E+00 -0.45593999997E+02  0.45594000000E+02  0.51100000000E-03 0.  1.
    9900012    2    1    2    0    0 -0.19662740533E+02  0.16083763100E+02  0.35189664353E+02  0.47787270997E+02  0.19999999784E+02 0.  0.
        -12    1    1    2    0    0  0.19662740533E+02 -0.16083763100E+02 -0.35189664353E+02  0.43400729003E+02  0.00000000000E+00 0.  1.
         11    1    3    3    0    0 -0.10545691829E+02  0.93707087584E+01  0.28837072623E+02  0.32102936883E+02  0.51100000000E-03 0. -1.
        -11    1    3    3    0    0 -0.43981075460E+01  0.10320513485E+01  0.69344542576E+01  0.82761788335E+01  0.51100000000E-03 0.  1.
        -12    1    3    3    0    0 -0.47189411578E+01  0.56810029928E+01 -0.58186252776E+00  0.74081552803E+01  0.00000000000E+00 0.  1.
</event>
<event>
 7    1  0.3837332E-009  0.4778727E+02  0.7816164E-02  0.1312668E+00
        -11   -1    0    0    0    0  0.00000000000E+00  0.00000000000E+00  0.45593999997E+02  0.45594000000E+02  0.51100000000E-03 0.  1.
         11   -1    0    0    0    0 -0.00000000000E+00 -0.00000000000E+00 -0.45593999997E+02  0.45594000000E+02  0.51100000000E-03 0. -1.
    9900012    2    1    2    0    0 -0.26125820218E+02 -0.32428354210E+02 -0.12225657611E+02  0.47787270249E+02  0.19999996375E+02 0.  0.
        -12    1    1    2    0    0  0.26125820218E+02  0.32428354210E+02  0.12225657611E+02  0.43400729751E+02  0.00000000000E+00 0.  1.
         11    1    3    3    0    0 -0.21394272704E+02 -0.25385811318E+02 -0.11308741980E+02  0.35071954126E+02  0.51100000000E-03 0. -1.
        -11    1    3    3    0    0 -0.40027398049E+01 -0.84864378580E+01 -0.32032225956E+01  0.99147460241E+01  0.51100000000E-03 0.  1.
        -12    1    3    3    0    0 -0.72880770971E+00  0.14438949654E+01  0.22863069641E+01  0.28005700996E+01  0.00000000000E+00 0.  1.
</event>
<event>
 7    1  0.3837332E-009  0.4778727E+02  0.7816164E-02  0.1312668E+00
        -11   -1    0    0    0    0  0.00000000000E+00  0.00000000000E+00  0.45593999997E+02  0.45594000000E+02  0.51100000000E-03 0.  1.
         11   -1    0    0    0    0 -0.00000000000E+00 -0.00000000000E+00 -0.45593999997E+02  0.45594000000E+02  0.51100000000E-03 0. -1.
    9900012    2    1    2    0    0 -0.11649467622E+02 -0.16977153553E+01 -0.41773568349E+02  0.47787270215E+02  0.19999996216E+02 0.  0.
        -12    1    1    2    0    0  0.11649467622E+02  0.16977153553E+01  0.41773568349E+02  0.43400729785E+02  0.00000000000E+00 0.  1.
         11    1    3    3    0    0 -0.99516837460E+00  0.65442796483E+01 -0.44800866583E+01  0.79930678050E+01  0.51100000000E-03 0. -1.
        -11    1    3    3    0    0 -0.40868737839E+01 -0.51512127141E+01 -0.19425340020E+02  0.20508080479E+02  0.51100000000E-03 0.  1.
         12    1    3    3    0    0 -0.65674254631E+01 -0.30907822895E+01 -0.17868141670E+02  0.19286121931E+02  0.00000000000E+00 0. -1.
</event>
<event>
 7    1  0.3837332E-009  0.4778725E+02  0.7816164E-02  0.1312668E+00
        -11   -1    0    0    0    0  0.00000000000E+00  0.00000000000E+00  0.45593999997E+02  0.45594000000E+02  0.51100000000E-03 0.  1.
         11   -1    0    0    0    0 -0.00000000000E+00 -0.00000000000E+00 -0.45593999997E+02  0.45594000000E+02  0.51100000000E-03 0. -1.
    9900012    2    1    2    0    0  0.47131572677E+01  0.25502166751E+00 -0.43143320828E+02  0.47787250933E+02  0.19999908305E+02 0.  0.
        -12    1    1    2    0    0 -0.47131572677E+01 -0.25502166751E+00  0.43143320828E+02  0.43400749067E+02  0.00000000000E+00 0.  1.
         11    1    3    3    0    0 -0.21437151280E-01 -0.20695161532E-01  0.16932974984E+01  0.16935597186E+01  0.51100000000E-03 0. -1.
        -11    1    3    3    0    0  0.47250057720E+01 -0.11468484853E+01 -0.90047571795E+01  0.10233601180E+02  0.51100000000E-03 0.  1.
         12    1    3    3    0    0  0.95886470115E-02  0.14225653143E+01 -0.35831861147E+02  0.35860090034E+02  0.00000000000E+00 0. -1.
</event>
<event>
 7    1  0.3837332E-009  0.4778727E+02  0.7816164E-02  0.1312668E+00
        -11   -1    0    0    0    0  0.00000000000E+00  0.00000000000E+00  0.45593999997E+02  0.45594000000E+02  0.51100000000E-03 0.  1.
         11   -1    0    0    0    0 -0.00000000000E+00 -0.00000000000E+00 -0.45593999997E+02  0.45594000000E+02  0.51100000000E-03 0. -1.
    9900012    2    1    2    0    0 -0.33629365178E+02  0.41532967871E+01 -0.27118983544E+02  0.47787270226E+02  0.19999996268E+02 0.  0.
        -12    1    1    2    0    0  0.33629365178E+02 -0.41532967871E+01  0.27118983544E+02  0.43400729774E+02  0.00000000000E+00 0.  1.
         11    1    3    3    0    0 -0.86493848854E+01 -0.17716268687E+01 -0.28722088001E+01  0.92844011283E+01  0.51100000000E-03 0. -1.
        -11    1    3    3    0    0 -0.20161791929E+02 -0.76066266624E+00 -0.11213679218E+02  0.23082960455E+02  0.51100000000E-03 0.  1.
        -12    1    3    3    0    0 -0.48181883632E+01  0.66855863221E+01 -0.13033095526E+02  0.15419908643E+02  0.00000000000E+00 0.  1.
</event>
<event>
 7    1  0.3837332E-009  0.4778727E+02  0.7816164E-02  0.1312668E+00
        -11   -1    0    0    0    0  0.00000000000E+00  0.00000000000E+00  0.45593999997E+02  0.45594000000E+02  0.51100000000E-03 0.  1.
         11   -1    0    0    0    0 -0.00000000000E+00 -0.00000000000E+00 -0.45593999997E+02  0.45594000000E+02  0.51100000000E-03 0. -1.
    9900012    2    1    2    0    0 -0.20585672913E+02 -0.29466838152E+02 -0.24321975730E+02  0.47787274391E+02  0.20000015259E+02 0.  0.
        -12    1    1    2    0    0  0.20585672913E+02  0.29466838152E+02  0.24321975730E+02  0.43400725609E+02  0.00000000000E+00 0.  1.
         11    1    3    3    0    0 -0.56118482193E+01 -0.57176573537E+01  0.45535159060E+00  0.80244496000E+01  0.51100000000E-03 0. -1.
        -11    1    3    3    0    0 -0.54547040491E+01 -0.73245568134E+01 -0.78172633405E+00  0.91659164899E+01  0.51100000000E-03 0.  1.
         12    1    3    3    0    0 -0.95191206449E+01 -0.16424623985E+02 -0.23995600986E+02  0.30596908301E+02  0.00000000000E+00 0. -1.
</event>
<event>
 7    1  0.3837332E-009  0.4778728E+02  0.7816164E-02  0.1312668E+00
        -11   -1    0    0    0    0  0.00000000000E+00  0.00000000000E+00  0.45593999997E+02  0.45594000000E+02  0.51100000000E-03 0.  1.
         11   -1    0    0    0    0 -0.00000000000E+00 -0.00000000000E+00 -0.45593999997E+02  0.45594000000E+02  0.51100000000E-03 0. -1.
    9900012    2    1    2    0    0 -0.14577625483E+02  0.20438280358E+02 -0.35403278746E+02  0.47787278639E+02  0.20000034625E+02 0.  0.
        -12    1    1    2    0    0  0.14577625483E+02 -0.20438280358E+02  0.35403278746E+02  0.43400721361E+02  0.00000000000E+00 0.  1.
         11    1    3    3    0    0 -0.48228623180E+01  0.97254391215E+01 -0.17669760464E+02  0.20737998991E+02  0.51100000000E-03 0. -1.
        -11    1    3    3    0    0 -0.90964412719E+01  0.13293251045E+02 -0.10216302960E+02  0.19074291955E+02  0.51100000000E-03 0.  1.
        -12    1    3    3    0    0 -0.65832189299E+00 -0.25804098083E+01 -0.75172153224E+01  0.79749876926E+01  0.00000000000E+00 0.  1.
</event>
<event>
 7    1  0.3837332E-009  0.4778727E+02  0.7816164E-02  0.1312668E+00
        -11   -1    0    0    0    0  0.00000000000E+00  0.00000000000E+00  0.45593999997E+02  0.45594000000E+02  0.51100000000E-03 0.  1.
         11   -1    0    0    0    0 -0.00000000000E+00 -0.00000000000E+00 -0.45593999997E+02  0.45594000000E+02  0.51100000000E-03 0. -1.
    9900012    2    1    2    0    0  0.33846749783E+02  0.26569314703E+02 -0.56650139104E+01  0.47787270314E+02  0.19999996671E+02 0.  0.
        -12    1    1    2    0    0 -0.33846749783E+02 -0.26569314703E+02  0.56650139104E+01  0.43400729686E+02  0.00000000000E+00 0.  1.
         11    1    3    3    0    0  0.16151391368E+02  0.39542622952E+01 -0.91322437401E+00  0.16653456471E+02  0.51100000000E-03 0. -1.
        -11    1    3    3    0    0  0.89048214773E+01  0.95881963059E+01  0.32723657149E+01  0.13488429544E+02  0.51100000000E-03 0.  1.
         12    1    3    3    0    0  0.87905369372E+01  0.13026856102E+02 -0.80241552513E+01  0.17645384299E+02  0.00000000000E+00 0. -1.
</event>
<event>
 7    1  0.3837332E-009  0.4778727E+02  0.7816164E-02  0.1312668E+00
        -11   -1    0    0    0    0  0.00000000000E+00  0.00000000000E+00  0.45593999997E+02  0.45594000000E+02  0.51100000000E-03 0. -1.
         11   -1    0    0    0    0 -0.00000000000E+00 -0.00000000000E+00 -0.45593999997E+02  0.45594000000E+02  0.51100000000E-03 0.  1.
    9900012    2    1    2    0    0  0.14921379337E+02  0.10840035049E+02  0.39287014865E+02  0.47787268921E+02  0.19999990318E+02 0.  0.
        -12    1    1    2    0    0 -0.14921379337E+02 -0.10840035049E+02 -0.39287014865E+02  0.43400731079E+02  0.00000000000E+00 0.  1.
         11    1    3    3    0    0  0.56893292157E+01  0.40295176571E+01  0.80139273017E+01  0.10622076564E+02  0.51100000000E-03 0. -1.
        -11    1    3    3    0    0  0.19314223218E+01  0.77675336996E+01  0.40625521096E+01  0.89760404335E+01  0.51100000000E-03 0.  1.
         12    1    3    3    0    0  0.73006277997E+01 -0.95701630764E+00  0.27210535454E+02  0.28189151923E+02  0.00000000000E+00 0. -1.
</event>
<event>
 7    1  0.3837332E-009  0.4778726E+02  0.7816164E-02  0.1312668E+00
        -11   -1    0    0    0    0  0.00000000000E+00  0.00000000000E+00  0.45593999997E+02  0.45594000000E+02  0.51100000000E-03 0.  1.
         11   -1    0    0    0    0 -0.00000000000E+00 -0.00000000000E+00 -0.45593999997E+02  0.45594000000E+02  0.51100000000E-03 0. -1.
    9900012    2    1    2    0    0 -0.35307158060E+02  0.23541293722E+02 -0.91014295540E+01  0.47787263367E+02  0.19999964996E+02 0.  0.
        -12    1    1    2    0    0  0.35307158060E+02 -0.23541293722E+02  0.91014295540E+01  0.43400736633E+02  0.00000000000E+00 0.  1.
         11    1    3    3    0    0 -0.70091223095E+01  0.62546790225E+01 -0.70029549640E+01  0.11717089387E+02  0.51100000000E-03 0. -1.
        -11    1    3    3    0    0 -0.23565491486E+02  0.12785637099E+02 -0.72254039696E+01  0.27767091453E+02  0.51100000000E-03 0.  1.
        -12    1    3    3    0    0 -0.47325442646E+01  0.45009776007E+01  0.51269293795E+01  0.83030825265E+01  0.00000000000E+00 0.  1.
</event>
<event>
 7    1  0.3837332E-009  0.4778727E+02  0.7816164E-02  0.1312668E+00
        -11   -1    0    0    0    0  0.00000000000E+00  0.00000000000E+00  0.45593999997E+02  0.45594000000E+02  0.51100000000E-03 0.  1.
         11   -1    0    0    0    0 -0.00000000000E+00 -0.00000000000E+00 -0.45593999997E+02  0.45594000000E+02  0.51100000000E-03 0. -1.
    9900012    2    1    2    0    0  0.11387048697E+02 -0.61432525199E+01 -0.41427270388E+02  0.47787272341E+02  0.20000005913E+02 0.  0.
        -12    1    1    2    0    0 -0.11387048697E+02  0.61432525199E+01  0.41427270388E+02  0.43400727659E+02  0.00000000000E+00 0.  1.
         11    1    3    3    0    0  0.12507806604E+01 -0.54025072789E+01 -0.21713410955E+02  0.22410349232E+02  0.51100000000E-03 0. -1.
        -11    1    3    3    0    0 -0.22709260169E+01 -0.25741885087E+01 -0.39767029082E+01  0.52533529992E+01  0.51100000000E-03 0.  1.
        -12    1    3    3    0    0  0.12407194053E+02  0.18334432678E+01 -0.15737156525E+02  0.20123570110E+02  0.00000000000E+00 0.  1.
</event>
<event>
 7    1  0.3837332E-009  0.4778727E+02  0.7816164E-02  0.1312668E+00
        -11   -1    0    0    0    0  0.00000000000E+00  0.00000000000E+00  0.45593999997E+02  0.45594000000E+02  0.51100000000E-03 0. -1.
         11   -1    0    0    0    0 -0.00000000000E+00 -0.00000000000E+00 -0.45593999997E+02  0.45594000000E+02  0.51100000000E-03 0.  1.
    9900012    2    1    2    0    0 -0.26862916117E+02  0.32667561469E+02 -0.97384603971E+01  0.47787269067E+02  0.19999990983E+02 0.  0.
        -12    1    1    2    0    0  0.26862916117E+02 -0.32667561469E+02  0.97384603971E+01  0.43400730933E+02  0.00000000000E+00 0.  1.
         11    1    3    3    0    0 -0.40932838286E+01  0.72969222387E+01 -0.28747462807E+01  0.88467063419E+01  0.51100000000E-03 0. -1.
        -11    1    3    3    0    0 -0.66472655203E+01 -0.15960233468E+01 -0.21758800141E+01  0.71741120369E+01  0.51100000000E-03 0.  1.
        -12    1    3    3    0    0 -0.16122366768E+02  0.26966662577E+02 -0.46878341023E+01  0.31766450688E+02  0.00000000000E+00 0.  1.
</event>
<event>
 7    1  0.3837332E-009  0.4778727E+02  0.7816164E-02  0.1312668E+00
        -11   -1    0    0    0    0  0.00000000000E+00  0.00000000000E+00  0.45593999997E+02  0.45594000000E+02  0.51100000000E-03 0. -1.
         11   -1    0    0    0    0 -0.00000000000E+00 -0.00000000000E+00 -0.45593999997E+02  0.45594000000E+02  0.51100000000E-03 0.  1.
    9900012    2    1    2    0    0 -0.41280448089E+02  0.88468417924E+01  0.10063859862E+02  0.47787270980E+02  0.19999999708E+02 0.  0.
        -12    1    1    2    0    0  0.41280448089E+02 -0.88468417924E+01 -0.10063859862E+02  0.43400729020E+02  0.00000000000E+00 0.  1.
         11    1    3    3    0    0 -0.42232524485E+01  0.31617820529E+01 -0.27320943058E+01  0.59411334399E+01  0.51100000000E-03 0. -1.
        -11    1    3    3    0    0  0.40848523862E+00 -0.11757687697E+00 -0.13233607920E+01  0.13899527183E+01  0.51100000000E-03 0.  1.
         12    1    3    3    0    0 -0.37465680879E+02  0.58026366164E+01  0.14119314959E+02  0.40456184822E+02  0.00000000000E+00 0. -1.
</event>
<event>
 7    1  0.3837332E-009  0.4778727E+02  0.7816164E-02  0.1312668E+00
        -11   -1    0    0    0    0  0.00000000000E+00  0.00000000000E+00  0.45593999997E+02  0.45594000000E+02  0.51100000000E-03 0.  1.
         11   -1    0    0    0    0 -0.00000000000E+00 -0.00000000000E+00 -0.45593999997E+02  0.45594000000E+02  0.51100000000E-03 0. -1.
    9900012    2    1    2    0    0 -0.43081263759E+01  0.39688465184E+02 -0.17026128859E+02  0.47787270911E+02  0.19999999393E+02 0.  0.
        -12    1    1    2    0    0  0.43081263759E+01 -0.39688465184E+02  0.17026128859E+02  0.43400729089E+02  0.00000000000E+00 0.  1.
         11    1    3    3    0    0  0.42858070007E+00  0.34701391610E+02 -0.16722280308E+02  0.38522784428E+02  0.51100000000E-03 0. -1.
        -11    1    3    3    0    0  0.14811665375E+01  0.15271117837E+01 -0.30220349046E+00  0.21487791703E+01  0.51100000000E-03 0.  1.
        -12    1    3    3    0    0 -0.62178736135E+01  0.34599617898E+01 -0.16450604975E-02  0.71157073131E+01  0.00000000000E+00 0.  1.
</event>
<event>
 7    1  0.3837332E-009  0.4778727E+02  0.7816164E-02  0.1312668E+00
        -11   -1    0    0    0    0  0.00000000000E+00  0.00000000000E+00  0.45593999997E+02  0.45594000000E+02  0.51100000000E-03 0. -1.
         11   -1    0    0    0    0 -0.00000000000E+00 -0.00000000000E+00 -0.45593999997E+02  0.45594000000E+02  0.51100000000E-03 0.  1.
    9900012    2    1    2    0    0 -0.36031702716E+02  0.24189888603E+02  0.43464440432E+00  0.47787271585E+02  0.20000002464E+02 0.  0.
        -12    1    1    2    0    0  0.36031702716E+02 -0.24189888603E+02 -0.43464440432E+00  0.43400728415E+02  0.00000000000E+00 0.  1.
         11    1    3    3    0    0 -0.54585142940E+01  0.99365886306E+01 -0.69968677271E+00  0.11358729408E+02  0.51100000000E-03 0. -1.
        -11    1    3    3    0    0 -0.13976171668E+02  0.47019785285E+01 -0.61008720535E+01  0.15958152044E+02  0.51100000000E-03 0.  1.
        -12    1    3    3    0    0 -0.16597016753E+02  0.95513214438E+01  0.72352032306E+01  0.20470390133E+02  0.00000000000E+00 0.  1.
</event>
<event>
 7    1  0.3837332E-009  0.4778727E+02  0.7816164E-02  0.1312668E+00
        -11   -1    0    0    0    0  0.00000000000E+00  0.00000000000E+00  0.45593999997E+02  0.45594000000E+02  0.51100000000E-03 0. -1.
         11   -1    0    0    0    0 -0.00000000000E+00 -0.00000000000E+00 -0.45593999997E+02  0.45594000000E+02  0.51100000000E-03 0.  1.
    9900012    2    1    2    0    0  0.39833820543E+02 -0.17185643743E+02  0.12424636932E+01  0.47787270445E+02  0.19999997265E+02 0.  0.
        -12    1    1    2    0    0 -0.39833820543E+02  0.17185643743E+02 -0.12424636932E+01  0.43400729555E+02  0.00000000000E+00 0.  1.
         11    1    3    3    0    0  0.24481926937E+02 -0.52098017311E+01 -0.39891206849E+01  0.25346002934E+02  0.51100000000E-03 0. -1.
        -11    1    3    3    0    0  0.74346274666E+01 -0.31149412626E+01 -0.22879161657E+01  0.83792067214E+01  0.51100000000E-03 0.  1.
         12    1    3    3    0    0  0.79172661395E+01 -0.88609007491E+01  0.75195005438E+01  0.14062060789E+02  0.00000000000E+00 0. -1.
</event>
<event>
 7    1  0.3837332E-009  0.4778727E+02  0.7816164E-02  0.1312668E+00
        -11   -1    0    0    0    0  0.00000000000E+00  0.00000000000E+00  0.45593999997E+02  0.45594000000E+02  0.51100000000E-03 0.  1.
         11   -1    0    0    0    0 -0.00000000000E+00 -0.00000000000E+00 -0.45593999997E+02  0.45594000000E+02  0.51100000000E-03 0. -1.
    9900012    2    1    2    0    0  0.27147687769E+02  0.32488701286E+02 -0.95451960788E+01  0.47787269239E+02  0.19999991767E+02 0.  0.
        -12    1    1    2    0    0 -0.27147687769E+02 -0.32488701286E+02  0.95451960788E+01  0.43400730761E+02  0.00000000000E+00 0.  1.
         11    1    3    3    0    0  0.11659758805E+02  0.11685379158E+02 -0.55431321955E+01  0.17413339033E+02  0.51100000000E-03 0. -1.
        -11    1    3    3    0    0  0.18259073783E+02  0.17279721273E+02 -0.13721647577E+01  0.25176683242E+02  0.51100000000E-03 0.  1.
         12    1    3    3    0    0 -0.27711448196E+01  0.35236008549E+01 -0.26298991256E+01  0.51972469641E+01  0.00000000000E+00 0. -1.
</event>
<event>
 7    1  0.3837332E-009  0.4778728E+02  0.7816164E-02  0.1312668E+00
        -11   -1    0    0    0    0  0.00000000000E+00  0.00000000000E+00  0.45593999997E+02  0.45594000000E+02  0.51100000000E-03 0.  1.
         11   -1    0    0    0    0 -0.00000000000E+00 -0.00000000000E+00 -0.45593999997E+02  0.45594000000E+02  0.51100000000E-03 0. -1.
    9900012    2    1    2    0    0 -0.97841294947E+01 -0.11448279469E+02 -0.40704174583E+02  0.47787284323E+02  0.20000060544E+02 0.  0.
        -12    1    1    2    0    0  0.97841294947E+01  0.11448279469E+02  0.40704174583E+02  0.43400715677E+02  0.00000000000E+00 0.  1.
         11    1    3    3    0    0 -0.71220411858E+01 -0.78702555036E+00 -0.18317122013E+02  0.19668752858E+02  0.51100000000E-03 0. -1.
        -11    1    3    3    0    0 -0.79086521094E+01 -0.74052412698E+01 -0.14575031478E+02  0.18160834763E+02  0.51100000000E-03 0.  1.
        -12    1    3    3    0    0  0.52465638005E+01 -0.32560126492E+01 -0.78120210919E+01  0.99576967028E+01  0.00000000000E+00 0.  1.
</event>
<event>
 7    1  0.3837332E-009  0.4778727E+02  0.7816164E-02  0.1312668E+00
        -11   -1    0    0    0    0  0.00000000000E+00  0.00000000000E+00  0.45593999997E+02  0.45594000000E+02  0.51100000000E-03 0. -1.
         11   -1    0    0    0    0 -0.00000000000E+00 -0.00000000000E+00 -0.45593999997E+02  0.45594000000E+02  0.51100000000E-03 0.  1.
    9900012    2    1    2    0    0 -0.62712397979E+01 -0.42728273163E+02  0.43115281340E+01  0.47787273613E+02  0.20000011710E+02 0.  0.
        -12    1    1    2    0    0  0.62712397979E+01  0.42728273163E+02 -0.43115281340E+01  0.43400726387E+02  0.00000000000E+00 0.  1.
         11    1    3    3    0    0 -0.72232780323E+00 -0.14345668468E+02  0.54766994479E+01  0.15372514379E+02  0.51100000000E-03 0. -1.
        -11    1    3    3    0    0 -0.10526455097E+02 -0.19875555041E+02 -0.94768782195E-02  0.22490976749E+02  0.51100000000E-03 0.  1.
         12    1    3    3    0    0  0.49775431019E+01 -0.85070496548E+01 -0.11556944356E+01  0.99237824839E+01  0.00000000000E+00 0. -1.
</event>
<event>
 7    1  0.3837332E-009  0.4778728E+02  0.7816164E-02  0.1312668E+00
        -11   -1    0    0    0    0  0.00000000000E+00  0.00000000000E+00  0.45593999997E+02  0.45594000000E+02  0.51100000000E-03 0.  1.
         11   -1    0    0    0    0 -0.00000000000E+00 -0.00000000000E+00 -0.45593999997E+02  0.45594000000E+02  0.51100000000E-03 0. -1.
    9900012    2    1    2    0    0  0.11453356563E+02  0.28527958565E+01 -0.41764870549E+02  0.47787283039E+02  0.20000054690E+02 0.  0.
        -12    1    1    2    0    0 -0.11453356563E+02 -0.28527958565E+01  0.41764870549E+02  0.43400716961E+02  0.00000000000E+00 0.  1.
         11    1    3    3    0    0  0.23781460177E+01  0.39138617772E+01 -0.26580440016E+02  0.26972090839E+02  0.51100000000E-03 0. -1.
        -11    1    3    3    0    0  0.55607443219E+01  0.73713302387E+00 -0.15848535725E+02  0.16811940025E+02  0.51100000000E-03 0.  1.
        -12    1    3    3    0    0  0.35144662232E+01 -0.17981989445E+01  0.66410519251E+00  0.40032521760E+01  0.00000000000E+00 0.  1.
</event>
<event>
 7    1  0.3837332E-009  0.4778727E+02  0.7816164E-02  0.1312668E+00
        -11   -1    0    0    0    0  0.00000000000E+00  0.00000000000E+00  0.45593999997E+02  0.45594000000E+02  0.51100000000E-03 0. -1.
         11   -1    0    0    0    0 -0.00000000000E+00 -0.00000000000E+00 -0.45593999997E+02  0.45594000000E+02  0.51100000000E-03 0.  1.
    9900012    2    1    2    0    0 -0.19388096512E+02 -0.36527880078E+02  0.13169622156E+02  0.47787271238E+02  0.20000000882E+02 0.  0.
        -12    1    1    2    0    0  0.19388096512E+02  0.36527880078E+02 -0.13169622156E+02  0.43400728762E+02  0.00000000000E+00 0.  1.
         11    1    3    3    0    0 -0.12915424363E+02 -0.23505563248E+02  0.13383362609E+02  0.29973890055E+02  0.51100000000E-03 0. -1.
        -11    1    3    3    0    0  0.23833023511E+01 -0.11192915874E+01  0.12319439616E+01  0.29069967217E+01  0.51100000000E-03 0.  1.
        -12    1    3    3    0    0 -0.88559744999E+01 -0.11903025243E+02 -0.14456844141E+01  0.14906384461E+02  0.00000000000E+00 0.  1.
</event>
<event>
 7    1  0.3837332E-009  0.4778728E+02  0.7816164E-02  0.1312668E+00
        -11   -1    0    0    0    0  0.00000000000E+00  0.00000000000E+00  0.45593999997E+02  0.45594000000E+02  0.51100000000E-03 0.  1.
         11   -1    0    0    0    0 -0.00000000000E+00 -0.00000000000E+00 -0.45593999997E+02  0.45594000000E+02  0.51100000000E-03 0. -1.
    9900012    2    1    2    0    0  0.80274456300E+01  0.40151370042E+02 -0.14389240311E+02  0.47787278390E+02  0.20000033491E+02 0.  0.
        -12    1    1    2    0    0 -0.80274456300E+01 -0.40151370042E+02  0.14389240311E+02  0.43400721610E+02  0.00000000000E+00 0.  1.
         11    1    3    3    0    0  0.39706185535E+01  0.81796414972E+01 -0.36719683407E+01  0.98059012067E+01  0.51100000000E-03 0. -1.
        -11    1    3    3    0    0  0.93618531073E+01  0.13112374431E+02 -0.86355308143E+01  0.18279798946E+02  0.51100000000E-03 0.  1.
         12    1    3    3    0    0 -0.53050260308E+01  0.18859354114E+02 -0.20817411556E+01  0.19701578237E+02  0.00000000000E+00 0. -1.
</event>
<event>
 7    1  0.3837332E-009  0.4778727E+02  0.7816164E-02  0.1312668E+00
        -11   -1    0    0    0    0  0.00000000000E+00  0.00000000000E+00  0.45593999997E+02  0.45594000000E+02  0.51100000000E-03 0. -1.
         11   -1    0    0    0    0 -0.00000000000E+00 -0.00000000000E+00 -0.45593999997E+02  0.45594000000E+02  0.51100000000E-03 0.  1.
    9900012    2    1    2    0    0  0.20832301898E+02 -0.15115598571E+02  0.34945058934E+02  0.47787271130E+02  0.20000000390E+02 0.  0.
        -12    1    1    2    0    0 -0.20832301898E+02  0.15115598571E+02 -0.34945058934E+02  0.43400728870E+02  0.00000000000E+00 0.  1.
         11    1    3    3    0    0  0.22341100414E+02 -0.88467755188E+01  0.21942232359E+02  0.32540002550E+02  0.51100000000E-03 0. -1.
        -11    1    3    3    0    0  0.11403674420E+01 -0.41264133336E+01  0.52175157022E+01  0.67490884767E+01  0.51100000000E-03 0.  1.
         12    1    3    3    0    0 -0.26491659582E+01 -0.21424097191E+01  0.77853108726E+01  0.84981801029E+01  0.00000000000E+00 0. -1.
</event>
<event>
 7    1  0.3837332E-009  0.4778727E+02  0.7816164E-02  0.1312668E+00
        -11   -1    0    0    0    0  0.00000000000E+00  0.00000000000E+00  0.45593999997E+02  0.45594000000E+02  0.51100000000E-03 0.  1.
         11   -1    0    0    0    0 -0.00000000000E+00 -0.00000000000E+00 -0.45593999997E+02  0.45594000000E+02  0.51100000000E-03 0. -1.
    9900012    2    1    2    0    0  0.41440140693E+01 -0.34949545657E+02 -0.25396450214E+02  0.47787271000E+02  0.19999999796E+02 0.  0.
        -12    1    1    2    0    0 -0.41440140693E+01  0.34949545657E+02  0.25396450214E+02  0.43400729000E+02  0.00000000000E+00 0.  1.
         11    1    3    3    0    0  0.90312874914E+00 -0.57485282619E+00 -0.70003829379E+01  0.70817694715E+01  0.51100000000E-03 0. -1.
        -11    1    3    3    0    0  0.54632381580E+01 -0.87582467458E+01 -0.30594236283E+01  0.10766333193E+02  0.51100000000E-03 0.  1.
         12    1    3    3    0    0 -0.22223528378E+01 -0.25616446085E+02 -0.15336643648E+02  0.29939168335E+02  0.00000000000E+00 0. -1.
</event>
<event>
 7    1  0.3837332E-009  0.4778728E+02  0.7816164E-02  0.1312668E+00
        -11   -1    0    0    0    0  0.00000000000E+00  0.00000000000E+00  0.45593999997E+02  0.45594000000E+02  0.51100000000E-03 0.  1.
         11   -1    0    0    0    0 -0.00000000000E+00 -0.00000000000E+00 -0.45593999997E+02  0.45594000000E+02  0.51100000000E-03 0. -1.
    9900012    2    1    2    0    0 -0.29103587929E+02  0.19897545101E+02 -0.25311889447E+02  0.47787275596E+02  0.20000020754E+02 0.  0.
        -12    1    1    2    0    0  0.29103587929E+02 -0.19897545101E+02  0.25311889447E+02  0.43400724404E+02  0.00000000000E+00 0.  1.
         11    1    3    3    0    0 -0.67555113373E+01  0.34649245252E+01  0.19983297524E+00  0.75949041385E+01  0.51100000000E-03 0. -1.
        -11    1    3    3    0    0 -0.14856495677E+02  0.23331283235E+01 -0.13547301678E+02  0.20240759239E+02  0.51100000000E-03 0.  1.
         12    1    3    3    0    0 -0.74915809148E+01  0.14099492252E+02 -0.11964420744E+02  0.19951612218E+02  0.00000000000E+00 0. -1.
</event>
<event>
 7    1  0.3837332E-009  0.4778727E+02  0.7816164E-02  0.1312668E+00
        -11   -1    0    0    0    0  0.00000000000E+00  0.00000000000E+00  0.45593999997E+02  0.45594000000E+02  0.51100000000E-03 0. -1.
         11   -1    0    0    0    0 -0.00000000000E+00 -0.00000000000E+00 -0.45593999997E+02  0.45594000000E+02  0.51100000000E-03 0.  1.
    9900012    2    1    2    0    0 -0.36637792565E+02 -0.21874998977E+02 -0.79233795832E+01  0.47787269957E+02  0.19999995042E+02 0.  0.
        -12    1    1    2    0    0  0.36637792565E+02  0.21874998977E+02  0.79233795832E+01  0.43400730043E+02  0.00000000000E+00 0.  1.
         11    1    3    3    0    0 -0.66705661255E+01 -0.78630614657E+01 -0.64171042598E+00  0.10331310690E+02  0.51100000000E-03 0. -1.
        -11    1    3    3    0    0 -0.30747757399E+01 -0.43822550978E+01  0.40634429524E+01  0.67208611413E+01  0.51100000000E-03 0.  1.
         12    1    3    3    0    0 -0.26892450699E+02 -0.96296824131E+01 -0.11345112110E+02  0.30735098125E+02  0.00000000000E+00 0. -1.
</event>
<event>
 7    1  0.3837332E-009  0.4778727E+02  0.7816164E-02  0.1312668E+00
        -11   -1    0    0    0    0  0.00000000000E+00  0.00000000000E+00  0.45593999997E+02  0.45594000000E+02  0.51100000000E-03 0.  1.
         11   -1    0    0    0    0 -0.00000000000E+00 -0.00000000000E+00 -0.45593999997E+02  0.45594000000E+02  0.51100000000E-03 0. -1.
    9900012    2    1    2    0    0  0.11829305180E+02  0.11104738306E+02 -0.40253886878E+02  0.47787273247E+02  0.20000010044E+02 0.  0.
        -12    1    1    2    0    0 -0.11829305180E+02 -0.11104738306E+02  0.40253886878E+02  0.43400726753E+02  0.00000000000E+00 0.  1.
         11    1    3    3    0    0 -0.11248030033E+01  0.89543855549E+01 -0.14889837772E+02  0.17411302984E+02  0.51100000000E-03 0.  1.
        -11    1    3    3    0    0  0.75246906251E+01  0.42849809371E+01 -0.21997161656E+02  0.23640159725E+02  0.51100000000E-03 0. -1.
        -12    1    3    3    0    0  0.54294175578E+01 -0.21346281862E+01 -0.33668874495E+01  0.67358105383E+01  0.00000000000E+00 0.  1.
</event>
<event>
 7    1  0.3837332E-009  0.4778727E+02  0.7816164E-02  0.1312668E+00
        -11   -1    0    0    0    0  0.00000000000E+00  0.00000000000E+00  0.45593999997E+02  0.45594000000E+02  0.51100000000E-03 0. -1.
         11   -1    0    0    0    0 -0.00000000000E+00 -0.00000000000E+00 -0.45593999997E+02  0.45594000000E+02  0.51100000000E-03 0.  1.
    9900012    2    1    2    0    0 -0.33371187546E+02  0.26921639665E+02 -0.67240060224E+01  0.47787273077E+02  0.20000009266E+02 0.  0.
        -12    1    1    2    0    0  0.33371187546E+02 -0.26921639665E+02  0.67240060224E+01  0.43400726923E+02  0.00000000000E+00 0.  1.
         11    1    3    3    0    0 -0.13873059084E+00  0.22924457849E+01 -0.40678788965E+01  0.46714229985E+01  0.51100000000E-03 0. -1.
        -11    1    3    3    0    0 -0.42320668069E+00  0.31544009547E+01  0.17911193707E+01  0.36520484853E+01  0.51100000000E-03 0.  1.
         12    1    3    3    0    0 -0.32809250274E+02  0.21474792926E+02 -0.44472464967E+01  0.39463801593E+02  0.00000000000E+00 0. -1.
</event>
<event>
 7    1  0.3837332E-009  0.4778727E+02  0.7816164E-02  0.1312668E+00
        -11   -1    0    0    0    0  0.00000000000E+00  0.00000000000E+00  0.45593999997E+02  0.45594000000E+02  0.51100000000E-03 0.  1.
         11   -1    0    0    0    0 -0.00000000000E+00 -0.00000000000E+00 -0.45593999997E+02  0.45594000000E+02  0.51100000000E-03 0. -1.
    9900012    2    1    2    0    0 -0.32346800130E+02 -0.14522842891E+02 -0.25027879714E+02  0.47787271812E+02  0.20000003499E+02 0.  0.
        -12    1    1    2    0    0  0.32346800130E+02  0.14522842891E+02  0.25027879714E+02  0.43400728188E+02  0.00000000000E+00 0.  1.
         11    1    3    3    0    0 -0.74827601098E+01 -0.34443429703E+01 -0.28757346045E+01  0.87249668845E+01  0.51100000000E-03 0. -1.
        -11    1    3    3    0    0 -0.34767476618E+01 -0.55766338869E+01  0.14605896819E+01  0.67320087858E+01  0.51100000000E-03 0.  1.
         12    1    3    3    0    0 -0.21387292358E+02 -0.55018660343E+01 -0.23612734791E+02  0.32330296142E+02  0.00000000000E+00 0. -1.
</event>
<event>
 7    1  0.3837332E-009  0.4778728E+02  0.7816164E-02  0.1312668E+00
        -11   -1    0    0    0    0  0.00000000000E+00  0.00000000000E+00  0.45593999997E+02  0.45594000000E+02  0.51100000000E-03 0.  1.
         11   -1    0    0    0    0 -0.00000000000E+00 -0.00000000000E+00 -0.45593999997E+02  0.45594000000E+02  0.51100000000E-03 0. -1.
    9900012    2    1    2    0    0  0.25886935474E+02 -0.29310473215E+02 -0.18825117111E+02  0.47787282235E+02  0.20000051021E+02 0.  0.
        -12    1    1    2    0    0 -0.25886935474E+02  0.29310473215E+02  0.18825117111E+02  0.43400717765E+02  0.00000000000E+00 0.  1.
         11    1    3    3    0    0  0.26049498977E+01 -0.62903698928E+01 -0.11301374430E+01  0.69015743319E+01  0.51100000000E-03 0. -1.
        -11    1    3    3    0    0  0.13120829449E+02 -0.17381713093E+02 -0.27446940626E+01  0.21950249686E+02  0.51100000000E-03 0.  1.
        -12    1    3    3    0    0  0.10161156127E+02 -0.56383902284E+01 -0.14950285606E+02  0.18935458217E+02  0.00000000000E+00 0.  1.
</event>
<event>
 7    1  0.3837332E-009  0.4778728E+02  0.7816164E-02  0.1312668E+00
        -11   -1    0    0    0    0  0.00000000000E+00  0.00000000000E+00  0.45593999997E+02  0.45594000000E+02  0.51100000000E-03 0.  1.
         11   -1    0    0    0    0 -0.00000000000E+00 -0.00000000000E+00 -0.45593999997E+02  0.45594000000E+02  0.51100000000E-03 0. -1.
    9900012    2    1    2    0    0 -0.83749281821E+00 -0.42895666108E+02 -0.65485271062E+01  0.47787276822E+02  0.20000026344E+02 0.  0.
        -12    1    1    2    0    0  0.83749281821E+00  0.42895666108E+02  0.65485271062E+01  0.43400723178E+02  0.00000000000E+00 0.  1.
         11    1    3    3    0    0 -0.19470269506E+00 -0.41186533922E+01  0.97268796215E+00  0.42364297512E+01  0.51100000000E-03 0. -1.
        -11    1    3    3    0    0  0.74934165249E+01 -0.10067796633E+02 -0.53153996221E+01  0.13629574229E+02  0.51100000000E-03 0.  1.
         12    1    3    3    0    0 -0.81362066481E+01 -0.28709216083E+02 -0.22058154463E+01  0.29921272842E+02  0.00000000000E+00 0. -1.
</event>
<event>
 7    1  0.3837332E-009  0.4778727E+02  0.7816164E-02  0.1312668E+00
        -11   -1    0    0    0    0  0.00000000000E+00  0.00000000000E+00  0.45593999997E+02  0.45594000000E+02  0.51100000000E-03 0. -1.
         11   -1    0    0    0    0 -0.00000000000E+00 -0.00000000000E+00 -0.45593999997E+02  0.45594000000E+02  0.51100000000E-03 0.  1.
    9900012    2    1    2    0    0  0.39980967523E+02  0.76343911576E+01 -0.15061927607E+02  0.47787270102E+02  0.19999995705E+02 0.  0.
        -12    1    1    2    0    0 -0.39980967523E+02 -0.76343911576E+01  0.15061927607E+02  0.43400729898E+02  0.00000000000E+00 0.  1.
         11    1    3    3    0    0  0.23300897879E+02  0.12887245534E+02 -0.87924774120E+01  0.28041408644E+02  0.51100000000E-03 0. -1.
        -11    1    3    3    0    0  0.23104351416E+01  0.10185775616E+01 -0.26391557720E+01  0.36524997252E+01  0.51100000000E-03 0.  1.
         12    1    3    3    0    0  0.14369634502E+02 -0.62714319385E+01 -0.36302944229E+01  0.16093361734E+02  0.00000000000E+00 0. -1.
</event>
<event>
 7    1  0.3837332E-009  0.4778727E+02  0.7816164E-02  0.1312668E+00
        -11   -1    0    0    0    0  0.00000000000E+00  0.00000000000E+00  0.45593999997E+02  0.45594000000E+02  0.51100000000E-03 0.  1.
         11   -1    0    0    0    0 -0.00000000000E+00 -0.00000000000E+00 -0.45593999997E+02  0.45594000000E+02  0.51100000000E-03 0. -1.
    9900012    2    1    2    0    0  0.30839790847E+02 -0.29219800386E+02  0.88732145930E+01  0.47787269922E+02  0.19999994883E+02 0.  0.
        -12    1    1    2    0    0 -0.30839790847E+02  0.29219800386E+02 -0.88732145930E+01  0.43400730078E+02  0.00000000000E+00 0.  1.
         11    1    3    3    0    0  0.24870223220E+02 -0.17996144444E+02  0.10395589958E+02  0.32410762236E+02  0.51100000000E-03 0. -1.
        -11    1    3    3    0    0  0.50482480511E+01 -0.10403025959E+02  0.19183519877E+01  0.11721255568E+02  0.51100000000E-03 0.  1.
         12    1    3    3    0    0  0.92131957525E+00 -0.82062998348E+00 -0.34407273528E+01  0.36552521179E+01  0.00000000000E+00 0. -1.
</event>
<event>
 7    1  0.3837332E-009  0.4778727E+02  0.7816164E-02  0.1312668E+00
        -11   -1    0    0    0    0  0.00000000000E+00  0.00000000000E+00  0.45593999997E+02  0.45594000000E+02  0.51100000000E-03 0.  1.
         11   -1    0    0    0    0 -0.00000000000E+00 -0.00000000000E+00 -0.45593999997E+02  0.45594000000E+02  0.51100000000E-03 0. -1.
    9900012    2    1    2    0    0  0.44944035048E+01 -0.10452818773E+02 -0.41882719772E+02  0.47787270759E+02  0.19999998699E+02 0.  0.
        -12    1    1    2    0    0 -0.44944035048E+01  0.10452818773E+02  0.41882719772E+02  0.43400729241E+02  0.00000000000E+00 0.  1.
         11    1    3    3    0    0 -0.20465751181E+01 -0.12456916736E+01 -0.22331739414E+02  0.22459893209E+02  0.51100000000E-03 0. -1.
        -11    1    3    3    0    0  0.59102905317E+01 -0.31849709578E+01 -0.17800182163E+02  0.19024249249E+02  0.51100000000E-03 0.  1.
        -12    1    3    3    0    0  0.63068809120E+00 -0.60221561414E+01 -0.17507981944E+01  0.63031283008E+01  0.00000000000E+00 0.  1.
</event>
<event>
 7    1  0.3837332E-009  0.4778727E+02  0.7816164E-02  0.1312668E+00
        -11   -1    0    0    0    0  0.00000000000E+00  0.00000000000E+00  0.45593999997E+02  0.45594000000E+02  0.51100000000E-03 0.  1.
         11   -1    0    0    0    0 -0.00000000000E+00 -0.00000000000E+00 -0.45593999997E+02  0.45594000000E+02  0.51100000000E-03 0. -1.
    9900012    2    1    2    0    0  0.20620516687E+02  0.78250649262E+00 -0.38181218828E+02  0.47787268484E+02  0.19999988328E+02 0.  0.
        -12    1    1    2    0    0 -0.20620516687E+02 -0.78250649262E+00  0.38181218828E+02  0.43400731516E+02  0.00000000000E+00 0.  1.
         11    1    3    3    0    0  0.51335739735E+01  0.96007255511E+00 -0.39945705810E+01  0.65750981316E+01  0.51100000000E-03 0. -1.
        -11    1    3    3    0    0  0.65519243809E+01 -0.85139238807E+01 -0.17385766224E+02  0.20437208234E+02  0.51100000000E-03 0.  1.
        -12    1    3    3    0    0  0.89350183327E+01  0.83363578182E+01 -0.16800882024E+02  0.20774962119E+02  0.00000000000E+00 0.  1.
</event>
<event>
 7    1  0.3837332E-009  0.4778727E+02  0.7816164E-02  0.1312668E+00
        -11   -1    0    0    0    0  0.00000000000E+00  0.00000000000E+00  0.45593999997E+02  0.45594000000E+02  0.51100000000E-03 0.  1.
         11   -1    0    0    0    0 -0.00000000000E+00 -0.00000000000E+00 -0.45593999997E+02  0.45594000000E+02  0.51100000000E-03 0. -1.
    9900012    2    1    2    0    0  0.12411982033E+02  0.27330249751E+02 -0.31346827508E+02  0.47787269082E+02  0.19999991052E+02 0.  0.
        -12    1    1    2    0    0 -0.12411982033E+02 -0.27330249751E+02  0.31346827508E+02  0.43400730918E+02  0.00000000000E+00 0.  1.
         11    1    3    3    0    0  0.10482172760E+01  0.21841362007E+02 -0.25098664443E+02  0.33287937919E+02  0.51100000000E-03 0. -1.
        -11    1    3    3    0    0  0.28688304306E+01  0.95386663581E+00 -0.31916990720E+01  0.43962475847E+01  0.51100000000E-03 0.  1.
         12    1    3    3    0    0  0.84949343260E+01  0.45350211079E+01 -0.30564639924E+01  0.10103083578E+02  0.00000000000E+00 0. -1.
</event>
<event>
 7    1  0.3837332E-009  0.4778727E+02  0.7816164E-02  0.1312668E+00
        -11   -1    0    0    0    0  0.00000000000E+00  0.00000000000E+00  0.45593999997E+02  0.45594000000E+02  0.51100000000E-03 0.  1.
         11   -1    0    0    0    0 -0.00000000000E+00 -0.00000000000E+00 -0.45593999997E+02  0.45594000000E+02  0.51100000000E-03 0. -1.
    9900012    2    1    2    0    0 -0.28263073380E+02  0.14763714508E+02 -0.29442400024E+02  0.47787268415E+02  0.19999988010E+02 0.  0.
        -12    1    1    2    0    0  0.28263073380E+02 -0.14763714508E+02  0.29442400024E+02  0.43400731585E+02  0.00000000000E+00 0.  1.
         11    1    3    3    0    0 -0.14688082592E+02  0.49564132630E+01 -0.11400451027E+02  0.19242559251E+02  0.51100000000E-03 0. -1.
        -11    1    3    3    0    0 -0.14973163002E+02  0.31287909275E+01 -0.12469777355E+02  0.19735255014E+02  0.51100000000E-03 0.  1.
        -12    1    3    3    0    0  0.13981722134E+01  0.66785103172E+01 -0.55721716425E+01  0.88094541493E+01  0.00000000000E+00 0.  1.
</event>
<event>
 7    1  0.3837332E-009  0.4778727E+02  0.7816164E-02  0.1312668E+00
        -11   -1    0    0    0    0  0.00000000000E+00  0.00000000000E+00  0.45593999997E+02  0.45594000000E+02  0.51100000000E-03 0.  1.
         11   -1    0    0    0    0 -0.00000000000E+00 -0.00000000000E+00 -0.45593999997E+02  0.45594000000E+02  0.51100000000E-03 0. -1.
    9900012    2    1    2    0    0 -0.17239397189E+02 -0.27135144450E+02 -0.29156654673E+02  0.47787269690E+02  0.19999993823E+02 0.  0.
        -12    1    1    2    0    0  0.17239397189E+02  0.27135144450E+02  0.29156654673E+02  0.43400730310E+02  0.00000000000E+00 0.  1.
         11    1    3    3    0    0 -0.13007298019E+02 -0.78003555914E+01 -0.10333608387E+02  0.18352624108E+02  0.51100000000E-03 0. -1.
        -11    1    3    3    0    0 -0.73296814247E+01 -0.10671620003E+02 -0.79541257231E+01  0.15194598368E+02  0.51100000000E-03 0.  1.
        -12    1    3    3    0    0  0.30975822544E+01 -0.86631688548E+01 -0.10868920563E+02  0.14240047213E+02  0.00000000000E+00 0.  1.
</event>
<event>
 7    1  0.3837332E-009  0.4778727E+02  0.7816164E-02  0.1312668E+00
        -11   -1    0    0    0    0  0.00000000000E+00  0.00000000000E+00  0.45593999997E+02  0.45594000000E+02  0.51100000000E-03 0.  1.
         11   -1    0    0    0    0 -0.00000000000E+00 -0.00000000000E+00 -0.45593999997E+02  0.45594000000E+02  0.51100000000E-03 0. -1.
    9900012    2    1    2    0    0 -0.29839560017E+02 -0.15372347521E+02 -0.27512086511E+02  0.47787270576E+02  0.19999997865E+02 0.  0.
        -12    1    1    2    0    0  0.29839560017E+02  0.15372347521E+02  0.27512086511E+02  0.43400729424E+02  0.00000000000E+00 0.  1.
         11    1    3    3    0    0 -0.62943927003E+01  0.26570030460E+01 -0.69832099305E+01  0.97695581193E+01  0.51100000000E-03 0. -1.
        -11    1    3    3    0    0 -0.17820286754E+01  0.19708113188E+00 -0.57311894824E+01  0.60050812082E+01  0.51100000000E-03 0.  1.
         12    1    3    3    0    0 -0.21763138642E+02 -0.18226431699E+02 -0.14797687098E+02  0.32012631249E+02  0.00000000000E+00 0. -1.
</event>
<event>
 7    1  0.3837332E-009  0.4778727E+02  0.7816164E-02  0.1312668E+00
        -11   -1    0    0    0    0  0.00000000000E+00  0.00000000000E+00  0.45593999997E+02  0.45594000000E+02  0.51100000000E-03 0.  1.
         11   -1    0    0    0    0 -0.00000000000E+00 -0.00000000000E+00 -0.45593999997E+02  0.45594000000E+02  0.51100000000E-03 0. -1.
    9900012    2    1    2    0    0  0.25267347719E+02 -0.33497833196E+02  0.11094113805E+02  0.47787273616E+02  0.20000011723E+02 0.  0.
        -12    1    1    2    0    0 -0.25267347719E+02  0.33497833196E+02 -0.11094113805E+02  0.43400726384E+02  0.00000000000E+00 0.  1.
         11    1    3    3    0    0  0.69665091981E+01 -0.85350257527E+01 -0.47907944393E+01  0.12013768211E+02  0.51100000000E-03 0. -1.
        -11    1    3    3    0    0 -0.74337041564E+00 -0.22025116322E+01  0.17063331902E+01  0.28836141007E+01  0.51100000000E-03 0.  1.
        -12    1    3    3    0    0  0.19044208936E+02 -0.22760295811E+02  0.14178575055E+02  0.32889891304E+02  0.00000000000E+00 0.  1.
</event>
<event>
 7    1  0.3837332E-009  0.4778728E+02  0.7816164E-02  0.1312668E+00
        -11   -1    0    0    0    0  0.00000000000E+00  0.00000000000E+00  0.45593999997E+02  0.45594000000E+02  0.51100000000E-03 0.  1.
         11   -1    0    0    0    0 -0.00000000000E+00 -0.00000000000E+00 -0.45593999997E+02  0.45594000000E+02  0.51100000000E-03 0. -1.
    9900012    2    1    2    0    0 -0.12770765814E+01  0.32387946514E+02 -0.28861962120E+02  0.47787275797E+02  0.20000021667E+02 0.  0.
        -12    1    1    2    0    0  0.12770765814E+01 -0.32387946514E+02  0.28861962120E+02  0.43400724203E+02  0.00000000000E+00 0.  1.
         11    1    3    3    0    0  0.29905164528E+01  0.20561895877E+02 -0.16843914737E+02  0.26747938512E+02  0.51100000000E-03 0. -1.
        -11    1    3    3    0    0  0.19445971473E+01  0.49156403294E+01 -0.10317341093E+02  0.11592778157E+02  0.51100000000E-03 0.  1.
         12    1    3    3    0    0 -0.62121901816E+01  0.69104103073E+01 -0.17007062904E+01  0.94465591277E+01  0.00000000000E+00 0. -1.
</event>
<event>
 7    1  0.3837332E-009  0.4778732E+02  0.7816164E-02  0.1312668E+00
        -11   -1    0    0    0    0  0.00000000000E+00  0.00000000000E+00  0.45593999997E+02  0.45594000000E+02  0.51100000000E-03 0.  1.
         11   -1    0    0    0    0 -0.00000000000E+00 -0.00000000000E+00 -0.45593999997E+02  0.45594000000E+02  0.51100000000E-03 0. -1.
    9900012    2    1    2    0    0 -0.26901047480E+02 -0.36419418530E+01 -0.33862793915E+02  0.47787321345E+02  0.20000229340E+02 0.  0.
        -12    1    1    2    0    0  0.26901047480E+02  0.36419418530E+01  0.33862793915E+02  0.43400678655E+02  0.00000000000E+00 0.  1.
         11    1    3    3    0    0 -0.50754836161E+01 -0.22853747710E+01 -0.12360596755E+02  0.13556099151E+02  0.51100000000E-03 0. -1.
        -11    1    3    3    0    0 -0.47792501473E+01  0.18557540014E+01  0.15734208123E+01  0.53629010990E+01  0.51100000000E-03 0.  1.
        -12    1    3    3    0    0 -0.17046313717E+02 -0.32123210834E+01 -0.23075617972E+02  0.28868321095E+02  0.00000000000E+00 0.  1.
</event>
<event>
 7    1  0.3837332E-009  0.4778727E+02  0.7816164E-02  0.1312668E+00
        -11   -1    0    0    0    0  0.00000000000E+00  0.00000000000E+00  0.45593999997E+02  0.45594000000E+02  0.51100000000E-03 0. -1.
         11   -1    0    0    0    0 -0.00000000000E+00 -0.00000000000E+00 -0.45593999997E+02  0.45594000000E+02  0.51100000000E-03 0.  1.
    9900012    2    1    2    0    0  0.13925886083E+02  0.33204529762E+02 -0.24231221467E+02  0.47787271969E+02  0.20000004214E+02 0.  0.
        -12    1    1    2    0    0 -0.13925886083E+02 -0.33204529762E+02  0.24231221467E+02  0.43400728031E+02  0.00000000000E+00 0.  1.
         11    1    3    3    0    0  0.67043128432E+01  0.14391602608E+02 -0.10740721615E+02  0.19168441183E+02  0.51100000000E-03 0. -1.
        -11    1    3    3    0    0  0.11025212010E+02  0.11171546720E+02 -0.47428942226E+01  0.16396761932E+02  0.51100000000E-03 0.  1.
         12    1    3    3    0    0 -0.38036387703E+01  0.76413804342E+01 -0.87476056288E+01  0.12222068854E+02  0.00000000000E+00 0. -1.
</event>
<event>
 7    1  0.3837332E-009  0.4778727E+02  0.7816164E-02  0.1312668E+00
        -11   -1    0    0    0    0  0.00000000000E+00  0.00000000000E+00  0.45593999997E+02  0.45594000000E+02  0.51100000000E-03 0.  1.
         11   -1    0    0    0    0 -0.00000000000E+00 -0.00000000000E+00 -0.45593999997E+02  0.45594000000E+02  0.51100000000E-03 0. -1.
    9900012    2    1    2    0    0  0.12628060183E+02  0.14392108799E+02 -0.38948977810E+02  0.47787267608E+02  0.19999984333E+02 0.  0.
        -12    1    1    2    0    0 -0.12628060183E+02 -0.14392108799E+02  0.38948977810E+02  0.43400732392E+02  0.00000000000E+00 0.  1.
         11    1    3    3    0    0  0.49303716000E+01  0.50982524873E+01 -0.11952128870E+02  0.13897990046E+02  0.51100000000E-03 0. -1.
        -11    1    3    3    0    0  0.11660619610E+02  0.49180263633E+01 -0.24301924155E+02  0.27399645087E+02  0.51100000000E-03 0.  1.
        -12    1    3    3    0    0 -0.39629310270E+01  0.43758299482E+01 -0.26949247855E+01  0.64896324749E+01  0.00000000000E+00 0.  1.
</event>
<event>
 7    1  0.3837332E-009  0.4778727E+02  0.7816164E-02  0.1312668E+00
        -11   -1    0    0    0    0  0.00000000000E+00  0.00000000000E+00  0.45593999997E+02  0.45594000000E+02  0.51100000000E-03 0.  1.
         11   -1    0    0    0    0 -0.00000000000E+00 -0.00000000000E+00 -0.45593999997E+02  0.45594000000E+02  0.51100000000E-03 0. -1.
    9900012    2    1    2    0    0 -0.19940292191E+02 -0.11063208910E+02 -0.36927133174E+02  0.47787274102E+02  0.20000013939E+02 0.  0.
        -12    1    1    2    0    0  0.19940292191E+02  0.11063208910E+02  0.36927133174E+02  0.43400725898E+02  0.00000000000E+00 0.  1.
         11    1    3    3    0    0 -0.26199024516E+01  0.20573555364E+01 -0.80523318346E+00  0.34270981019E+01  0.51100000000E-03 0. -1.
        -11    1    3    3    0    0 -0.11206683026E+02 -0.10051394242E+02 -0.11895706366E+02  0.19186664662E+02  0.51100000000E-03 0.  1.
         12    1    3    3    0    0 -0.61137067133E+01 -0.30691702048E+01 -0.24226193625E+02  0.25173511337E+02  0.00000000000E+00 0. -1.
</event>
<event>
 7    1  0.3837332E-009  0.4778726E+02  0.7816164E-02  0.1312668E+00
        -11   -1    0    0    0    0  0.00000000000E+00  0.00000000000E+00  0.45593999997E+02  0.45594000000E+02  0.51100000000E-03 0.  1.
         11   -1    0    0    0    0 -0.00000000000E+00 -0.00000000000E+00 -0.45593999997E+02  0.45594000000E+02  0.51100000000E-03 0. -1.
    9900012    2    1    2    0    0  0.20718194427E+02  0.20575569333E+02 -0.32109600636E+02  0.47787261680E+02  0.19999957305E+02 0.  0.
        -12    1    1    2    0    0 -0.20718194427E+02 -0.20575569333E+02  0.32109600636E+02  0.43400738320E+02  0.00000000000E+00 0.  1.
         11    1    3    3    0    0  0.10625121481E+02  0.80736686797E+01 -0.14419754396E+02  0.19647051930E+02  0.51100000000E-03 0. -1.
        -11    1    3    3    0    0  0.37865999620E+01  0.67174934850E+00 -0.13586320947E+02  0.14120116982E+02  0.51100000000E-03 0.  1.
         12    1    3    3    0    0  0.63064729846E+01  0.11830151305E+02 -0.41035252933E+01  0.14020092769E+02  0.00000000000E+00 0. -1.
</event>
<event>
 7    1  0.3837332E-009  0.4778727E+02  0.7816164E-02  0.1312668E+00
        -11   -1    0    0    0    0  0.00000000000E+00  0.00000000000E+00  0.45593999997E+02  0.45594000000E+02  0.51100000000E-03 0.  1.
         11   -1    0    0    0    0 -0.00000000000E+00 -0.00000000000E+00 -0.45593999997E+02  0.45594000000E+02  0.51100000000E-03 0. -1.
    9900012    2    1    2    0    0  0.33339626144E+02  0.24651944942E+02 -0.12820857191E+02  0.47787269131E+02  0.19999991277E+02 0.  0.
        -12    1    1    2    0    0 -0.33339626144E+02 -0.24651944942E+02  0.12820857191E+02  0.43400730869E+02  0.00000000000E+00 0.  1.
         11    1    3    3    0    0  0.22236765812E+01 -0.43589990798E+00 -0.99920391730E+00  0.24765207443E+01  0.51100000000E-03 0.  1.
        -11    1    3    3    0    0  0.62769814324E+01 -0.13600240201E+01  0.16099171592E+01  0.66213287758E+01  0.51100000000E-03 0. -1.
         12    1    3    3    0    0  0.24838968131E+02  0.26447868870E+02 -0.13431570433E+02  0.38689419611E+02  0.00000000000E+00 0. -1.
</event>
<event>
 7    1  0.3837332E-009  0.4778727E+02  0.7816164E-02  0.1312668E+00
        -11   -1    0    0    0    0  0.00000000000E+00  0.00000000000E+00  0.45593999997E+02  0.45594000000E+02  0.51100000000E-03 0. -1.
         11   -1    0    0    0    0 -0.00000000000E+00 -0.00000000000E+00 -0.45593999997E+02  0.45594000000E+02  0.51100000000E-03 0.  1.
    9900012    2    1    2    0    0 -0.23925984077E+02  0.34956648372E+02 -0.94447747702E+01  0.47787265561E+02  0.19999974998E+02 0.  0.
        -12    1    1    2    0    0  0.23925984077E+02 -0.34956648372E+02  0.94447747702E+01  0.43400734439E+02  0.00000000000E+00 0.  1.
         11    1    3    3    0    0 -0.57719143210E+01  0.46324140128E+01 -0.24346452081E+01  0.77911329128E+01  0.51100000000E-03 0. -1.
        -11    1    3    3    0    0 -0.76240479599E+00  0.11078151274E+02 -0.85438675401E+01  0.14010866123E+02  0.51100000000E-03 0.  1.
         12    1    3    3    0    0 -0.17391664960E+02  0.19246083085E+02  0.15337379780E+01  0.25985266525E+02  0.00000000000E+00 0. -1.
</event>
<event>
 7    1  0.3837332E-009  0.4778727E+02  0.7816164E-02  0.1312668E+00
        -11   -1    0    0    0    0  0.00000000000E+00  0.00000000000E+00  0.45593999997E+02  0.45594000000E+02  0.51100000000E-03 0.  1.
         11   -1    0    0    0    0 -0.00000000000E+00 -0.00000000000E+00 -0.45593999997E+02  0.45594000000E+02  0.51100000000E-03 0. -1.
    9900012    2    1    2    0    0  0.11966647685E+02 -0.36135577389E+02 -0.20848088559E+02  0.47787269515E+02  0.19999993027E+02 0.  0.
        -12    1    1    2    0    0 -0.11966647685E+02  0.36135577389E+02  0.20848088559E+02  0.43400730485E+02  0.00000000000E+00 0.  1.
         11    1    3    3    0    0 -0.22265122036E+00 -0.69458009091E+01 -0.87188460134E+01  0.11149529134E+02  0.51100000000E-03 0.  1.
        -11    1    3    3    0    0  0.10583028197E+02 -0.16528794995E+02 -0.13471174879E+02  0.23804917615E+02  0.51100000000E-03 0. -1.
         12    1    3    3    0    0  0.16062707080E+01 -0.12660981485E+02  0.13419323334E+01  0.12832822766E+02  0.00000000000E+00 0. -1.
</event>
<event>
 7    1  0.3837332E-009  0.4778727E+02  0.7816164E-02  0.1312668E+00
        -11   -1    0    0    0    0  0.00000000000E+00  0.00000000000E+00  0.45593999997E+02  0.45594000000E+02  0.51100000000E-03 0.  1.
         11   -1    0    0    0    0 -0.00000000000E+00 -0.00000000000E+00 -0.45593999997E+02  0.45594000000E+02  0.51100000000E-03 0. -1.
    9900012    2    1    2    0    0 -0.41847738485E+02  0.48956766242E+01 -0.10412598204E+02  0.47787273424E+02  0.20000010850E+02 0.  0.
        -12    1    1    2    0    0  0.41847738485E+02 -0.48956766242E+01  0.10412598204E+02  0.43400726576E+02  0.00000000000E+00 0.  1.
         11    1    3    3    0    0 -0.63273953528E+01 -0.34615827194E+01 -0.57348461185E+01  0.92144965754E+01  0.51100000000E-03 0. -1.
        -11    1    3    3    0    0 -0.41651286856E+01 -0.80348304708E+00  0.27729167804E+01  0.50678348145E+01  0.51100000000E-03 0.  1.
        -12    1    3    3    0    0 -0.31355214447E+02  0.91607423907E+01 -0.74506688664E+01  0.33504942034E+02  0.00000000000E+00 0.  1.
</event>
<event>
 7    1  0.3837332E-009  0.4778724E+02  0.7816164E-02  0.1312668E+00
        -11   -1    0    0    0    0  0.00000000000E+00  0.00000000000E+00  0.45593999997E+02  0.45594000000E+02  0.51100000000E-03 0.  1.
         11   -1    0    0    0    0 -0.00000000000E+00 -0.00000000000E+00 -0.45593999997E+02  0.45594000000E+02  0.51100000000E-03 0. -1.
    9900012    2    1    2    0    0  0.35905337299E+02  0.24230533325E+02  0.27044468772E+01  0.47787239353E+02  0.19999855508E+02 0.  0.
        -12    1    1    2    0    0 -0.35905337299E+02 -0.24230533325E+02 -0.27044468772E+01  0.43400760647E+02  0.00000000000E+00 0.  1.
         11    1    3    3    0    0  0.35022866245E+01 -0.12339613973E+01  0.22937674613E+01  0.43646353522E+01  0.51100000000E-03 0.  1.
        -11    1    3    3    0    0  0.16388221723E+02  0.13256659260E+02  0.70383967149E+01  0.22222777832E+02  0.51100000000E-03 0. -1.
        -12    1    3    3    0    0  0.16014828951E+02  0.12207835463E+02 -0.66277172990E+01  0.21199826169E+02  0.00000000000E+00 0.  1.
</event>
<event>
 7    1  0.3837332E-009  0.4778726E+02  0.7816164E-02  0.1312668E+00
        -11   -1    0    0    0    0  0.00000000000E+00  0.00000000000E+00  0.45593999997E+02  0.45594000000E+02  0.51100000000E-03 0.  1.
         11   -1    0    0    0    0 -0.00000000000E+00 -0.00000000000E+00 -0.45593999997E+02  0.45594000000E+02  0.51100000000E-03 0. -1.
    9900012    2    1    2    0    0  0.98226321386E+01 -0.13947628722E+02 -0.39907435504E+02  0.47787264319E+02  0.19999969337E+02 0.  0.
        -12    1    1    2    0    0 -0.98226321386E+01  0.13947628722E+02  0.39907435504E+02  0.43400735681E+02  0.00000000000E+00 0.  1.
         11    1    3    3    0    0  0.21613526430E+01 -0.10441858978E+02 -0.25389657663E+02  0.27537948011E+02  0.51100000000E-03 0. -1.
        -11    1    3    3    0    0 -0.14118891472E+01  0.64309265264E+00 -0.84089810971E+01  0.85509041906E+01  0.51100000000E-03 0.  1.
        -12    1    3    3    0    0  0.90731686428E+01 -0.41488623961E+01 -0.61087967441E+01  0.11698412117E+02  0.00000000000E+00 0.  1.
</event>
<event>
 7    1  0.3837332E-009  0.4778727E+02  0.7816164E-02  0.1312668E+00
        -11   -1    0    0    0    0  0.00000000000E+00  0.00000000000E+00  0.45593999997E+02  0.45594000000E+02  0.51100000000E-03 0.  1.
         11   -1    0    0    0    0 -0.00000000000E+00 -0.00000000000E+00 -0.45593999997E+02  0.45594000000E+02  0.51100000000E-03 0. -1.
    9900012    2    1    2    0    0 -0.74226418040E+01  0.42760431143E+02 -0.27024787270E+00  0.47787272854E+02  0.20000008249E+02 0.  0.
        -12    1    1    2    0    0  0.74226418040E+01 -0.42760431143E+02  0.27024787270E+00  0.43400727146E+02  0.00000000000E+00 0.  1.
         11    1    3    3    0    0 -0.67777868347E+01  0.42301108301E+02  0.38174600179E+01  0.43010407567E+02  0.51100000000E-03 0. -1.
        -11    1    3    3    0    0  0.52635965721E+00 -0.36403025780E+00 -0.26106790994E+00  0.69117959465E+00  0.51100000000E-03 0.  1.
         12    1    3    3    0    0 -0.11712146266E+01  0.82335310015E+00 -0.38266399806E+01  0.40856856916E+01  0.00000000000E+00 0. -1.
</event>
<event>
 7    1  0.3837332E-009  0.4778727E+02  0.7816164E-02  0.1312668E+00
        -11   -1    0    0    0    0  0.00000000000E+00  0.00000000000E+00  0.45593999997E+02  0.45594000000E+02  0.51100000000E-03 0.  1.
         11   -1    0    0    0    0 -0.00000000000E+00 -0.00000000000E+00 -0.45593999997E+02  0.45594000000E+02  0.51100000000E-03 0. -1.
    9900012    2    1    2    0    0 -0.11048061082E+02  0.16985726139E+02 -0.38380315863E+02  0.47787271989E+02  0.20000004307E+02 0.  0.
        -12    1    1    2    0    0  0.11048061082E+02 -0.16985726139E+02  0.38380315863E+02  0.43400728011E+02  0.00000000000E+00 0.  1.
         11    1    3    3    0    0 -0.82244338663E+01  0.15849771676E+02 -0.24752669151E+02  0.30521323775E+02  0.51100000000E-03 0. -1.
        -11    1    3    3    0    0 -0.61576608374E+01  0.23775858620E+01 -0.11054437853E+02  0.12875181476E+02  0.51100000000E-03 0.  1.
        -12    1    3    3    0    0  0.33340336218E+01 -0.12416313988E+01 -0.25732088583E+01  0.43907667383E+01  0.00000000000E+00 0.  1.
</event>
<event>
 7    1  0.3837332E-009  0.4778727E+02  0.7816164E-02  0.1312668E+00
        -11   -1    0    0    0    0  0.00000000000E+00  0.00000000000E+00  0.45593999997E+02  0.45594000000E+02  0.51100000000E-03 0. -1.
         11   -1    0    0    0    0 -0.00000000000E+00 -0.00000000000E+00 -0.45593999997E+02  0.45594000000E+02  0.51100000000E-03 0.  1.
    9900012    2    1    2    0    0 -0.17150564744E+02  0.27428587970E+02  0.28933618226E+02  0.47787267602E+02  0.19999984303E+02 0.  0.
        -12    1    1    2    0    0  0.17150564744E+02 -0.27428587970E+02 -0.28933618226E+02  0.43400732398E+02  0.00000000000E+00 0.  1.
         11    1    3    3    0    0 -0.96449792396E+01  0.88299269103E+01  0.15463321779E+02  0.20251112426E+02  0.51100000000E-03 0. -1.
        -11    1    3    3    0    0 -0.10544638178E+02  0.17819682732E+02  0.10500573289E+02  0.23216212582E+02  0.51100000000E-03 0.  1.
        -12    1    3    3    0    0  0.30390526731E+01  0.77897832728E+00  0.29697231575E+01  0.43199425942E+01  0.00000000000E+00 0.  1.
</event>
<event>
 7    1  0.3837332E-009  0.4778727E+02  0.7816164E-02  0.1312668E+00
        -11   -1    0    0    0    0  0.00000000000E+00  0.00000000000E+00  0.45593999997E+02  0.45594000000E+02  0.51100000000E-03 0.  1.
         11   -1    0    0    0    0 -0.00000000000E+00 -0.00000000000E+00 -0.45593999997E+02  0.45594000000E+02  0.51100000000E-03 0. -1.
    9900012    2    1    2    0    0 -0.35784355964E+02 -0.16066066087E+01 -0.24505558494E+02  0.47787265978E+02  0.19999976901E+02 0.  0.
        -12    1    1    2    0    0  0.35784355964E+02  0.16066066087E+01  0.24505558494E+02  0.43400734022E+02  0.00000000000E+00 0.  1.
         11    1    3    3    0    0 -0.25695076317E+02 -0.12238664361E-01 -0.13355206804E+02  0.28958567744E+02  0.51100000000E-03 0. -1.
        -11    1    3    3    0    0 -0.92603685220E+01 -0.44098765738E+00 -0.13324082157E+02  0.16232068903E+02  0.51100000000E-03 0.  1.
        -12    1    3    3    0    0 -0.82891112475E+00 -0.11533802869E+01  0.21737304678E+01  0.25966293316E+01  0.00000000000E+00 0.  1.
</event>
<event>
 7    1  0.3837332E-009  0.4778727E+02  0.7816164E-02  0.1312668E+00
        -11   -1    0    0    0    0  0.00000000000E+00  0.00000000000E+00  0.45593999997E+02  0.45594000000E+02  0.51100000000E-03 0. -1.
         11   -1    0    0    0    0 -0.00000000000E+00 -0.00000000000E+00 -0.45593999997E+02  0.45594000000E+02  0.51100000000E-03 0.  1.
    9900012    2    1    2    0    0 -0.35469138450E+02 -0.61131201197E+01  0.24252691237E+02  0.47787273598E+02  0.20000011645E+02 0.  0.
        -12    1    1    2    0    0  0.35469138450E+02  0.61131201197E+01 -0.24252691237E+02  0.43400726402E+02  0.00000000000E+00 0.  1.
         11    1    3    3    0    0 -0.74801545951E+00 -0.12477665260E+01 -0.26438928299E+01  0.30177173472E+01  0.51100000000E-03 0.  1.
        -11    1    3    3    0    0 -0.36226279149E+01 -0.26553815277E+01  0.46802238564E+01  0.64868312507E+01  0.51100000000E-03 0. -1.
         12    1    3    3    0    0 -0.31098495075E+02 -0.22099720661E+01  0.22216360210E+02  0.38282725001E+02  0.00000000000E+00 0. -1.
</event>
<event>
 7    1  0.3837332E-009  0.4778726E+02  0.7816164E-02  0.1312668E+00
        -11   -1    0    0    0    0  0.00000000000E+00  0.00000000000E+00  0.45593999997E+02  0.45594000000E+02  0.51100000000E-03 0. -1.
         11   -1    0    0    0    0 -0.00000000000E+00 -0.00000000000E+00 -0.45593999997E+02  0.45594000000E+02  0.51100000000E-03 0.  1.
    9900012    2    1    2    0    0 -0.87991700439E+01 -0.41976044047E+02  0.66491072542E+01  0.47787259286E+02  0.19999946388E+02 0.  0.
        -12    1    1    2    0    0  0.87991700439E+01  0.41976044047E+02 -0.66491072542E+01  0.43400740714E+02  0.00000000000E+00 0.  1.
         11    1    3    3    0    0 -0.69117989670E+01 -0.17383578333E+02  0.52036024040E+01  0.19417498265E+02  0.51100000000E-03 0. -1.
        -11    1    3    3    0    0 -0.39173965166E+01 -0.20754177936E+02 -0.39054943068E+01  0.21478705345E+02  0.51100000000E-03 0.  1.
        -12    1    3    3    0    0  0.20300254398E+01 -0.38382877773E+01  0.53509991569E+01  0.68910556757E+01  0.00000000000E+00 0.  1.
</event>
<event>
 7    1  0.3907509E-009  0.4778726E+02  0.7816164E-02  0.1312668E+00
        -11   -1    0    0    0    0  0.00000000000E+00  0.00000000000E+00  0.45593999997E+02  0.45594000000E+02  0.51100000000E-03 0.  1.
         11   -1    0    0    0    0 -0.00000000000E+00 -0.00000000000E+00 -0.45593999997E+02  0.45594000000E+02  0.51100000000E-03 0. -1.
    9900012    2    1    2    0    0 -0.15818724545E+02 -0.36290549726E+02 -0.17787311558E+02  0.47787256941E+02  0.19999935697E+02 0.  0.
        -12    1    1    2    0    0  0.15818724545E+02  0.36290549726E+02  0.17787311558E+02  0.43400743059E+02  0.00000000000E+00 0.  1.
         11    1    3    3    0    0 -0.10515792149E+02 -0.16503442769E+02 -0.56874925696E+01  0.20378740877E+02  0.51100000000E-03 0. -1.
        -11    1    3    3    0    0 -0.23898195852E+01 -0.46183757251E+01  0.28353314745E+01  0.59228149405E+01  0.51100000000E-03 0.  1.
        -12    1    3    3    0    0 -0.29131128106E+01 -0.15168731232E+02 -0.14935150463E+02  0.21485701123E+02  0.00000000000E+00 0.  1.
</event>
<event>
 7    1  0.3837332E-009  0.4778727E+02  0.7816164E-02  0.1312668E+00
        -11   -1    0    0    0    0  0.00000000000E+00  0.00000000000E+00  0.45593999997E+02  0.45594000000E+02  0.51100000000E-03 0.  1.
         11   -1    0    0    0    0 -0.00000000000E+00 -0.00000000000E+00 -0.45593999997E+02  0.45594000000E+02  0.51100000000E-03 0. -1.
    9900012    2    1    2    0    0 -0.12665225937E+02  0.30808695943E+01 -0.41397141252E+02  0.47787274092E+02  0.20000013896E+02 0.  0.
        -12    1    1    2    0    0  0.12665225937E+02 -0.30808695943E+01  0.41397141252E+02  0.43400725908E+02  0.00000000000E+00 0.  1.
         11    1    3    3    0    0 -0.27547286650E+01  0.43758005324E+01 -0.67989760947E+01  0.85417935186E+01  0.51100000000E-03 0. -1.
        -11    1    3    3    0    0  0.93494130149E+00  0.18781041409E+01 -0.22845366761E+02  0.22941494570E+02  0.51100000000E-03 0.  1.
         12    1    3    3    0    0 -0.10845438574E+02 -0.31730350790E+01 -0.11752798396E+02  0.16303986004E+02  0.00000000000E+00 0. -1.
</event>
<event>
 7    1  0.3837332E-009  0.4778727E+02  0.7816164E-02  0.1312668E+00
        -11   -1    0    0    0    0  0.00000000000E+00  0.00000000000E+00  0.45593999997E+02  0.45594000000E+02  0.51100000000E-03 0.  1.
         11   -1    0    0    0    0 -0.00000000000E+00 -0.00000000000E+00 -0.45593999997E+02  0.45594000000E+02  0.51100000000E-03 0. -1.
    9900012    2    1    2    0    0 -0.43088316519E+02  0.49797862560E+00  0.51741963610E+01  0.47787270615E+02  0.19999998041E+02 0.  0.
        -12    1    1    2    0    0  0.43088316519E+02 -0.49797862560E+00 -0.51741963610E+01  0.43400729385E+02  0.00000000000E+00 0.  1.
         11    1    3    3    0    0 -0.64847407576E+01 -0.29723109472E+01 -0.34143683530E+01  0.79085021699E+01  0.51100000000E-03 0. -1.
        -11    1    3    3    0    0 -0.79704678496E+01  0.41709864058E+01 -0.22196353010E+01  0.92656498137E+01  0.51100000000E-03 0.  1.
        -12    1    3    3    0    0 -0.28633107912E+02 -0.70069683296E+00  0.10808200015E+02  0.30613118631E+02  0.00000000000E+00 0.  1.
</event>
<event>
 7    1  0.3837332E-009  0.4778727E+02  0.7816164E-02  0.1312668E+00
        -11   -1    0    0    0    0  0.00000000000E+00  0.00000000000E+00  0.45593999997E+02  0.45594000000E+02  0.51100000000E-03 0.  1.
         11   -1    0    0    0    0 -0.00000000000E+00 -0.00000000000E+00 -0.45593999997E+02  0.45594000000E+02  0.51100000000E-03 0. -1.
    9900012    2    1    2    0    0 -0.27041337253E+02  0.19023200738E+01 -0.33893519244E+02  0.47787269720E+02  0.19999993962E+02 0.  0.
        -12    1    1    2    0    0  0.27041337253E+02 -0.19023200738E+01  0.33893519244E+02  0.43400730280E+02  0.00000000000E+00 0.  1.
         11    1    3    3    0    0 -0.14734692935E+01 -0.13979947011E+01 -0.23474544397E+01  0.31041977306E+01  0.51100000000E-03 0. -1.
        -11    1    3    3    0    0 -0.71397708283E+01 -0.71622796218E+01 -0.72463781104E+01  0.12441244827E+02  0.51100000000E-03 0.  1.
         12    1    3    3    0    0 -0.18428097131E+02  0.10462594397E+02 -0.24299686694E+02  0.32241827163E+02  0.00000000000E+00 0. -1.
</event>
<event>
 7    1  0.3837332E-009  0.4778727E+02  0.7816164E-02  0.1312668E+00
        -11   -1    0    0    0    0  0.00000000000E+00  0.00000000000E+00  0.45593999997E+02  0.45594000000E+02  0.51100000000E-03 0.  1.
         11   -1    0    0    0    0 -0.00000000000E+00 -0.00000000000E+00 -0.45593999997E+02  0.45594000000E+02  0.51100000000E-03 0. -1.
    9900012    2    1    2    0    0  0.28979791420E+02 -0.29500174846E+02 -0.13173242092E+02  0.47787274961E+02  0.20000017856E+02 0.  0.
        -12    1    1    2    0    0 -0.28979791420E+02  0.29500174846E+02  0.13173242092E+02  0.43400725039E+02  0.00000000000E+00 0.  1.
         11    1    3    3    0    0  0.17819698919E+02 -0.10084376686E+02 -0.72120800517E+01  0.21708303057E+02  0.51100000000E-03 0. -1.
        -11    1    3    3    0    0  0.10650624034E+02 -0.15789393016E+02 -0.92352565603E+01  0.21166735415E+02  0.51100000000E-03 0.  1.
        -12    1    3    3    0    0  0.50946846773E+00 -0.36264051447E+01  0.32740945202E+01  0.49122364886E+01  0.00000000000E+00 0.  1.
</event>
<event>
 7    1  0.3837332E-009  0.4778728E+02  0.7816164E-02  0.1312668E+00
        -11   -1    0    0    0    0  0.00000000000E+00  0.00000000000E+00  0.45593999997E+02  0.45594000000E+02  0.51100000000E-03 0.  1.
         11   -1    0    0    0    0 -0.00000000000E+00 -0.00000000000E+00 -0.45593999997E+02  0.45594000000E+02  0.51100000000E-03 0. -1.
    9900012    2    1    2    0    0  0.41124026582E+02  0.12958697180E+02 -0.49506981659E+01  0.47787276420E+02  0.20000024509E+02 0.  0.
        -12    1    1    2    0    0 -0.41124026582E+02 -0.12958697180E+02  0.49506981659E+01  0.43400723580E+02  0.00000000000E+00 0.  1.
         11    1    3    3    0    0  0.72149949289E+01  0.14334700583E+01 -0.17990594130E+01  0.75728200339E+01  0.51100000000E-03 0. -1.
        -11    1    3    3    0    0  0.10698065538E+02 -0.47866984878E+01 -0.10608545910E+01  0.11768028781E+02  0.51100000000E-03 0.  1.
        -12    1    3    3    0    0  0.23210966116E+02  0.16311925609E+02 -0.20907841620E+01  0.28446427605E+02  0.00000000000E+00 0.  1.
</event>
<event>
 7    1  0.3837332E-009  0.4778727E+02  0.7816164E-02  0.1312668E+00
        -11   -1    0    0    0    0  0.00000000000E+00  0.00000000000E+00  0.45593999997E+02  0.45594000000E+02  0.51100000000E-03 0. -1.
         11   -1    0    0    0    0 -0.00000000000E+00 -0.00000000000E+00 -0.45593999997E+02  0.45594000000E+02  0.51100000000E-03 0.  1.
    9900012    2    1    2    0    0 -0.33871943390E+02 -0.29153661984E+01  0.26978049112E+02  0.47787273704E+02  0.20000012127E+02 0.  0.
        -12    1    1    2    0    0  0.33871943390E+02  0.29153661984E+01 -0.26978049112E+02  0.43400726296E+02  0.00000000000E+00 0.  1.
         11    1    3    3    0    0 -0.20062464788E+02  0.60432808365E+01  0.13781532228E+02  0.25078962647E+02  0.51100000000E-03 0. -1.
        -11    1    3    3    0    0  0.95088871392E+00 -0.14140331072E-01 -0.49333773030E-01  0.95227274324E+00  0.51100000000E-03 0.  1.
         12    1    3    3    0    0 -0.14760367316E+02 -0.89445067038E+01  0.13245850657E+02  0.21756038314E+02  0.00000000000E+00 0. -1.
</event>
<event>
 7    1  0.3837332E-009  0.4778727E+02  0.7816164E-02  0.1312668E+00
        -11   -1    0    0    0    0  0.00000000000E+00  0.00000000000E+00  0.45593999997E+02  0.45594000000E+02  0.51100000000E-03 0.  1.
         11   -1    0    0    0    0 -0.00000000000E+00 -0.00000000000E+00 -0.45593999997E+02  0.45594000000E+02  0.51100000000E-03 0. -1.
    9900012    2    1    2    0    0 -0.11188115278E+02 -0.13723547733E+02 -0.39624658876E+02  0.47787271010E+02  0.19999999842E+02 0.  0.
        -12    1    1    2    0    0  0.11188115278E+02  0.13723547733E+02  0.39624658876E+02  0.43400728990E+02  0.00000000000E+00 0.  1.
         11    1    3    3    0    0  0.26531176609E+01 -0.26308051347E+01 -0.15983752036E+02  0.16414642804E+02  0.51100000000E-03 0. -1.
        -11    1    3    3    0    0 -0.77481698171E+01 -0.39728508822E+01 -0.19032332655E+02  0.20929581128E+02  0.51100000000E-03 0.  1.
        -12    1    3    3    0    0 -0.60930631215E+01 -0.71198917157E+01 -0.46085741852E+01  0.10443047078E+02  0.00000000000E+00 0.  1.
</event>
<event>
 7    1  0.3837332E-009  0.4778726E+02  0.7816164E-02  0.1312668E+00
        -11   -1    0    0    0    0  0.00000000000E+00  0.00000000000E+00  0.45593999997E+02  0.45594000000E+02  0.51100000000E-03 0.  1.
         11   -1    0    0    0    0 -0.00000000000E+00 -0.00000000000E+00 -0.45593999997E+02  0.45594000000E+02  0.51100000000E-03 0. -1.
    9900012    2    1    2    0    0 -0.14324428648E+02  0.30452373855E+02 -0.27405980936E+02  0.47787261290E+02  0.19999955524E+02 0.  0.
        -12    1    1    2    0    0  0.14324428648E+02 -0.30452373855E+02  0.27405980936E+02  0.43400738710E+02  0.00000000000E+00 0.  1.
         11    1    3    3    0    0 -0.80114897794E-01  0.10806816377E+02 -0.84661306636E+01  0.13728403668E+02  0.51100000000E-03 0. -1.
        -11    1    3    3    0    0 -0.45356488944E+01  0.17780772728E+02 -0.11146238150E+02  0.21470133089E+02  0.51100000000E-03 0.  1.
         12    1    3    3    0    0 -0.97086648559E+01  0.18647847510E+01 -0.77936121226E+01  0.12588724533E+02  0.00000000000E+00 0. -1.
</event>
<event>
 7    1  0.3837332E-009  0.4778728E+02  0.7816164E-02  0.1312668E+00
        -11   -1    0    0    0    0  0.00000000000E+00  0.00000000000E+00  0.45593999997E+02  0.45594000000E+02  0.51100000000E-03 0.  1.
         11   -1    0    0    0    0 -0.00000000000E+00 -0.00000000000E+00 -0.45593999997E+02  0.45594000000E+02  0.51100000000E-03 0. -1.
    9900012    2    1    2    0    0  0.36678792015E+02 -0.22519105188E+02 -0.55837728063E+01  0.47787281102E+02  0.20000045855E+02 0.  0.
        -12    1    1    2    0    0 -0.36678792015E+02  0.22519105188E+02  0.55837728063E+01  0.43400718898E+02  0.00000000000E+00 0.  1.
         11    1    3    3    0    0  0.10643417188E+02 -0.13345134517E+02  0.11196663933E+00  0.17070075616E+02  0.51100000000E-03 0.  1.
        -11    1    3    3    0    0  0.17153023448E+02 -0.65072677912E+01  0.22777879955E+01  0.18486726750E+02  0.51100000000E-03 0. -1.
         12    1    3    3    0    0  0.88823513786E+01 -0.26667028791E+01 -0.79735274412E+01  0.12230478736E+02  0.00000000000E+00 0. -1.
</event>
<event>
 7    1  0.3837332E-009  0.4778728E+02  0.7816164E-02  0.1312668E+00
        -11   -1    0    0    0    0  0.00000000000E+00  0.00000000000E+00  0.45593999997E+02  0.45594000000E+02  0.51100000000E-03 0. -1.
         11   -1    0    0    0    0 -0.00000000000E+00 -0.00000000000E+00 -0.45593999997E+02  0.45594000000E+02  0.51100000000E-03 0.  1.
    9900012    2    1    2    0    0  0.42416378441E+02 -0.83266768339E+01 -0.38910227440E+01  0.47787276905E+02  0.20000026721E+02 0.  0.
        -12    1    1    2    0    0 -0.42416378441E+02  0.83266768339E+01  0.38910227440E+01  0.43400723095E+02  0.00000000000E+00 0.  1.
         11    1    3    3    0    0  0.19390362722E+02 -0.29725693870E+01  0.37851089262E+00  0.19620540411E+02  0.51100000000E-03 0. -1.
        -11    1    3    3    0    0  0.15223175808E+02  0.16903809692E+01 -0.76544466493E+01  0.17122880111E+02  0.51100000000E-03 0.  1.
         12    1    3    3    0    0  0.78028399103E+01 -0.70444884161E+01  0.33849130127E+01  0.11043856383E+02  0.00000000000E+00 0. -1.
</event>
<event>
 7    1  0.3837332E-009  0.4778727E+02  0.7816164E-02  0.1312668E+00
        -11   -1    0    0    0    0  0.00000000000E+00  0.00000000000E+00  0.45593999997E+02  0.45594000000E+02  0.51100000000E-03 0.  1.
         11   -1    0    0    0    0 -0.00000000000E+00 -0.00000000000E+00 -0.45593999997E+02  0.45594000000E+02  0.51100000000E-03 0. -1.
    9900012    2    1    2    0    0 -0.25867535883E+02 -0.34586946674E+02 -0.42704509700E+01  0.47787273688E+02  0.20000012055E+02 0.  0.
        -12    1    1    2    0    0  0.25867535883E+02  0.34586946674E+02  0.42704509700E+01  0.43400726312E+02  0.00000000000E+00 0.  1.
         11    1    3    3    0    0 -0.14276465247E+01 -0.13909673539E+01  0.26483762904E+01  0.33146435729E+01  0.51100000000E-03 0. -1.
        -11    1    3    3    0    0 -0.67691486809E+01 -0.13426103871E+02  0.43630641127E+01  0.15656243730E+02  0.51100000000E-03 0.  1.
         12    1    3    3    0    0 -0.17670740677E+02 -0.19769875449E+02 -0.11281891373E+02  0.28816386385E+02  0.00000000000E+00 0. -1.
</event>
<event>
 7    1  0.3837332E-009  0.4778727E+02  0.7816164E-02  0.1312668E+00
        -11   -1    0    0    0    0  0.00000000000E+00  0.00000000000E+00  0.45593999997E+02  0.45594000000E+02  0.51100000000E-03 0. -1.
         11   -1    0    0    0    0 -0.00000000000E+00 -0.00000000000E+00 -0.45593999997E+02  0.45594000000E+02  0.51100000000E-03 0.  1.
    9900012    2    1    2    0    0 -0.33055305206E+02  0.25951643885E+02  0.10838923788E+02  0.47787270841E+02  0.19999999075E+02 0.  0.
        -12    1    1    2    0    0  0.33055305206E+02 -0.25951643885E+02 -0.10838923788E+02  0.43400729159E+02  0.00000000000E+00 0.  1.
         11    1    3    3    0    0 -0.11305026054E+00  0.20336143163E+01  0.21149839034E+01  0.29362433008E+01  0.51100000000E-03 0. -1.
        -11    1    3    3    0    0 -0.68681381234E+01  0.14083052191E+02  0.62358475975E-01  0.15668681155E+02  0.51100000000E-03 0.  1.
         12    1    3    3    0    0 -0.26074116822E+02  0.98349773780E+01  0.86615814090E+01  0.29182346386E+02  0.00000000000E+00 0. -1.
</event>
<event>
 7    1  0.3837332E-009  0.4778727E+02  0.7816164E-02  0.1312668E+00
        -11   -1    0    0    0    0  0.00000000000E+00  0.00000000000E+00  0.45593999997E+02  0.45594000000E+02  0.51100000000E-03 0.  1.
         11   -1    0    0    0    0 -0.00000000000E+00 -0.00000000000E+00 -0.45593999997E+02  0.45594000000E+02  0.51100000000E-03 0. -1.
    9900012    2    1    2    0    0  0.41325269201E+02  0.65014394214E+01 -0.11557533189E+02  0.47787272327E+02  0.20000005848E+02 0.  0.
        -12    1    1    2    0    0 -0.41325269201E+02 -0.65014394214E+01  0.11557533189E+02  0.43400727673E+02  0.00000000000E+00 0.  1.
         11    1    3    3    0    0  0.22162439197E+01  0.48767834886E+01  0.89449245358E+00  0.54309180916E+01  0.51100000000E-03 0. -1.
        -11    1    3    3    0    0  0.14547740441E+02 -0.14114800066E+01  0.79433168931E-01  0.14616269621E+02  0.51100000000E-03 0.  1.
        -12    1    3    3    0    0  0.24561284841E+02  0.30361359394E+01 -0.12531458812E+02  0.27740084614E+02  0.00000000000E+00 0.  1.
</event>
<event>
 7    1  0.3837332E-009  0.4778727E+02  0.7816164E-02  0.1312668E+00
        -11   -1    0    0    0    0  0.00000000000E+00  0.00000000000E+00  0.45593999997E+02  0.45594000000E+02  0.51100000000E-03 0.  1.
         11   -1    0    0    0    0 -0.00000000000E+00 -0.00000000000E+00 -0.45593999997E+02  0.45594000000E+02  0.51100000000E-03 0. -1.
    9900012    2    1    2    0    0  0.10318927231E+02  0.28240979748E+01 -0.42061473259E+02  0.47787270498E+02  0.19999997510E+02 0.  0.
        -12    1    1    2    0    0 -0.10318927231E+02 -0.28240979748E+01  0.42061473259E+02  0.43400729502E+02  0.00000000000E+00 0.  1.
         11    1    3    3    0    0  0.27408837020E+01  0.77803433986E+00 -0.14814956417E+00  0.28530211104E+01  0.51100000000E-03 0. -1.
        -11    1    3    3    0    0  0.67467638257E+01 -0.45291821550E+01 -0.13489559535E+02  0.15748032570E+02  0.51100000000E-03 0.  1.
         12    1    3    3    0    0  0.83127970344E+00  0.65752457899E+01 -0.28423764159E+02  0.29186216818E+02  0.00000000000E+00 0. -1.
</event>
<event>
 7    1  0.3837332E-009  0.4778727E+02  0.7816164E-02  0.1312668E+00
        -11   -1    0    0    0    0  0.00000000000E+00  0.00000000000E+00  0.45593999997E+02  0.45594000000E+02  0.51100000000E-03 0.  1.
         11   -1    0    0    0    0 -0.00000000000E+00 -0.00000000000E+00 -0.45593999997E+02  0.45594000000E+02  0.51100000000E-03 0. -1.
    9900012    2    1    2    0    0  0.30544545635E+02  0.23925121900E+02 -0.19448464456E+02  0.47787268489E+02  0.19999988349E+02 0.  0.
        -12    1    1    2    0    0 -0.30544545635E+02 -0.23925121900E+02  0.19448464456E+02  0.43400731511E+02  0.00000000000E+00 0.  1.
         11    1    3    3    0    0  0.13994009458E+02  0.11881483731E+02 -0.13114950059E+02  0.22561114149E+02  0.51100000000E-03 0. -1.
        -11    1    3    3    0    0  0.17768310983E+02  0.81454245581E+01 -0.75669647984E+01  0.20959956416E+02  0.51100000000E-03 0.  1.
        -12    1    3    3    0    0 -0.12177748060E+01  0.38982136105E+01  0.12334504014E+01  0.42661979237E+01  0.00000000000E+00 0.  1.
</event>
<event>
 7    1  0.3837332E-009  0.4778727E+02  0.7816164E-02  0.1312668E+00
        -11   -1    0    0    0    0  0.00000000000E+00  0.00000000000E+00  0.45593999997E+02  0.45594000000E+02  0.51100000000E-03 0. -1.
         11   -1    0    0    0    0 -0.00000000000E+00 -0.00000000000E+00 -0.45593999997E+02  0.45594000000E+02  0.51100000000E-03 0.  1.
    9900012    2    1    2    0    0 -0.20619973416E+02 -0.21827814118E+02  0.31336661872E+02  0.47787272470E+02  0.20000006502E+02 0.  0.
        -12    1    1    2    0    0  0.20619973416E+02  0.21827814118E+02 -0.31336661872E+02  0.43400727530E+02  0.00000000000E+00 0.  1.
         11    1    3    3    0    0 -0.99693805449E+01 -0.73488530068E+01  0.10202861064E+02  0.16046574809E+02  0.51100000000E-03 0. -1.
        -11    1    3    3    0    0 -0.83485699519E+01 -0.14288491048E+01  0.14802172044E+02  0.17054164520E+02  0.51100000000E-03 0.  1.
        -12    1    3    3    0    0 -0.23020229192E+01 -0.13050112006E+02  0.63316287642E+01  0.14686533141E+02  0.00000000000E+00 0.  1.
</event>
<event>
 7    1  0.3837332E-009  0.4778728E+02  0.7816164E-02  0.1312668E+00
        -11   -1    0    0    0    0  0.00000000000E+00  0.00000000000E+00  0.45593999997E+02  0.45594000000E+02  0.51100000000E-03 0.  1.
         11   -1    0    0    0    0 -0.00000000000E+00 -0.00000000000E+00 -0.45593999997E+02  0.45594000000E+02  0.51100000000E-03 0. -1.
    9900012    2    1    2    0    0 -0.20045708094E+02  0.91145089526E+01 -0.37399441387E+02  0.47787275323E+02  0.20000019507E+02 0.  0.
        -12    1    1    2    0    0  0.20045708094E+02 -0.91145089526E+01  0.37399441387E+02  0.43400724677E+02  0.00000000000E+00 0.  1.
         11    1    3    3    0    0 -0.24312800722E+01  0.13758854123E+01 -0.11889909534E+02  0.12213686276E+02  0.51100000000E-03 0. -1.
        -11    1    3    3    0    0 -0.13095704179E+02  0.17812113034E+01 -0.24750218781E+02  0.28057860069E+02  0.51100000000E-03 0.  1.
        -12    1    3    3    0    0 -0.45187238428E+01  0.59574122370E+01 -0.75931307112E+00  0.75157289779E+01  0.00000000000E+00 0.  1.
</event>
<event>
 7    1  0.3837332E-009  0.4778727E+02  0.7816164E-02  0.1312668E+00
        -11   -1    0    0    0    0  0.00000000000E+00  0.00000000000E+00  0.45593999997E+02  0.45594000000E+02  0.51100000000E-03 0. -1.
         11   -1    0    0    0    0 -0.00000000000E+00 -0.00000000000E+00 -0.45593999997E+02  0.45594000000E+02  0.51100000000E-03 0.  1.
    9900012    2    1    2    0    0 -0.22455701995E+02  0.10546006571E+02  0.35611047950E+02  0.47787267947E+02  0.19999985877E+02 0.  0.
        -12    1    1    2    0    0  0.22455701995E+02 -0.10546006571E+02 -0.35611047950E+02  0.43400732053E+02  0.00000000000E+00 0.  1.
         11    1    3    3    0    0 -0.21990977497E+01  0.65829153353E+01  0.50318451221E+01  0.85726466636E+01  0.51100000000E-03 0. -1.
        -11    1    3    3    0    0 -0.39715119250E+01 -0.34829765216E+01  0.23420552181E+01  0.57783436490E+01  0.51100000000E-03 0.  1.
        -12    1    3    3    0    0 -0.16285092320E+02  0.74460677574E+01  0.28237147609E+02  0.33436277634E+02  0.00000000000E+00 0.  1.
</event>
<event>
 7    1  0.3837332E-009  0.4778727E+02  0.7816164E-02  0.1312668E+00
        -11   -1    0    0    0    0  0.00000000000E+00  0.00000000000E+00  0.45593999997E+02  0.45594000000E+02  0.51100000000E-03 0.  1.
         11   -1    0    0    0    0 -0.00000000000E+00 -0.00000000000E+00 -0.45593999997E+02  0.45594000000E+02  0.51100000000E-03 0. -1.
    9900012    2    1    2    0    0  0.96282606649E+01 -0.33288235664E+02 -0.26130698951E+02  0.47787268846E+02  0.19999989976E+02 0.  0.
        -12    1    1    2    0    0 -0.96282606649E+01  0.33288235664E+02  0.26130698951E+02  0.43400731154E+02  0.00000000000E+00 0.  1.
         11    1    3    3    0    0  0.51225440101E+00 -0.10263644349E+02 -0.94864573955E+01  0.13985623835E+02  0.51100000000E-03 0. -1.
        -11    1    3    3    0    0 -0.10954778224E+01 -0.13161592913E+02 -0.14205985822E+02  0.19396845958E+02  0.51100000000E-03 0.  1.
        -12    1    3    3    0    0  0.10211484086E+02 -0.98629984023E+01 -0.24382557332E+01  0.14404799053E+02  0.00000000000E+00 0.  1.
</event>
<event>
 7    1  0.3837332E-009  0.4778727E+02  0.7816164E-02  0.1312668E+00
        -11   -1    0    0    0    0  0.00000000000E+00  0.00000000000E+00  0.45593999997E+02  0.45594000000E+02  0.51100000000E-03 0.  1.
         11   -1    0    0    0    0 -0.00000000000E+00 -0.00000000000E+00 -0.45593999997E+02  0.45594000000E+02  0.51100000000E-03 0. -1.
    9900012    2    1    2    0    0 -0.40264565506E+02 -0.12604632829E+02 -0.10174041044E+02  0.47787272871E+02  0.20000008328E+02 0.  0.
        -12    1    1    2    0    0  0.40264565506E+02  0.12604632829E+02  0.10174041044E+02  0.43400727129E+02  0.00000000000E+00 0.  1.
         11    1    3    3    0    0 -0.12372205308E+02 -0.57134019937E+01 -0.40253819528E+01  0.14209789817E+02  0.51100000000E-03 0. -1.
        -11    1    3    3    0    0 -0.21980579598E+02 -0.35577904981E+01  0.26956895968E+01  0.22429233054E+02  0.51100000000E-03 0.  1.
         12    1    3    3    0    0 -0.59117805999E+01 -0.33334403372E+01 -0.88443486884E+01  0.11148250000E+02  0.00000000000E+00 0. -1.
</event>
<event>
 7    1  0.3837332E-009  0.4778727E+02  0.7816164E-02  0.1312668E+00
        -11   -1    0    0    0    0  0.00000000000E+00  0.00000000000E+00  0.45593999997E+02  0.45594000000E+02  0.51100000000E-03 0.  1.
         11   -1    0    0    0    0 -0.00000000000E+00 -0.00000000000E+00 -0.45593999997E+02  0.45594000000E+02  0.51100000000E-03 0. -1.
    9900012    2    1    2    0    0 -0.19438826257E+02  0.35327722777E+02 -0.16053263228E+02  0.47787271629E+02  0.20000002666E+02 0.  0.
        -12    1    1    2    0    0  0.19438826257E+02 -0.35327722777E+02  0.16053263228E+02  0.43400728371E+02  0.00000000000E+00 0.  1.
         11    1    3    3    0    0 -0.26531920304E+01  0.12459296552E+02  0.31229002114E+01  0.13115868424E+02  0.51100000000E-03 0. -1.
        -11    1    3    3    0    0 -0.57141046792E+01  0.48658725188E+01 -0.31124672741E+01  0.81249714121E+01  0.51100000000E-03 0.  1.
         12    1    3    3    0    0 -0.11071529547E+02  0.18002553707E+02 -0.16063696165E+02  0.26546431793E+02  0.00000000000E+00 0. -1.
</event>
<event>
 7    1  0.3837332E-009  0.4778727E+02  0.7816164E-02  0.1312668E+00
        -11   -1    0    0    0    0  0.00000000000E+00  0.00000000000E+00  0.45593999997E+02  0.45594000000E+02  0.51100000000E-03 0.  1.
         11   -1    0    0    0    0 -0.00000000000E+00 -0.00000000000E+00 -0.45593999997E+02  0.45594000000E+02  0.51100000000E-03 0. -1.
    9900012    2    1    2    0    0  0.16624183219E+02 -0.83353914533E+01 -0.39214549995E+02  0.47787272475E+02  0.20000006522E+02 0.  0.
        -12    1    1    2    0    0 -0.16624183219E+02  0.83353914533E+01  0.39214549995E+02  0.43400727525E+02  0.00000000000E+00 0.  1.
         11    1    3    3    0    0  0.53627559384E+00  0.30142566021E+01 -0.36153483724E+01  0.47375181784E+01  0.51100000000E-03 0. -1.
        -11    1    3    3    0    0 -0.40029078997E+00 -0.67590782619E+01 -0.13451538170E+02  0.15059523600E+02  0.51100000000E-03 0.  1.
         12    1    3    3    0    0  0.16488198415E+02 -0.45905697936E+01 -0.22147663453E+02  0.27990230697E+02  0.00000000000E+00 0. -1.
</event>
<event>
 7    1  0.3837332E-009  0.4778727E+02  0.7816164E-02  0.1312668E+00
        -11   -1    0    0    0    0  0.00000000000E+00  0.00000000000E+00  0.45593999997E+02  0.45594000000E+02  0.51100000000E-03 0.  1.
         11   -1    0    0    0    0 -0.00000000000E+00 -0.00000000000E+00 -0.45593999997E+02  0.45594000000E+02  0.51100000000E-03 0. -1.
    9900012    2    1    2    0    0  0.15218293877E+01 -0.35038654412E+02 -0.25565599376E+02  0.47787272597E+02  0.20000007079E+02 0.  0.
        -12    1    1    2    0    0 -0.15218293877E+01  0.35038654412E+02  0.25565599376E+02  0.43400727403E+02  0.00000000000E+00 0.  1.
         11    1    3    3    0    0 -0.84985527983E+00 -0.23341120524E+02 -0.10920022470E+02  0.25783270784E+02  0.51100000000E-03 0. -1.
        -11    1    3    3    0    0  0.30456655204E+01 -0.13842456933E+02 -0.12607320456E+02  0.18969296817E+02  0.51100000000E-03 0.  1.
        -12    1    3    3    0    0 -0.67398085294E+00  0.21449230450E+01 -0.20382564493E+01  0.30347049959E+01  0.00000000000E+00 0.  1.
</event>
<event>
 7    1  0.3837332E-009  0.4778727E+02  0.7816164E-02  0.1312668E+00
        -11   -1    0    0    0    0  0.00000000000E+00  0.00000000000E+00  0.45593999997E+02  0.45594000000E+02  0.51100000000E-03 0.  1.
         11   -1    0    0    0    0 -0.00000000000E+00 -0.00000000000E+00 -0.45593999997E+02  0.45594000000E+02  0.51100000000E-03 0. -1.
    9900012    2    1    2    0    0  0.32205416777E+02  0.18171863843E+02 -0.22720422378E+02  0.47787273066E+02  0.20000009219E+02 0.  0.
        -12    1    1    2    0    0 -0.32205416777E+02 -0.18171863843E+02  0.22720422378E+02  0.43400726934E+02  0.00000000000E+00 0.  1.
         11    1    3    3    0    0  0.35324297119E+01 -0.12156552844E+01 -0.39361564637E+01  0.54267122098E+01  0.51100000000E-03 0. -1.
        -11    1    3    3    0    0  0.70822637691E+01  0.24392746252E+01 -0.11901641194E+02  0.14062630770E+02  0.51100000000E-03 0.  1.
        -12    1    3    3    0    0  0.21590723296E+02  0.16948244502E+02 -0.68826247203E+01  0.28297930087E+02  0.00000000000E+00 0.  1.
</event>
<event>
 7    1  0.3837332E-009  0.4778727E+02  0.7816164E-02  0.1312668E+00
        -11   -1    0    0    0    0  0.00000000000E+00  0.00000000000E+00  0.45593999997E+02  0.45594000000E+02  0.51100000000E-03 0.  1.
         11   -1    0    0    0    0 -0.00000000000E+00 -0.00000000000E+00 -0.45593999997E+02  0.45594000000E+02  0.51100000000E-03 0. -1.
    9900012    2    1    2    0    0  0.15787953596E+01  0.15881709787E+02 -0.40359656588E+02  0.47787272121E+02  0.20000004907E+02 0.  0.
        -12    1    1    2    0    0 -0.15787953596E+01 -0.15881709787E+02  0.40359656588E+02  0.43400727879E+02  0.00000000000E+00 0.  1.
         11    1    3    3    0    0 -0.22739504008E+01  0.50588253890E+01 -0.25208493705E+02  0.25811445521E+02  0.51100000000E-03 0. -1.
        -11    1    3    3    0    0 -0.16655941988E+01  0.11383084843E+01 -0.90433751498E+01  0.92656669810E+01  0.51100000000E-03 0.  1.
        -12    1    3    3    0    0  0.55183399592E+01  0.96845759140E+01 -0.61077877330E+01  0.12710159619E+02  0.00000000000E+00 0.  1.
</event>
<event>
 7    1  0.3837332E-009  0.4778727E+02  0.7816164E-02  0.1312668E+00
        -11   -1    0    0    0    0  0.00000000000E+00  0.00000000000E+00  0.45593999997E+02  0.45594000000E+02  0.51100000000E-03 0.  1.
         11   -1    0    0    0    0 -0.00000000000E+00 -0.00000000000E+00 -0.45593999997E+02  0.45594000000E+02  0.51100000000E-03 0. -1.
    9900012    2    1    2    0    0 -0.17099860306E+02 -0.39760548462E+02  0.32119980913E+01  0.47787269958E+02  0.19999995045E+02 0.  0.
        -12    1    1    2    0    0  0.17099860306E+02  0.39760548462E+02 -0.32119980913E+01  0.43400730042E+02  0.00000000000E+00 0.  1.
         11    1    3    3    0    0 -0.17868831205E+01  0.45412725850E+00 -0.17569037174E+01  0.25467417982E+01  0.51100000000E-03 0. -1.
        -11    1    3    3    0    0 -0.38260704841E+01 -0.79545913333E+00  0.46550405367E+00  0.39355132915E+01  0.51100000000E-03 0.  1.
         12    1    3    3    0    0 -0.11486906701E+02 -0.39419216587E+02  0.45033977549E+01  0.41305014868E+02  0.00000000000E+00 0. -1.
</event>
<event>
 7    1  0.3837332E-009  0.4778726E+02  0.7816164E-02  0.1312668E+00
        -11   -1    0    0    0    0  0.00000000000E+00  0.00000000000E+00  0.45593999997E+02  0.45594000000E+02  0.51100000000E-03 0. -1.
         11   -1    0    0    0    0 -0.00000000000E+00 -0.00000000000E+00 -0.45593999997E+02  0.45594000000E+02  0.51100000000E-03 0.  1.
    9900012    2    1    2    0    0 -0.31435024660E+02  0.23443979697E+02  0.18596859397E+02  0.47787261079E+02  0.19999954564E+02 0.  0.
        -12    1    1    2    0    0  0.31435024660E+02 -0.23443979697E+02 -0.18596859397E+02  0.43400738921E+02  0.00000000000E+00 0.  1.
         11    1    3    3    0    0 -0.80653875036E+01  0.28458022950E+01  0.99730426878E+01  0.13138137121E+02  0.51100000000E-03 0. -1.
        -11    1    3    3    0    0 -0.19789575160E+02  0.11227445624E+02  0.93337351772E+01  0.24592710970E+02  0.51100000000E-03 0.  1.
        -12    1    3    3    0    0 -0.35800619968E+01  0.93707317779E+01 -0.70991846762E+00  0.10056412988E+02  0.00000000000E+00 0.  1.
</event>
<event>
 7    1  0.3837332E-009  0.4778727E+02  0.7816164E-02  0.1312668E+00
        -11   -1    0    0    0    0  0.00000000000E+00  0.00000000000E+00  0.45593999997E+02  0.45594000000E+02  0.51100000000E-03 0.  1.
         11   -1    0    0    0    0 -0.00000000000E+00 -0.00000000000E+00 -0.45593999997E+02  0.45594000000E+02  0.51100000000E-03 0. -1.
    9900012    2    1    2    0    0  0.15890589129E+02  0.29384330872E+02 -0.27706922358E+02  0.47787271087E+02  0.20000000195E+02 0.  0.
        -12    1    1    2    0    0 -0.15890589129E+02 -0.29384330872E+02  0.27706922358E+02  0.43400728913E+02  0.00000000000E+00 0.  1.
         11    1    3    3    0    0  0.16540425225E+02  0.25153763165E+02 -0.16886256792E+02  0.34517287505E+02  0.51100000000E-03 0. -1.
        -11    1    3    3    0    0 -0.82863380996E+00  0.14959177210E+01  0.36914194771E+00  0.17494770241E+01  0.51100000000E-03 0.  1.
        -12    1    3    3    0    0  0.17879771360E+00  0.27346499851E+01 -0.11189807513E+02  0.11520506558E+02  0.00000000000E+00 0.  1.
</event>
<event>
 7    1  0.3837332E-009  0.4778728E+02  0.7816164E-02  0.1312668E+00
        -11   -1    0    0    0    0  0.00000000000E+00  0.00000000000E+00  0.45593999997E+02  0.45594000000E+02  0.51100000000E-03 0.  1.
         11   -1    0    0    0    0 -0.00000000000E+00 -0.00000000000E+00 -0.45593999997E+02  0.45594000000E+02  0.51100000000E-03 0. -1.
    9900012    2    1    2    0    0  0.40576620536E+02 -0.13703200520E+02  0.70273025869E+01  0.47787276270E+02  0.20000023825E+02 0.  0.
        -12    1    1    2    0    0 -0.40576620536E+02  0.13703200520E+02 -0.70273025869E+01  0.43400723730E+02  0.00000000000E+00 0.  1.
         11    1    3    3    0    0  0.20234862168E+02 -0.21456900403E+01  0.24270430094E+00  0.20349755241E+02  0.51100000000E-03 0. -1.
        -11    1    3    3    0    0  0.44552010583E+01 -0.72468121122E+01 -0.20574712416E+01  0.87520449285E+01  0.51100000000E-03 0.  1.
        -12    1    3    3    0    0  0.15886557310E+02 -0.43106983674E+01  0.88420695276E+01  0.18685476101E+02  0.00000000000E+00 0.  1.
</event>
<event>
 7    1  0.3837332E-009  0.4778727E+02  0.7816164E-02  0.1312668E+00
        -11   -1    0    0    0    0  0.00000000000E+00  0.00000000000E+00  0.45593999997E+02  0.45594000000E+02  0.51100000000E-03 0.  1.
         11   -1    0    0    0    0 -0.00000000000E+00 -0.00000000000E+00 -0.45593999997E+02  0.45594000000E+02  0.51100000000E-03 0. -1.
    9900012    2    1    2    0    0  0.33777217093E+02 -0.18531708869E+02 -0.19982454211E+02  0.47787272996E+02  0.20000008897E+02 0.  0.
        -12    1    1    2    0    0 -0.33777217093E+02  0.18531708869E+02  0.19982454211E+02  0.43400727004E+02  0.00000000000E+00 0.  1.
         11    1    3    3    0    0  0.25511463141E+02 -0.10967204552E+02 -0.13226203085E+02  0.30757873392E+02  0.51100000000E-03 0. -1.
        -11    1    3    3    0    0  0.81285602637E+01 -0.93026605457E+01 -0.27440894769E+01  0.12654762444E+02  0.51100000000E-03 0.  1.
         12    1    3    3    0    0  0.13719368793E+00  0.17381562281E+01 -0.40121616491E+01  0.43746371598E+01  0.00000000000E+00 0. -1.
</event>
<event>
 7    1  0.3837332E-009  0.4778727E+02  0.7816164E-02  0.1312668E+00
        -11   -1    0    0    0    0  0.00000000000E+00  0.00000000000E+00  0.45593999997E+02  0.45594000000E+02  0.51100000000E-03 0. -1.
         11   -1    0    0    0    0 -0.00000000000E+00 -0.00000000000E+00 -0.45593999997E+02  0.45594000000E+02  0.51100000000E-03 0.  1.
    9900012    2    1    2    0    0 -0.24592623585E+02  0.35552452271E+02 -0.38534751563E+01  0.47787271111E+02  0.20000000305E+02 0.  0.
        -12    1    1    2    0    0  0.24592623585E+02 -0.35552452271E+02  0.38534751563E+01  0.43400728889E+02  0.00000000000E+00 0.  1.
         11    1    3    3    0    0 -0.94509810509E+01  0.12661729860E+02 -0.39222177334E+01  0.16279565046E+02  0.51100000000E-03 0. -1.
        -11    1    3    3    0    0 -0.56625193310E+01  0.18268099191E+02 -0.50555709670E+01  0.19782476369E+02  0.51100000000E-03 0.  1.
        -12    1    3    3    0    0 -0.94791232027E+01  0.46226232200E+01  0.51243135442E+01  0.11725229696E+02  0.00000000000E+00 0.  1.
</event>
<event>
 7    1  0.3837332E-009  0.4778725E+02  0.7816164E-02  0.1312668E+00
        -11   -1    0    0    0    0  0.00000000000E+00  0.00000000000E+00  0.45593999997E+02  0.45594000000E+02  0.51100000000E-03 0.  1.
         11   -1    0    0    0    0 -0.00000000000E+00 -0.00000000000E+00 -0.45593999997E+02  0.45594000000E+02  0.51100000000E-03 0. -1.
    9900012    2    1    2    0    0  0.19427115220E+02 -0.46841139143E+01 -0.38526242086E+02  0.47787250488E+02  0.19999906275E+02 0.  0.
        -12    1    1    2    0    0 -0.19427115220E+02  0.46841139143E+01  0.38526242086E+02  0.43400749512E+02  0.00000000000E+00 0.  1.
         11    1    3    3    0    0  0.11021395166E+02  0.50460400462E+01 -0.12091914763E+02  0.17121567524E+02  0.51100000000E-03 0.  1.
        -11    1    3    3    0    0  0.59579648384E+01 -0.27565833341E+01 -0.58439399101E+01  0.87890688146E+01  0.51100000000E-03 0. -1.
        -12    1    3    3    0    0  0.24477552159E+01 -0.69735706263E+01 -0.20590387412E+02  0.21876614150E+02  0.00000000000E+00 0.  1.
</event>
<event>
 7    1  0.3837332E-009  0.4778727E+02  0.7816164E-02  0.1312668E+00
        -11   -1    0    0    0    0  0.00000000000E+00  0.00000000000E+00  0.45593999997E+02  0.45594000000E+02  0.51100000000E-03 0.  1.
         11   -1    0    0    0    0 -0.00000000000E+00 -0.00000000000E+00 -0.45593999997E+02  0.45594000000E+02  0.51100000000E-03 0. -1.
    9900012    2    1    2    0    0 -0.12295536877E+02  0.21602299025E+02 -0.35577854680E+02  0.47787270814E+02  0.19999998949E+02 0.  0.
        -12    1    1    2    0    0  0.12295536877E+02 -0.21602299025E+02  0.35577854680E+02  0.43400729186E+02  0.00000000000E+00 0.  1.
         11    1    3    3    0    0  0.21626318475E+01  0.13449250763E+02 -0.12185430123E+02  0.18276871454E+02  0.51100000000E-03 0. -1.
        -11    1    3    3    0    0 -0.69728758981E+01  0.69231413344E+01 -0.94221371623E+01  0.13613506278E+02  0.51100000000E-03 0.  1.
         12    1    3    3    0    0 -0.74852928262E+01  0.12299069268E+01 -0.13970287395E+02  0.15896893081E+02  0.00000000000E+00 0. -1.
</event>
<event>
 7    1  0.3837332E-009  0.4778732E+02  0.7816164E-02  0.1312668E+00
        -11   -1    0    0    0    0  0.00000000000E+00  0.00000000000E+00  0.45593999997E+02  0.45594000000E+02  0.51100000000E-03 0.  1.
         11   -1    0    0    0    0 -0.00000000000E+00 -0.00000000000E+00 -0.45593999997E+02  0.45594000000E+02  0.51100000000E-03 0. -1.
    9900012    2    1    2    0    0  0.14273531179E+02 -0.31103339087E+02  0.26692093940E+02  0.47787317131E+02  0.20000210124E+02 0.  0.
        -12    1    1    2    0    0 -0.14273531179E+02  0.31103339087E+02 -0.26692093940E+02  0.43400682869E+02  0.00000000000E+00 0.  1.
         11    1    3    3    0    0  0.57621386447E+01 -0.14181681341E+02  0.11539681955E+02  0.19169939679E+02  0.51100000000E-03 0. -1.
        -11    1    3    3    0    0  0.65353908226E+01 -0.62466380997E+01  0.15286993423E+02  0.17760179868E+02  0.51100000000E-03 0.  1.
        -12    1    3    3    0    0  0.19760017116E+01 -0.10675019646E+02 -0.13458143880E+00  0.10857197584E+02  0.00000000000E+00 0.  1.
</event>
<event>
 7    1  0.3837332E-009  0.4778727E+02  0.7816164E-02  0.1312668E+00
        -11   -1    0    0    0    0  0.00000000000E+00  0.00000000000E+00  0.45593999997E+02  0.45594000000E+02  0.51100000000E-03 0.  1.
         11   -1    0    0    0    0 -0.00000000000E+00 -0.00000000000E+00 -0.45593999997E+02  0.45594000000E+02  0.51100000000E-03 0. -1.
    9900012    2    1    2    0    0  0.51115235358E+01  0.18950497896E+02 -0.38708836585E+02  0.47787273357E+02  0.20000010543E+02 0.  0.
        -12    1    1    2    0    0 -0.51115235358E+01 -0.18950497896E+02  0.38708836585E+02  0.43400726643E+02  0.00000000000E+00 0.  1.
         11    1    3    3    0    0 -0.89701196771E+00  0.14874622038E+02 -0.15009940256E+02  0.21150823104E+02  0.51100000000E-03 0. -1.
        -11    1    3    3    0    0 -0.18433559705E+01  0.13181710730E+01 -0.10319498448E+01  0.24900716767E+01  0.51100000000E-03 0.  1.
         12    1    3    3    0    0  0.78518914740E+01  0.27577047858E+01 -0.22666946484E+02  0.24146378576E+02  0.00000000000E+00 0. -1.
</event>
<event>
 7    1  0.3837332E-009  0.4778727E+02  0.7816164E-02  0.1312668E+00
        -11   -1    0    0    0    0  0.00000000000E+00  0.00000000000E+00  0.45593999997E+02  0.45594000000E+02  0.51100000000E-03 0.  1.
         11   -1    0    0    0    0 -0.00000000000E+00 -0.00000000000E+00 -0.45593999997E+02  0.45594000000E+02  0.51100000000E-03 0. -1.
    9900012    2    1    2    0    0 -0.84340514290E+01  0.20140416807E+02 -0.37508046862E+02  0.47787271987E+02  0.20000004298E+02 0.  0.
        -12    1    1    2    0    0  0.84340514290E+01 -0.20140416807E+02  0.37508046862E+02  0.43400728013E+02  0.00000000000E+00 0.  1.
         11    1    3    3    0    0 -0.20854296338E+01  0.10527023113E+02 -0.14295445122E+02  0.17875317728E+02  0.51100000000E-03 0. -1.
        -11    1    3    3    0    0 -0.88821651310E+01  0.11243170919E+02 -0.13292828733E+02  0.19544847037E+02  0.51100000000E-03 0.  1.
         12    1    3    3    0    0  0.25335433358E+01 -0.16297772249E+01 -0.99197730073E+01  0.10367107222E+02  0.00000000000E+00 0. -1.
</event>
<event>
 7    1  0.3837332E-009  0.4778727E+02  0.7816164E-02  0.1312668E+00
        -11   -1    0    0    0    0  0.00000000000E+00  0.00000000000E+00  0.45593999997E+02  0.45594000000E+02  0.51100000000E-03 0.  1.
         11   -1    0    0    0    0 -0.00000000000E+00 -0.00000000000E+00 -0.45593999997E+02  0.45594000000E+02  0.51100000000E-03 0. -1.
    9900012    2    1    2    0    0 -0.23919371769E+02 -0.77677714774E+01 -0.35371578608E+02  0.47787271978E+02  0.20000004258E+02 0.  0.
        -12    1    1    2    0    0  0.23919371769E+02  0.77677714774E+01  0.35371578608E+02  0.43400728022E+02  0.00000000000E+00 0.  1.
         11    1    3    3    0    0 -0.43477828353E+01  0.34073334164E+01 -0.74941372528E+01  0.93099532769E+01  0.51100000000E-03 0. -1.
        -11    1    3    3    0    0  0.36902711611E+00  0.10688969048E+01  0.85814718007E+00  0.14195557225E+01  0.51100000000E-03 0.  1.
         12    1    3    3    0    0 -0.19940616050E+02 -0.12244001799E+02 -0.28735588536E+02  0.37057762979E+02  0.00000000000E+00 0. -1.
</event>
<event>
 7    1  0.3837332E-009  0.4778727E+02  0.7816164E-02  0.1312668E+00
        -11   -1    0    0    0    0  0.00000000000E+00  0.00000000000E+00  0.45593999997E+02  0.45594000000E+02  0.51100000000E-03 0.  1.
         11   -1    0    0    0    0 -0.00000000000E+00 -0.00000000000E+00 -0.45593999997E+02  0.45594000000E+02  0.51100000000E-03 0. -1.
    9900012    2    1    2    0    0  0.21664659357E+02 -0.60643210090E+01 -0.37114547049E+02  0.47787273543E+02  0.20000011392E+02 0.  0.
        -12    1    1    2    0    0 -0.21664659357E+02  0.60643210090E+01  0.37114547049E+02  0.43400726457E+02  0.00000000000E+00 0.  1.
         11    1    3    3    0    0  0.75955075358E+01 -0.40408890574E+01 -0.10708252945E+02  0.13736345966E+02  0.51100000000E-03 0. -1.
        -11    1    3    3    0    0  0.35547867556E+01 -0.83876167844E+01 -0.96529507274E+01  0.13272832486E+02  0.51100000000E-03 0.  1.
         12    1    3    3    0    0  0.10514365066E+02  0.63641848328E+01 -0.16753343376E+02  0.20778095091E+02  0.00000000000E+00 0. -1.
</event>
<event>
 7    1  0.3837332E-009  0.4778727E+02  0.7816164E-02  0.1312668E+00
        -11   -1    0    0    0    0  0.00000000000E+00  0.00000000000E+00  0.45593999997E+02  0.45594000000E+02  0.51100000000E-03 0.  1.
         11   -1    0    0    0    0 -0.00000000000E+00 -0.00000000000E+00 -0.45593999997E+02  0.45594000000E+02  0.51100000000E-03 0. -1.
    9900012    2    1    2    0    0  0.11127013587E+02  0.10260007740E+02 -0.40676096209E+02  0.47787274280E+02  0.20000014753E+02 0.  0.
        -12    1    1    2    0    0 -0.11127013587E+02 -0.10260007740E+02  0.40676096209E+02  0.43400725720E+02  0.00000000000E+00 0.  1.
         11    1    3    3    0    0  0.55165896582E+01  0.70015462333E+01 -0.24971880990E+02  0.26515075929E+02  0.51100000000E-03 0. -1.
        -11    1    3    3    0    0  0.82787298808E+01 -0.12052745682E+01 -0.12868390660E+02  0.15348795838E+02  0.51100000000E-03 0.  1.
        -12    1    3    3    0    0 -0.26683059524E+01  0.44637360749E+01 -0.28358245593E+01  0.59234025132E+01  0.00000000000E+00 0.  1.
</event>
<event>
 7    1  0.3837332E-009  0.4778726E+02  0.7816164E-02  0.1312668E+00
        -11   -1    0    0    0    0  0.00000000000E+00  0.00000000000E+00  0.45593999997E+02  0.45594000000E+02  0.51100000000E-03 0. -1.
         11   -1    0    0    0    0 -0.00000000000E+00 -0.00000000000E+00 -0.45593999997E+02  0.45594000000E+02  0.51100000000E-03 0.  1.
    9900012    2    1    2    0    0 -0.15665873142E+02  0.37248794463E+02  0.15834526762E+02  0.47787256826E+02  0.19999935174E+02 0.  0.
        -12    1    1    2    0    0  0.15665873142E+02 -0.37248794463E+02 -0.15834526762E+02  0.43400743174E+02  0.00000000000E+00 0.  1.
         11    1    3    3    0    0 -0.98167949124E+01  0.29480957599E+02  0.15712204843E+02  0.34819099710E+02  0.51100000000E-03 0. -1.
        -11    1    3    3    0    0 -0.42455176884E+00  0.72221976745E+01 -0.12604227353E+01  0.73436400502E+01  0.51100000000E-03 0.  1.
        -12    1    3    3    0    0 -0.54245264612E+01  0.54563918943E+00  0.13827446539E+01  0.56245170665E+01  0.00000000000E+00 0.  1.
</event>
<event>
 7    1  0.3837332E-009  0.4778727E+02  0.7816164E-02  0.1312668E+00
        -11   -1    0    0    0    0  0.00000000000E+00  0.00000000000E+00  0.45593999997E+02  0.45594000000E+02  0.51100000000E-03 0.  1.
         11   -1    0    0    0    0 -0.00000000000E+00 -0.00000000000E+00 -0.45593999997E+02  0.45594000000E+02  0.51100000000E-03 0. -1.
    9900012    2    1    2    0    0  0.60929434845E+01 -0.20985484824E+01 -0.42919637830E+02  0.47787272155E+02  0.20000005064E+02 0.  0.
        -12    1    1    2    0    0 -0.60929434845E+01  0.20985484824E+01  0.42919637830E+02  0.43400727845E+02  0.00000000000E+00 0.  1.
         11    1    3    3    0    0 -0.16508036399E+01 -0.14954921870E+01 -0.12271768103E+02  0.12472286967E+02  0.51100000000E-03 0. -1.
        -11    1    3    3    0    0  0.12015691789E+01  0.50149304937E+01 -0.22314687697E+01  0.56189633812E+01  0.51100000000E-03 0.  1.
        -12    1    3    3    0    0  0.65421779455E+01 -0.56179867890E+01 -0.28416400957E+02  0.29696021807E+02  0.00000000000E+00 0.  1.
</event>
<event>
 7    1  0.3837332E-009  0.4778727E+02  0.7816164E-02  0.1312668E+00
        -11   -1    0    0    0    0  0.00000000000E+00  0.00000000000E+00  0.45593999997E+02  0.45594000000E+02  0.51100000000E-03 0.  1.
         11   -1    0    0    0    0 -0.00000000000E+00 -0.00000000000E+00 -0.45593999997E+02  0.45594000000E+02  0.51100000000E-03 0. -1.
    9900012    2    1    2    0    0  0.36233619057E+02  0.16760622841E+02 -0.17024398595E+02  0.47787265265E+02  0.19999973651E+02 0.  0.
        -12    1    1    2    0    0 -0.36233619057E+02 -0.16760622841E+02  0.17024398595E+02  0.43400734735E+02  0.00000000000E+00 0.  1.
         11    1    3    3    0    0  0.14378362305E+02  0.46225488284E+01 -0.94042886957E+01  0.17791737025E+02  0.51100000000E-03 0. -1.
        -11    1    3    3    0    0  0.19877744395E+02  0.66245861011E+01 -0.10536036195E+02  0.23452460899E+02  0.51100000000E-03 0.  1.
        -12    1    3    3    0    0  0.19775123574E+01  0.55134879116E+01  0.29159262956E+01  0.65430673416E+01  0.00000000000E+00 0.  1.
</event>
<event>
 7    1  0.3837332E-009  0.4778727E+02  0.7816164E-02  0.1312668E+00
        -11   -1    0    0    0    0  0.00000000000E+00  0.00000000000E+00  0.45593999997E+02  0.45594000000E+02  0.51100000000E-03 0. -1.
         11   -1    0    0    0    0 -0.00000000000E+00 -0.00000000000E+00 -0.45593999997E+02  0.45594000000E+02  0.51100000000E-03 0.  1.
    9900012    2    1    2    0    0  0.82033922940E+01  0.20978721545E+02  0.37097456342E+02  0.47787266483E+02  0.19999979200E+02 0.  0.
        -12    1    1    2    0    0 -0.82033922940E+01 -0.20978721545E+02 -0.37097456342E+02  0.43400733517E+02  0.00000000000E+00 0.  1.
         11    1    3    3    0    0  0.51354934457E+01  0.83525748631E+01  0.14289644763E+02  0.17330111007E+02  0.51100000000E-03 0. -1.
        -11    1    3    3    0    0  0.93857887259E+01  0.70170504165E+01  0.13880624603E+02  0.18166005785E+02  0.51100000000E-03 0.  1.
        -12    1    3    3    0    0 -0.63178898776E+01  0.56090962655E+01  0.89271869755E+01  0.12291149691E+02  0.00000000000E+00 0.  1.
</event>
<event>
 7    1  0.3837332E-009  0.4778727E+02  0.7816164E-02  0.1312668E+00
        -11   -1    0    0    0    0  0.00000000000E+00  0.00000000000E+00  0.45593999997E+02  0.45594000000E+02  0.51100000000E-03 0.  1.
         11   -1    0    0    0    0 -0.00000000000E+00 -0.00000000000E+00 -0.45593999997E+02  0.45594000000E+02  0.51100000000E-03 0. -1.
    9900012    2    1    2    0    0 -0.19913547535E+02  0.20731348434E+02 -0.32515917125E+02  0.47787273626E+02  0.20000011770E+02 0.  0.
        -12    1    1    2    0    0  0.19913547535E+02 -0.20731348434E+02  0.32515917125E+02  0.43400726374E+02  0.00000000000E+00 0.  1.
         11    1    3    3    0    0  0.17213023207E+01  0.17560191211E+01 -0.38997658120E+01  0.46102774843E+01  0.51100000000E-03 0. -1.
        -11    1    3    3    0    0 -0.33167099945E+01  0.27692340486E+01  0.13219284466E+01  0.45184861937E+01  0.51100000000E-03 0.  1.
         12    1    3    3    0    0 -0.18318139861E+02  0.16206095264E+02 -0.29938079760E+02  0.38658509948E+02  0.00000000000E+00 0. -1.
</event>
<event>
 7    1  0.3837332E-009  0.4778727E+02  0.7816164E-02  0.1312668E+00
        -11   -1    0    0    0    0  0.00000000000E+00  0.00000000000E+00  0.45593999997E+02  0.45594000000E+02  0.51100000000E-03 0.  1.
         11   -1    0    0    0    0 -0.00000000000E+00 -0.00000000000E+00 -0.45593999997E+02  0.45594000000E+02  0.51100000000E-03 0. -1.
    9900012    2    1    2    0    0  0.48496207436E+01 -0.20571157493E+01 -0.43079839094E+02  0.47787273244E+02  0.20000010031E+02 0.  0.
        -12    1    1    2    0    0 -0.48496207436E+01  0.20571157493E+01  0.43079839094E+02  0.43400726756E+02  0.00000000000E+00 0.  1.
         11    1    3    3    0    0 -0.18590808294E+00  0.26923448836E+01 -0.30865504255E+01  0.41000093388E+01  0.51100000000E-03 0.  1.
        -11    1    3    3    0    0  0.39055637515E+01 -0.39279068654E+00 -0.52156844971E+00  0.39597659842E+01  0.51100000000E-03 0. -1.
         12    1    3    3    0    0  0.11299650750E+01 -0.43566699464E+01 -0.39471720219E+02  0.39727497921E+02  0.00000000000E+00 0. -1.
</event>
<event>
 7    1  0.3837332E-009  0.4778727E+02  0.7816164E-02  0.1312668E+00
        -11   -1    0    0    0    0  0.00000000000E+00  0.00000000000E+00  0.45593999997E+02  0.45594000000E+02  0.51100000000E-03 0. -1.
         11   -1    0    0    0    0 -0.00000000000E+00 -0.00000000000E+00 -0.45593999997E+02  0.45594000000E+02  0.51100000000E-03 0.  1.
    9900012    2    1    2    0    0 -0.10739059866E+02 -0.20592121431E+02  0.36664154315E+02  0.47787273238E+02  0.20000009999E+02 0.  0.
        -12    1    1    2    0    0  0.10739059866E+02  0.20592121431E+02 -0.36664154315E+02  0.43400726762E+02  0.00000000000E+00 0.  1.
         11    1    3    3    0    0 -0.88326927011E+01 -0.19507699520E+02  0.18157466744E+02  0.28075975490E+02  0.51100000000E-03 0. -1.
        -11    1    3    3    0    0 -0.10019557975E+01 -0.15260848503E+01  0.82906144067E+00  0.20050420255E+01  0.51100000000E-03 0.  1.
        -12    1    3    3    0    0 -0.90441136776E+00  0.44166293870E+00  0.17677626131E+02  0.17706255722E+02  0.00000000000E+00 0.  1.
</event>
<event>
 7    1  0.3837332E-009  0.4778727E+02  0.7816164E-02  0.1312668E+00
        -11   -1    0    0    0    0  0.00000000000E+00  0.00000000000E+00  0.45593999997E+02  0.45594000000E+02  0.51100000000E-03 0.  1.
         11   -1    0    0    0    0 -0.00000000000E+00 -0.00000000000E+00 -0.45593999997E+02  0.45594000000E+02  0.51100000000E-03 0. -1.
    9900012    2    1    2    0    0 -0.14292166114E+02  0.15486584628E+02 -0.37941051004E+02  0.47787266516E+02  0.19999979353E+02 0.  0.
        -12    1    1    2    0    0  0.14292166114E+02 -0.15486584628E+02  0.37941051004E+02  0.43400733484E+02  0.00000000000E+00 0.  1.
         11    1    3    3    0    0 -0.10814277651E+01 -0.19747360281E+01 -0.24389325448E+01  0.33192560328E+01  0.51100000000E-03 0.  1.
        -11    1    3    3    0    0 -0.59951804178E+01  0.10136992333E+02 -0.31152360309E+02  0.33304209267E+02  0.51100000000E-03 0. -1.
         12    1    3    3    0    0 -0.72155579308E+01  0.73243283230E+01 -0.43497581503E+01  0.11163801217E+02  0.00000000000E+00 0. -1.
</event>
<event>
 7    1  0.3837332E-009  0.4778727E+02  0.7816164E-02  0.1312668E+00
        -11   -1    0    0    0    0  0.00000000000E+00  0.00000000000E+00  0.45593999997E+02  0.45594000000E+02  0.51100000000E-03 0.  1.
         11   -1    0    0    0    0 -0.00000000000E+00 -0.00000000000E+00 -0.45593999997E+02  0.45594000000E+02  0.51100000000E-03 0. -1.
    9900012    2    1    2    0    0 -0.42203886134E+02 -0.40810859361E+01 -0.92628225369E+01  0.47787272488E+02  0.20000006583E+02 0.  0.
        -12    1    1    2    0    0  0.42203886134E+02  0.40810859361E+01  0.92628225369E+01  0.43400727512E+02  0.00000000000E+00 0.  1.
         11    1    3    3    0    0 -0.18385714448E+02 -0.50671618385E+01 -0.30263730799E+01  0.19309830635E+02  0.51100000000E-03 0. -1.
        -11    1    3    3    0    0 -0.63372206388E+01 -0.22123526393E+01  0.41520011511E+01  0.78926537645E+01  0.51100000000E-03 0.  1.
         12    1    3    3    0    0 -0.17480951047E+02  0.31984285417E+01 -0.10388450608E+02  0.20584788089E+02  0.00000000000E+00 0. -1.
</event>
<event>
 7    1  0.3837332E-009  0.4778727E+02  0.7816164E-02  0.1312668E+00
        -11   -1    0    0    0    0  0.00000000000E+00  0.00000000000E+00  0.45593999997E+02  0.45594000000E+02  0.51100000000E-03 0. -1.
         11   -1    0    0    0    0 -0.00000000000E+00 -0.00000000000E+00 -0.45593999997E+02  0.45594000000E+02  0.51100000000E-03 0.  1.
    9900012    2    1    2    0    0  0.43190851637E+02  0.42267151565E+01 -0.55547735178E+00  0.47787270269E+02  0.19999996463E+02 0.  0.
        -12    1    1    2    0    0 -0.43190851637E+02 -0.42267151565E+01  0.55547735178E+00  0.43400729731E+02  0.00000000000E+00 0.  1.
         11    1    3    3    0    0 -0.13199217696E+00 -0.13614481294E+01  0.15076916388E+01  0.20357055983E+01  0.51100000000E-03 0.  1.
        -11    1    3    3    0    0  0.26891215820E+02 -0.22505197523E+01  0.21305617040E+01  0.27069200595E+02  0.51100000000E-03 0. -1.
        -12    1    3    3    0    0  0.16431627994E+02  0.78386830382E+01 -0.41937306946E+01  0.18682364075E+02  0.00000000000E+00 0.  1.
</event>
<event>
 7    1  0.3837332E-009  0.4778727E+02  0.7816164E-02  0.1312668E+00
        -11   -1    0    0    0    0  0.00000000000E+00  0.00000000000E+00  0.45593999997E+02  0.45594000000E+02  0.51100000000E-03 0.  1.
         11   -1    0    0    0    0 -0.00000000000E+00 -0.00000000000E+00 -0.45593999997E+02  0.45594000000E+02  0.51100000000E-03 0. -1.
    9900012    2    1    2    0    0  0.35722990907E+02 -0.31525554891E+01 -0.24444887064E+02  0.47787272022E+02  0.20000004459E+02 0.  0.
        -12    1    1    2    0    0 -0.35722990907E+02  0.31525554891E+01  0.24444887064E+02  0.43400727978E+02  0.00000000000E+00 0.  1.
         11    1    3    3    0    0  0.17970299596E+02 -0.58725291638E+01 -0.90190051081E+01  0.20946615950E+02  0.51100000000E-03 0. -1.
        -11    1    3    3    0    0  0.18290826580E+00 -0.33577564841E+01 -0.26744169232E+01  0.42965672554E+01  0.51100000000E-03 0.  1.
         12    1    3    3    0    0  0.17569783044E+02  0.60777301588E+01 -0.12751465032E+02  0.22544088817E+02  0.00000000000E+00 0. -1.
</event>
<event>
 7    1  0.3837332E-009  0.4778727E+02  0.7816164E-02  0.1312668E+00
        -11   -1    0    0    0    0  0.00000000000E+00  0.00000000000E+00  0.45593999997E+02  0.45594000000E+02  0.51100000000E-03 0. -1.
         11   -1    0    0    0    0 -0.00000000000E+00 -0.00000000000E+00 -0.45593999997E+02  0.45594000000E+02  0.51100000000E-03 0.  1.
    9900012    2    1    2    0    0 -0.15648704930E+02  0.39681871247E+02 -0.80056729903E+01  0.47787266461E+02  0.19999979103E+02 0.  0.
        -12    1    1    2    0    0  0.15648704930E+02 -0.39681871247E+02  0.80056729903E+01  0.43400733539E+02  0.00000000000E+00 0.  1.
         11    1    3    3    0    0  0.11290364035E+01  0.46804763648E+01 -0.42135796087E+01  0.63981118763E+01  0.51100000000E-03 0. -1.
        -11    1    3    3    0    0  0.12002925506E+01  0.90714587289E+01 -0.36074420703E+01  0.98359394177E+01  0.51100000000E-03 0.  1.
         12    1    3    3    0    0 -0.17978033884E+02  0.25929936154E+02 -0.18465131135E+00  0.31553215167E+02  0.00000000000E+00 0. -1.
</event>
<event>
 7    1  0.3837332E-009  0.4778727E+02  0.7816164E-02  0.1312668E+00
        -11   -1    0    0    0    0  0.00000000000E+00  0.00000000000E+00  0.45593999997E+02  0.45594000000E+02  0.51100000000E-03 0.  1.
         11   -1    0    0    0    0 -0.00000000000E+00 -0.00000000000E+00 -0.45593999997E+02  0.45594000000E+02  0.51100000000E-03 0. -1.
    9900012    2    1    2    0    0 -0.15169870560E+02  0.29186649184E+02 -0.28313210426E+02  0.47787270190E+02  0.19999996106E+02 0.  0.
        -12    1    1    2    0    0  0.15169870560E+02 -0.29186649184E+02  0.28313210426E+02  0.43400729810E+02  0.00000000000E+00 0.  1.
         11    1    3    3    0    0 -0.65880903210E+01  0.81944796801E+01 -0.23565468790E+01  0.10775237573E+02  0.51100000000E-03 0.  1.
        -11    1    3    3    0    0 -0.97983725755E+01  0.13417205365E+02 -0.10222748805E+02  0.19507283212E+02  0.51100000000E-03 0. -1.
         12    1    3    3    0    0  0.12165923364E+01  0.75749641386E+01 -0.15733914742E+02  0.17504749405E+02  0.00000000000E+00 0. -1.
</event>
<event>
 7    1  0.3837332E-009  0.4778727E+02  0.7816164E-02  0.1312668E+00
        -11   -1    0    0    0    0  0.00000000000E+00  0.00000000000E+00  0.45593999997E+02  0.45594000000E+02  0.51100000000E-03 0.  1.
         11   -1    0    0    0    0 -0.00000000000E+00 -0.00000000000E+00 -0.45593999997E+02  0.45594000000E+02  0.51100000000E-03 0. -1.
    9900012    2    1    2    0    0  0.16192724301E+02  0.38503877629E+02 -0.11784316848E+02  0.47787273782E+02  0.20000012480E+02 0.  0.
        -12    1    1    2    0    0 -0.16192724301E+02 -0.38503877629E+02  0.11784316848E+02  0.43400726218E+02  0.00000000000E+00 0.  1.
         11    1    3    3    0    0  0.22045707236E+01  0.66555800485E+01  0.46043644681E+01  0.83879109600E+01  0.51100000000E-03 0.  1.
        -11    1    3    3    0    0  0.87539173613E+01  0.11475346149E+02 -0.39568081136E+01  0.14965659662E+02  0.51100000000E-03 0. -1.
        -12    1    3    3    0    0  0.52342362158E+01  0.20372951431E+02 -0.12431873202E+02  0.24433703160E+02  0.00000000000E+00 0.  1.
</event>
<event>
 7    1  0.3837332E-009  0.4778727E+02  0.7816164E-02  0.1312668E+00
        -11   -1    0    0    0    0  0.00000000000E+00  0.00000000000E+00  0.45593999997E+02  0.45594000000E+02  0.51100000000E-03 0. -1.
         11   -1    0    0    0    0 -0.00000000000E+00 -0.00000000000E+00 -0.45593999997E+02  0.45594000000E+02  0.51100000000E-03 0.  1.
    9900012    2    1    2    0    0 -0.28674153688E+02 -0.32576305160E+02  0.44827797948E+00  0.47787266126E+02  0.19999977576E+02 0.  0.
        -12    1    1    2    0    0  0.28674153688E+02  0.32576305160E+02 -0.44827797948E+00  0.43400733874E+02  0.00000000000E+00 0.  1.
         11    1    3    3    0    0  0.47988247058E+00 -0.16225849594E+01  0.32641736912E+00  0.17232578727E+01  0.51100000000E-03 0. -1.
        -11    1    3    3    0    0 -0.19731001529E+02 -0.15714504525E+02 -0.79009094209E+01  0.26432601910E+02  0.51100000000E-03 0.  1.
        -12    1    3    3    0    0 -0.94230346298E+01 -0.15239215676E+02  0.80227700313E+01  0.19631406343E+02  0.00000000000E+00 0.  1.
</event>
<event>
 7    1  0.3837332E-009  0.4778728E+02  0.7816164E-02  0.1312668E+00
        -11   -1    0    0    0    0  0.00000000000E+00  0.00000000000E+00  0.45593999997E+02  0.45594000000E+02  0.51100000000E-03 0. -1.
         11   -1    0    0    0    0 -0.00000000000E+00 -0.00000000000E+00 -0.45593999997E+02  0.45594000000E+02  0.51100000000E-03 0.  1.
    9900012    2    1    2    0    0 -0.52802548791E+00 -0.43394432312E+02  0.51702822303E+00  0.47787275527E+02  0.20000020439E+02 0.  0.
        -12    1    1    2    0    0  0.52802548791E+00  0.43394432312E+02 -0.51702822303E+00  0.43400724473E+02  0.00000000000E+00 0.  1.
         11    1    3    3    0    0  0.11792647873E+01 -0.11173004917E+02  0.50091602013E+01  0.12301154031E+02  0.51100000000E-03 0. -1.
        -11    1    3    3    0    0 -0.50606493949E+01 -0.29103858442E+02 -0.71281197956E+00  0.29549159882E+02  0.51100000000E-03 0.  1.
         12    1    3    3    0    0  0.33533591196E+01 -0.31175689521E+01 -0.37793199987E+01  0.59369616142E+01  0.00000000000E+00 0. -1.
</event>
<event>
 7    1  0.3837332E-009  0.4778728E+02  0.7816164E-02  0.1312668E+00
        -11   -1    0    0    0    0  0.00000000000E+00  0.00000000000E+00  0.45593999997E+02  0.45594000000E+02  0.51100000000E-03 0.  1.
         11   -1    0    0    0    0 -0.00000000000E+00 -0.00000000000E+00 -0.45593999997E+02  0.45594000000E+02  0.51100000000E-03 0. -1.
    9900012    2    1    2    0    0 -0.21476897198E+02 -0.31315081116E+02 -0.21017393046E+02  0.47787283082E+02  0.20000054882E+02 0.  0.
        -12    1    1    2    0    0  0.21476897198E+02  0.31315081116E+02  0.21017393046E+02  0.43400716918E+02  0.00000000000E+00 0.  1.
         11    1    3    3    0    0 -0.68934066591E+01 -0.43827665523E+01 -0.52620813970E+01  0.97168512858E+01  0.51100000000E-03 0. -1.
        -11    1    3    3    0    0 -0.14446285531E+02 -0.17994272821E+02 -0.17502107040E+02  0.28962264606E+02  0.51100000000E-03 0.  1.
        -12    1    3    3    0    0 -0.13720500725E+00 -0.89380417436E+01  0.17467953907E+01  0.91081671900E+01  0.00000000000E+00 0.  1.
</event>
<event>
 7    1  0.3837332E-009  0.4778727E+02  0.7816164E-02  0.1312668E+00
        -11   -1    0    0    0    0  0.00000000000E+00  0.00000000000E+00  0.45593999997E+02  0.45594000000E+02  0.51100000000E-03 0.  1.
         11   -1    0    0    0    0 -0.00000000000E+00 -0.00000000000E+00 -0.45593999997E+02  0.45594000000E+02  0.51100000000E-03 0. -1.
    9900012    2    1    2    0    0  0.33000575295E+02 -0.20549277163E+02 -0.19295401741E+02  0.47787270857E+02  0.19999999147E+02 0.  0.
        -12    1    1    2    0    0 -0.33000575295E+02  0.20549277163E+02  0.19295401741E+02  0.43400729143E+02  0.00000000000E+00 0.  1.
         11    1    3    3    0    0  0.57407873845E+01 -0.19308970303E+01  0.33375843126E+01  0.69155240178E+01  0.51100000000E-03 0. -1.
        -11    1    3    3    0    0  0.26538392022E+01 -0.49304497118E+01 -0.19290536273E+01  0.59222837680E+01  0.51100000000E-03 0.  1.
         12    1    3    3    0    0  0.24605948709E+02 -0.13687930421E+02 -0.20703932427E+02  0.34949463072E+02  0.00000000000E+00 0. -1.
</event>
<event>
 7    1  0.3837332E-009  0.4778727E+02  0.7816164E-02  0.1312668E+00
        -11   -1    0    0    0    0  0.00000000000E+00  0.00000000000E+00  0.45593999997E+02  0.45594000000E+02  0.51100000000E-03 0.  1.
         11   -1    0    0    0    0 -0.00000000000E+00 -0.00000000000E+00 -0.45593999997E+02  0.45594000000E+02  0.51100000000E-03 0. -1.
    9900012    2    1    2    0    0 -0.24026972309E+02  0.57214845585E+01 -0.35687426927E+02  0.47787271613E+02  0.20000002590E+02 0.  0.
        -12    1    1    2    0    0  0.24026972309E+02 -0.57214845585E+01  0.35687426927E+02  0.43400728387E+02  0.00000000000E+00 0.  1.
         11    1    3    3    0    0 -0.71927082761E+01 -0.60714862502E+00 -0.15399484746E+02  0.17007287041E+02  0.51100000000E-03 0. -1.
        -11    1    3    3    0    0 -0.43097630846E+01 -0.38793128471E+01 -0.10196601033E+02  0.11730038316E+02  0.51100000000E-03 0.  1.
         12    1    3    3    0    0 -0.12524500948E+02  0.10207946031E+02 -0.10091341148E+02  0.19049946256E+02  0.00000000000E+00 0. -1.
</event>
<event>
 7    1  0.3837332E-009  0.4778727E+02  0.7816164E-02  0.1312668E+00
        -11   -1    0    0    0    0  0.00000000000E+00  0.00000000000E+00  0.45593999997E+02  0.45594000000E+02  0.51100000000E-03 0.  1.
         11   -1    0    0    0    0 -0.00000000000E+00 -0.00000000000E+00 -0.45593999997E+02  0.45594000000E+02  0.51100000000E-03 0. -1.
    9900012    2    1    2    0    0 -0.37264262733E+02 -0.16716204767E+02  0.14682180943E+02  0.47787271710E+02  0.20000003033E+02 0.  0.
        -12    1    1    2    0    0  0.37264262733E+02  0.16716204767E+02 -0.14682180943E+02  0.43400728290E+02  0.00000000000E+00 0.  1.
         11    1    3    3    0    0 -0.12959503693E+01 -0.16027146818E+01  0.29722606369E+01  0.36169759836E+01  0.51100000000E-03 0. -1.
        -11    1    3    3    0    0 -0.32443221351E+01  0.32785412869E+01 -0.63109631666E+00  0.46553992211E+01  0.51100000000E-03 0.  1.
         12    1    3    3    0    0 -0.32723990229E+02 -0.18392031373E+02  0.12341016622E+02  0.39514896505E+02  0.00000000000E+00 0. -1.
</event>
<event>
 7    1  0.3837332E-009  0.4778727E+02  0.7816164E-02  0.1312668E+00
        -11   -1    0    0    0    0  0.00000000000E+00  0.00000000000E+00  0.45593999997E+02  0.45594000000E+02  0.51100000000E-03 0.  1.
         11   -1    0    0    0    0 -0.00000000000E+00 -0.00000000000E+00 -0.45593999997E+02  0.45594000000E+02  0.51100000000E-03 0. -1.
    9900012    2    1    2    0    0 -0.21102119486E+02  0.11888434812E+02 -0.36013730182E+02  0.47787273155E+02  0.20000009623E+02 0.  0.
        -12    1    1    2    0    0  0.21102119486E+02 -0.11888434812E+02  0.36013730182E+02  0.43400726845E+02  0.00000000000E+00 0.  1.
         11    1    3    3    0    0 -0.11549621763E+01 -0.15330958128E+01  0.97881531582E+00  0.21546229563E+01  0.51100000000E-03 0. -1.
        -11    1    3    3    0    0 -0.71159699787E+00  0.48077337888E+01 -0.11955644566E+02  0.12905739488E+02  0.51100000000E-03 0.  1.
        -12    1    3    3    0    0 -0.19235560311E+02  0.86137968363E+01 -0.25036900931E+02  0.32726910711E+02  0.00000000000E+00 0.  1.
</event>
<event>
 7    1  0.3837332E-009  0.4778727E+02  0.7816164E-02  0.1312668E+00
        -11   -1    0    0    0    0  0.00000000000E+00  0.00000000000E+00  0.45593999997E+02  0.45594000000E+02  0.51100000000E-03 0.  1.
         11   -1    0    0    0    0 -0.00000000000E+00 -0.00000000000E+00 -0.45593999997E+02  0.45594000000E+02  0.51100000000E-03 0. -1.
    9900012    2    1    2    0    0 -0.30459381572E+02  0.49026812518E+01 -0.30525612832E+02  0.47787271343E+02  0.20000001362E+02 0.  0.
        -12    1    1    2    0    0  0.30459381572E+02 -0.49026812518E+01  0.30525612832E+02  0.43400728657E+02  0.00000000000E+00 0.  1.
         11    1    3    3    0    0 -0.16054832583E+02  0.23890763520E+01 -0.10764903389E+02  0.19476870393E+02  0.51100000000E-03 0. -1.
        -11    1    3    3    0    0 -0.15143464102E+02  0.46817000959E+01 -0.11097129340E+02  0.19349136948E+02  0.51100000000E-03 0.  1.
        -12    1    3    3    0    0  0.73891511227E+00 -0.21680951961E+01 -0.86635801023E+01  0.89612640019E+01  0.00000000000E+00 0.  1.
</event>
<event>
 7    1  0.3837332E-009  0.4778727E+02  0.7816164E-02  0.1312668E+00
        -11   -1    0    0    0    0  0.00000000000E+00  0.00000000000E+00  0.45593999997E+02  0.45594000000E+02  0.51100000000E-03 0.  1.
         11   -1    0    0    0    0 -0.00000000000E+00 -0.00000000000E+00 -0.45593999997E+02  0.45594000000E+02  0.51100000000E-03 0. -1.
    9900012    2    1    2    0    0 -0.74223038506E+01 -0.19536191456E+02 -0.38037741481E+02  0.47787272495E+02  0.20000006613E+02 0.  0.
        -12    1    1    2    0    0  0.74223038506E+01  0.19536191456E+02  0.38037741481E+02  0.43400727505E+02  0.00000000000E+00 0.  1.
         11    1    3    3    0    0 -0.85569439447E+01 -0.11142196187E+02 -0.23624742030E+02  0.27486328634E+02  0.51100000000E-03 0. -1.
        -11    1    3    3    0    0  0.15851775844E+01 -0.88350150018E+01 -0.16136903418E+02  0.18465371110E+02  0.51100000000E-03 0.  1.
        -12    1    3    3    0    0 -0.45053749042E+00  0.44101973354E+00  0.17239039669E+01  0.18355727506E+01  0.00000000000E+00 0.  1.
</event>
<event>
 7    1  0.3837332E-009  0.4778727E+02  0.7816164E-02  0.1312668E+00
        -11   -1    0    0    0    0  0.00000000000E+00  0.00000000000E+00  0.45593999997E+02  0.45594000000E+02  0.51100000000E-03 0. -1.
         11   -1    0    0    0    0 -0.00000000000E+00 -0.00000000000E+00 -0.45593999997E+02  0.45594000000E+02  0.51100000000E-03 0.  1.
    9900012    2    1    2    0    0 -0.26626279478E+02 -0.28476811720E+02  0.19071847834E+02  0.47787274840E+02  0.20000017307E+02 0.  0.
        -12    1    1    2    0    0  0.26626279478E+02  0.28476811720E+02 -0.19071847834E+02  0.43400725160E+02  0.00000000000E+00 0.  1.
         11    1    3    3    0    0 -0.34026506723E+01 -0.18355973504E+01  0.32570364408E+01  0.50552681303E+01  0.51100000000E-03 0. -1.
        -11    1    3    3    0    0  0.28384694814E+00 -0.36113090282E+01  0.81845644060E+01  0.89503752304E+01  0.51100000000E-03 0.  1.
         12    1    3    3    0    0 -0.23507475754E+02 -0.23029905341E+02  0.76302469870E+01  0.33781631480E+02  0.00000000000E+00 0. -1.
</event>
<event>
 7    1  0.3837332E-009  0.4778727E+02  0.7816164E-02  0.1312668E+00
        -11   -1    0    0    0    0  0.00000000000E+00  0.00000000000E+00  0.45593999997E+02  0.45594000000E+02  0.51100000000E-03 0.  1.
         11   -1    0    0    0    0 -0.00000000000E+00 -0.00000000000E+00 -0.45593999997E+02  0.45594000000E+02  0.51100000000E-03 0. -1.
    9900012    2    1    2    0    0 -0.29879270669E+01 -0.17132436112E+02 -0.39763995778E+02  0.47787269182E+02  0.19999991510E+02 0.  0.
        -12    1    1    2    0    0  0.29879270669E+01  0.17132436112E+02  0.39763995778E+02  0.43400730818E+02  0.00000000000E+00 0.  1.
         11    1    3    3    0    0 -0.51622706254E+01 -0.18396308435E+01 -0.19885324606E+01  0.58298834686E+01  0.51100000000E-03 0. -1.
        -11    1    3    3    0    0 -0.15799730434E+01 -0.10231289828E+02 -0.14321060671E+02  0.17671117264E+02  0.51100000000E-03 0.  1.
         12    1    3    3    0    0  0.37543166019E+01 -0.50615154405E+01 -0.23454402647E+02  0.24286268450E+02  0.00000000000E+00 0. -1.
</event>
<event>
 7    1  0.3837332E-009  0.4778724E+02  0.7816164E-02  0.1312668E+00
        -11   -1    0    0    0    0  0.00000000000E+00  0.00000000000E+00  0.45593999997E+02  0.45594000000E+02  0.51100000000E-03 0.  1.
         11   -1    0    0    0    0 -0.00000000000E+00 -0.00000000000E+00 -0.45593999997E+02  0.45594000000E+02  0.51100000000E-03 0. -1.
    9900012    2    1    2    0    0  0.13498808886E+01 -0.40166559237E+02  0.16384489036E+02  0.47787238021E+02  0.19999849434E+02 0.  0.
        -12    1    1    2    0    0 -0.13498808886E+01  0.40166559237E+02 -0.16384489036E+02  0.43400761979E+02  0.00000000000E+00 0.  1.
         11    1    3    3    0    0 -0.26011911994E+01 -0.64395981995E+01  0.35780555793E+01  0.78126245664E+01  0.51100000000E-03 0. -1.
        -11    1    3    3    0    0  0.48418292858E+01 -0.33823866863E+02  0.15216235606E+02  0.37403624245E+02  0.51100000000E-03 0.  1.
        -12    1    3    3    0    0 -0.89075719788E+00  0.96905825192E-01 -0.24098021484E+01  0.25709892102E+01  0.00000000000E+00 0.  1.
</event>
<event>
 7    1  0.3837332E-009  0.4778728E+02  0.7816164E-02  0.1312668E+00
        -11   -1    0    0    0    0  0.00000000000E+00  0.00000000000E+00  0.45593999997E+02  0.45594000000E+02  0.51100000000E-03 0. -1.
         11   -1    0    0    0    0 -0.00000000000E+00 -0.00000000000E+00 -0.45593999997E+02  0.45594000000E+02  0.51100000000E-03 0.  1.
    9900012    2    1    2    0    0  0.16788079213E+02 -0.39173220230E+02  0.82001066825E+01  0.47787279540E+02  0.20000038735E+02 0.  0.
        -12    1    1    2    0    0 -0.16788079213E+02  0.39173220230E+02 -0.82001066825E+01  0.43400720460E+02  0.00000000000E+00 0.  1.
         11    1    3    3    0    0  0.21631528909E+01 -0.21615006179E+02  0.45441654418E+01  0.22193178284E+02  0.51100000000E-03 0. -1.
        -11    1    3    3    0    0 -0.68295388080E-01 -0.44451187211E+01 -0.23187171138E+01  0.50139998025E+01  0.51100000000E-03 0.  1.
         12    1    3    3    0    0  0.14693221711E+02 -0.13113095330E+02  0.59746583545E+01  0.20580101453E+02  0.00000000000E+00 0. -1.
</event>
<event>
 7    1  0.3837332E-009  0.4778727E+02  0.7816164E-02  0.1312668E+00
        -11   -1    0    0    0    0  0.00000000000E+00  0.00000000000E+00  0.45593999997E+02  0.45594000000E+02  0.51100000000E-03 0.  1.
         11   -1    0    0    0    0 -0.00000000000E+00 -0.00000000000E+00 -0.45593999997E+02  0.45594000000E+02  0.51100000000E-03 0. -1.
    9900012    2    1    2    0    0 -0.59080192187E+01  0.14424374577E+02 -0.40505014091E+02  0.47787269136E+02  0.19999991300E+02 0.  0.
        -12    1    1    2    0    0  0.59080192187E+01 -0.14424374577E+02  0.40505014091E+02  0.43400730864E+02  0.00000000000E+00 0.  1.
         11    1    3    3    0    0  0.10664365937E+01  0.92194534816E+01 -0.14337674482E+02  0.17079359453E+02  0.51100000000E-03 0. -1.
        -11    1    3    3    0    0  0.30961853943E+01 -0.15410070161E+01 -0.30758924894E+01  0.46284102548E+01  0.51100000000E-03 0.  1.
        -12    1    3    3    0    0 -0.10070641207E+02  0.67459281114E+01 -0.23091447119E+02  0.26079499428E+02  0.00000000000E+00 0.  1.
</event>
<event>
 7    1  0.3837332E-009  0.4778728E+02  0.7816164E-02  0.1312668E+00
        -11   -1    0    0    0    0  0.00000000000E+00  0.00000000000E+00  0.45593999997E+02  0.45594000000E+02  0.51100000000E-03 0.  1.
         11   -1    0    0    0    0 -0.00000000000E+00 -0.00000000000E+00 -0.45593999997E+02  0.45594000000E+02  0.51100000000E-03 0. -1.
    9900012    2    1    2    0    0  0.41384730065E+02  0.15634434725E+01 -0.12980084413E+02  0.47787276164E+02  0.20000023344E+02 0.  0.
        -12    1    1    2    0    0 -0.41384730065E+02 -0.15634434725E+01  0.12980084413E+02  0.43400723836E+02  0.00000000000E+00 0.  1.
         11    1    3    3    0    0  0.93962220343E+01 -0.18063394227E+01 -0.74736161363E+01  0.12141119761E+02  0.51100000000E-03 0. -1.
        -11    1    3    3    0    0  0.23306633020E+02  0.14144181359E+00 -0.99871050278E+01  0.25356683845E+02  0.51100000000E-03 0.  1.
        -12    1    3    3    0    0  0.86818750111E+01  0.32283410816E+01  0.44806367506E+01  0.10289472559E+02  0.00000000000E+00 0.  1.
</event>
<event>
 7    1  0.3837332E-009  0.4778727E+02  0.7816164E-02  0.1312668E+00
        -11   -1    0    0    0    0  0.00000000000E+00  0.00000000000E+00  0.45593999997E+02  0.45594000000E+02  0.51100000000E-03 0. -1.
         11   -1    0    0    0    0 -0.00000000000E+00 -0.00000000000E+00 -0.45593999997E+02  0.45594000000E+02  0.51100000000E-03 0.  1.
    9900012    2    1    2    0    0 -0.22587086817E+01  0.39234472692E+02  0.18416771062E+02  0.47787273409E+02  0.20000010780E+02 0.  0.
        -12    1    1    2    0    0  0.22587086817E+01 -0.39234472692E+02 -0.18416771062E+02  0.43400726591E+02  0.00000000000E+00 0.  1.
         11    1    3    3    0    0 -0.31871772280E+01  0.42582776283E+01  0.63786001150E+01  0.83052734290E+01  0.51100000000E-03 0. -1.
        -11    1    3    3    0    0 -0.41777982526E+01  0.39630565821E+01 -0.17680651850E+00  0.57611697179E+01  0.51100000000E-03 0.  1.
         12    1    3    3    0    0  0.51062667989E+01  0.31013138481E+02  0.12214977465E+02  0.33720830262E+02  0.00000000000E+00 0. -1.
</event>
<event>
 7    1  0.3837332E-009  0.4778728E+02  0.7816164E-02  0.1312668E+00
        -11   -1    0    0    0    0  0.00000000000E+00  0.00000000000E+00  0.45593999997E+02  0.45594000000E+02  0.51100000000E-03 0.  1.
         11   -1    0    0    0    0 -0.00000000000E+00 -0.00000000000E+00 -0.45593999997E+02  0.45594000000E+02  0.51100000000E-03 0. -1.
    9900012    2    1    2    0    0  0.18499333911E+02  0.37105779058E+02 -0.12828035296E+02  0.47787277838E+02  0.20000030975E+02 0.  0.
        -12    1    1    2    0    0 -0.18499333911E+02 -0.37105779058E+02  0.12828035296E+02  0.43400722162E+02  0.00000000000E+00 0.  1.
         11    1    3    3    0    0  0.12019889054E+02  0.20095791673E+02 -0.18684609295E+01  0.23490630523E+02  0.51100000000E-03 0. -1.
        -11    1    3    3    0    0  0.39089043795E+00  0.22086697719E+01  0.25186943128E+01  0.33726604926E+01  0.51100000000E-03 0.  1.
         12    1    3    3    0    0  0.60885544197E+01  0.14801317612E+02 -0.13478268679E+02  0.20923986823E+02  0.00000000000E+00 0. -1.
</event>
<event>
 7    1  0.3837332E-009  0.4778727E+02  0.7816164E-02  0.1312668E+00
        -11   -1    0    0    0    0  0.00000000000E+00  0.00000000000E+00  0.45593999997E+02  0.45594000000E+02  0.51100000000E-03 0.  1.
         11   -1    0    0    0    0 -0.00000000000E+00 -0.00000000000E+00 -0.45593999997E+02  0.45594000000E+02  0.51100000000E-03 0. -1.
    9900012    2    1    2    0    0 -0.62763640912E+01 -0.35858604916E+02 -0.23630298359E+02  0.47787270821E+02  0.19999998982E+02 0.  0.
        -12    1    1    2    0    0  0.62763640912E+01  0.35858604916E+02  0.23630298359E+02  0.43400729179E+02  0.00000000000E+00 0.  1.
         11    1    3    3    0    0 -0.49782779587E+01 -0.70542427665E+01 -0.51909056049E+01  0.10074278818E+02  0.51100000000E-03 0. -1.
        -11    1    3    3    0    0 -0.12040580303E+01 -0.23923875376E+02 -0.21300555809E+02  0.32054878673E+02  0.51100000000E-03 0.  1.
        -12    1    3    3    0    0 -0.94028102240E-01 -0.48804867735E+01  0.28611630545E+01  0.56581133300E+01  0.00000000000E+00 0.  1.
</event>
<event>
 7    1  0.4548340E-009  0.4778727E+02  0.7816164E-02  0.1312668E+00
        -11   -1    0    0    0    0  0.00000000000E+00  0.00000000000E+00  0.45593999997E+02  0.45594000000E+02  0.51100000000E-03 0. -1.
         11   -1    0    0    0    0 -0.00000000000E+00 -0.00000000000E+00 -0.45593999997E+02  0.45594000000E+02  0.51100000000E-03 0.  1.
    9900012    2    1    2    0    0 -0.38471177550E+02  0.68267820369E+01  0.18894092708E+02  0.47787271961E+02  0.20000004180E+02 0.  0.
        -12    1    1    2    0    0  0.38471177550E+02 -0.68267820369E+01 -0.18894092708E+02  0.43400728039E+02  0.00000000000E+00 0.  1.
         11    1    3    3    0    0 -0.89968359363E+01  0.20803317490E+01  0.67458278573E+01  0.11435778539E+02  0.51100000000E-03 0. -1.
        -11    1    3    3    0    0 -0.24935935074E+02  0.17818862812E+01  0.22939187196E+01  0.25104542220E+02  0.51100000000E-03 0.  1.
        -12    1    3    3    0    0 -0.45384065391E+01  0.29645640066E+01  0.98543461312E+01  0.11246951202E+02  0.00000000000E+00 0.  1.
</event>
<event>
 7    1  0.3837332E-009  0.4778727E+02  0.7816164E-02  0.1312668E+00
        -11   -1    0    0    0    0  0.00000000000E+00  0.00000000000E+00  0.45593999997E+02  0.45594000000E+02  0.51100000000E-03 0.  1.
         11   -1    0    0    0    0 -0.00000000000E+00 -0.00000000000E+00 -0.45593999997E+02  0.45594000000E+02  0.51100000000E-03 0. -1.
    9900012    2    1    2    0    0 -0.32081191976E+02  0.15869720115E+02 -0.24547347188E+02  0.47787272482E+02  0.20000006554E+02 0.  0.
        -12    1    1    2    0    0  0.32081191976E+02 -0.15869720115E+02  0.24547347188E+02  0.43400727518E+02  0.00000000000E+00 0.  1.
         11    1    3    3    0    0 -0.10759074117E+02  0.77113119599E+00 -0.12249851007E+02  0.16322106762E+02  0.51100000000E-03 0.  1.
        -11    1    3    3    0    0 -0.10291355992E+02  0.10935664140E+02 -0.12701691177E+02  0.19668088808E+02  0.51100000000E-03 0. -1.
        -12    1    3    3    0    0 -0.11030761866E+02  0.41629247798E+01  0.40419499670E+00  0.11797076912E+02  0.00000000000E+00 0.  1.
</event>
<event>
 7    1  0.3837332E-009  0.4778732E+02  0.7816164E-02  0.1312668E+00
        -11   -1    0    0    0    0  0.00000000000E+00  0.00000000000E+00  0.45593999997E+02  0.45594000000E+02  0.51100000000E-03 0.  1.
         11   -1    0    0    0    0 -0.00000000000E+00 -0.00000000000E+00 -0.45593999997E+02  0.45594000000E+02  0.51100000000E-03 0. -1.
    9900012    2    1    2    0    0 -0.16695890234E+02  0.39593275120E+02  0.61023578352E+01  0.47787320782E+02  0.20000226774E+02 0.  0.
        -12    1    1    2    0    0  0.16695890234E+02 -0.39593275120E+02 -0.61023578352E+01  0.43400679218E+02  0.00000000000E+00 0.  1.
         11    1    3    3    0    0 -0.52807702435E+01  0.24686144393E+02  0.56342356459E+01  0.25865747059E+02  0.51100000000E-03 0. -1.
        -11    1    3    3    0    0 -0.73654847218E+01  0.12321562274E+02  0.51132128522E+01  0.15238641934E+02  0.51100000000E-03 0.  1.
         12    1    3    3    0    0 -0.40496352683E+01  0.25855684527E+01 -0.46450906628E+01  0.66829317890E+01  0.00000000000E+00 0. -1.
</event>
<event>
 7    1  0.3837332E-009  0.4778727E+02  0.7816164E-02  0.1312668E+00
        -11   -1    0    0    0    0  0.00000000000E+00  0.00000000000E+00  0.45593999997E+02  0.45594000000E+02  0.51100000000E-03 0.  1.
         11   -1    0    0    0    0 -0.00000000000E+00 -0.00000000000E+00 -0.45593999997E+02  0.45594000000E+02  0.51100000000E-03 0. -1.
    9900012    2    1    2    0    0  0.25529904622E+02  0.33414793668E+02 -0.10737737926E+02  0.47787268651E+02  0.19999989086E+02 0.  0.
        -12    1    1    2    0    0 -0.25529904622E+02 -0.33414793668E+02  0.10737737926E+02  0.43400731349E+02  0.00000000000E+00 0.  1.
         11    1    3    3    0    0  0.95833232616E+01  0.10776066706E+02  0.12208234346E+01  0.14472529444E+02  0.51100000000E-03 0. -1.
        -11    1    3    3    0    0  0.56852059223E+01  0.18710119115E+02 -0.45938078189E+01  0.20087140021E+02  0.51100000000E-03 0.  1.
        -12    1    3    3    0    0  0.10261375438E+02  0.39286078472E+01 -0.73647535415E+01  0.13227599186E+02  0.00000000000E+00 0.  1.
</event>
<event>
 7    1  0.3837332E-009  0.4778727E+02  0.7816164E-02  0.1312668E+00
        -11   -1    0    0    0    0  0.00000000000E+00  0.00000000000E+00  0.45593999997E+02  0.45594000000E+02  0.51100000000E-03 0.  1.
         11   -1    0    0    0    0 -0.00000000000E+00 -0.00000000000E+00 -0.45593999997E+02  0.45594000000E+02  0.51100000000E-03 0. -1.
    9900012    2    1    2    0    0 -0.20728859429E+02 -0.33748452694E+02 -0.17747672431E+02  0.47787267873E+02  0.19999985540E+02 0.  0.
        -12    1    1    2    0    0  0.20728859429E+02  0.33748452694E+02  0.17747672431E+02  0.43400732127E+02  0.00000000000E+00 0.  1.
         11    1    3    3    0    0 -0.40567966143E+00 -0.45652358261E+01 -0.72574755178E+01  0.85835252250E+01  0.51100000000E-03 0. -1.
        -11    1    3    3    0    0  0.16762052677E+01 -0.23710447611E+01 -0.19107556234E+01  0.34759897399E+01  0.51100000000E-03 0.  1.
        -12    1    3    3    0    0 -0.21999385035E+02 -0.26812172107E+02 -0.85794412899E+01  0.35727752908E+02  0.00000000000E+00 0.  1.
</event>
<event>
 7    1  0.3837332E-009  0.4778727E+02  0.7816164E-02  0.1312668E+00
        -11   -1    0    0    0    0  0.00000000000E+00  0.00000000000E+00  0.45593999997E+02  0.45594000000E+02  0.51100000000E-03 0.  1.
         11   -1    0    0    0    0 -0.00000000000E+00 -0.00000000000E+00 -0.45593999997E+02  0.45594000000E+02  0.51100000000E-03 0. -1.
    9900012    2    1    2    0    0  0.28604359492E+02 -0.21735599687E+02 -0.24351134465E+02  0.47787269299E+02  0.19999992041E+02 0.  0.
        -12    1    1    2    0    0 -0.28604359492E+02  0.21735599687E+02  0.24351134465E+02  0.43400730701E+02  0.00000000000E+00 0.  1.
         11    1    3    3    0    0  0.19203200362E+02 -0.13764351843E+02 -0.19311463692E+02  0.30514798312E+02  0.51100000000E-03 0. -1.
        -11    1    3    3    0    0  0.36527657978E+01 -0.91088377010E+01 -0.57425400668E+01  0.11370593165E+02  0.51100000000E-03 0.  1.
         12    1    3    3    0    0  0.57483933320E+01  0.11375898575E+01  0.70286929439E+00  0.59018778222E+01  0.00000000000E+00 0. -1.
</event>
<event>
 7    1  0.3837332E-009  0.4778730E+02  0.7816164E-02  0.1312668E+00
        -11   -1    0    0    0    0  0.00000000000E+00  0.00000000000E+00  0.45593999997E+02  0.45594000000E+02  0.51100000000E-03 0. -1.
         11   -1    0    0    0    0 -0.00000000000E+00 -0.00000000000E+00 -0.45593999997E+02  0.45594000000E+02  0.51100000000E-03 0.  1.
    9900012    2    1    2    0    0 -0.12072500675E+02 -0.39881979709E+02 -0.12136870048E+02  0.47787295022E+02  0.20000109322E+02 0.  0.
        -12    1    1    2    0    0  0.12072500675E+02  0.39881979709E+02  0.12136870048E+02  0.43400704978E+02  0.00000000000E+00 0.  1.
         11    1    3    3    0    0 -0.61110597009E+01 -0.99072931056E+01 -0.97256271912E+00  0.11680983942E+02  0.51100000000E-03 0. -1.
        -11    1    3    3    0    0 -0.58316636621E+01 -0.22777359617E+02 -0.84870614542E+00  0.23527360978E+02  0.51100000000E-03 0.  1.
         12    1    3    3    0    0 -0.12977731219E+00 -0.71973269863E+01 -0.10315601183E+02  0.12578950102E+02  0.00000000000E+00 0. -1.
</event>
<event>
 7    1  0.3837332E-009  0.4778727E+02  0.7816164E-02  0.1312668E+00
        -11   -1    0    0    0    0  0.00000000000E+00  0.00000000000E+00  0.45593999997E+02  0.45594000000E+02  0.51100000000E-03 0.  1.
         11   -1    0    0    0    0 -0.00000000000E+00 -0.00000000000E+00 -0.45593999997E+02  0.45594000000E+02  0.51100000000E-03 0. -1.
    9900012    2    1    2    0    0 -0.94881404854E+01  0.42341806174E+02 -0.87765604594E+00  0.47787266825E+02  0.19999980763E+02 0.  0.
        -12    1    1    2    0    0  0.94881404854E+01 -0.42341806174E+02  0.87765604594E+00  0.43400733175E+02  0.00000000000E+00 0.  1.
         11    1    3    3    0    0 -0.99220244260E+01  0.22692811190E+02  0.12905583124E+01  0.24800721551E+02  0.51100000000E-03 0. -1.
        -11    1    3    3    0    0 -0.16962281718E+01  0.14445869765E+00  0.23021567864E+01  0.28632122618E+01  0.51100000000E-03 0.  1.
         12    1    3    3    0    0  0.21301121124E+01  0.19504536287E+02 -0.44703711447E+01  0.20123333013E+02  0.00000000000E+00 0. -1.
</event>
<event>
 7    1  0.3837332E-009  0.4778727E+02  0.7816164E-02  0.1312668E+00
        -11   -1    0    0    0    0  0.00000000000E+00  0.00000000000E+00  0.45593999997E+02  0.45594000000E+02  0.51100000000E-03 0. -1.
         11   -1    0    0    0    0 -0.00000000000E+00 -0.00000000000E+00 -0.45593999997E+02  0.45594000000E+02  0.51100000000E-03 0.  1.
    9900012    2    1    2    0    0  0.13714922796E+02 -0.70773388750E+01  0.40563973637E+02  0.47787265098E+02  0.19999972887E+02 0.  0.
        -12    1    1    2    0    0 -0.13714922796E+02  0.70773388750E+01 -0.40563973637E+02  0.43400734902E+02  0.00000000000E+00 0.  1.
         11    1    3    3    0    0  0.34808748367E+01 -0.26623776404E+01  0.23121387902E+02  0.23533026221E+02  0.51100000000E-03 0. -1.
        -11    1    3    3    0    0  0.32273282557E+01 -0.21926737913E+01  0.16366554250E+02  0.16825206218E+02  0.51100000000E-03 0.  1.
        -12    1    3    3    0    0  0.70067197035E+01 -0.22222874433E+01  0.10760314851E+01  0.74290326585E+01  0.00000000000E+00 0.  1.
</event>
<event>
 7    1  0.3837332E-009  0.4778727E+02  0.7816164E-02  0.1312668E+00
        -11   -1    0    0    0    0  0.00000000000E+00  0.00000000000E+00  0.45593999997E+02  0.45594000000E+02  0.51100000000E-03 0. -1.
         11   -1    0    0    0    0 -0.00000000000E+00 -0.00000000000E+00 -0.45593999997E+02  0.45594000000E+02  0.51100000000E-03 0.  1.
    9900012    2    1    2    0    0  0.12884188028E+02 -0.13637482154E+02  0.39136171462E+02  0.47787272618E+02  0.20000007173E+02 0.  0.
        -12    1    1    2    0    0 -0.12884188028E+02  0.13637482154E+02 -0.39136171462E+02  0.43400727382E+02  0.00000000000E+00 0.  1.
         11    1    3    3    0    0  0.81725240131E+01 -0.82483641530E+01  0.12260257647E+02  0.16886076447E+02  0.51100000000E-03 0. -1.
        -11    1    3    3    0    0  0.68762747714E+01 -0.19978625388E+01  0.51860595749E+01  0.88413700087E+01  0.51100000000E-03 0.  1.
         12    1    3    3    0    0 -0.21646107569E+01 -0.33912554621E+01  0.21689854240E+02  0.22059826162E+02  0.00000000000E+00 0. -1.
</event>
<event>
 7    1  0.3837332E-009  0.4778727E+02  0.7816164E-02  0.1312668E+00
        -11   -1    0    0    0    0  0.00000000000E+00  0.00000000000E+00  0.45593999997E+02  0.45594000000E+02  0.51100000000E-03 0.  1.
         11   -1    0    0    0    0 -0.00000000000E+00 -0.00000000000E+00 -0.45593999997E+02  0.45594000000E+02  0.51100000000E-03 0. -1.
    9900012    2    1    2    0    0 -0.28468718101E+02  0.82529957319E+01 -0.31702420795E+02  0.47787270361E+02  0.19999996886E+02 0.  0.
        -12    1    1    2    0    0  0.28468718101E+02 -0.82529957319E+01  0.31702420795E+02  0.43400729639E+02  0.00000000000E+00 0.  1.
         11    1    3    3    0    0 -0.22494958556E+02  0.87428742306E+01 -0.24197999785E+02  0.34176076487E+02  0.51100000000E-03 0. -1.
        -11    1    3    3    0    0 -0.57969737296E+01 -0.16826278659E+01 -0.95141838423E+01  0.11267468012E+02  0.51100000000E-03 0.  1.
         12    1    3    3    0    0 -0.17678581585E+00  0.11927493671E+01  0.20097628314E+01  0.23437258619E+01  0.00000000000E+00 0. -1.
</event>
<event>
 7    1  0.3837332E-009  0.4778727E+02  0.7816164E-02  0.1312668E+00
        -11   -1    0    0    0    0  0.00000000000E+00  0.00000000000E+00  0.45593999997E+02  0.45594000000E+02  0.51100000000E-03 0.  1.
         11   -1    0    0    0    0 -0.00000000000E+00 -0.00000000000E+00 -0.45593999997E+02  0.45594000000E+02  0.51100000000E-03 0. -1.
    9900012    2    1    2    0    0  0.53259412668E+01 -0.35010864830E+02 -0.25089780397E+02  0.47787269743E+02  0.19999994065E+02 0.  0.
        -12    1    1    2    0    0 -0.53259412668E+01  0.35010864830E+02  0.25089780397E+02  0.43400730257E+02  0.00000000000E+00 0.  1.
         11    1    3    3    0    0  0.64665237921E+01 -0.17483128637E+02 -0.85089341946E+01  0.20490916970E+02  0.51100000000E-03 0. -1.
        -11    1    3    3    0    0  0.30987622855E+01 -0.99020133605E+01 -0.24049373300E+01  0.10650630034E+02  0.51100000000E-03 0.  1.
         12    1    3    3    0    0 -0.42393448107E+01 -0.76257228319E+01 -0.14175908872E+02  0.16645722739E+02  0.00000000000E+00 0. -1.
</event>
<event>
 7    1  0.3837332E-009  0.4778727E+02  0.7816164E-02  0.1312668E+00
        -11   -1    0    0    0    0  0.00000000000E+00  0.00000000000E+00  0.45593999997E+02  0.45594000000E+02  0.51100000000E-03 0.  1.
         11   -1    0    0    0    0 -0.00000000000E+00 -0.00000000000E+00 -0.45593999997E+02  0.45594000000E+02  0.51100000000E-03 0. -1.
    9900012    2    1    2    0    0  0.33675664249E+02 -0.11177770233E+01 -0.27355501999E+02  0.47787271001E+02  0.19999999800E+02 0.  0.
        -12    1    1    2    0    0 -0.33675664249E+02  0.11177770233E+01  0.27355501999E+02  0.43400728999E+02  0.00000000000E+00 0.  1.
         11    1    3    3    0    0  0.35024634518E+01  0.51390372898E+01 -0.51573254165E+01  0.80792920612E+01  0.51100000000E-03 0. -1.
        -11    1    3    3    0    0  0.31662121701E+01 -0.43736662355E+00  0.12891463429E+01  0.34464601585E+01  0.51100000000E-03 0.  1.
         12    1    3    3    0    0  0.27006988627E+02 -0.58194476896E+01 -0.23487322925E+02  0.36261518781E+02  0.00000000000E+00 0. -1.
</event>
<event>
 7    1  0.3837332E-009  0.4778728E+02  0.7816164E-02  0.1312668E+00
        -11   -1    0    0    0    0  0.00000000000E+00  0.00000000000E+00  0.45593999997E+02  0.45594000000E+02  0.51100000000E-03 0. -1.
         11   -1    0    0    0    0 -0.00000000000E+00 -0.00000000000E+00 -0.45593999997E+02  0.45594000000E+02  0.51100000000E-03 0.  1.
    9900012    2    1    2    0    0  0.31848754617E+02 -0.20098036636E+02  0.21571940646E+02  0.47787275692E+02  0.20000021189E+02 0.  0.
        -12    1    1    2    0    0 -0.31848754617E+02  0.20098036636E+02 -0.21571940646E+02  0.43400724308E+02  0.00000000000E+00 0.  1.
         11    1    3    3    0    0  0.12317471928E+01 -0.82967157020E+01  0.54073411862E+01  0.99795807302E+01  0.51100000000E-03 0. -1.
        -11    1    3    3    0    0  0.53606947620E+01 -0.36884762228E-01  0.62505238239E+01  0.82345283503E+01  0.51100000000E-03 0.  1.
         12    1    3    3    0    0  0.25256312662E+02 -0.11764436171E+02  0.99140756358E+01  0.29573166611E+02  0.00000000000E+00 0. -1.
</event>
<event>
 7    1  0.3837332E-009  0.4778727E+02  0.7816164E-02  0.1312668E+00
        -11   -1    0    0    0    0  0.00000000000E+00  0.00000000000E+00  0.45593999997E+02  0.45594000000E+02  0.51100000000E-03 0.  1.
         11   -1    0    0    0    0 -0.00000000000E+00 -0.00000000000E+00 -0.45593999997E+02  0.45594000000E+02  0.51100000000E-03 0. -1.
    9900012    2    1    2    0    0  0.14488653194E+02 -0.39780785479E+02 -0.95494089409E+01  0.47787272174E+02  0.20000005152E+02 0.  0.
        -12    1    1    2    0    0 -0.14488653194E+02  0.39780785479E+02  0.95494089409E+01  0.43400727826E+02  0.00000000000E+00 0.  1.
         11    1    3    3    0    0  0.60655366862E+01 -0.13759882259E+02  0.29176321837E+01  0.15317887350E+02  0.51100000000E-03 0. -1.
        -11    1    3    3    0    0  0.10227430066E+02 -0.12069020246E+02 -0.53221846120E+01  0.16690932411E+02  0.51100000000E-03 0.  1.
        -12    1    3    3    0    0 -0.18043135584E+01 -0.13951882974E+02 -0.71448565127E+01  0.15778452413E+02  0.00000000000E+00 0.  1.
</event>
<event>
 7    1  0.3837332E-009  0.4778727E+02  0.7816164E-02  0.1312668E+00
        -11   -1    0    0    0    0  0.00000000000E+00  0.00000000000E+00  0.45593999997E+02  0.45594000000E+02  0.51100000000E-03 0.  1.
         11   -1    0    0    0    0 -0.00000000000E+00 -0.00000000000E+00 -0.45593999997E+02  0.45594000000E+02  0.51100000000E-03 0. -1.
    9900012    2    1    2    0    0  0.31018382903E+01  0.42603411461E+02 -0.76780028652E+01  0.47787265019E+02  0.19999972529E+02 0.  0.
        -12    1    1    2    0    0 -0.31018382903E+01 -0.42603411461E+02  0.76780028652E+01  0.43400734981E+02  0.00000000000E+00 0.  1.
         11    1    3    3    0    0 -0.23985103103E-01  0.24025303289E+02 -0.71465200381E+01  0.25065684159E+02  0.51100000000E-03 0. -1.
        -11    1    3    3    0    0  0.59544712652E+01  0.80560942540E+01 -0.46875125764E+01  0.11060251222E+02  0.51100000000E-03 0.  1.
        -12    1    3    3    0    0 -0.28286478718E+01  0.10522013917E+02  0.41560297493E+01  0.11661329638E+02  0.00000000000E+00 0.  1.
</event>
<event>
 7    1  0.3837332E-009  0.4778727E+02  0.7816164E-02  0.1312668E+00
        -11   -1    0    0    0    0  0.00000000000E+00  0.00000000000E+00  0.45593999997E+02  0.45594000000E+02  0.51100000000E-03 0. -1.
         11   -1    0    0    0    0 -0.00000000000E+00 -0.00000000000E+00 -0.45593999997E+02  0.45594000000E+02  0.51100000000E-03 0.  1.
    9900012    2    1    2    0    0  0.17507040246E+02 -0.38579433093E+02  0.94209373282E+01  0.47787272171E+02  0.20000005136E+02 0.  0.
        -12    1    1    2    0    0 -0.17507040246E+02  0.38579433093E+02 -0.94209373282E+01  0.43400727829E+02  0.00000000000E+00 0.  1.
         11    1    3    3    0    0  0.23949218008E+01  0.18273684775E+01  0.15913811884E+01  0.34069664413E+01  0.51100000000E-03 0. -1.
        -11    1    3    3    0    0  0.26849145050E+01 -0.12082702251E+02  0.48979253637E+01  0.13311278403E+02  0.51100000000E-03 0.  1.
         12    1    3    3    0    0  0.12427203940E+02 -0.28324099319E+02  0.29316307762E+01  0.31069027327E+02  0.00000000000E+00 0. -1.
</event>
<event>
 7    1  0.3837332E-009  0.4778727E+02  0.7816164E-02  0.1312668E+00
        -11   -1    0    0    0    0  0.00000000000E+00  0.00000000000E+00  0.45593999997E+02  0.45594000000E+02  0.51100000000E-03 0. -1.
         11   -1    0    0    0    0 -0.00000000000E+00 -0.00000000000E+00 -0.45593999997E+02  0.45594000000E+02  0.51100000000E-03 0.  1.
    9900012    2    1    2    0    0  0.18185591175E+01  0.72814142812E+01  0.42746892070E+02  0.47787274974E+02  0.20000017915E+02 0.  0.
        -12    1    1    2    0    0 -0.18185591175E+01 -0.72814142812E+01 -0.42746892070E+02  0.43400725026E+02  0.00000000000E+00 0.  1.
         11    1    3    3    0    0  0.97614666713E+01  0.59293579724E+01  0.20729875915E+02  0.23667937663E+02  0.51100000000E-03 0. -1.
        -11    1    3    3    0    0 -0.63380194469E+00 -0.68170723113E+00  0.11181826081E+00  0.93751439383E+00  0.51100000000E-03 0.  1.
         12    1    3    3    0    0 -0.73091056091E+01  0.20337635399E+01  0.21905197894E+02  0.23181822916E+02  0.00000000000E+00 0. -1.
</event>
<event>
 7    1  0.3837332E-009  0.4778727E+02  0.7816164E-02  0.1312668E+00
        -11   -1    0    0    0    0  0.00000000000E+00  0.00000000000E+00  0.45593999997E+02  0.45594000000E+02  0.51100000000E-03 0.  1.
         11   -1    0    0    0    0 -0.00000000000E+00 -0.00000000000E+00 -0.45593999997E+02  0.45594000000E+02  0.51100000000E-03 0. -1.
    9900012    2    1    2    0    0 -0.30463448470E+02  0.18467209261E+02 -0.24790393367E+02  0.47787272888E+02  0.20000008406E+02 0.  0.
        -12    1    1    2    0    0  0.30463448470E+02 -0.18467209261E+02  0.24790393367E+02  0.43400727112E+02  0.00000000000E+00 0.  1.
         11    1    3    3    0    0 -0.59637882511E+01  0.92275869733E+01 -0.13436636141E+02  0.17356794713E+02  0.51100000000E-03 0. -1.
        -11    1    3    3    0    0 -0.11361002334E+00 -0.11526513369E+01 -0.20174520783E+01  0.23262900703E+01  0.51100000000E-03 0.  1.
         12    1    3    3    0    0 -0.24386050195E+02  0.10392273625E+02 -0.93363051469E+01  0.28104188105E+02  0.00000000000E+00 0. -1.
</event>
<event>
 7    1  0.3837332E-009  0.4778726E+02  0.7816164E-02  0.1312668E+00
        -11   -1    0    0    0    0  0.00000000000E+00  0.00000000000E+00  0.45593999997E+02  0.45594000000E+02  0.51100000000E-03 0.  1.
         11   -1    0    0    0    0 -0.00000000000E+00 -0.00000000000E+00 -0.45593999997E+02  0.45594000000E+02  0.51100000000E-03 0. -1.
    9900012    2    1    2    0    0  0.97327661449E+01 -0.82554997304E+01 -0.41481849818E+02  0.47787264096E+02  0.19999968321E+02 0.  0.
        -12    1    1    2    0    0 -0.97327661449E+01  0.82554997304E+01  0.41481849818E+02  0.43400735904E+02  0.00000000000E+00 0.  1.
         11    1    3    3    0    0  0.64802740939E+01  0.48207493749E+00 -0.13764098524E+02  0.15220931543E+02  0.51100000000E-03 0. -1.
        -11    1    3    3    0    0  0.69523798311E+01 -0.10667278598E+02 -0.18620505367E+02  0.22557695769E+02  0.51100000000E-03 0.  1.
        -12    1    3    3    0    0 -0.36998877802E+01  0.19297039303E+01 -0.90972459265E+01  0.10008636785E+02  0.00000000000E+00 0.  1.
</event>
<event>
 7    1  0.3837332E-009  0.4778727E+02  0.7816164E-02  0.1312668E+00
        -11   -1    0    0    0    0  0.00000000000E+00  0.00000000000E+00  0.45593999997E+02  0.45594000000E+02  0.51100000000E-03 0.  1.
         11   -1    0    0    0    0 -0.00000000000E+00 -0.00000000000E+00 -0.45593999997E+02  0.45594000000E+02  0.51100000000E-03 0. -1.
    9900012    2    1    2    0    0  0.28874419019E+02 -0.20550652442E+02 -0.25051186236E+02  0.47787270498E+02  0.19999997508E+02 0.  0.
        -12    1    1    2    0    0 -0.28874419019E+02  0.20550652442E+02  0.25051186236E+02  0.43400729502E+02  0.00000000000E+00 0.  1.
         11    1    3    3    0    0  0.13512500767E+01 -0.73051667926E+01 -0.26891803233E+01  0.79008246222E+01  0.51100000000E-03 0. -1.
        -11    1    3    3    0    0  0.12277375396E+02 -0.66733264862E+01 -0.28398247259E+01  0.14259447315E+02  0.51100000000E-03 0.  1.
         12    1    3    3    0    0  0.15245793547E+02 -0.65721591627E+01 -0.19522181187E+02  0.25626998561E+02  0.00000000000E+00 0. -1.
</event>
<event>
 7    1  0.3837332E-009  0.4778727E+02  0.7816164E-02  0.1312668E+00
        -11   -1    0    0    0    0  0.00000000000E+00  0.00000000000E+00  0.45593999997E+02  0.45594000000E+02  0.51100000000E-03 0. -1.
         11   -1    0    0    0    0 -0.00000000000E+00 -0.00000000000E+00 -0.45593999997E+02  0.45594000000E+02  0.51100000000E-03 0.  1.
    9900012    2    1    2    0    0 -0.78372838261E+01  0.40479550702E+02  0.13550140296E+02  0.47787270227E+02  0.19999996272E+02 0.  0.
        -12    1    1    2    0    0  0.78372838261E+01 -0.40479550702E+02 -0.13550140296E+02  0.43400729773E+02  0.00000000000E+00 0.  1.
         11    1    3    3    0    0 -0.56235536214E+01  0.17553988238E+02 -0.24206419618E+01  0.18591029185E+02  0.51100000000E-03 0. -1.
        -11    1    3    3    0    0 -0.28779615094E+01  0.25128198819E+01  0.12480780396E+01  0.40192816848E+01  0.51100000000E-03 0.  1.
         12    1    3    3    0    0  0.66423130465E+00  0.20412742582E+02  0.14722704218E+02  0.25176959357E+02  0.00000000000E+00 0. -1.
</event>
<event>
 7    1  0.3837332E-009  0.4778727E+02  0.7816164E-02  0.1312668E+00
        -11   -1    0    0    0    0  0.00000000000E+00  0.00000000000E+00  0.45593999997E+02  0.45594000000E+02  0.51100000000E-03 0.  1.
         11   -1    0    0    0    0 -0.00000000000E+00 -0.00000000000E+00 -0.45593999997E+02  0.45594000000E+02  0.51100000000E-03 0. -1.
    9900012    2    1    2    0    0 -0.23684553537E+02 -0.45213659668E+01 -0.36086321587E+02  0.47787269222E+02  0.19999991689E+02 0.  0.
        -12    1    1    2    0    0  0.23684553537E+02  0.45213659668E+01  0.36086321587E+02  0.43400730778E+02  0.00000000000E+00 0.  1.
         11    1    3    3    0    0 -0.13266967710E+02  0.27570919933E+01 -0.17510862135E+02  0.22141460689E+02  0.51100000000E-03 0. -1.
        -11    1    3    3    0    0 -0.11923218072E+02 -0.20061550410E+01 -0.14051623906E+02  0.18537419505E+02  0.51100000000E-03 0.  1.
        -12    1    3    3    0    0  0.15056322448E+01 -0.52723029191E+01 -0.45238355457E+01  0.71083890279E+01  0.00000000000E+00 0.  1.
</event>
<event>
 7    1  0.3837332E-009  0.4778728E+02  0.7816164E-02  0.1312668E+00
        -11   -1    0    0    0    0  0.00000000000E+00  0.00000000000E+00  0.45593999997E+02  0.45594000000E+02  0.51100000000E-03 0. -1.
         11   -1    0    0    0    0 -0.00000000000E+00 -0.00000000000E+00 -0.45593999997E+02  0.45594000000E+02  0.51100000000E-03 0.  1.
    9900012    2    1    2    0    0 -0.73530799778E+01 -0.30020671678E+02  0.30468243264E+02  0.47787281564E+02  0.20000047965E+02 0.  0.
        -12    1    1    2    0    0  0.73530799778E+01  0.30020671678E+02 -0.30468243264E+02  0.43400718436E+02  0.00000000000E+00 0.  1.
         11    1    3    3    0    0 -0.21347390850E+01 -0.80706115447E+01  0.89208858324E+01  0.12217777456E+02  0.51100000000E-03 0. -1.
        -11    1    3    3    0    0 -0.32618224697E+01 -0.19248739068E+02  0.24351911358E+02  0.31211680964E+02  0.51100000000E-03 0.  1.
        -12    1    3    3    0    0 -0.19565184231E+01 -0.27013210646E+01 -0.28045539264E+01  0.43578231446E+01  0.00000000000E+00 0.  1.
</event>
<event>
 7    1  0.3837332E-009  0.4778728E+02  0.7816164E-02  0.1312668E+00
        -11   -1    0    0    0    0  0.00000000000E+00  0.00000000000E+00  0.45593999997E+02  0.45594000000E+02  0.51100000000E-03 0.  1.
         11   -1    0    0    0    0 -0.00000000000E+00 -0.00000000000E+00 -0.45593999997E+02  0.45594000000E+02  0.51100000000E-03 0. -1.
    9900012    2    1    2    0    0  0.20177760050E+02 -0.18997360831E+02 -0.33400317354E+02  0.47787275139E+02  0.20000018667E+02 0.  0.
        -12    1    1    2    0    0 -0.20177760050E+02  0.18997360831E+02  0.33400317354E+02  0.43400724861E+02  0.00000000000E+00 0.  1.
         11    1    3    3    0    0  0.37394118416E+01 -0.13903573442E+00 -0.83121885100E+01  0.91156464359E+01  0.51100000000E-03 0. -1.
        -11    1    3    3    0    0  0.17343527259E+02 -0.90358864448E+01 -0.16222941768E+02  0.25409231029E+02  0.51100000000E-03 0.  1.
         12    1    3    3    0    0 -0.90517905025E+00 -0.98224386516E+01 -0.88651870757E+01  0.13262397674E+02  0.00000000000E+00 0. -1.
</event>
<event>
 7    1  0.3837332E-009  0.4778727E+02  0.7816164E-02  0.1312668E+00
        -11   -1    0    0    0    0  0.00000000000E+00  0.00000000000E+00  0.45593999997E+02  0.45594000000E+02  0.51100000000E-03 0.  1.
         11   -1    0    0    0    0 -0.00000000000E+00 -0.00000000000E+00 -0.45593999997E+02  0.45594000000E+02  0.51100000000E-03 0. -1.
    9900012    2    1    2    0    0 -0.25300009469E+02  0.53441862803E+01 -0.34856454786E+02  0.47787271361E+02  0.20000001442E+02 0.  0.
        -12    1    1    2    0    0  0.25300009469E+02 -0.53441862803E+01  0.34856454786E+02  0.43400728639E+02  0.00000000000E+00 0.  1.
         11    1    3    3    0    0 -0.47404428763E+01  0.43058178220E+01 -0.14068487085E+02  0.15457496398E+02  0.51100000000E-03 0. -1.
        -11    1    3    3    0    0 -0.40979563750E+01  0.33488817318E+00 -0.13858024320E+02  0.14455111029E+02  0.51100000000E-03 0.  1.
        -12    1    3    3    0    0 -0.16461610218E+02  0.70348028516E+00 -0.69299433814E+01  0.17874663934E+02  0.00000000000E+00 0.  1.
</event>
<event>
 7    1  0.3837332E-009  0.4778727E+02  0.7816164E-02  0.1312668E+00
        -11   -1    0    0    0    0  0.00000000000E+00  0.00000000000E+00  0.45593999997E+02  0.45594000000E+02  0.51100000000E-03 0. -1.
         11   -1    0    0    0    0 -0.00000000000E+00 -0.00000000000E+00 -0.45593999997E+02  0.45594000000E+02  0.51100000000E-03 0.  1.
    9900012    2    1    2    0    0 -0.19397903699E+02  0.21189846332E+02  0.32532066035E+02  0.47787267564E+02  0.19999984131E+02 0.  0.
        -12    1    1    2    0    0  0.19397903699E+02 -0.21189846332E+02 -0.32532066035E+02  0.43400732436E+02  0.00000000000E+00 0.  1.
         11    1    3    3    0    0 -0.12028563186E+02  0.81880507791E+01  0.25248623640E+02  0.29141439633E+02  0.51100000000E-03 0.  1.
        -11    1    3    3    0    0 -0.19017712363E+01  0.24076032786E+01  0.58920778710E+01  0.66430316333E+01  0.51100000000E-03 0. -1.
        -12    1    3    3    0    0 -0.54675692763E+01  0.10594192274E+02  0.13913645239E+01  0.12002796298E+02  0.00000000000E+00 0.  1.
</event>
<event>
 7    1  0.3837332E-009  0.4778728E+02  0.7816164E-02  0.1312668E+00
        -11   -1    0    0    0    0  0.00000000000E+00  0.00000000000E+00  0.45593999997E+02  0.45594000000E+02  0.51100000000E-03 0. -1.
         11   -1    0    0    0    0 -0.00000000000E+00 -0.00000000000E+00 -0.45593999997E+02  0.45594000000E+02  0.51100000000E-03 0.  1.
    9900012    2    1    2    0    0 -0.24382656068E+02  0.12780711741E+02  0.33552376758E+02  0.47787280010E+02  0.20000040877E+02 0.  0.
        -12    1    1    2    0    0  0.24382656068E+02 -0.12780711741E+02 -0.33552376758E+02  0.43400719990E+02  0.00000000000E+00 0.  1.
         11    1    3    3    0    0 -0.11456388794E+02  0.82170120853E+01  0.12377247587E+02  0.18760714003E+02  0.51100000000E-03 0. -1.
        -11    1    3    3    0    0 -0.48108929221E+01  0.79074908253E+01  0.47507268126E+01  0.10403965944E+02  0.51100000000E-03 0.  1.
        -12    1    3    3    0    0 -0.81153743518E+01 -0.33437911698E+01  0.16424402358E+02  0.18622600062E+02  0.00000000000E+00 0.  1.
</event>
<event>
 7    1  0.3837332E-009  0.4778726E+02  0.7816164E-02  0.1312668E+00
        -11   -1    0    0    0    0  0.00000000000E+00  0.00000000000E+00  0.45593999997E+02  0.45594000000E+02  0.51100000000E-03 0. -1.
         11   -1    0    0    0    0 -0.00000000000E+00 -0.00000000000E+00 -0.45593999997E+02  0.45594000000E+02  0.51100000000E-03 0.  1.
    9900012    2    1    2    0    0  0.32751995537E+02  0.56151432109E+01  0.27917756709E+02  0.47787260552E+02  0.19999952163E+02 0.  0.
        -12    1    1    2    0    0 -0.32751995537E+02 -0.56151432109E+01 -0.27917756709E+02  0.43400739448E+02  0.00000000000E+00 0.  1.
         11    1    3    3    0    0  0.16376811304E+02  0.11093554435E+02  0.12382714550E+02  0.23336634684E+02  0.51100000000E-03 0. -1.
        -11    1    3    3    0    0  0.29090967865E+01  0.19428138625E+01  0.31466733905E+01  0.47052017496E+01  0.51100000000E-03 0.  1.
        -12    1    3    3    0    0  0.13466087447E+02 -0.74212250861E+01  0.12388368769E+02  0.19745424119E+02  0.00000000000E+00 0.  1.
</event>
<event>
 7    1  0.3837332E-009  0.4778727E+02  0.7816164E-02  0.1312668E+00
        -11   -1    0    0    0    0  0.00000000000E+00  0.00000000000E+00  0.45593999997E+02  0.45594000000E+02  0.51100000000E-03 0.  1.
         11   -1    0    0    0    0 -0.00000000000E+00 -0.00000000000E+00 -0.45593999997E+02  0.45594000000E+02  0.51100000000E-03 0. -1.
    9900012    2    1    2    0    0 -0.19503541502E+02 -0.84199637207E-01 -0.38771486262E+02  0.47787269964E+02  0.19999995072E+02 0.  0.
        -12    1    1    2    0    0  0.19503541502E+02  0.84199637207E-01  0.38771486262E+02  0.43400730036E+02  0.00000000000E+00 0.  1.
         11    1    3    3    0    0 -0.59599465984E+01 -0.21161133974E+01 -0.20607178004E+02  0.21555850364E+02  0.51100000000E-03 0. -1.
        -11    1    3    3    0    0 -0.11205806998E+02 -0.11332061945E+01 -0.19112173009E+02  0.22183990266E+02  0.51100000000E-03 0.  1.
        -12    1    3    3    0    0 -0.23377879060E+01  0.31651199547E+01  0.94786475070E+00  0.40474293332E+01  0.00000000000E+00 0.  1.
</event>
<event>
 7    1  0.3837332E-009  0.4778727E+02  0.7816164E-02  0.1312668E+00
        -11   -1    0    0    0    0  0.00000000000E+00  0.00000000000E+00  0.45593999997E+02  0.45594000000E+02  0.51100000000E-03 0.  1.
         11   -1    0    0    0    0 -0.00000000000E+00 -0.00000000000E+00 -0.45593999997E+02  0.45594000000E+02  0.51100000000E-03 0. -1.
    9900012    2    1    2    0    0 -0.27567609514E+02 -0.18061775059E+02 -0.28238671642E+02  0.47787269721E+02  0.19999993966E+02 0.  0.
        -12    1    1    2    0    0  0.27567609514E+02  0.18061775059E+02  0.28238671642E+02  0.43400730279E+02  0.00000000000E+00 0.  1.
         11    1    3    3    0    0 -0.11906274813E+02 -0.12430200105E+01 -0.15100842762E+02  0.19270182434E+02  0.51100000000E-03 0. -1.
        -11    1    3    3    0    0 -0.64043656278E+00 -0.19541773731E+00 -0.44292456509E+01  0.44795718970E+01  0.51100000000E-03 0.  1.
        -12    1    3    3    0    0 -0.15020898138E+02 -0.16623337311E+02 -0.87085832295E+01  0.24037515390E+02  0.00000000000E+00 0.  1.
</event>
<event>
 7    1  0.3837332E-009  0.4778727E+02  0.7816164E-02  0.1312668E+00
        -11   -1    0    0    0    0  0.00000000000E+00  0.00000000000E+00  0.45593999997E+02  0.45594000000E+02  0.51100000000E-03 0. -1.
         11   -1    0    0    0    0 -0.00000000000E+00 -0.00000000000E+00 -0.45593999997E+02  0.45594000000E+02  0.51100000000E-03 0.  1.
    9900012    2    1    2    0    0  0.38948518191E+02 -0.17389187640E+02  0.80157550842E+01  0.47787271370E+02  0.20000001483E+02 0.  0.
        -12    1    1    2    0    0 -0.38948518191E+02  0.17389187640E+02 -0.80157550842E+01  0.43400728630E+02  0.00000000000E+00 0.  1.
         11    1    3    3    0    0  0.13723828264E+02 -0.88725545709E+01  0.10167137901E+02  0.19246723882E+02  0.51100000000E-03 0. -1.
        -11    1    3    3    0    0  0.11522145954E+02  0.12603300556E+01 -0.17734003739E+00  0.11592227094E+02  0.51100000000E-03 0.  1.
        -12    1    3    3    0    0  0.13702543973E+02 -0.97769631246E+01 -0.19740427796E+01  0.16948320394E+02  0.00000000000E+00 0.  1.
</event>
<event>
 7    1  0.3837332E-009  0.4778727E+02  0.7816164E-02  0.1312668E+00
        -11   -1    0    0    0    0  0.00000000000E+00  0.00000000000E+00  0.45593999997E+02  0.45594000000E+02  0.51100000000E-03 0. -1.
         11   -1    0    0    0    0 -0.00000000000E+00 -0.00000000000E+00 -0.45593999997E+02  0.45594000000E+02  0.51100000000E-03 0.  1.
    9900012    2    1    2    0    0 -0.56260116617E+01 -0.31913581072E+02  0.28870306424E+02  0.47787271238E+02  0.20000000882E+02 0.  0.
        -12    1    1    2    0    0  0.56260116617E+01  0.31913581072E+02 -0.28870306424E+02  0.43400728762E+02  0.00000000000E+00 0.  1.
         11    1    3    3    0    0  0.12135913342E+01 -0.72654073436E+00 -0.11360663260E+01  0.18141974323E+01  0.51100000000E-03 0. -1.
        -11    1    3    3    0    0 -0.14523304891E+01 -0.18243229884E+02  0.82128057629E+01  0.20059284115E+02  0.51100000000E-03 0.  1.
         12    1    3    3    0    0 -0.53872725067E+01 -0.12943810454E+02  0.21793566987E+02  0.25913789691E+02  0.00000000000E+00 0. -1.
</event>
<event>
 7    1  0.3837332E-009  0.4778727E+02  0.7816164E-02  0.1312668E+00
        -11   -1    0    0    0    0  0.00000000000E+00  0.00000000000E+00  0.45593999997E+02  0.45594000000E+02  0.51100000000E-03 0.  1.
         11   -1    0    0    0    0 -0.00000000000E+00 -0.00000000000E+00 -0.45593999997E+02  0.45594000000E+02  0.51100000000E-03 0. -1.
    9900012    2    1    2    0    0  0.16559442769E+02 -0.22426314499E+02 -0.33263621470E+02  0.47787271433E+02  0.20000001772E+02 0.  0.
        -12    1    1    2    0    0 -0.16559442769E+02  0.22426314499E+02  0.33263621470E+02  0.43400728567E+02  0.00000000000E+00 0.  1.
         11    1    3    3    0    0  0.49670341596E+01 -0.79878972514E+01 -0.32381325788E+01  0.99480366757E+01  0.51100000000E-03 0. -1.
        -11    1    3    3    0    0  0.15771730250E+00 -0.79995370945E+01 -0.46058566660E+01  0.92320845080E+01  0.51100000000E-03 0.  1.
         12    1    3    3    0    0  0.11434691307E+02 -0.64388801528E+01 -0.25419632226E+02  0.28607150249E+02  0.00000000000E+00 0. -1.
</event>
<event>
 7    1  0.3837332E-009  0.4778727E+02  0.7816164E-02  0.1312668E+00
        -11   -1    0    0    0    0  0.00000000000E+00  0.00000000000E+00  0.45593999997E+02  0.45594000000E+02  0.51100000000E-03 0.  1.
         11   -1    0    0    0    0 -0.00000000000E+00 -0.00000000000E+00 -0.45593999997E+02  0.45594000000E+02  0.51100000000E-03 0. -1.
    9900012    2    1    2    0    0  0.22194293163E+01 -0.29348947924E+02 -0.31895715629E+02  0.47787270902E+02  0.19999999350E+02 0.  0.
        -12    1    1    2    0    0 -0.22194293163E+01  0.29348947924E+02  0.31895715629E+02  0.43400729098E+02  0.00000000000E+00 0.  1.
         11    1    3    3    0    0  0.13225393647E+01 -0.89550064270E+01 -0.12494682063E+02  0.15429139011E+02  0.51100000000E-03 0. -1.
        -11    1    3    3    0    0  0.71752733392E+01 -0.10203817601E+02 -0.15222708735E+02  0.19680785112E+02  0.51100000000E-03 0.  1.
         12    1    3    3    0    0 -0.62783833876E+01 -0.10190123896E+02 -0.41783248311E+01  0.12677346780E+02  0.00000000000E+00 0. -1.
</event>
<event>
 7    1  0.3837332E-009  0.4778727E+02  0.7816164E-02  0.1312668E+00
        -11   -1    0    0    0    0  0.00000000000E+00  0.00000000000E+00  0.45593999997E+02  0.45594000000E+02  0.51100000000E-03 0. -1.
         11   -1    0    0    0    0 -0.00000000000E+00 -0.00000000000E+00 -0.45593999997E+02  0.45594000000E+02  0.51100000000E-03 0.  1.
    9900012    2    1    2    0    0  0.33274625634E+02 -0.19258971221E+02 -0.20137392972E+02  0.47787270982E+02  0.19999999717E+02 0.  0.
        -12    1    1    2    0    0 -0.33274625634E+02  0.19258971221E+02  0.20137392972E+02  0.43400729018E+02  0.00000000000E+00 0.  1.
         11    1    3    3    0    0  0.10880180829E+02 -0.55885540447E+00  0.68546860670E+00  0.10916067136E+02  0.51100000000E-03 0. -1.
        -11    1    3    3    0    0  0.37180287120E+01 -0.74221394914E+01 -0.34831345328E+01  0.90024506979E+01  0.51100000000E-03 0.  1.
        -12    1    3    3    0    0  0.18676416093E+02 -0.11277976325E+02 -0.17339727046E+02  0.27868753149E+02  0.00000000000E+00 0.  1.
</event>
<event>
 7    1  0.3837332E-009  0.4778727E+02  0.7816164E-02  0.1312668E+00
        -11   -1    0    0    0    0  0.00000000000E+00  0.00000000000E+00  0.45593999997E+02  0.45594000000E+02  0.51100000000E-03 0.  1.
         11   -1    0    0    0    0 -0.00000000000E+00 -0.00000000000E+00 -0.45593999997E+02  0.45594000000E+02  0.51100000000E-03 0. -1.
    9900012    2    1    2    0    0 -0.58320284607E+00 -0.20398495573E+02 -0.38303844388E+02  0.47787271410E+02  0.20000001668E+02 0.  0.
        -12    1    1    2    0    0  0.58320284607E+00  0.20398495573E+02  0.38303844388E+02  0.43400728590E+02  0.00000000000E+00 0.  1.
         11    1    3    3    0    0  0.71679323003E+00 -0.91221826428E+01 -0.13584244927E+02  0.16378636060E+02  0.51100000000E-03 0. -1.
        -11    1    3    3    0    0 -0.52521007303E+00  0.38725932576E+01 -0.30491407563E+01  0.49568219427E+01  0.51100000000E-03 0.  1.
         12    1    3    3    0    0 -0.77478600308E+00 -0.15148906187E+02 -0.21670458705E+02  0.26451813407E+02  0.00000000000E+00 0. -1.
</event>
<event>
 7    1  0.3837332E-009  0.4778727E+02  0.7816164E-02  0.1312668E+00
        -11   -1    0    0    0    0  0.00000000000E+00  0.00000000000E+00  0.45593999997E+02  0.45594000000E+02  0.51100000000E-03 0.  1.
         11   -1    0    0    0    0 -0.00000000000E+00 -0.00000000000E+00 -0.45593999997E+02  0.45594000000E+02  0.51100000000E-03 0. -1.
    9900012    2    1    2    0    0 -0.22056882244E+02 -0.34779535890E+02 -0.13693101435E+02  0.47787271919E+02  0.20000003986E+02 0.  0.
        -12    1    1    2    0    0  0.22056882244E+02  0.34779535890E+02  0.13693101435E+02  0.43400728081E+02  0.00000000000E+00 0.  1.
         11    1    3    3    0    0 -0.13718950354E+02 -0.19331236239E+02 -0.11177713174E+02  0.26207776811E+02  0.51100000000E-03 0. -1.
        -11    1    3    3    0    0 -0.40541127696E+01  0.52731356506E+00 -0.29374262872E+01  0.50341199229E+01  0.51100000000E-03 0.  1.
         12    1    3    3    0    0 -0.42838191208E+01 -0.15975613216E+02  0.42203802616E+00  0.16545375184E+02  0.00000000000E+00 0. -1.
</event>
<event>
 7    1  0.3837332E-009  0.4778727E+02  0.7816164E-02  0.1312668E+00
        -11   -1    0    0    0    0  0.00000000000E+00  0.00000000000E+00  0.45593999997E+02  0.45594000000E+02  0.51100000000E-03 0. -1.
         11   -1    0    0    0    0 -0.00000000000E+00 -0.00000000000E+00 -0.45593999997E+02  0.45594000000E+02  0.51100000000E-03 0.  1.
    9900012    2    1    2    0    0 -0.37118827195E+02  0.18235909074E+02  0.13163114540E+02  0.47787270784E+02  0.19999998813E+02 0.  0.
        -12    1    1    2    0    0  0.37118827195E+02 -0.18235909074E+02 -0.13163114540E+02  0.43400729216E+02  0.00000000000E+00 0.  1.
         11    1    3    3    0    0 -0.10757255576E+02 -0.68405695026E+00  0.36020332351E+01  0.11364907616E+02  0.51100000000E-03 0. -1.
        -11    1    3    3    0    0 -0.25959996176E+01  0.31933225444E+01 -0.31849856961E+01  0.52039078617E+01  0.51100000000E-03 0.  1.
         12    1    3    3    0    0 -0.23765572001E+02  0.15726643480E+02  0.12746067001E+02  0.31218455306E+02  0.00000000000E+00 0. -1.
</event>
<event>
 7    1  0.3837332E-009  0.4778727E+02  0.7816164E-02  0.1312668E+00
        -11   -1    0    0    0    0  0.00000000000E+00  0.00000000000E+00  0.45593999997E+02  0.45594000000E+02  0.51100000000E-03 0.  1.
         11   -1    0    0    0    0 -0.00000000000E+00 -0.00000000000E+00 -0.45593999997E+02  0.45594000000E+02  0.51100000000E-03 0. -1.
    9900012    2    1    2    0    0  0.14180354044E+02  0.40727171159E+02 -0.48824409438E+01  0.47787272575E+02  0.20000006978E+02 0.  0.
        -12    1    1    2    0    0 -0.14180354044E+02 -0.40727171159E+02  0.48824409438E+01  0.43400727425E+02  0.00000000000E+00 0.  1.
         11    1    3    3    0    0  0.10883175893E+02  0.14615334569E+02 -0.90021471027E+01  0.20324619918E+02  0.51100000000E-03 0. -1.
        -11    1    3    3    0    0  0.23565766627E+01  0.22144876507E+01  0.60545590612E+00  0.32899827108E+01  0.51100000000E-03 0.  1.
         12    1    3    3    0    0  0.94060148844E+00  0.23897348940E+02  0.35142502528E+01  0.24172669947E+02  0.00000000000E+00 0. -1.
</event>
<event>
 7    1  0.3837332E-009  0.4778722E+02  0.7816164E-02  0.1312668E+00
        -11   -1    0    0    0    0  0.00000000000E+00  0.00000000000E+00  0.45593999997E+02  0.45594000000E+02  0.51100000000E-03 0.  1.
         11   -1    0    0    0    0 -0.00000000000E+00 -0.00000000000E+00 -0.45593999997E+02  0.45594000000E+02  0.51100000000E-03 0. -1.
    9900012    2    1    2    0    0 -0.34310706915E+02  0.18919211858E+02 -0.18667262372E+02  0.47787218086E+02  0.19999758540E+02 0.  0.
        -12    1    1    2    0    0  0.34310706915E+02 -0.18919211858E+02  0.18667262372E+02  0.43400781914E+02  0.00000000000E+00 0.  1.
         11    1    3    3    0    0 -0.23984086927E+01  0.35992612187E+01 -0.25723289330E+01  0.50322879467E+01  0.51100000000E-03 0. -1.
        -11    1    3    3    0    0 -0.16953923225E+02 -0.15434464881E+01 -0.59290361185E+01  0.18026957850E+02  0.51100000000E-03 0.  1.
        -12    1    3    3    0    0 -0.14958374997E+02  0.16863397127E+02 -0.10165897320E+02  0.24727972289E+02  0.00000000000E+00 0.  1.
</event>
<event>
 7    1  0.3837332E-009  0.4778727E+02  0.7816164E-02  0.1312668E+00
        -11   -1    0    0    0    0  0.00000000000E+00  0.00000000000E+00  0.45593999997E+02  0.45594000000E+02  0.51100000000E-03 0.  1.
         11   -1    0    0    0    0 -0.00000000000E+00 -0.00000000000E+00 -0.45593999997E+02  0.45594000000E+02  0.51100000000E-03 0. -1.
    9900012    2    1    2    0    0  0.10185887185E+02  0.31838998307E+02 -0.27679406078E+02  0.47787266921E+02  0.19999981200E+02 0.  0.
        -12    1    1    2    0    0 -0.10185887185E+02 -0.31838998307E+02  0.27679406078E+02  0.43400733079E+02  0.00000000000E+00 0.  1.
         11    1    3    3    0    0 -0.25117525724E+01  0.92446919055E+00 -0.31772448971E+01  0.41543266201E+01  0.51100000000E-03 0. -1.
        -11    1    3    3    0    0  0.71657313839E+01  0.33752194119E+01 -0.41239851271E+01  0.89301212721E+01  0.51100000000E-03 0.  1.
         12    1    3    3    0    0  0.55319083738E+01  0.27539309705E+02 -0.20378176054E+02  0.34702819029E+02  0.00000000000E+00 0. -1.
</event>
<event>
 7    1  0.3837332E-009  0.4778726E+02  0.7816164E-02  0.1312668E+00
        -11   -1    0    0    0    0  0.00000000000E+00  0.00000000000E+00  0.45593999997E+02  0.45594000000E+02  0.51100000000E-03 0.  1.
         11   -1    0    0    0    0 -0.00000000000E+00 -0.00000000000E+00 -0.45593999997E+02  0.45594000000E+02  0.51100000000E-03 0. -1.
    9900012    2    1    2    0    0  0.88624387817E+01 -0.31129117446E+02 -0.28914688833E+02  0.47787262627E+02  0.19999961624E+02 0.  0.
        -12    1    1    2    0    0 -0.88624387817E+01  0.31129117446E+02  0.28914688833E+02  0.43400737373E+02  0.00000000000E+00 0.  1.
         11    1    3    3    0    0  0.30838960376E+01 -0.73732778453E+01 -0.18370035348E+01  0.82006233423E+01  0.51100000000E-03 0. -1.
        -11    1    3    3    0    0  0.93295484662E+00 -0.75935805472E+01  0.36916093526E-01  0.76507668460E+01  0.51100000000E-03 0.  1.
        -12    1    3    3    0    0  0.48455878975E+01 -0.16162259054E+02 -0.27114601392E+02  0.31935872439E+02  0.00000000000E+00 0.  1.
</event>
<event>
 7    1  0.3837332E-009  0.4778727E+02  0.7816164E-02  0.1312668E+00
        -11   -1    0    0    0    0  0.00000000000E+00  0.00000000000E+00  0.45593999997E+02  0.45594000000E+02  0.51100000000E-03 0.  1.
         11   -1    0    0    0    0 -0.00000000000E+00 -0.00000000000E+00 -0.45593999997E+02  0.45594000000E+02  0.51100000000E-03 0. -1.
    9900012    2    1    2    0    0  0.15231082879E+02  0.31020402831E+01 -0.40521780616E+02  0.47787271390E+02  0.20000001574E+02 0.  0.
        -12    1    1    2    0    0 -0.15231082879E+02 -0.31020402831E+01  0.40521780616E+02  0.43400728610E+02  0.00000000000E+00 0.  1.
         11    1    3    3    0    0  0.88936067029E+01  0.30829640113E+01 -0.14986478019E+02  0.17697328357E+02  0.51100000000E-03 0. -1.
        -11    1    3    3    0    0  0.13361877018E+01 -0.68909853732E+01 -0.14784352843E+02  0.16366067525E+02  0.51100000000E-03 0.  1.
        -12    1    3    3    0    0  0.50012884743E+01  0.69100616450E+01 -0.10750949754E+02  0.13723875508E+02  0.00000000000E+00 0.  1.
</event>
<event>
 7    1  0.3837332E-009  0.4778726E+02  0.7816164E-02  0.1312668E+00
        -11   -1    0    0    0    0  0.00000000000E+00  0.00000000000E+00  0.45593999997E+02  0.45594000000E+02  0.51100000000E-03 0.  1.
         11   -1    0    0    0    0 -0.00000000000E+00 -0.00000000000E+00 -0.45593999997E+02  0.45594000000E+02  0.51100000000E-03 0. -1.
    9900012    2    1    2    0    0  0.40886654111E+02  0.14479608898E+02  0.14988014072E+01  0.47787263095E+02  0.19999963754E+02 0.  0.
        -12    1    1    2    0    0 -0.40886654111E+02 -0.14479608898E+02 -0.14988014072E+01  0.43400736905E+02  0.00000000000E+00 0.  1.
         11    1    3    3    0    0  0.26106919942E+02  0.87674357164E+01  0.47075359415E+01  0.27939221406E+02  0.51100000000E-03 0. -1.
        -11    1    3    3    0    0  0.77017868839E+01  0.80019415094E+01  0.12479104756E+01  0.11176129470E+02  0.51100000000E-03 0.  1.
         12    1    3    3    0    0  0.70779472858E+01 -0.22897683276E+01 -0.44566450099E+01  0.86719122181E+01  0.00000000000E+00 0. -1.
</event>
<event>
 7    1  0.4184657E-009  0.4778727E+02  0.7816164E-02  0.1312668E+00
        -11   -1    0    0    0    0  0.00000000000E+00  0.00000000000E+00  0.45593999997E+02  0.45594000000E+02  0.51100000000E-03 0.  1.
         11   -1    0    0    0    0 -0.00000000000E+00 -0.00000000000E+00 -0.45593999997E+02  0.45594000000E+02  0.51100000000E-03 0. -1.
    9900012    2    1    2    0    0  0.39864690573E+02  0.16137027254E+02 -0.58331873750E+01  0.47787270997E+02  0.19999999784E+02 0.  0.
        -12    1    1    2    0    0 -0.39864690573E+02 -0.16137027254E+02  0.58331873750E+01  0.43400729003E+02  0.00000000000E+00 0.  1.
         11    1    3    3    0    0  0.64372908146E+01 -0.78123544562E+00  0.17953783867E+01  0.67284787037E+01  0.51100000000E-03 0. -1.
        -11    1    3    3    0    0 -0.58391613955E+00  0.11606830144E+01 -0.30258239295E+01  0.32929855498E+01  0.51100000000E-03 0.  1.
         12    1    3    3    0    0  0.34011315897E+02  0.15757579685E+02 -0.46027418322E+01  0.37765806743E+02  0.00000000000E+00 0. -1.
</event>
<event>
 7    1  0.3837332E-009  0.4778727E+02  0.7816164E-02  0.1312668E+00
        -11   -1    0    0    0    0  0.00000000000E+00  0.00000000000E+00  0.45593999997E+02  0.45594000000E+02  0.51100000000E-03 0. -1.
         11   -1    0    0    0    0 -0.00000000000E+00 -0.00000000000E+00 -0.45593999997E+02  0.45594000000E+02  0.51100000000E-03 0.  1.
    9900012    2    1    2    0    0 -0.12281137373E+02  0.32993502206E+02  0.25381605468E+02  0.47787269371E+02  0.19999992371E+02 0.  0.
        -12    1    1    2    0    0  0.12281137373E+02 -0.32993502206E+02 -0.25381605468E+02  0.43400730629E+02  0.00000000000E+00 0.  1.
         11    1    3    3    0    0  0.17769905627E+01  0.13892134350E+02  0.45703727160E+01  0.14732189223E+02  0.51100000000E-03 0. -1.
        -11    1    3    3    0    0 -0.12308645366E+01  0.44798068021E+01  0.94478288951E+01  0.10528303167E+02  0.51100000000E-03 0.  1.
        -12    1    3    3    0    0 -0.12827263399E+02  0.14621561053E+02  0.11363403857E+02  0.22526776981E+02  0.00000000000E+00 0.  1.
</event>
<event>
 7    1  0.3837332E-009  0.4778728E+02  0.7816164E-02  0.1312668E+00
        -11   -1    0    0    0    0  0.00000000000E+00  0.00000000000E+00  0.45593999997E+02  0.45594000000E+02  0.51100000000E-03 0.  1.
         11   -1    0    0    0    0 -0.00000000000E+00 -0.00000000000E+00 -0.45593999997E+02  0.45594000000E+02  0.51100000000E-03 0. -1.
    9900012    2    1    2    0    0  0.32705699350E+02  0.57320068736E+01 -0.27948240503E+02  0.47787276273E+02  0.20000023840E+02 0.  0.
        -12    1    1    2    0    0 -0.32705699350E+02 -0.57320068736E+01  0.27948240503E+02  0.43400723727E+02  0.00000000000E+00 0.  1.
         11    1    3    3    0    0  0.13017754673E+02  0.76822737944E+01 -0.13831225701E+02  0.20488583944E+02  0.51100000000E-03 0. -1.
        -11    1    3    3    0    0  0.14336840785E+00  0.96665423312E+00  0.17175708805E+01  0.19761135841E+01  0.51100000000E-03 0.  1.
         12    1    3    3    0    0  0.19544576269E+02 -0.29169211539E+01 -0.15834585682E+02  0.25322578745E+02  0.00000000000E+00 0. -1.
</event>
<event>
 7    1  0.3837332E-009  0.4778728E+02  0.7816164E-02  0.1312668E+00
        -11   -1    0    0    0    0  0.00000000000E+00  0.00000000000E+00  0.45593999997E+02  0.45594000000E+02  0.51100000000E-03 0.  1.
         11   -1    0    0    0    0 -0.00000000000E+00 -0.00000000000E+00 -0.45593999997E+02  0.45594000000E+02  0.51100000000E-03 0. -1.
    9900012    2    1    2    0    0 -0.23701029969E+02 -0.72362048151E-01 -0.36357651486E+02  0.47787275589E+02  0.20000020720E+02 0.  0.
        -12    1    1    2    0    0  0.23701029969E+02  0.72362048151E-01  0.36357651486E+02  0.43400724411E+02  0.00000000000E+00 0.  1.
         11    1    3    3    0    0 -0.21469453970E+02 -0.44654239897E+01 -0.17343524297E+02  0.27958456689E+02  0.51100000000E-03 0. -1.
        -11    1    3    3    0    0  0.52993211901E+00  0.18763122924E+00 -0.26406911018E+01  0.26998672717E+01  0.51100000000E-03 0.  1.
         12    1    3    3    0    0 -0.27615081182E+01  0.42054307123E+01 -0.16373436087E+02  0.17128951628E+02  0.00000000000E+00 0. -1.
</event>
<event>
 7    1  0.4460212E-009  0.4778727E+02  0.7816164E-02  0.1312668E+00
        -11   -1    0    0    0    0  0.00000000000E+00  0.00000000000E+00  0.45593999997E+02  0.45594000000E+02  0.51100000000E-03 0.  1.
         11   -1    0    0    0    0 -0.00000000000E+00 -0.00000000000E+00 -0.45593999997E+02  0.45594000000E+02  0.51100000000E-03 0. -1.
    9900012    2    1    2    0    0  0.28735353375E+02 -0.32127247157E+02 -0.50737368084E+01  0.47787270183E+02  0.19999996071E+02 0.  0.
        -12    1    1    2    0    0 -0.28735353375E+02  0.32127247157E+02  0.50737368084E+01  0.43400729817E+02  0.00000000000E+00 0.  1.
         11    1    3    3    0    0  0.14755596151E+02 -0.88826556637E+01 -0.73295782897E+01  0.18717689697E+02  0.51100000000E-03 0. -1.
        -11    1    3    3    0    0 -0.77991214144E+00  0.80820050528E-01  0.12162221249E+01  0.14470630073E+01  0.51100000000E-03 0.  1.
         12    1    3    3    0    0  0.14759669365E+02 -0.23325411544E+02  0.10396193565E+01  0.27622517479E+02  0.00000000000E+00 0. -1.
</event>
<event>
 7    1  0.3837332E-009  0.4778727E+02  0.7816164E-02  0.1312668E+00
        -11   -1    0    0    0    0  0.00000000000E+00  0.00000000000E+00  0.45593999997E+02  0.45594000000E+02  0.51100000000E-03 0. -1.
         11   -1    0    0    0    0 -0.00000000000E+00 -0.00000000000E+00 -0.45593999997E+02  0.45594000000E+02  0.51100000000E-03 0.  1.
    9900012    2    1    2    0    0 -0.12730944926E+02  0.40083433516E+02  0.10717494242E+02  0.47787270928E+02  0.19999999468E+02 0.  0.
        -12    1    1    2    0    0  0.12730944926E+02 -0.40083433516E+02 -0.10717494242E+02  0.43400729072E+02  0.00000000000E+00 0.  1.
         11    1    3    3    0    0 -0.29344584982E+01  0.28471477213E+02  0.13388461176E+01  0.28653596119E+02  0.51100000000E-03 0. -1.
        -11    1    3    3    0    0 -0.69572085262E+00  0.58050617384E+01  0.27064063249E+01  0.64426240576E+01  0.51100000000E-03 0.  1.
        -12    1    3    3    0    0 -0.91007655754E+01  0.58068945655E+01  0.66722417992E+01  0.12691050752E+02  0.00000000000E+00 0.  1.
</event>
<event>
 7    1  0.3837332E-009  0.4778727E+02  0.7816164E-02  0.1312668E+00
        -11   -1    0    0    0    0  0.00000000000E+00  0.00000000000E+00  0.45593999997E+02  0.45594000000E+02  0.51100000000E-03 0. -1.
         11   -1    0    0    0    0 -0.00000000000E+00 -0.00000000000E+00 -0.45593999997E+02  0.45594000000E+02  0.51100000000E-03 0.  1.
    9900012    2    1    2    0    0  0.24365092818E+02  0.13066418411E+02  0.33454957272E+02  0.47787271847E+02  0.20000003660E+02 0.  0.
        -12    1    1    2    0    0 -0.24365092818E+02 -0.13066418411E+02 -0.33454957272E+02  0.43400728153E+02  0.00000000000E+00 0.  1.
         11    1    3    3    0    0  0.11649866643E+02  0.75153424170E-01  0.24001619508E+02  0.26679632308E+02  0.51100000000E-03 0. -1.
        -11    1    3    3    0    0  0.26345872071E+01  0.56145594569E+01  0.17990828614E+01  0.64576332390E+01  0.51100000000E-03 0.  1.
        -12    1    3    3    0    0  0.10080638968E+02  0.73767055297E+01  0.76542549028E+01  0.14650006300E+02  0.00000000000E+00 0.  1.
</event>
<event>
 7    1  0.3837332E-009  0.4778734E+02  0.7816164E-02  0.1312667E+00
        -11   -1    0    0    0    0  0.00000000000E+00  0.00000000000E+00  0.45593999997E+02  0.45594000000E+02  0.51100000000E-03 0.  1.
         11   -1    0    0    0    0 -0.00000000000E+00 -0.00000000000E+00 -0.45593999997E+02  0.45594000000E+02  0.51100000000E-03 0. -1.
    9900012    2    1    2    0    0  0.27186321315E+02 -0.14858888328E+02 -0.30393010450E+02  0.47787335106E+02  0.20000292082E+02 0.  0.
        -12    1    1    2    0    0 -0.27186321315E+02  0.14858888328E+02  0.30393010450E+02  0.43400664894E+02  0.00000000000E+00 0.  1.
         11    1    3    3    0    0  0.24889010794E+01  0.18095557659E+01 -0.37602546252E+01  0.48588718609E+01  0.51100000000E-03 0. -1.
        -11    1    3    3    0    0  0.25431374895E+02 -0.10891439448E+02 -0.20225698405E+02  0.34270353931E+02  0.51100000000E-03 0.  1.
        -12    1    3    3    0    0 -0.73395465996E+00 -0.57770046458E+01 -0.64070574195E+01  0.86581093143E+01  0.00000000000E+00 0.  1.
</event>
<event>
 7    1  0.3837332E-009  0.4778727E+02  0.7816164E-02  0.1312668E+00
        -11   -1    0    0    0    0  0.00000000000E+00  0.00000000000E+00  0.45593999997E+02  0.45594000000E+02  0.51100000000E-03 0.  1.
         11   -1    0    0    0    0 -0.00000000000E+00 -0.00000000000E+00 -0.45593999997E+02  0.45594000000E+02  0.51100000000E-03 0. -1.
    9900012    2    1    2    0    0  0.17334291761E+02  0.19279239689E+02 -0.34805980915E+02  0.47787273494E+02  0.20000011167E+02 0.  0.
        -12    1    1    2    0    0 -0.17334291761E+02 -0.19279239689E+02  0.34805980915E+02  0.43400726506E+02  0.00000000000E+00 0.  1.
         11    1    3    3    0    0  0.12945001747E+02  0.13384756831E+02 -0.13941708215E+02  0.23261470587E+02  0.51100000000E-03 0. -1.
        -11    1    3    3    0    0  0.46702281521E+01 -0.91210545496E+00 -0.36023020505E+01  0.59682114304E+01  0.51100000000E-03 0.  1.
        -12    1    3    3    0    0 -0.28093813870E+00  0.68065883126E+01 -0.17261970649E+02  0.18557591476E+02  0.00000000000E+00 0.  1.
</event>
<event>
 7    1  0.3837332E-009  0.4778727E+02  0.7816164E-02  0.1312668E+00
        -11   -1    0    0    0    0  0.00000000000E+00  0.00000000000E+00  0.45593999997E+02  0.45594000000E+02  0.51100000000E-03 0.  1.
         11   -1    0    0    0    0 -0.00000000000E+00 -0.00000000000E+00 -0.45593999997E+02  0.45594000000E+02  0.51100000000E-03 0. -1.
    9900012    2    1    2    0    0 -0.33436956103E+02 -0.60845360649E+01 -0.26992075265E+02  0.47787265678E+02  0.19999975533E+02 0.  0.
        -12    1    1    2    0    0  0.33436956103E+02  0.60845360649E+01  0.26992075265E+02  0.43400734322E+02  0.00000000000E+00 0.  1.
         11    1    3    3    0    0 -0.12869322019E+01  0.20489721663E+01 -0.33656998373E+01  0.41451679202E+01  0.51100000000E-03 0. -1.
        -11    1    3    3    0    0 -0.56662486681E+01 -0.49489731917E+01 -0.12814473188E+02  0.14859657902E+02  0.51100000000E-03 0.  1.
         12    1    3    3    0    0 -0.26483775233E+02 -0.31845350395E+01 -0.10811902240E+02  0.28782439856E+02  0.00000000000E+00 0. -1.
</event>
<event>
 7    1  0.4088332E-009  0.4778727E+02  0.7816164E-02  0.1312668E+00
        -11   -1    0    0    0    0  0.00000000000E+00  0.00000000000E+00  0.45593999997E+02  0.45594000000E+02  0.51100000000E-03 0.  1.
         11   -1    0    0    0    0 -0.00000000000E+00 -0.00000000000E+00 -0.45593999997E+02  0.45594000000E+02  0.51100000000E-03 0. -1.
    9900012    2    1    2    0    0  0.31245292012E+02  0.13363983726E+02 -0.26995535419E+02  0.47787271129E+02  0.20000000388E+02 0.  0.
        -12    1    1    2    0    0 -0.31245292012E+02 -0.13363983726E+02  0.26995535419E+02  0.43400728871E+02  0.00000000000E+00 0.  1.
         11    1    3    3    0    0  0.19849594213E+02  0.67619611743E+01 -0.18357206896E+02  0.27869652933E+02  0.51100000000E-03 0. -1.
        -11    1    3    3    0    0  0.48104812373E+01  0.64356927652E+01 -0.10358469709E+02  0.13109415169E+02  0.51100000000E-03 0.  1.
        -12    1    3    3    0    0  0.65852165616E+01  0.16632978636E+00  0.17201411858E+01  0.68082030272E+01  0.00000000000E+00 0.  1.
</event>
<event>
 7    1  0.3837332E-009  0.4778727E+02  0.7816164E-02  0.1312668E+00
        -11   -1    0    0    0    0  0.00000000000E+00  0.00000000000E+00  0.45593999997E+02  0.45594000000E+02  0.51100000000E-03 0.  1.
         11   -1    0    0    0    0 -0.00000000000E+00 -0.00000000000E+00 -0.45593999997E+02  0.45594000000E+02  0.51100000000E-03 0. -1.
    9900012    2    1    2    0    0  0.16959642039E+02 -0.58620638313E+01 -0.39517470404E+02  0.47787265933E+02  0.19999976695E+02 0.  0.
        -12    1    1    2    0    0 -0.16959642039E+02  0.58620638313E+01  0.39517470404E+02  0.43400734067E+02  0.00000000000E+00 0.  1.
         11    1    3    3    0    0  0.13830053651E+02 -0.47498136324E+01 -0.29010307753E+02  0.32487367849E+02  0.51100000000E-03 0. -1.
        -11    1    3    3    0    0  0.27742477507E+01 -0.57917098739E+01 -0.63309515119E+01  0.90178323977E+01  0.51100000000E-03 0.  1.
        -12    1    3    3    0    0  0.35534063732E+00  0.46794596750E+01 -0.41762111384E+01  0.62820656866E+01  0.00000000000E+00 0.  1.
</event>
<event>
 7    1  0.3837332E-009  0.4778727E+02  0.7816164E-02  0.1312668E+00
        -11   -1    0    0    0    0  0.00000000000E+00  0.00000000000E+00  0.45593999997E+02  0.45594000000E+02  0.51100000000E-03 0.  1.
         11   -1    0    0    0    0 -0.00000000000E+00 -0.00000000000E+00 -0.45593999997E+02  0.45594000000E+02  0.51100000000E-03 0. -1.
    9900012    2    1    2    0    0 -0.35252349793E+02 -0.89513775335E+01 -0.23680543188E+02  0.47787269000E+02  0.19999990677E+02 0.  0.
        -12    1    1    2    0    0  0.35252349793E+02  0.89513775335E+01  0.23680543188E+02  0.43400731000E+02  0.00000000000E+00 0.  1.
         11    1    3    3    0    0  0.93194153251E+00 -0.12908870379E+01 -0.42095543260E+01  0.45005835454E+01  0.51100000000E-03 0. -1.
        -11    1    3    3    0    0 -0.14718368487E+02 -0.33833228574E+01 -0.14295653105E+02  0.20795262500E+02  0.51100000000E-03 0.  1.
        -12    1    3    3    0    0 -0.21465922838E+02 -0.42771676382E+01 -0.51753357569E+01  0.22491422954E+02  0.00000000000E+00 0.  1.
</event>
<event>
 7    1  0.3837332E-009  0.4778732E+02  0.7816164E-02  0.1312668E+00
        -11   -1    0    0    0    0  0.00000000000E+00  0.00000000000E+00  0.45593999997E+02  0.45594000000E+02  0.51100000000E-03 0. -1.
         11   -1    0    0    0    0 -0.00000000000E+00 -0.00000000000E+00 -0.45593999997E+02  0.45594000000E+02  0.51100000000E-03 0.  1.
    9900012    2    1    2    0    0  0.36876414078E+02  0.22885528759E+02  0.42446349055E-01  0.47787318628E+02  0.20000216951E+02 0.  0.
        -12    1    1    2    0    0 -0.36876414078E+02 -0.22885528759E+02 -0.42446349055E-01  0.43400681372E+02  0.00000000000E+00 0.  1.
         11    1    3    3    0    0  0.23296193118E+02  0.39997435672E+01  0.22343304956E+01  0.23742426064E+02  0.51100000000E-03 0. -1.
        -11    1    3    3    0    0  0.48772093914E+01  0.27340102142E+01 -0.74508987531E+00  0.56406686202E+01  0.51100000000E-03 0.  1.
         12    1    3    3    0    0  0.87030115690E+01  0.16151774978E+02 -0.14467942713E+01  0.18404223944E+02  0.00000000000E+00 0. -1.
</event>
<event>
 7    1  0.3837332E-009  0.4778728E+02  0.7816164E-02  0.1312668E+00
        -11   -1    0    0    0    0  0.00000000000E+00  0.00000000000E+00  0.45593999997E+02  0.45594000000E+02  0.51100000000E-03 0.  1.
         11   -1    0    0    0    0 -0.00000000000E+00 -0.00000000000E+00 -0.45593999997E+02  0.45594000000E+02  0.51100000000E-03 0. -1.
    9900012    2    1    2    0    0  0.39351135310E+02  0.70098575666E+01 -0.16910719250E+02  0.47787281356E+02  0.20000047014E+02 0.  0.
        -12    1    1    2    0    0 -0.39351135310E+02 -0.70098575666E+01  0.16910719250E+02  0.43400718644E+02  0.00000000000E+00 0.  1.
         11    1    3    3    0    0 -0.11525584152E+01  0.11127383973E+01 -0.15467693131E+01  0.22268976650E+01  0.51100000000E-03 0.  1.
        -11    1    3    3    0    0  0.13236051163E+02 -0.40804571812E+01 -0.46317838877E+01  0.14604677451E+02  0.51100000000E-03 0. -1.
         12    1    3    3    0    0  0.27267642562E+02  0.99775763505E+01 -0.10732166049E+02  0.30955706240E+02  0.00000000000E+00 0. -1.
</event>
<event>
 7    1  0.3837332E-009  0.4778728E+02  0.7816164E-02  0.1312668E+00
        -11   -1    0    0    0    0  0.00000000000E+00  0.00000000000E+00  0.45593999997E+02  0.45594000000E+02  0.51100000000E-03 0. -1.
         11   -1    0    0    0    0 -0.00000000000E+00 -0.00000000000E+00 -0.45593999997E+02  0.45594000000E+02  0.51100000000E-03 0.  1.
    9900012    2    1    2    0    0  0.38129494424E+02 -0.20008391206E+02  0.54247982366E+01  0.47787279964E+02  0.20000040668E+02 0.  0.
        -12    1    1    2    0    0 -0.38129494424E+02  0.20008391206E+02 -0.54247982366E+01  0.43400720036E+02  0.00000000000E+00 0.  1.
         11    1    3    3    0    0  0.14212511037E+02 -0.15841460846E+02  0.17339977205E+01  0.21353081747E+02  0.51100000000E-03 0. -1.
        -11    1    3    3    0    0  0.19832387740E+01 -0.37446539635E+01  0.61634754017E+00  0.42820034905E+01  0.51100000000E-03 0.  1.
        -12    1    3    3    0    0  0.21933744613E+02 -0.42227639637E+00  0.30744529759E+01  0.22152194727E+02  0.00000000000E+00 0.  1.
</event>
<event>
 7    1  0.3837332E-009  0.4778727E+02  0.7816164E-02  0.1312668E+00
        -11   -1    0    0    0    0  0.00000000000E+00  0.00000000000E+00  0.45593999997E+02  0.45594000000E+02  0.51100000000E-03 0.  1.
         11   -1    0    0    0    0 -0.00000000000E+00 -0.00000000000E+00 -0.45593999997E+02  0.45594000000E+02  0.51100000000E-03 0. -1.
    9900012    2    1    2    0    0  0.36737650910E+02  0.14439576786E+02 -0.18040702217E+02  0.47787270644E+02  0.19999998176E+02 0.  0.
        -12    1    1    2    0    0 -0.36737650910E+02 -0.14439576786E+02  0.18040702217E+02  0.43400729356E+02  0.00000000000E+00 0.  1.
         11    1    3    3    0    0  0.52581578192E+01  0.96559237942E+00  0.96503152157E+00  0.54324836303E+01  0.51100000000E-03 0. -1.
        -11    1    3    3    0    0  0.15556729523E+02  0.57683097947E+01 -0.27866387655E+00  0.16594061744E+02  0.51100000000E-03 0.  1.
        -12    1    3    3    0    0  0.15922763568E+02  0.77056746118E+01 -0.18727069862E+02  0.25760725271E+02  0.00000000000E+00 0.  1.
</event>
<event>
 7    1  0.3837332E-009  0.4778727E+02  0.7816164E-02  0.1312668E+00
        -11   -1    0    0    0    0  0.00000000000E+00  0.00000000000E+00  0.45593999997E+02  0.45594000000E+02  0.51100000000E-03 0. -1.
         11   -1    0    0    0    0 -0.00000000000E+00 -0.00000000000E+00 -0.45593999997E+02  0.45594000000E+02  0.51100000000E-03 0.  1.
    9900012    2    1    2    0    0  0.22003361705E+02 -0.34827644031E+02  0.13656874888E+02  0.47787274812E+02  0.20000017179E+02 0.  0.
        -12    1    1    2    0    0 -0.22003361705E+02  0.34827644031E+02 -0.13656874888E+02  0.43400725188E+02  0.00000000000E+00 0.  1.
         11    1    3    3    0    0  0.19737949755E+01 -0.16029153433E+01  0.30839078513E+01  0.39969603575E+01  0.51100000000E-03 0. -1.
        -11    1    3    3    0    0  0.66382354796E+01 -0.26423824929E+02  0.46178766269E+01  0.27633484742E+02  0.51100000000E-03 0.  1.
        -12    1    3    3    0    0  0.13391331250E+02 -0.68009037590E+01  0.59550904102E+01  0.16156829713E+02  0.00000000000E+00 0.  1.
</event>
<event>
 7    1  0.3837332E-009  0.4778727E+02  0.7816164E-02  0.1312668E+00
        -11   -1    0    0    0    0  0.00000000000E+00  0.00000000000E+00  0.45593999997E+02  0.45594000000E+02  0.51100000000E-03 0.  1.
         11   -1    0    0    0    0 -0.00000000000E+00 -0.00000000000E+00 -0.45593999997E+02  0.45594000000E+02  0.51100000000E-03 0. -1.
    9900012    2    1    2    0    0 -0.11731897985E+02 -0.39838064036E+02 -0.12606128186E+02  0.47787271385E+02  0.20000001551E+02 0.  0.
        -12    1    1    2    0    0  0.11731897985E+02  0.39838064036E+02  0.12606128186E+02  0.43400728615E+02  0.00000000000E+00 0.  1.
         11    1    3    3    0    0  0.24589606485E+01 -0.91813162600E+01  0.21670146515E+01  0.97487952332E+01  0.51100000000E-03 0. -1.
        -11    1    3    3    0    0 -0.53972223733E+01 -0.58317788129E+01 -0.69715669147E+01  0.10570827734E+02  0.51100000000E-03 0.  1.
        -12    1    3    3    0    0 -0.87936362602E+01 -0.24824968963E+02 -0.78015759233E+01  0.27467648418E+02  0.00000000000E+00 0.  1.
</event>
<event>
 7    1  0.3837332E-009  0.4778726E+02  0.7816164E-02  0.1312668E+00
        -11   -1    0    0    0    0  0.00000000000E+00  0.00000000000E+00  0.45593999997E+02  0.45594000000E+02  0.51100000000E-03 0. -1.
         11   -1    0    0    0    0 -0.00000000000E+00 -0.00000000000E+00 -0.45593999997E+02  0.45594000000E+02  0.51100000000E-03 0.  1.
    9900012    2    1    2    0    0 -0.38268612145E+02 -0.74807111071E+01  0.19057181790E+02  0.47787263923E+02  0.19999967532E+02 0.  0.
        -12    1    1    2    0    0  0.38268612145E+02  0.74807111071E+01 -0.19057181790E+02  0.43400736077E+02  0.00000000000E+00 0.  1.
         11    1    3    3    0    0 -0.12762063160E+02  0.27674124775E+01  0.14975987311E+00  0.13059527411E+02  0.51100000000E-03 0. -1.
        -11    1    3    3    0    0 -0.24484519430E+01 -0.21598803751E+01 -0.76965334653E+00  0.33544547526E+01  0.51100000000E-03 0.  1.
        -12    1    3    3    0    0 -0.23058097043E+02 -0.80882432095E+01  0.19677075264E+02  0.31373281760E+02  0.00000000000E+00 0.  1.
</event>
<event>
 7    1  0.3837332E-009  0.4778727E+02  0.7816164E-02  0.1312668E+00
        -11   -1    0    0    0    0  0.00000000000E+00  0.00000000000E+00  0.45593999997E+02  0.45594000000E+02  0.51100000000E-03 0. -1.
         11   -1    0    0    0    0 -0.00000000000E+00 -0.00000000000E+00 -0.45593999997E+02  0.45594000000E+02  0.51100000000E-03 0.  1.
    9900012    2    1    2    0    0  0.22202704608E+02 -0.34782388966E+02  0.13447992487E+02  0.47787272172E+02  0.20000005139E+02 0.  0.
        -12    1    1    2    0    0 -0.22202704608E+02  0.34782388966E+02 -0.13447992487E+02  0.43400727828E+02  0.00000000000E+00 0.  1.
         11    1    3    3    0    0  0.77455852879E+01 -0.10032377189E+02  0.10700166865E+02  0.16587231677E+02  0.51100000000E-03 0. -1.
        -11    1    3    3    0    0 -0.86257568024E+00  0.37931967926E+00 -0.11779719920E+01  0.15084888128E+01  0.51100000000E-03 0.  1.
         12    1    3    3    0    0  0.15319695000E+02 -0.25129331457E+02  0.39257976140E+01  0.29691551682E+02  0.00000000000E+00 0. -1.
</event>
<event>
 7    1  0.3837332E-009  0.4778727E+02  0.7816164E-02  0.1312668E+00
        -11   -1    0    0    0    0  0.00000000000E+00  0.00000000000E+00  0.45593999997E+02  0.45594000000E+02  0.51100000000E-03 0.  1.
         11   -1    0    0    0    0 -0.00000000000E+00 -0.00000000000E+00 -0.45593999997E+02  0.45594000000E+02  0.51100000000E-03 0. -1.
    9900012    2    1    2    0    0 -0.23501918767E+02 -0.96296036729E+01 -0.35193094135E+02  0.47787270427E+02  0.19999997187E+02 0.  0.
        -12    1    1    2    0    0  0.23501918767E+02  0.96296036729E+01  0.35193094135E+02  0.43400729573E+02  0.00000000000E+00 0.  1.
         11    1    3    3    0    0 -0.13365150993E+02 -0.74136631219E+01 -0.12204295709E+02  0.19558489103E+02  0.51100000000E-03 0. -1.
        -11    1    3    3    0    0 -0.35566600417E+00 -0.57560937938E+01 -0.61078830216E+01  0.84003184068E+01  0.51100000000E-03 0.  1.
        -12    1    3    3    0    0 -0.97811017693E+01  0.35401532428E+01 -0.16880915404E+02  0.19828462918E+02  0.00000000000E+00 0.  1.
</event>
<event>
 7    1  0.3837332E-009  0.4778724E+02  0.7816164E-02  0.1312668E+00
        -11   -1    0    0    0    0  0.00000000000E+00  0.00000000000E+00  0.45593999997E+02  0.45594000000E+02  0.51100000000E-03 0.  1.
         11   -1    0    0    0    0 -0.00000000000E+00 -0.00000000000E+00 -0.45593999997E+02  0.45594000000E+02  0.51100000000E-03 0. -1.
    9900012    2    1    2    0    0  0.10479054492E+02  0.12528470637E+02 -0.40210108000E+02  0.47787240272E+02  0.19999859696E+02 0.  0.
        -12    1    1    2    0    0 -0.10479054492E+02 -0.12528470637E+02  0.40210108000E+02  0.43400759728E+02  0.00000000000E+00 0.  1.
         11    1    3    3    0    0  0.14221698810E-01  0.59230947655E+01 -0.19867848452E+01  0.62474449290E+01  0.51100000000E-03 0. -1.
        -11    1    3    3    0    0  0.54895317133E+01  0.91499527754E+01 -0.25609893361E+02  0.27743886398E+02  0.51100000000E-03 0.  1.
        -12    1    3    3    0    0  0.49753010800E+01 -0.25445769042E+01 -0.12613429794E+02  0.13795908945E+02  0.00000000000E+00 0.  1.
</event>
<event>
 7    1  0.3837332E-009  0.4778727E+02  0.7816164E-02  0.1312668E+00
        -11   -1    0    0    0    0  0.00000000000E+00  0.00000000000E+00  0.45593999997E+02  0.45594000000E+02  0.51100000000E-03 0. -1.
         11   -1    0    0    0    0 -0.00000000000E+00 -0.00000000000E+00 -0.45593999997E+02  0.45594000000E+02  0.51100000000E-03 0.  1.
    9900012    2    1    2    0    0 -0.27897776094E+02  0.12148525469E+02  0.30947546632E+02  0.47787271612E+02  0.20000002588E+02 0.  0.
        -12    1    1    2    0    0  0.27897776094E+02 -0.12148525469E+02 -0.30947546632E+02  0.43400728388E+02  0.00000000000E+00 0.  1.
         11    1    3    3    0    0 -0.82798618853E+01  0.63307782043E+01  0.16493631752E+02  0.19510888092E+02  0.51100000000E-03 0. -1.
        -11    1    3    3    0    0 -0.20618526349E+02  0.41846649480E+01  0.15464346817E+02  0.26110937790E+02  0.51100000000E-03 0.  1.
        -12    1    3    3    0    0  0.10006121405E+01  0.16330823171E+01 -0.10104319371E+01  0.21654457300E+01  0.00000000000E+00 0.  1.
</event>
<event>
 7    1  0.3837332E-009  0.4778727E+02  0.7816164E-02  0.1312668E+00
        -11   -1    0    0    0    0  0.00000000000E+00  0.00000000000E+00  0.45593999997E+02  0.45594000000E+02  0.51100000000E-03 0.  1.
         11   -1    0    0    0    0 -0.00000000000E+00 -0.00000000000E+00 -0.45593999997E+02  0.45594000000E+02  0.51100000000E-03 0. -1.
    9900012    2    1    2    0    0 -0.40399921295E+02 -0.10096926713E+02 -0.12227895251E+02  0.47787274292E+02  0.20000014807E+02 0.  0.
        -12    1    1    2    0    0  0.40399921295E+02  0.10096926713E+02  0.12227895251E+02  0.43400725708E+02  0.00000000000E+00 0.  1.
         11    1    3    3    0    0 -0.24504728525E+02 -0.10176895178E+02 -0.96201417815E+01  0.28224068518E+02  0.51100000000E-03 0. -1.
        -11    1    3    3    0    0 -0.68203885091E+01 -0.51224651228E+01 -0.31400258149E+01  0.90893955095E+01  0.51100000000E-03 0.  1.
        -12    1    3    3    0    0 -0.90748042612E+01  0.52024335872E+01  0.53227234548E+00  0.10473810265E+02  0.00000000000E+00 0.  1.
</event>
<event>
 7    1  0.3837332E-009  0.4778727E+02  0.7816164E-02  0.1312668E+00
        -11   -1    0    0    0    0  0.00000000000E+00  0.00000000000E+00  0.45593999997E+02  0.45594000000E+02  0.51100000000E-03 0. -1.
         11   -1    0    0    0    0 -0.00000000000E+00 -0.00000000000E+00 -0.45593999997E+02  0.45594000000E+02  0.51100000000E-03 0.  1.
    9900012    2    1    2    0    0  0.65065085661E+01 -0.42583685112E+02  0.52837831787E+01  0.47787271249E+02  0.20000000935E+02 0.  0.
        -12    1    1    2    0    0 -0.65065085661E+01  0.42583685112E+02 -0.52837831787E+01  0.43400728751E+02  0.00000000000E+00 0.  1.
         11    1    3    3    0    0  0.60512389095E+01 -0.32529786777E+02  0.34684814803E+01  0.33269128094E+02  0.51100000000E-03 0. -1.
        -11    1    3    3    0    0 -0.64992248640E+00 -0.10369153495E+02  0.47072962056E+01  0.11406155411E+02  0.51100000000E-03 0.  1.
        -12    1    3    3    0    0  0.11051921430E+01  0.31525516042E+00 -0.28919945072E+01  0.31119877440E+01  0.00000000000E+00 0.  1.
</event>
<event>
 7    1  0.3837332E-009  0.4778727E+02  0.7816164E-02  0.1312668E+00
        -11   -1    0    0    0    0  0.00000000000E+00  0.00000000000E+00  0.45593999997E+02  0.45594000000E+02  0.51100000000E-03 0.  1.
         11   -1    0    0    0    0 -0.00000000000E+00 -0.00000000000E+00 -0.45593999997E+02  0.45594000000E+02  0.51100000000E-03 0. -1.
    9900012    2    1    2    0    0 -0.13848915663E+00  0.12888482672E+02 -0.41442626241E+02  0.47787269193E+02  0.19999991558E+02 0.  0.
        -12    1    1    2    0    0  0.13848915663E+00 -0.12888482672E+02  0.41442626241E+02  0.43400730807E+02  0.00000000000E+00 0.  1.
         11    1    3    3    0    0 -0.23707531119E+01  0.10355160244E+02 -0.17174988266E+02  0.20194802208E+02  0.51100000000E-03 0. -1.
        -11    1    3    3    0    0  0.84178646424E+00  0.72396210003E+01 -0.91484341932E+01  0.11696775843E+02  0.51100000000E-03 0.  1.
         12    1    3    3    0    0  0.13904774910E+01 -0.47062985719E+01 -0.15119203781E+02  0.15895691142E+02  0.00000000000E+00 0. -1.
</event>
<event>
 7    1  0.3837332E-009  0.4778727E+02  0.7816164E-02  0.1312668E+00
        -11   -1    0    0    0    0  0.00000000000E+00  0.00000000000E+00  0.45593999997E+02  0.45594000000E+02  0.51100000000E-03 0.  1.
         11   -1    0    0    0    0 -0.00000000000E+00 -0.00000000000E+00 -0.45593999997E+02  0.45594000000E+02  0.51100000000E-03 0. -1.
    9900012    2    1    2    0    0  0.21192503976E+02  0.92311704648E+00 -0.37863559248E+02  0.47787268569E+02  0.19999988713E+02 0.  0.
        -12    1    1    2    0    0 -0.21192503976E+02 -0.92311704648E+00  0.37863559248E+02  0.43400731431E+02  0.00000000000E+00 0.  1.
         11    1    3    3    0    0  0.23973113008E+01  0.29220724826E+01 -0.10333386149E+01  0.39183412333E+01  0.51100000000E-03 0. -1.
        -11    1    3    3    0    0 -0.72132849250E+00 -0.26994329364E+01 -0.83332978753E+00  0.29157660688E+01  0.51100000000E-03 0.  1.
         12    1    3    3    0    0  0.19516521168E+02  0.70047750023E+00 -0.35996890845E+02  0.40953161267E+02  0.00000000000E+00 0. -1.
</event>
<event>
 7    1  0.3837332E-009  0.4778727E+02  0.7816164E-02  0.1312668E+00
        -11   -1    0    0    0    0  0.00000000000E+00  0.00000000000E+00  0.45593999997E+02  0.45594000000E+02  0.51100000000E-03 0.  1.
         11   -1    0    0    0    0 -0.00000000000E+00 -0.00000000000E+00 -0.45593999997E+02  0.45594000000E+02  0.51100000000E-03 0. -1.
    9900012    2    1    2    0    0  0.14379847326E+02  0.38393092083E+02 -0.14241266855E+02  0.47787271775E+02  0.20000003331E+02 0.  0.
        -12    1    1    2    0    0 -0.14379847326E+02 -0.38393092083E+02  0.14241266855E+02  0.43400728225E+02  0.00000000000E+00 0.  1.
         11    1    3    3    0    0  0.46600768451E+01  0.68889474503E+01 -0.42790088183E+01  0.93532790990E+01  0.51100000000E-03 0. -1.
        -11    1    3    3    0    0  0.14294337178E+02  0.27699299638E+02 -0.84072715023E+01  0.32284074870E+02  0.51100000000E-03 0.  1.
         12    1    3    3    0    0 -0.45745666974E+01  0.38048449947E+01 -0.15549865343E+01  0.61499178064E+01  0.00000000000E+00 0. -1.
</event>
<event>
 7    1  0.3837332E-009  0.4778727E+02  0.7816164E-02  0.1312668E+00
        -11   -1    0    0    0    0  0.00000000000E+00  0.00000000000E+00  0.45593999997E+02  0.45594000000E+02  0.51100000000E-03 0.  1.
         11   -1    0    0    0    0 -0.00000000000E+00 -0.00000000000E+00 -0.45593999997E+02  0.45594000000E+02  0.51100000000E-03 0. -1.
    9900012    2    1    2    0    0  0.36953953848E+02  0.22529153203E+02 -0.32350923836E+01  0.47787271069E+02  0.20000000112E+02 0.  0.
        -12    1    1    2    0    0 -0.36953953848E+02 -0.22529153203E+02  0.32350923836E+01  0.43400728931E+02  0.00000000000E+00 0.  1.
         11    1    3    3    0    0  0.20937209317E+02  0.11703713397E+02  0.86410615746E+00  0.24001881614E+02  0.51100000000E-03 0. -1.
        -11    1    3    3    0    0  0.15739820571E+02  0.75046668380E+01  0.12511271554E+01  0.17482199387E+02  0.51100000000E-03 0.  1.
        -12    1    3    3    0    0  0.27692395879E+00  0.33207729677E+01 -0.53503256965E+01  0.63031900686E+01  0.00000000000E+00 0.  1.
</event>
<event>
 7    1  0.3837332E-009  0.4778728E+02  0.7816164E-02  0.1312668E+00
        -11   -1    0    0    0    0  0.00000000000E+00  0.00000000000E+00  0.45593999997E+02  0.45594000000E+02  0.51100000000E-03 0. -1.
         11   -1    0    0    0    0 -0.00000000000E+00 -0.00000000000E+00 -0.45593999997E+02  0.45594000000E+02  0.51100000000E-03 0.  1.
    9900012    2    1    2    0    0 -0.28784779519E+02  0.30051878442E+02  0.12326534246E+02  0.47787281385E+02  0.20000047146E+02 0.  0.
        -12    1    1    2    0    0  0.28784779519E+02 -0.30051878442E+02 -0.12326534246E+02  0.43400718615E+02  0.00000000000E+00 0.  1.
         11    1    3    3    0    0 -0.39927949721E+01  0.61899427308E+01  0.74711616273E+01  0.10491713827E+02  0.51100000000E-03 0. -1.
        -11    1    3    3    0    0 -0.80020100497E+01  0.41217919236E+01  0.68395863611E+01  0.11304922616E+02  0.51100000000E-03 0.  1.
        -12    1    3    3    0    0 -0.16789974497E+02  0.19740143787E+02 -0.19842137425E+01  0.25990644942E+02  0.00000000000E+00 0.  1.
</event>
<event>
 7    1  0.3837332E-009  0.4778726E+02  0.7816164E-02  0.1312668E+00
        -11   -1    0    0    0    0  0.00000000000E+00  0.00000000000E+00  0.45593999997E+02  0.45594000000E+02  0.51100000000E-03 0. -1.
         11   -1    0    0    0    0 -0.00000000000E+00 -0.00000000000E+00 -0.45593999997E+02  0.45594000000E+02  0.51100000000E-03 0.  1.
    9900012    2    1    2    0    0 -0.24917536588E+02 -0.89756373843E+01 -0.34382828708E+02  0.47787255697E+02  0.19999930026E+02 0.  0.
        -12    1    1    2    0    0  0.24917536588E+02  0.89756373843E+01  0.34382828708E+02  0.43400744303E+02  0.00000000000E+00 0.  1.
         11    1    3    3    0    0 -0.10444155993E+02 -0.13349757131E+01 -0.23916162085E+01  0.10797332213E+02  0.51100000000E-03 0. -1.
        -11    1    3    3    0    0 -0.10564968471E+02 -0.17870091295E+01 -0.13709410428E+02  0.17399996981E+02  0.51100000000E-03 0.  1.
        -12    1    3    3    0    0 -0.39084121243E+01 -0.58536525417E+01 -0.18281802072E+02  0.19589926503E+02  0.00000000000E+00 0.  1.
</event>
<event>
 7    1  0.3837332E-009  0.4778727E+02  0.7816164E-02  0.1312668E+00
        -11   -1    0    0    0    0  0.00000000000E+00  0.00000000000E+00  0.45593999997E+02  0.45594000000E+02  0.51100000000E-03 0. -1.
         11   -1    0    0    0    0 -0.00000000000E+00 -0.00000000000E+00 -0.45593999997E+02  0.45594000000E+02  0.51100000000E-03 0.  1.
    9900012    2    1    2    0    0 -0.17983952296E+02  0.38288898836E+02 -0.97036685266E+01  0.47787268473E+02  0.19999988274E+02 0.  0.
        -12    1    1    2    0    0  0.17983952296E+02 -0.38288898836E+02  0.97036685266E+01  0.43400731527E+02  0.00000000000E+00 0.  1.
         11    1    3    3    0    0 -0.21906234906E+01 -0.71863921498E+00 -0.80632343289E+00  0.24424232513E+01  0.51100000000E-03 0.  1.
        -11    1    3    3    0    0 -0.13490337815E+02  0.15966314533E+02 -0.72741010097E+01  0.22131989515E+02  0.51100000000E-03 0. -1.
        -12    1    3    3    0    0 -0.23029909906E+01  0.23041223517E+02 -0.16232440839E+01  0.23212855706E+02  0.00000000000E+00 0.  1.
</event>
<event>
 7    1  0.3837332E-009  0.4778727E+02  0.7816164E-02  0.1312668E+00
        -11   -1    0    0    0    0  0.00000000000E+00  0.00000000000E+00  0.45593999997E+02  0.45594000000E+02  0.51100000000E-03 0. -1.
         11   -1    0    0    0    0 -0.00000000000E+00 -0.00000000000E+00 -0.45593999997E+02  0.45594000000E+02  0.51100000000E-03 0.  1.
    9900012    2    1    2    0    0  0.22248592457E+02  0.37258669287E+02 -0.64414664431E+00  0.47787271570E+02  0.20000002396E+02 0.  0.
        -12    1    1    2    0    0 -0.22248592457E+02 -0.37258669287E+02  0.64414664431E+00  0.43400728430E+02  0.00000000000E+00 0.  1.
         11    1    3    3    0    0  0.97589531949E+01  0.98092114744E+01  0.59622821287E+01  0.15066738388E+02  0.51100000000E-03 0. -1.
        -11    1    3    3    0    0  0.95017829358E+01  0.21653366087E+02 -0.29899972771E+00  0.23648288372E+02  0.51100000000E-03 0.  1.
        -12    1    3    3    0    0  0.29878563266E+01  0.57960917257E+01 -0.63074290453E+01  0.90722448095E+01  0.00000000000E+00 0.  1.
</event>
<event>
 7    1  0.3837332E-009  0.4778727E+02  0.7816164E-02  0.1312668E+00
        -11   -1    0    0    0    0  0.00000000000E+00  0.00000000000E+00  0.45593999997E+02  0.45594000000E+02  0.51100000000E-03 0. -1.
         11   -1    0    0    0    0 -0.00000000000E+00 -0.00000000000E+00 -0.45593999997E+02  0.45594000000E+02  0.51100000000E-03 0.  1.
    9900012    2    1    2    0    0 -0.19328134409E+02 -0.14262823196E+02  0.36147181224E+02  0.47787267107E+02  0.19999982046E+02 0.  0.
        -12    1    1    2    0    0  0.19328134409E+02  0.14262823196E+02 -0.36147181224E+02  0.43400732893E+02  0.00000000000E+00 0.  1.
         11    1    3    3    0    0 -0.14226054616E+02 -0.53207971426E+01  0.18967612881E+02  0.24299420792E+02  0.51100000000E-03 0. -1.
        -11    1    3    3    0    0 -0.91705548934E+01 -0.55631177598E+01  0.11319259649E+02  0.15594005115E+02  0.51100000000E-03 0.  1.
        -12    1    3    3    0    0  0.40684751003E+01 -0.33789082936E+01  0.58603086932E+01  0.78938411992E+01  0.00000000000E+00 0.  1.
</event>
<event>
 7    1  0.3837332E-009  0.4778721E+02  0.7816164E-02  0.1312668E+00
        -11   -1    0    0    0    0  0.00000000000E+00  0.00000000000E+00  0.45593999997E+02  0.45594000000E+02  0.51100000000E-03 0. -1.
         11   -1    0    0    0    0 -0.00000000000E+00 -0.00000000000E+00 -0.45593999997E+02  0.45594000000E+02  0.51100000000E-03 0.  1.
    9900012    2    1    2    0    0  0.28852736697E+02 -0.11589819081E+01  0.32400687483E+02  0.47787214254E+02  0.19999741069E+02 0.  0.
        -12    1    1    2    0    0 -0.28852736697E+02  0.11589819081E+01 -0.32400687483E+02  0.43400785746E+02  0.00000000000E+00 0.  1.
         11    1    3    3    0    0  0.11635092495E+02  0.98499301496E+00  0.79139202653E+01  0.14105875472E+02  0.51100000000E-03 0. -1.
        -11    1    3    3    0    0  0.15203038912E+02  0.44419542945E+01  0.14022740085E+02  0.21154209744E+02  0.51100000000E-03 0.  1.
        -12    1    3    3    0    0  0.20146052907E+01 -0.65859292175E+01  0.10464027132E+02  0.12527129039E+02  0.00000000000E+00 0.  1.
</event>
<event>
 7    1  0.3837332E-009  0.4778727E+02  0.7816164E-02  0.1312668E+00
        -11   -1    0    0    0    0  0.00000000000E+00  0.00000000000E+00  0.45593999997E+02  0.45594000000E+02  0.51100000000E-03 0. -1.
         11   -1    0    0    0    0 -0.00000000000E+00 -0.00000000000E+00 -0.45593999997E+02  0.45594000000E+02  0.51100000000E-03 0.  1.
    9900012    2    1    2    0    0 -0.20880597654E+02 -0.37924137838E+02 -0.30633242844E+01  0.47787267923E+02  0.19999985770E+02 0.  0.
        -12    1    1    2    0    0  0.20880597654E+02  0.37924137838E+02  0.30633242844E+01  0.43400732077E+02  0.00000000000E+00 0.  1.
         11    1    3    3    0    0 -0.15912780547E+02 -0.13929066108E+02  0.22893039306E+01  0.21271492193E+02  0.51100000000E-03 0. -1.
        -11    1    3    3    0    0 -0.50414363936E+01 -0.16119510882E+02  0.18063431881E+00  0.16890451178E+02  0.51100000000E-03 0.  1.
        -12    1    3    3    0    0  0.73619286101E-01 -0.78755608480E+01 -0.55332625339E+01  0.96253245524E+01  0.00000000000E+00 0.  1.
</event>
<event>
 7    1  0.3837332E-009  0.4778727E+02  0.7816164E-02  0.1312668E+00
        -11   -1    0    0    0    0  0.00000000000E+00  0.00000000000E+00  0.45593999997E+02  0.45594000000E+02  0.51100000000E-03 0.  1.
         11   -1    0    0    0    0 -0.00000000000E+00 -0.00000000000E+00 -0.45593999997E+02  0.45594000000E+02  0.51100000000E-03 0. -1.
    9900012    2    1    2    0    0  0.31975562444E+02  0.20300840560E+02 -0.21191097858E+02  0.47787270174E+02  0.19999996029E+02 0.  0.
        -12    1    1    2    0    0 -0.31975562444E+02 -0.20300840560E+02  0.21191097858E+02  0.43400729826E+02  0.00000000000E+00 0.  1.
         11    1    3    3    0    0  0.69184794055E+01  0.85236956467E+01 -0.66716314406E+01  0.12846377353E+02  0.51100000000E-03 0. -1.
        -11    1    3    3    0    0  0.18940728382E+01  0.38763094064E+01 -0.88109703405E+01  0.98105292993E+01  0.51100000000E-03 0.  1.
         12    1    3    3    0    0  0.23163010200E+02  0.79008355074E+01 -0.57084960764E+01  0.25130363521E+02  0.00000000000E+00 0. -1.
</event>
<event>
 7    1  0.3837332E-009  0.4778727E+02  0.7816164E-02  0.1312668E+00
        -11   -1    0    0    0    0  0.00000000000E+00  0.00000000000E+00  0.45593999997E+02  0.45594000000E+02  0.51100000000E-03 0. -1.
         11   -1    0    0    0    0 -0.00000000000E+00 -0.00000000000E+00 -0.45593999997E+02  0.45594000000E+02  0.51100000000E-03 0.  1.
    9900012    2    1    2    0    0  0.27032827528E+02  0.11496100237E+02  0.31948229170E+02  0.47787269224E+02  0.19999991698E+02 0.  0.
        -12    1    1    2    0    0 -0.27032827528E+02 -0.11496100237E+02 -0.31948229170E+02  0.43400730776E+02  0.00000000000E+00 0.  1.
         11    1    3    3    0    0 -0.17252744447E+01  0.11134635971E+01  0.10597646088E+01  0.23107302696E+01  0.51100000000E-03 0. -1.
        -11    1    3    3    0    0  0.24520577314E+01 -0.28292607202E+01  0.51935763262E+01  0.64023853881E+01  0.51100000000E-03 0.  1.
         12    1    3    3    0    0  0.26306044241E+02  0.13211897361E+02  0.25694888235E+02  0.39074153566E+02  0.00000000000E+00 0. -1.
</event>
<event>
 7    1  0.3837332E-009  0.4778728E+02  0.7816164E-02  0.1312668E+00
        -11   -1    0    0    0    0  0.00000000000E+00  0.00000000000E+00  0.45593999997E+02  0.45594000000E+02  0.51100000000E-03 0. -1.
         11   -1    0    0    0    0 -0.00000000000E+00 -0.00000000000E+00 -0.45593999997E+02  0.45594000000E+02  0.51100000000E-03 0.  1.
    9900012    2    1    2    0    0  0.40351851356E+02  0.13330117022E+02  0.88124150836E+01  0.47787278955E+02  0.20000036066E+02 0.  0.
        -12    1    1    2    0    0 -0.40351851356E+02 -0.13330117022E+02 -0.88124150836E+01  0.43400721045E+02  0.00000000000E+00 0.  1.
         11    1    3    3    0    0  0.25600758835E+02  0.14273496574E+02  0.79230673130E+01  0.30362914111E+02  0.51100000000E-03 0. -1.
        -11    1    3    3    0    0  0.14933807847E+02 -0.34589376106E+00 -0.14452890652E+01  0.15007568759E+02  0.51100000000E-03 0.  1.
        -12    1    3    3    0    0 -0.18271532664E+00 -0.59748579138E+00  0.23346368358E+01  0.24167960850E+01  0.00000000000E+00 0.  1.
</event>
<event>
 7    1  0.3837332E-009  0.4778727E+02  0.7816164E-02  0.1312668E+00
        -11   -1    0    0    0    0  0.00000000000E+00  0.00000000000E+00  0.45593999997E+02  0.45594000000E+02  0.51100000000E-03 0.  1.
         11   -1    0    0    0    0 -0.00000000000E+00 -0.00000000000E+00 -0.45593999997E+02  0.45594000000E+02  0.51100000000E-03 0. -1.
    9900012    2    1    2    0    0 -0.58122022751E+01 -0.36066378719E+01 -0.42858298369E+02  0.47787271076E+02  0.20000000144E+02 0.  0.
        -12    1    1    2    0    0  0.58122022751E+01  0.36066378719E+01  0.42858298369E+02  0.43400728924E+02  0.00000000000E+00 0.  1.
         11    1    3    3    0    0  0.18909907174E+01 -0.57529316404E+00 -0.16575782968E+02  0.16693213872E+02  0.51100000000E-03 0. -1.
        -11    1    3    3    0    0 -0.10415442202E+02 -0.64420450264E+01 -0.19874505039E+02  0.23344749542E+02  0.51100000000E-03 0.  1.
        -12    1    3    3    0    0  0.27122492091E+01  0.34107003185E+01 -0.64080103629E+01  0.77493076624E+01  0.00000000000E+00 0.  1.
</event>
<event>
 7    1  0.3837332E-009  0.4778726E+02  0.7816164E-02  0.1312668E+00
        -11   -1    0    0    0    0  0.00000000000E+00  0.00000000000E+00  0.45593999997E+02  0.45594000000E+02  0.51100000000E-03 0.  1.
         11   -1    0    0    0    0 -0.00000000000E+00 -0.00000000000E+00 -0.45593999997E+02  0.45594000000E+02  0.51100000000E-03 0. -1.
    9900012    2    1    2    0    0  0.43108713658E+02 -0.49677360199E+01  0.76435470986E+00  0.47787264608E+02  0.19999970653E+02 0.  0.
        -12    1    1    2    0    0 -0.43108713658E+02  0.49677360199E+01 -0.76435470986E+00  0.43400735392E+02  0.00000000000E+00 0.  1.
         11    1    3    3    0    0  0.16445432046E+02 -0.90705157951E+01  0.17591966604E+01  0.18863225205E+02  0.51100000000E-03 0. -1.
        -11    1    3    3    0    0  0.19578158893E+02 -0.17189850675E+01 -0.16996171238E+01  0.19726832334E+02  0.51100000000E-03 0.  1.
        -12    1    3    3    0    0  0.70851227194E+01  0.58217648427E+01  0.70477517330E+00  0.91972070694E+01  0.00000000000E+00 0.  1.
</event>
<event>
 7    1  0.3837332E-009  0.4778727E+02  0.7816164E-02  0.1312668E+00
        -11   -1    0    0    0    0  0.00000000000E+00  0.00000000000E+00  0.45593999997E+02  0.45594000000E+02  0.51100000000E-03 0.  1.
         11   -1    0    0    0    0 -0.00000000000E+00 -0.00000000000E+00 -0.45593999997E+02  0.45594000000E+02  0.51100000000E-03 0. -1.
    9900012    2    1    2    0    0  0.25382498219E+02  0.35137347884E+02 -0.21723060270E+01  0.47787270217E+02  0.19999996229E+02 0.  0.
        -12    1    1    2    0    0 -0.25382498219E+02 -0.35137347884E+02  0.21723060270E+01  0.43400729783E+02  0.00000000000E+00 0.  1.
         11    1    3    3    0    0  0.19153001810E+02  0.20909625167E+02 -0.29898132757E+01  0.28512959977E+02  0.51100000000E-03 0. -1.
        -11    1    3    3    0    0  0.84012214861E+01  0.71695705666E+01 -0.22609266305E+01  0.11273644223E+02  0.51100000000E-03 0.  1.
        -12    1    3    3    0    0 -0.21717250764E+01  0.70581521506E+01  0.30784338792E+01  0.80006660184E+01  0.00000000000E+00 0.  1.
</event>
<event>
 7    1  0.3837332E-009  0.4778727E+02  0.7816164E-02  0.1312668E+00
        -11   -1    0    0    0    0  0.00000000000E+00  0.00000000000E+00  0.45593999997E+02  0.45594000000E+02  0.51100000000E-03 0. -1.
         11   -1    0    0    0    0 -0.00000000000E+00 -0.00000000000E+00 -0.45593999997E+02  0.45594000000E+02  0.51100000000E-03 0.  1.
    9900012    2    1    2    0    0 -0.41995897043E+02  0.10948272573E+02  0.32112320153E+00  0.47787272346E+02  0.20000005934E+02 0.  0.
        -12    1    1    2    0    0  0.41995897043E+02 -0.10948272573E+02 -0.32112320153E+00  0.43400727654E+02  0.00000000000E+00 0.  1.
         11    1    3    3    0    0 -0.57386570963E+00 -0.19016976979E+01  0.10579740510E+01  0.22505744468E+01  0.51100000000E-03 0.  1.
        -11    1    3    3    0    0 -0.97824090333E+01  0.28483546362E+01  0.57888222307E+01  0.11718323844E+02  0.51100000000E-03 0. -1.
        -12    1    3    3    0    0 -0.31639622300E+02  0.10001615635E+02 -0.65256730801E+01  0.33818374055E+02  0.00000000000E+00 0.  1.
</event>
<event>
 7    1  0.3837332E-009  0.4778727E+02  0.7816164E-02  0.1312668E+00
        -11   -1    0    0    0    0  0.00000000000E+00  0.00000000000E+00  0.45593999997E+02  0.45594000000E+02  0.51100000000E-03 0.  1.
         11   -1    0    0    0    0 -0.00000000000E+00 -0.00000000000E+00 -0.45593999997E+02  0.45594000000E+02  0.51100000000E-03 0. -1.
    9900012    2    1    2    0    0 -0.83707367724E+01  0.34135588236E+01 -0.42448815778E+02  0.47787267530E+02  0.19999983976E+02 0.  0.
        -12    1    1    2    0    0  0.83707367724E+01 -0.34135588236E+01  0.42448815778E+02  0.43400732470E+02  0.00000000000E+00 0.  1.
         11    1    3    3    0    0 -0.12519330027E+02  0.71023206926E+01 -0.33603088250E+02  0.36556040866E+02  0.51100000000E-03 0. -1.
        -11    1    3    3    0    0  0.90451870351E+00 -0.18980388833E+01 -0.65335338820E+01  0.68635101031E+01  0.51100000000E-03 0.  1.
         12    1    3    3    0    0  0.32440745509E+01 -0.17907229857E+01 -0.23121936458E+01  0.43677165612E+01  0.00000000000E+00 0. -1.
</event>
<event>
 7    1  0.3837332E-009  0.4778727E+02  0.7816164E-02  0.1312668E+00
        -11   -1    0    0    0    0  0.00000000000E+00  0.00000000000E+00  0.45593999997E+02  0.45594000000E+02  0.51100000000E-03 0.  1.
         11   -1    0    0    0    0 -0.00000000000E+00 -0.00000000000E+00 -0.45593999997E+02  0.45594000000E+02  0.51100000000E-03 0. -1.
    9900012    2    1    2    0    0  0.21348471637E+02  0.29966145751E+02 -0.23019483484E+02  0.47787265533E+02  0.19999974872E+02 0.  0.
        -12    1    1    2    0    0 -0.21348471637E+02 -0.29966145751E+02  0.23019483484E+02  0.43400734467E+02  0.00000000000E+00 0.  1.
         11    1    3    3    0    0  0.20860817633E+02  0.22611614021E+02 -0.22286833340E+02  0.37988968682E+02  0.51100000000E-03 0. -1.
        -11    1    3    3    0    0  0.28014851916E+01  0.64653225050E+01 -0.14987169355E+01  0.72038092067E+01  0.51100000000E-03 0.  1.
         12    1    3    3    0    0 -0.23138311871E+01  0.88920922450E+00  0.76606679187E+00  0.25944876444E+01  0.00000000000E+00 0. -1.
</event>
<event>
 7    1  0.3837332E-009  0.4778725E+02  0.7816164E-02  0.1312668E+00
        -11   -1    0    0    0    0  0.00000000000E+00  0.00000000000E+00  0.45593999997E+02  0.45594000000E+02  0.51100000000E-03 0.  1.
         11   -1    0    0    0    0 -0.00000000000E+00 -0.00000000000E+00 -0.45593999997E+02  0.45594000000E+02  0.51100000000E-03 0. -1.
    9900012    2    1    2    0    0 -0.13887533390E+02 -0.17797053286E+01 -0.41080334117E+02  0.47787253626E+02  0.19999920580E+02 0.  0.
        -12    1    1    2    0    0  0.13887533390E+02  0.17797053286E+01  0.41080334117E+02  0.43400746374E+02  0.00000000000E+00 0.  1.
         11    1    3    3    0    0  0.13259007293E+01  0.46300508143E+00 -0.10695728393E+01  0.17653251171E+01  0.51100000000E-03 0. -1.
        -11    1    3    3    0    0 -0.24501185387E+00 -0.65736216534E+01 -0.17030487364E+02  0.18256780455E+02  0.51100000000E-03 0.  1.
         12    1    3    3    0    0 -0.14968422265E+02  0.43309112433E+01 -0.22980273913E+02  0.27765148054E+02  0.00000000000E+00 0. -1.
</event>
<event>
 7    1  0.3837332E-009  0.4778727E+02  0.7816164E-02  0.1312668E+00
        -11   -1    0    0    0    0  0.00000000000E+00  0.00000000000E+00  0.45593999997E+02  0.45594000000E+02  0.51100000000E-03 0. -1.
         11   -1    0    0    0    0 -0.00000000000E+00 -0.00000000000E+00 -0.45593999997E+02  0.45594000000E+02  0.51100000000E-03 0.  1.
    9900012    2    1    2    0    0  0.33962814631E+02 -0.78871538076E+00  0.27009778799E+02  0.47787274195E+02  0.20000014367E+02 0.  0.
        -12    1    1    2    0    0 -0.33962814631E+02  0.78871538076E+00 -0.27009778799E+02  0.43400725805E+02  0.00000000000E+00 0.  1.
         11    1    3    3    0    0  0.10027683094E+02 -0.52266143114E+01  0.14272436111E+02  0.18209183348E+02  0.51100000000E-03 0. -1.
        -11    1    3    3    0    0  0.15379305591E+01 -0.58890411082E+00 -0.17747120036E+01  0.24210826944E+01  0.51100000000E-03 0.  1.
         12    1    3    3    0    0  0.22397200978E+02  0.50268030414E+01  0.14512054691E+02  0.27157008153E+02  0.00000000000E+00 0. -1.
</event>
<event>
 7    1  0.3837332E-009  0.4778727E+02  0.7816164E-02  0.1312668E+00
        -11   -1    0    0    0    0  0.00000000000E+00  0.00000000000E+00  0.45593999997E+02  0.45594000000E+02  0.51100000000E-03 0. -1.
         11   -1    0    0    0    0 -0.00000000000E+00 -0.00000000000E+00 -0.45593999997E+02  0.45594000000E+02  0.51100000000E-03 0.  1.
    9900012    2    1    2    0    0 -0.37688972007E+02  0.10695657355E+01  0.21494678052E+02  0.47787265370E+02  0.19999974129E+02 0.  0.
        -12    1    1    2    0    0  0.37688972007E+02 -0.10695657355E+01 -0.21494678052E+02  0.43400734630E+02  0.00000000000E+00 0.  1.
         11    1    3    3    0    0 -0.15340862645E+02 -0.42699849067E+01  0.37837324283E+01  0.16367390420E+02  0.51100000000E-03 0. -1.
        -11    1    3    3    0    0 -0.54017215398E+01  0.17348560579E+00 -0.11688239217E+01  0.55294522757E+01  0.51100000000E-03 0.  1.
        -12    1    3    3    0    0 -0.16946387822E+02  0.51660650365E+01  0.18879769546E+02  0.25890422675E+02  0.00000000000E+00 0.  1.
</event>
<event>
 7    1  0.3837332E-009  0.4778727E+02  0.7816164E-02  0.1312668E+00
        -11   -1    0    0    0    0  0.00000000000E+00  0.00000000000E+00  0.45593999997E+02  0.45594000000E+02  0.51100000000E-03 0.  1.
         11   -1    0    0    0    0 -0.00000000000E+00 -0.00000000000E+00 -0.45593999997E+02  0.45594000000E+02  0.51100000000E-03 0. -1.
    9900012    2    1    2    0    0 -0.13983439140E+02 -0.22645229055E+02 -0.34282362153E+02  0.47787270467E+02  0.19999997369E+02 0.  0.
        -12    1    1    2    0    0  0.13983439140E+02  0.22645229055E+02  0.34282362153E+02  0.43400729533E+02  0.00000000000E+00 0.  1.
         11    1    3    3    0    0 -0.39698933877E+01 -0.11133889401E+01 -0.80611794159E+01  0.90544078922E+01  0.51100000000E-03 0. -1.
        -11    1    3    3    0    0 -0.34692047917E+01 -0.52679340684E+01  0.96824921569E+00  0.63815372788E+01  0.51100000000E-03 0.  1.
        -12    1    3    3    0    0 -0.65443409606E+01 -0.16263906047E+02 -0.27189431953E+02  0.32351325296E+02  0.00000000000E+00 0.  1.
</event>
<event>
 7    1  0.3837332E-009  0.4778727E+02  0.7816164E-02  0.1312668E+00
        -11   -1    0    0    0    0  0.00000000000E+00  0.00000000000E+00  0.45593999997E+02  0.45594000000E+02  0.51100000000E-03 0.  1.
         11   -1    0    0    0    0 -0.00000000000E+00 -0.00000000000E+00 -0.45593999997E+02  0.45594000000E+02  0.51100000000E-03 0. -1.
    9900012    2    1    2    0    0 -0.21189817552E+02 -0.12336065435E+02 -0.35811123174E+02  0.47787269346E+02  0.19999992257E+02 0.  0.
        -12    1    1    2    0    0  0.21189817552E+02  0.12336065435E+02  0.35811123174E+02  0.43400730654E+02  0.00000000000E+00 0.  1.
         11    1    3    3    0    0 -0.72612061966E+01  0.95205188217E+00 -0.16996757513E+02  0.18507330559E+02  0.51100000000E-03 0. -1.
        -11    1    3    3    0    0 -0.20101530579E+01  0.63325503550E+00  0.96291204280E+00  0.23170945426E+01  0.51100000000E-03 0.  1.
        -12    1    3    3    0    0 -0.11918458297E+02 -0.13921372353E+02 -0.19777277704E+02  0.26962844244E+02  0.00000000000E+00 0.  1.
</event>
<event>
 7    1  0.3837332E-009  0.4778729E+02  0.7816164E-02  0.1312668E+00
        -11   -1    0    0    0    0  0.00000000000E+00  0.00000000000E+00  0.45593999997E+02  0.45594000000E+02  0.51100000000E-03 0.  1.
         11   -1    0    0    0    0 -0.00000000000E+00 -0.00000000000E+00 -0.45593999997E+02  0.45594000000E+02  0.51100000000E-03 0. -1.
    9900012    2    1    2    0    0 -0.17317313321E+02  0.39690668750E+02 -0.28953333869E+01  0.47787291689E+02  0.20000094125E+02 0.  0.
        -12    1    1    2    0    0  0.17317313321E+02 -0.39690668750E+02  0.28953333869E+01  0.43400708311E+02  0.00000000000E+00 0.  1.
         11    1    3    3    0    0  0.95461743940E+00  0.11231960356E+02  0.26743199384E+01  0.11585344850E+02  0.51100000000E-03 0. -1.
        -11    1    3    3    0    0 -0.21780687494E+01  0.37382569470E+01  0.32531278202E+01  0.54130757758E+01  0.51100000000E-03 0.  1.
        -12    1    3    3    0    0 -0.16093862011E+02  0.24720451447E+02 -0.88227811454E+01  0.30788871063E+02  0.00000000000E+00 0.  1.
</event>
<event>
 7    1  0.3837332E-009  0.4778727E+02  0.7816164E-02  0.1312668E+00
        -11   -1    0    0    0    0  0.00000000000E+00  0.00000000000E+00  0.45593999997E+02  0.45594000000E+02  0.51100000000E-03 0.  1.
         11   -1    0    0    0    0 -0.00000000000E+00 -0.00000000000E+00 -0.45593999997E+02  0.45594000000E+02  0.51100000000E-03 0. -1.
    9900012    2    1    2    0    0 -0.17721173624E+02  0.30461799233E+02 -0.25331050688E+02  0.47787270328E+02  0.19999996733E+02 0.  0.
        -12    1    1    2    0    0  0.17721173624E+02 -0.30461799233E+02  0.25331050688E+02  0.43400729672E+02  0.00000000000E+00 0.  1.
         11    1    3    3    0    0 -0.91141075511E+01  0.75065850764E+01 -0.17012136206E+02  0.20708176031E+02  0.51100000000E-03 0. -1.
        -11    1    3    3    0    0 -0.78609626603E+01  0.10092725830E+02 -0.52916935874E+01  0.13844127633E+02  0.51100000000E-03 0.  1.
        -12    1    3    3    0    0 -0.74610341237E+00  0.12862488327E+02 -0.30272208936E+01  0.13234966664E+02  0.00000000000E+00 0.  1.
</event>
<event>
 7    1  0.3837332E-009  0.4778727E+02  0.7816164E-02  0.1312668E+00
        -11   -1    0    0    0    0  0.00000000000E+00  0.00000000000E+00  0.45593999997E+02  0.45594000000E+02  0.51100000000E-03 0.  1.
         11   -1    0    0    0    0 -0.00000000000E+00 -0.00000000000E+00 -0.45593999997E+02  0.45594000000E+02  0.51100000000E-03 0. -1.
    9900012    2    1    2    0    0  0.45346873793E+01 -0.24831247072E+02 -0.35305364361E+02  0.47787274506E+02  0.20000015780E+02 0.  0.
        -12    1    1    2    0    0 -0.45346873793E+01  0.24831247072E+02  0.35305364361E+02  0.43400725494E+02  0.00000000000E+00 0.  1.
         11    1    3    3    0    0  0.68653207382E+01 -0.15634607579E+02 -0.20981019771E+02  0.27051372865E+02  0.51100000000E-03 0. -1.
        -11    1    3    3    0    0  0.88494599731E+00 -0.10142565295E+02 -0.61337904941E+01  0.11886048387E+02  0.51100000000E-03 0.  1.
         12    1    3    3    0    0 -0.32155793562E+01  0.94592580085E+00 -0.81905540956E+01  0.88498532536E+01  0.00000000000E+00 0. -1.
</event>
<event>
 7    1  0.3837332E-009  0.4778728E+02  0.7816164E-02  0.1312668E+00
        -11   -1    0    0    0    0  0.00000000000E+00  0.00000000000E+00  0.45593999997E+02  0.45594000000E+02  0.51100000000E-03 0. -1.
         11   -1    0    0    0    0 -0.00000000000E+00 -0.00000000000E+00 -0.45593999997E+02  0.45594000000E+02  0.51100000000E-03 0.  1.
    9900012    2    1    2    0    0  0.30816176786E+02 -0.29107225664E+02 -0.93142334072E+01  0.47787282477E+02  0.20000052124E+02 0.  0.
        -12    1    1    2    0    0 -0.30816176786E+02  0.29107225664E+02  0.93142334072E+01  0.43400717523E+02  0.00000000000E+00 0.  1.
         11    1    3    3    0    0  0.51724234259E+01 -0.89187239619E+01 -0.76512553083E+01  0.12838976176E+02  0.51100000000E-03 0.  1.
        -11    1    3    3    0    0  0.18943186294E+02 -0.12007634815E+02 -0.64547155727E+01  0.23338615088E+02  0.51100000000E-03 0. -1.
        -12    1    3    3    0    0  0.67005670661E+01 -0.81808668869E+01  0.47917374738E+01  0.11609691212E+02  0.00000000000E+00 0.  1.
</event>
<event>
 7    1  0.3837332E-009  0.4778727E+02  0.7816164E-02  0.1312668E+00
        -11   -1    0    0    0    0  0.00000000000E+00  0.00000000000E+00  0.45593999997E+02  0.45594000000E+02  0.51100000000E-03 0. -1.
         11   -1    0    0    0    0 -0.00000000000E+00 -0.00000000000E+00 -0.45593999997E+02  0.45594000000E+02  0.51100000000E-03 0.  1.
    9900012    2    1    2    0    0  0.14626999728E+01  0.33121792552E+02  0.28007696937E+02  0.47787265896E+02  0.19999976526E+02 0.  0.
        -12    1    1    2    0    0 -0.14626999728E+01 -0.33121792552E+02 -0.28007696937E+02  0.43400734104E+02  0.00000000000E+00 0.  1.
         11    1    3    3    0    0 -0.74908698689E+00  0.20518416101E+01  0.99849000414E+01  0.10221028050E+02  0.51100000000E-03 0. -1.
        -11    1    3    3    0    0  0.13268465572E+01  0.15708745551E+02  0.29719923412E+01  0.16042379727E+02  0.51100000000E-03 0.  1.
         12    1    3    3    0    0  0.88494040250E+00  0.15361205391E+02  0.15050804554E+02  0.21523858118E+02  0.00000000000E+00 0. -1.
</event>
<event>
 7    1  0.3837332E-009  0.4778727E+02  0.7816164E-02  0.1312668E+00
        -11   -1    0    0    0    0  0.00000000000E+00  0.00000000000E+00  0.45593999997E+02  0.45594000000E+02  0.51100000000E-03 0. -1.
         11   -1    0    0    0    0 -0.00000000000E+00 -0.00000000000E+00 -0.45593999997E+02  0.45594000000E+02  0.51100000000E-03 0.  1.
    9900012    2    1    2    0    0  0.32723556658E+02 -0.18949741517E+02  0.21300219213E+02  0.47787271868E+02  0.20000003753E+02 0.  0.
        -12    1    1    2    0    0 -0.32723556658E+02  0.18949741517E+02 -0.21300219213E+02  0.43400728132E+02  0.00000000000E+00 0.  1.
         11    1    3    3    0    0  0.22233218109E+01  0.62199754700E+00 -0.48864357176E-01  0.23092052334E+01  0.51100000000E-03 0. -1.
        -11    1    3    3    0    0  0.17358868961E+01  0.17136741164E+01  0.61209616853E+01  0.65890936029E+01  0.51100000000E-03 0.  1.
         12    1    3    3    0    0  0.28764347951E+02 -0.21285413181E+02  0.15228121885E+02  0.38888973031E+02  0.00000000000E+00 0. -1.
</event>
<event>
 7    1  0.3837332E-009  0.4778727E+02  0.7816164E-02  0.1312668E+00
        -11   -1    0    0    0    0  0.00000000000E+00  0.00000000000E+00  0.45593999997E+02  0.45594000000E+02  0.51100000000E-03 0.  1.
         11   -1    0    0    0    0 -0.00000000000E+00 -0.00000000000E+00 -0.45593999997E+02  0.45594000000E+02  0.51100000000E-03 0. -1.
    9900012    2    1    2    0    0 -0.13327992529E+02 -0.39092031393E+02 -0.13334213742E+02  0.47787267755E+02  0.19999985000E+02 0.  0.
        -12    1    1    2    0    0  0.13327992529E+02  0.39092031393E+02  0.13334213742E+02  0.43400732245E+02  0.00000000000E+00 0.  1.
         11    1    3    3    0    0 -0.62871098433E+01 -0.76570084185E+01  0.24203041512E+01  0.10198794073E+02  0.51100000000E-03 0. -1.
        -11    1    3    3    0    0  0.14686581904E+01 -0.10318584644E+02 -0.10257611224E+01  0.10472933308E+02  0.51100000000E-03 0.  1.
         12    1    3    3    0    0 -0.85095408758E+01 -0.21116438331E+02 -0.14728756771E+02  0.27115540373E+02  0.00000000000E+00 0. -1.
</event>
<event>
 7    1  0.3837332E-009  0.4778728E+02  0.7816164E-02  0.1312668E+00
        -11   -1    0    0    0    0  0.00000000000E+00  0.00000000000E+00  0.45593999997E+02  0.45594000000E+02  0.51100000000E-03 0. -1.
         11   -1    0    0    0    0 -0.00000000000E+00 -0.00000000000E+00 -0.45593999997E+02  0.45594000000E+02  0.51100000000E-03 0.  1.
    9900012    2    1    2    0    0  0.36829619093E+02 -0.65996529609E+01 -0.21991953886E+02  0.47787282293E+02  0.20000051286E+02 0.  0.
        -12    1    1    2    0    0 -0.36829619093E+02  0.65996529609E+01  0.21991953886E+02  0.43400717707E+02  0.00000000000E+00 0.  1.
         11    1    3    3    0    0  0.14870670315E+02  0.32334838259E+01 -0.45198503059E+01  0.15875178749E+02  0.51100000000E-03 0. -1.
        -11    1    3    3    0    0  0.39968404720E+01  0.21268982912E+01 -0.70044185342E+00  0.45813807036E+01  0.51100000000E-03 0.  1.
        -12    1    3    3    0    0  0.17962108306E+02 -0.11960035078E+02 -0.16771661727E+02  0.27330722840E+02  0.00000000000E+00 0.  1.
</event>
<event>
 7    1  0.3837332E-009  0.4778727E+02  0.7816164E-02  0.1312668E+00
        -11   -1    0    0    0    0  0.00000000000E+00  0.00000000000E+00  0.45593999997E+02  0.45594000000E+02  0.51100000000E-03 0.  1.
         11   -1    0    0    0    0 -0.00000000000E+00 -0.00000000000E+00 -0.45593999997E+02  0.45594000000E+02  0.51100000000E-03 0. -1.
    9900012    2    1    2    0    0  0.51195337775E+01  0.89002554077E+01 -0.42168699491E+02  0.47787269716E+02  0.19999993944E+02 0.  0.
        -12    1    1    2    0    0 -0.51195337775E+01 -0.89002554077E+01  0.42168699491E+02  0.43400730284E+02  0.00000000000E+00 0.  1.
         11    1    3    3    0    0  0.27639541447E+00  0.26523979992E+01 -0.17655421481E+01  0.31982415339E+01  0.51100000000E-03 0.  1.
        -11    1    3    3    0    0 -0.64577009976E+01  0.19222473519E+01 -0.13395455322E+02  0.14994504347E+02  0.51100000000E-03 0. -1.
         12    1    3    3    0    0  0.11300839361E+02  0.43256100566E+01 -0.27007702020E+02  0.29594523835E+02  0.00000000000E+00 0. -1.
</event>
<event>
 7    1  0.3837332E-009  0.4778727E+02  0.7816164E-02  0.1312668E+00
        -11   -1    0    0    0    0  0.00000000000E+00  0.00000000000E+00  0.45593999997E+02  0.45594000000E+02  0.51100000000E-03 0.  1.
         11   -1    0    0    0    0 -0.00000000000E+00 -0.00000000000E+00 -0.45593999997E+02  0.45594000000E+02  0.51100000000E-03 0. -1.
    9900012    2    1    2    0    0 -0.19972699632E+02  0.12521887010E+02 -0.36440596291E+02  0.47787269096E+02  0.19999991119E+02 0.  0.
        -12    1    1    2    0    0  0.19972699632E+02 -0.12521887010E+02  0.36440596291E+02  0.43400730904E+02  0.00000000000E+00 0.  1.
         11    1    3    3    0    0  0.41316919697E+00 -0.88070535461E+00  0.44779990030E+00  0.10709228351E+01  0.51100000000E-03 0. -1.
        -11    1    3    3    0    0 -0.11357572033E+02  0.10427831984E+01 -0.77092542103E+01  0.13766424373E+02  0.51100000000E-03 0.  1.
         12    1    3    3    0    0 -0.90282967959E+01  0.12359809167E+02 -0.29179141982E+02  0.32949921888E+02  0.00000000000E+00 0. -1.
</event>
<event>
 7    1  0.3837332E-009  0.4778727E+02  0.7816164E-02  0.1312668E+00
        -11   -1    0    0    0    0  0.00000000000E+00  0.00000000000E+00  0.45593999997E+02  0.45594000000E+02  0.51100000000E-03 0. -1.
         11   -1    0    0    0    0 -0.00000000000E+00 -0.00000000000E+00 -0.45593999997E+02  0.45594000000E+02  0.51100000000E-03 0.  1.
    9900012    2    1    2    0    0 -0.12280205912E+02 -0.29422025180E+02  0.29447654132E+02  0.47787270089E+02  0.19999995645E+02 0.  0.
        -12    1    1    2    0    0  0.12280205912E+02  0.29422025180E+02 -0.29447654132E+02  0.43400729911E+02  0.00000000000E+00 0.  1.
         11    1    3    3    0    0 -0.31712596180E+01 -0.68666196290E+01  0.30013157790E+01  0.81372753032E+01  0.51100000000E-03 0. -1.
        -11    1    3    3    0    0 -0.10060604329E+02 -0.51886954778E+01  0.15145493919E+02  0.18908313160E+02  0.51100000000E-03 0.  1.
        -12    1    3    3    0    0  0.95165803550E+00 -0.17366710073E+02  0.11300844433E+02  0.20741681626E+02  0.00000000000E+00 0.  1.
</event>
<event>
 7    1  0.3837332E-009  0.4778727E+02  0.7816164E-02  0.1312668E+00
        -11   -1    0    0    0    0  0.00000000000E+00  0.00000000000E+00  0.45593999997E+02  0.45594000000E+02  0.51100000000E-03 0.  1.
         11   -1    0    0    0    0 -0.00000000000E+00 -0.00000000000E+00 -0.45593999997E+02  0.45594000000E+02  0.51100000000E-03 0. -1.
    9900012    2    1    2    0    0 -0.41503770901E+01  0.39263824580E+02 -0.18020812281E+02  0.47787271597E+02  0.20000002521E+02 0.  0.
        -12    1    1    2    0    0  0.41503770901E+01 -0.39263824580E+02  0.18020812281E+02  0.43400728403E+02  0.00000000000E+00 0.  1.
         11    1    3    3    0    0  0.57440753450E+00  0.12543305382E+02 -0.51780146807E+01  0.13582204910E+02  0.51100000000E-03 0. -1.
        -11    1    3    3    0    0  0.34219674445E+01  0.13418899038E+02  0.23438205198E+00  0.13850330241E+02  0.51100000000E-03 0.  1.
         12    1    3    3    0    0 -0.81467520690E+01  0.13301620160E+02 -0.13077179652E+02  0.20354736446E+02  0.00000000000E+00 0. -1.
</event>
<event>
 7    1  0.3837332E-009  0.4778727E+02  0.7816164E-02  0.1312668E+00
        -11   -1    0    0    0    0  0.00000000000E+00  0.00000000000E+00  0.45593999997E+02  0.45594000000E+02  0.51100000000E-03 0.  1.
         11   -1    0    0    0    0 -0.00000000000E+00 -0.00000000000E+00 -0.45593999997E+02  0.45594000000E+02  0.51100000000E-03 0. -1.
    9900012    2    1    2    0    0  0.53094153804E+01  0.18640402340E+02 -0.38832573570E+02  0.47787271191E+02  0.20000000668E+02 0.  0.
        -12    1    1    2    0    0 -0.53094153804E+01 -0.18640402340E+02  0.38832573570E+02  0.43400728809E+02  0.00000000000E+00 0.  1.
         11    1    3    3    0    0 -0.13813559405E+01  0.13664331082E+02 -0.20872299008E+02  0.24985494877E+02  0.51100000000E-03 0. -1.
        -11    1    3    3    0    0  0.30998720837E+01  0.53676119611E+01 -0.21139854178E+01  0.65489999014E+01  0.51100000000E-03 0.  1.
         12    1    3    3    0    0  0.35908992372E+01 -0.39154070253E+00 -0.15846289144E+02  0.16252776412E+02  0.00000000000E+00 0. -1.
</event>
<event>
 7    1  0.3837332E-009  0.4778727E+02  0.7816164E-02  0.1312668E+00
        -11   -1    0    0    0    0  0.00000000000E+00  0.00000000000E+00  0.45593999997E+02  0.45594000000E+02  0.51100000000E-03 0. -1.
         11   -1    0    0    0    0 -0.00000000000E+00 -0.00000000000E+00 -0.45593999997E+02  0.45594000000E+02  0.51100000000E-03 0.  1.
    9900012    2    1    2    0    0 -0.26264999228E+02 -0.16372348895E+02  0.30425632160E+02  0.47787273219E+02  0.20000009915E+02 0.  0.
        -12    1    1    2    0    0  0.26264999228E+02  0.16372348895E+02 -0.30425632160E+02  0.43400726781E+02  0.00000000000E+00 0.  1.
         11    1    3    3    0    0 -0.10816017987E+02 -0.10198584330E+02  0.88152715074E+01  0.17283124123E+02  0.51100000000E-03 0. -1.
        -11    1    3    3    0    0 -0.43443352934E+01 -0.90485162277E+01  0.10756120257E+02  0.14712002525E+02  0.51100000000E-03 0.  1.
        -12    1    3    3    0    0 -0.11104645948E+02  0.28747516630E+01  0.10854240396E+02  0.15792146571E+02  0.00000000000E+00 0.  1.
</event>
<event>
 7    1  0.3837332E-009  0.4778727E+02  0.7816164E-02  0.1312668E+00
        -11   -1    0    0    0    0  0.00000000000E+00  0.00000000000E+00  0.45593999997E+02  0.45594000000E+02  0.51100000000E-03 0.  1.
         11   -1    0    0    0    0 -0.00000000000E+00 -0.00000000000E+00 -0.45593999997E+02  0.45594000000E+02  0.51100000000E-03 0. -1.
    9900012    2    1    2    0    0  0.36918778707E+02  0.87757699823E+01  0.21062119533E+02  0.47787271444E+02  0.20000001820E+02 0.  0.
        -12    1    1    2    0    0 -0.36918778707E+02 -0.87757699823E+01 -0.21062119533E+02  0.43400728556E+02  0.00000000000E+00 0.  1.
         11    1    3    3    0    0  0.83472007439E+01  0.36405034459E+01  0.20857556236E+01  0.93423445870E+01  0.51100000000E-03 0. -1.
        -11    1    3    3    0    0  0.18479134985E+02 -0.17082575270E+01  0.18556407607E+02  0.26243796165E+02  0.51100000000E-03 0.  1.
        -12    1    3    3    0    0  0.10092442978E+02  0.68435240634E+01  0.41995630236E+00  0.12201130692E+02  0.00000000000E+00 0.  1.
</event>
<event>
 7    1  0.3837332E-009  0.4778727E+02  0.7816164E-02  0.1312668E+00
        -11   -1    0    0    0    0  0.00000000000E+00  0.00000000000E+00  0.45593999997E+02  0.45594000000E+02  0.51100000000E-03 0. -1.
         11   -1    0    0    0    0 -0.00000000000E+00 -0.00000000000E+00 -0.45593999997E+02  0.45594000000E+02  0.51100000000E-03 0.  1.
    9900012    2    1    2    0    0  0.20011585794E+01 -0.24594220839E+02  0.35703539178E+02  0.47787273691E+02  0.20000012066E+02 0.  0.
        -12    1    1    2    0    0 -0.20011585794E+01  0.24594220839E+02 -0.35703539178E+02  0.43400726309E+02  0.00000000000E+00 0.  1.
         11    1    3    3    0    0 -0.10168292242E+01 -0.25541026775E+02  0.25294242788E+02  0.35960766244E+02  0.51100000000E-03 0. -1.
        -11    1    3    3    0    0 -0.11650971067E+01 -0.21074768993E+00  0.31937963275E+01  0.34062003904E+01  0.51100000000E-03 0.  1.
        -12    1    3    3    0    0  0.41830849102E+01  0.11575536264E+01  0.72155000629E+01  0.84203070563E+01  0.00000000000E+00 0.  1.
</event>
<event>
 7    1  0.3837332E-009  0.4778728E+02  0.7816164E-02  0.1312668E+00
        -11   -1    0    0    0    0  0.00000000000E+00  0.00000000000E+00  0.45593999997E+02  0.45594000000E+02  0.51100000000E-03 0.  1.
         11   -1    0    0    0    0 -0.00000000000E+00 -0.00000000000E+00 -0.45593999997E+02  0.45594000000E+02  0.51100000000E-03 0. -1.
    9900012    2    1    2    0    0  0.23904314791E+02 -0.74828222211E+01 -0.35443109287E+02  0.47787275467E+02  0.20000020166E+02 0.  0.
        -12    1    1    2    0    0 -0.23904314791E+02  0.74828222211E+01  0.35443109287E+02  0.43400724533E+02  0.00000000000E+00 0.  1.
         11    1    3    3    0    0  0.17405207777E+02 -0.59213198048E+00 -0.22623521979E+02  0.28550229860E+02  0.51100000000E-03 0. -1.
        -11    1    3    3    0    0 -0.93972715698E-01  0.26882385374E+01 -0.19822659407E+01  0.33413823226E+01  0.51100000000E-03 0.  1.
         12    1    3    3    0    0  0.65930797304E+01 -0.95789287780E+01 -0.10837321367E+02  0.15895663285E+02  0.00000000000E+00 0. -1.
</event>
<event>
 7    1  0.3837332E-009  0.4778727E+02  0.7816164E-02  0.1312668E+00
        -11   -1    0    0    0    0  0.00000000000E+00  0.00000000000E+00  0.45593999997E+02  0.45594000000E+02  0.51100000000E-03 0. -1.
         11   -1    0    0    0    0 -0.00000000000E+00 -0.00000000000E+00 -0.45593999997E+02  0.45594000000E+02  0.51100000000E-03 0.  1.
    9900012    2    1    2    0    0 -0.28468468667E+02  0.90442840234E+01  0.31486032651E+02  0.47787273810E+02  0.20000012611E+02 0.  0.
        -12    1    1    2    0    0  0.28468468667E+02 -0.90442840234E+01 -0.31486032651E+02  0.43400726190E+02  0.00000000000E+00 0.  1.
         11    1    3    3    0    0 -0.73282826760E+01  0.20310198894E+01  0.56436615868E+01  0.94699358571E+01  0.51100000000E-03 0. -1.
        -11    1    3    3    0    0 -0.52118747968E+01 -0.11172547624E+01  0.18031013317E+02  0.18802375876E+02  0.51100000000E-03 0.  1.
        -12    1    3    3    0    0 -0.15928311194E+02  0.81305188964E+01  0.78113577468E+01  0.19514962077E+02  0.00000000000E+00 0.  1.
</event>
<event>
 7    1  0.3837332E-009  0.4778727E+02  0.7816164E-02  0.1312668E+00
        -11   -1    0    0    0    0  0.00000000000E+00  0.00000000000E+00  0.45593999997E+02  0.45594000000E+02  0.51100000000E-03 0. -1.
         11   -1    0    0    0    0 -0.00000000000E+00 -0.00000000000E+00 -0.45593999997E+02  0.45594000000E+02  0.51100000000E-03 0.  1.
    9900012    2    1    2    0    0  0.41934833858E+02  0.10035246000E+02  0.49383056627E+01  0.47787270561E+02  0.19999997797E+02 0.  0.
        -12    1    1    2    0    0 -0.41934833858E+02 -0.10035246000E+02 -0.49383056627E+01  0.43400729439E+02  0.00000000000E+00 0.  1.
         11    1    3    3    0    0  0.12720413549E+02  0.69850169656E+01 -0.27215293483E+00  0.14514594391E+02  0.51100000000E-03 0. -1.
        -11    1    3    3    0    0  0.73766794567E+01  0.55448820115E+01 -0.31580728190E+01  0.97536936860E+01  0.51100000000E-03 0.  1.
        -12    1    3    3    0    0  0.21837740853E+02 -0.24946529768E+01  0.83685314166E+01  0.23518982484E+02  0.00000000000E+00 0.  1.
</event>
<event>
 7    1  0.3837332E-009  0.4778727E+02  0.7816164E-02  0.1312668E+00
        -11   -1    0    0    0    0  0.00000000000E+00  0.00000000000E+00  0.45593999997E+02  0.45594000000E+02  0.51100000000E-03 0.  1.
         11   -1    0    0    0    0 -0.00000000000E+00 -0.00000000000E+00 -0.45593999997E+02  0.45594000000E+02  0.51100000000E-03 0. -1.
    9900012    2    1    2    0    0  0.37673971085E+01  0.21867262317E+02 -0.37299497588E+02  0.47787274631E+02  0.20000016353E+02 0.  0.
        -12    1    1    2    0    0 -0.37673971085E+01 -0.21867262317E+02  0.37299497588E+02  0.43400725369E+02  0.00000000000E+00 0.  1.
         11    1    3    3    0    0  0.22825643530E+01 -0.53317527351E+00 -0.59765293758E+01  0.64197569688E+01  0.51100000000E-03 0. -1.
        -11    1    3    3    0    0  0.90840376286E+00  0.77694166495E+00  0.15859625856E+01  0.19859791870E+01  0.51100000000E-03 0.  1.
         12    1    3    3    0    0  0.57642899259E+00  0.21623495926E+02 -0.32908930798E+02  0.39381538475E+02  0.00000000000E+00 0. -1.
</event>
<event>
 7    1  0.3837332E-009  0.4778727E+02  0.7816164E-02  0.1312668E+00
        -11   -1    0    0    0    0  0.00000000000E+00  0.00000000000E+00  0.45593999997E+02  0.45594000000E+02  0.51100000000E-03 0.  1.
         11   -1    0    0    0    0 -0.00000000000E+00 -0.00000000000E+00 -0.45593999997E+02  0.45594000000E+02  0.51100000000E-03 0. -1.
    9900012    2    1    2    0    0 -0.33211720395E+02 -0.13162973351E+02 -0.24644290575E+02  0.47787270778E+02  0.19999998785E+02 0.  0.
        -12    1    1    2    0    0  0.33211720395E+02  0.13162973351E+02  0.24644290575E+02  0.43400729222E+02  0.00000000000E+00 0.  1.
         11    1    3    3    0    0 -0.80403270532E+01  0.22507528562E+01 -0.34029977388E+01  0.90162709261E+01  0.51100000000E-03 0. -1.
        -11    1    3    3    0    0 -0.82393158070E+01 -0.27372956945E+01  0.15657905013E+00  0.86835263544E+01  0.51100000000E-03 0.  1.
         12    1    3    3    0    0 -0.16932077535E+02 -0.12676430513E+02 -0.21397871886E+02  0.30087473497E+02  0.00000000000E+00 0. -1.
</event>
<event>
 7    1  0.3837332E-009  0.4778727E+02  0.7816164E-02  0.1312668E+00
        -11   -1    0    0    0    0  0.00000000000E+00  0.00000000000E+00  0.45593999997E+02  0.45594000000E+02  0.51100000000E-03 0. -1.
         11   -1    0    0    0    0 -0.00000000000E+00 -0.00000000000E+00 -0.45593999997E+02  0.45594000000E+02  0.51100000000E-03 0.  1.
    9900012    2    1    2    0    0  0.10777437469E+02  0.41939206174E+02  0.29279427061E+01  0.47787273954E+02  0.20000013264E+02 0.  0.
        -12    1    1    2    0    0 -0.10777437469E+02 -0.41939206174E+02 -0.29279427061E+01  0.43400726046E+02  0.00000000000E+00 0.  1.
         11    1    3    3    0    0  0.49272513028E+01  0.33156702308E+02  0.41065159722E-01  0.33520835311E+02  0.51100000000E-03 0. -1.
        -11    1    3    3    0    0  0.23215806463E+01  0.92616173944E+01  0.42528340098E+01  0.10452458602E+02  0.51100000000E-03 0.  1.
        -12    1    3    3    0    0  0.35286055199E+01 -0.47911352854E+00 -0.13659564634E+01  0.38139800403E+01  0.00000000000E+00 0.  1.
</event>
<event>
 7    1  0.3837332E-009  0.4778727E+02  0.7816164E-02  0.1312668E+00
        -11   -1    0    0    0    0  0.00000000000E+00  0.00000000000E+00  0.45593999997E+02  0.45594000000E+02  0.51100000000E-03 0.  1.
         11   -1    0    0    0    0 -0.00000000000E+00 -0.00000000000E+00 -0.45593999997E+02  0.45594000000E+02  0.51100000000E-03 0. -1.
    9900012    2    1    2    0    0 -0.36758265232E+02  0.54610751972E+01 -0.22419407015E+02  0.47787271710E+02  0.20000003037E+02 0.  0.
        -12    1    1    2    0    0  0.36758265232E+02 -0.54610751972E+01  0.22419407015E+02  0.43400728290E+02  0.00000000000E+00 0.  1.
         11    1    3    3    0    0 -0.15948848008E+02 -0.33333328192E+01 -0.42909094607E+01  0.16848998923E+02  0.51100000000E-03 0. -1.
        -11    1    3    3    0    0  0.88251927329E+00  0.58934800549E+00  0.51716350232E+00  0.11805209395E+01  0.51100000000E-03 0.  1.
        -12    1    3    3    0    0 -0.21691936497E+02  0.82050600108E+01 -0.18645661057E+02  0.29757751848E+02  0.00000000000E+00 0.  1.
</event>
<event>
 7    1  0.3837332E-009  0.4778727E+02  0.7816164E-02  0.1312668E+00
        -11   -1    0    0    0    0  0.00000000000E+00  0.00000000000E+00  0.45593999997E+02  0.45594000000E+02  0.51100000000E-03 0.  1.
         11   -1    0    0    0    0 -0.00000000000E+00 -0.00000000000E+00 -0.45593999997E+02  0.45594000000E+02  0.51100000000E-03 0. -1.
    9900012    2    1    2    0    0 -0.11770062381E+02  0.37105269639E+01 -0.41609142943E+02  0.47787272411E+02  0.20000006229E+02 0.  0.
        -12    1    1    2    0    0  0.11770062381E+02 -0.37105269639E+01  0.41609142943E+02  0.43400727589E+02  0.00000000000E+00 0.  1.
         11    1    3    3    0    0  0.33195069537E+00  0.87985549491E+00 -0.12034608435E+02  0.12071293941E+02  0.51100000000E-03 0. -1.
        -11    1    3    3    0    0  0.21354647095E+01  0.24848688735E+01 -0.46485857493E+00  0.33092108727E+01  0.51100000000E-03 0.  1.
         12    1    3    3    0    0 -0.14237477786E+02  0.34580259548E+00 -0.29109675933E+02  0.32406767597E+02  0.00000000000E+00 0. -1.
</event>
<event>
 7    1  0.3837332E-009  0.4778728E+02  0.7816164E-02  0.1312668E+00
        -11   -1    0    0    0    0  0.00000000000E+00  0.00000000000E+00  0.45593999997E+02  0.45594000000E+02  0.51100000000E-03 0. -1.
         11   -1    0    0    0    0 -0.00000000000E+00 -0.00000000000E+00 -0.45593999997E+02  0.45594000000E+02  0.51100000000E-03 0.  1.
    9900012    2    1    2    0    0  0.30097370142E+02 -0.26550885156E+02  0.16517316214E+02  0.47787275041E+02  0.20000018223E+02 0.  0.
        -12    1    1    2    0    0 -0.30097370142E+02  0.26550885156E+02 -0.16517316214E+02  0.43400724959E+02  0.00000000000E+00 0.  1.
         11    1    3    3    0    0  0.11001674223E+02 -0.10012829066E+02  0.12905494847E+02  0.19693790370E+02  0.51100000000E-03 0. -1.
        -11    1    3    3    0    0  0.26576847759E+01 -0.87518701638E+01  0.37980425801E+01  0.99037188689E+01  0.51100000000E-03 0.  1.
         12    1    3    3    0    0  0.16438011144E+02 -0.77861859254E+01 -0.18622121291E+00  0.18189765803E+02  0.00000000000E+00 0. -1.
</event>
<event>
 7    1  0.3837332E-009  0.4778727E+02  0.7816164E-02  0.1312668E+00
        -11   -1    0    0    0    0  0.00000000000E+00  0.00000000000E+00  0.45593999997E+02  0.45594000000E+02  0.51100000000E-03 0.  1.
         11   -1    0    0    0    0 -0.00000000000E+00 -0.00000000000E+00 -0.45593999997E+02  0.45594000000E+02  0.51100000000E-03 0. -1.
    9900012    2    1    2    0    0 -0.30522496969E+02  0.92666161628E+01 -0.29430094309E+02  0.47787269046E+02  0.19999990886E+02 0.  0.
        -12    1    1    2    0    0  0.30522496969E+02 -0.92666161628E+01  0.29430094309E+02  0.43400730954E+02  0.00000000000E+00 0.  1.
         11    1    3    3    0    0 -0.82355740632E+01  0.22175803655E+01 -0.78138746725E+01  0.11567150923E+02  0.51100000000E-03 0. -1.
        -11    1    3    3    0    0 -0.52795580461E+01 -0.16476982444E+01  0.19680883601E+01  0.58704356501E+01  0.51100000000E-03 0.  1.
        -12    1    3    3    0    0 -0.17007364860E+02  0.86967340417E+01 -0.23584307997E+02  0.30349682472E+02  0.00000000000E+00 0.  1.
</event>
<event>
 7    1  0.3837332E-009  0.4778727E+02  0.7816164E-02  0.1312668E+00
        -11   -1    0    0    0    0  0.00000000000E+00  0.00000000000E+00  0.45593999997E+02  0.45594000000E+02  0.51100000000E-03 0.  1.
         11   -1    0    0    0    0 -0.00000000000E+00 -0.00000000000E+00 -0.45593999997E+02  0.45594000000E+02  0.51100000000E-03 0. -1.
    9900012    2    1    2    0    0  0.23215400259E+01  0.18536438260E+02 -0.39174405672E+02  0.47787272458E+02  0.20000006443E+02 0.  0.
        -12    1    1    2    0    0 -0.23215400259E+01 -0.18536438260E+02  0.39174405672E+02  0.43400727542E+02  0.00000000000E+00 0.  1.
         11    1    3    3    0    0  0.18077437439E+01  0.52698156721E+01 -0.66286060819E+01  0.86589441337E+01  0.51100000000E-03 0. -1.
        -11    1    3    3    0    0 -0.74344833535E+01  0.86878089629E+01 -0.11730510152E+02  0.16381527279E+02  0.51100000000E-03 0.  1.
        -12    1    3    3    0    0  0.79482796355E+01  0.45788136253E+01 -0.20815289438E+02  0.22746801045E+02  0.00000000000E+00 0.  1.
</event>
<event>
 7    1  0.3837332E-009  0.4778727E+02  0.7816164E-02  0.1312668E+00
        -11   -1    0    0    0    0  0.00000000000E+00  0.00000000000E+00  0.45593999997E+02  0.45594000000E+02  0.51100000000E-03 0. -1.
         11   -1    0    0    0    0 -0.00000000000E+00 -0.00000000000E+00 -0.45593999997E+02  0.45594000000E+02  0.51100000000E-03 0.  1.
    9900012    2    1    2    0    0 -0.40977726591E+01  0.33288810083E+02  0.27544266653E+02  0.47787271401E+02  0.20000001627E+02 0.  0.
        -12    1    1    2    0    0  0.40977726591E+01 -0.33288810083E+02 -0.27544266653E+02  0.43400728599E+02  0.00000000000E+00 0.  1.
         11    1    3    3    0    0 -0.51752824436E+00  0.44272566664E+01  0.12169188608E+02  0.12959845242E+02  0.51100000000E-03 0. -1.
        -11    1    3    3    0    0 -0.16216910918E+00  0.38860221998E+00  0.39268687143E+01  0.39493807952E+01  0.51100000000E-03 0.  1.
        -12    1    3    3    0    0 -0.34180753056E+01  0.28472951196E+02  0.11448209331E+02  0.30878045364E+02  0.00000000000E+00 0.  1.
</event>
<event>
 7    1  0.3837332E-009  0.4778726E+02  0.7816164E-02  0.1312668E+00
        -11   -1    0    0    0    0  0.00000000000E+00  0.00000000000E+00  0.45593999997E+02  0.45594000000E+02  0.51100000000E-03 0.  1.
         11   -1    0    0    0    0 -0.00000000000E+00 -0.00000000000E+00 -0.45593999997E+02  0.45594000000E+02  0.51100000000E-03 0. -1.
    9900012    2    1    2    0    0 -0.15937450540E+02 -0.10071301262E+02 -0.39092082954E+02  0.47787258203E+02  0.19999941451E+02 0.  0.
        -12    1    1    2    0    0  0.15937450540E+02  0.10071301262E+02  0.39092082954E+02  0.43400741797E+02  0.00000000000E+00 0.  1.
         11    1    3    3    0    0 -0.39658339514E+01 -0.55425448209E+01 -0.29959639866E+02  0.30725033168E+02  0.51100000000E-03 0. -1.
        -11    1    3    3    0    0 -0.77479561196E+01 -0.33971055027E+01 -0.94432352700E+01  0.12678558374E+02  0.51100000000E-03 0.  1.
        -12    1    3    3    0    0 -0.42236604695E+01 -0.11316509382E+01  0.31079218233E+00  0.43836666602E+01  0.00000000000E+00 0.  1.
</event>
<event>
 7    1  0.3837332E-009  0.4778727E+02  0.7816164E-02  0.1312668E+00
        -11   -1    0    0    0    0  0.00000000000E+00  0.00000000000E+00  0.45593999997E+02  0.45594000000E+02  0.51100000000E-03 0.  1.
         11   -1    0    0    0    0 -0.00000000000E+00 -0.00000000000E+00 -0.45593999997E+02  0.45594000000E+02  0.51100000000E-03 0. -1.
    9900012    2    1    2    0    0  0.31815424384E+02  0.19206732941E+02 -0.22416595455E+02  0.47787267624E+02  0.19999984406E+02 0.  0.
        -12    1    1    2    0    0 -0.31815424384E+02 -0.19206732941E+02  0.22416595455E+02  0.43400732376E+02  0.00000000000E+00 0.  1.
         11    1    3    3    0    0  0.19262235602E+02  0.57186284102E+01 -0.11242623606E+02  0.23024617631E+02  0.51100000000E-03 0. -1.
        -11    1    3    3    0    0  0.78349445554E+01  0.82333731842E+01 -0.13196919050E+02  0.17416471022E+02  0.51100000000E-03 0.  1.
         12    1    3    3    0    0  0.47182442264E+01  0.52547313461E+01  0.20229472006E+01  0.73461789712E+01  0.00000000000E+00 0. -1.
</event>
<event>
 7    1  0.3837332E-009  0.4778727E+02  0.7816164E-02  0.1312668E+00
        -11   -1    0    0    0    0  0.00000000000E+00  0.00000000000E+00  0.45593999997E+02  0.45594000000E+02  0.51100000000E-03 0.  1.
         11   -1    0    0    0    0 -0.00000000000E+00 -0.00000000000E+00 -0.45593999997E+02  0.45594000000E+02  0.51100000000E-03 0. -1.
    9900012    2    1    2    0    0 -0.78157569222E+01 -0.36919797539E+02 -0.21435146551E+02  0.47787274036E+02  0.20000013639E+02 0.  0.
        -12    1    1    2    0    0  0.78157569222E+01  0.36919797539E+02  0.21435146551E+02  0.43400725964E+02  0.00000000000E+00 0.  1.
         11    1    3    3    0    0  0.33465044666E+01 -0.12640584217E+02 -0.15022081175E+02  0.19915983144E+02  0.51100000000E-03 0. -1.
        -11    1    3    3    0    0 -0.25925897410E+01 -0.10646739370E+02 -0.35340810511E+01  0.11513657539E+02  0.51100000000E-03 0.  1.
         12    1    3    3    0    0 -0.85696716479E+01 -0.13632473951E+02 -0.28789843251E+01  0.16357633353E+02  0.00000000000E+00 0. -1.
</event>
<event>
 7    1  0.3837332E-009  0.4778727E+02  0.7816164E-02  0.1312668E+00
        -11   -1    0    0    0    0  0.00000000000E+00  0.00000000000E+00  0.45593999997E+02  0.45594000000E+02  0.51100000000E-03 0.  1.
         11   -1    0    0    0    0 -0.00000000000E+00 -0.00000000000E+00 -0.45593999997E+02  0.45594000000E+02  0.51100000000E-03 0. -1.
    9900012    2    1    2    0    0 -0.38770222453E+02 -0.19118582817E+02 -0.38694691750E+01  0.47787272476E+02  0.20000006525E+02 0.  0.
        -12    1    1    2    0    0  0.38770222453E+02  0.19118582817E+02  0.38694691750E+01  0.43400727524E+02  0.00000000000E+00 0.  1.
         11    1    3    3    0    0 -0.50659255864E+01 -0.46784263448E+01 -0.81348622903E+01  0.10664298376E+02  0.51100000000E-03 0. -1.
        -11    1    3    3    0    0 -0.71486366543E+01 -0.16636076884E+01  0.17571379757E+01  0.75470610626E+01  0.51100000000E-03 0.  1.
         12    1    3    3    0    0 -0.26555660212E+02 -0.12776548784E+02  0.25082551396E+01  0.29575913037E+02  0.00000000000E+00 0. -1.
</event>
<event>
 7    1  0.3837332E-009  0.4778727E+02  0.7816164E-02  0.1312668E+00
        -11   -1    0    0    0    0  0.00000000000E+00  0.00000000000E+00  0.45593999997E+02  0.45594000000E+02  0.51100000000E-03 0.  1.
         11   -1    0    0    0    0 -0.00000000000E+00 -0.00000000000E+00 -0.45593999997E+02  0.45594000000E+02  0.51100000000E-03 0. -1.
    9900012    2    1    2    0    0  0.23151679219E+02  0.17325069624E+02 -0.32364567553E+02  0.47787268197E+02  0.19999987019E+02 0.  0.
        -12    1    1    2    0    0 -0.23151679219E+02 -0.17325069624E+02  0.32364567553E+02  0.43400731803E+02  0.00000000000E+00 0.  1.
         11    1    3    3    0    0  0.41607128747E+01  0.27755900927E+01 -0.10257821486E+01  0.51056499357E+01  0.51100000000E-03 0. -1.
        -11    1    3    3    0    0  0.27783737413E+01  0.12120772558E+02 -0.11411161650E+02  0.16877413857E+02  0.51100000000E-03 0.  1.
         12    1    3    3    0    0  0.16212592603E+02  0.24287069736E+01 -0.19927623754E+02  0.25804204404E+02  0.00000000000E+00 0. -1.
</event>
<event>
 7    1  0.3837332E-009  0.4778727E+02  0.7816164E-02  0.1312668E+00
        -11   -1    0    0    0    0  0.00000000000E+00  0.00000000000E+00  0.45593999997E+02  0.45594000000E+02  0.51100000000E-03 0. -1.
         11   -1    0    0    0    0 -0.00000000000E+00 -0.00000000000E+00 -0.45593999997E+02  0.45594000000E+02  0.51100000000E-03 0.  1.
    9900012    2    1    2    0    0 -0.40155769260E+02  0.16287614992E+02  0.24189431733E+01  0.47787268519E+02  0.19999988486E+02 0.  0.
        -12    1    1    2    0    0  0.40155769260E+02 -0.16287614992E+02 -0.24189431733E+01  0.43400731481E+02  0.00000000000E+00 0.  1.
         11    1    3    3    0    0 -0.15011701506E+02  0.83934146919E+01  0.57635878136E+01  0.18138895696E+02  0.51100000000E-03 0. -1.
        -11    1    3    3    0    0 -0.24426139107E+02  0.10461210357E+02 -0.19588432903E+01  0.26644141215E+02  0.51100000000E-03 0.  1.
        -12    1    3    3    0    0 -0.71792864704E+00 -0.25670100572E+01 -0.13858013500E+01  0.30042316085E+01  0.00000000000E+00 0.  1.
</event>
<event>
 7    1  0.3837332E-009  0.4778727E+02  0.7816164E-02  0.1312668E+00
        -11   -1    0    0    0    0  0.00000000000E+00  0.00000000000E+00  0.45593999997E+02  0.45594000000E+02  0.51100000000E-03 0.  1.
         11   -1    0    0    0    0 -0.00000000000E+00 -0.00000000000E+00 -0.45593999997E+02  0.45594000000E+02  0.51100000000E-03 0. -1.
    9900012    2    1    2    0    0 -0.60699270693E+01 -0.29940677899E+02 -0.30827508412E+02  0.47787268640E+02  0.19999989038E+02 0.  0.
        -12    1    1    2    0    0  0.60699270693E+01  0.29940677899E+02  0.30827508412E+02  0.43400731360E+02  0.00000000000E+00 0.  1.
         11    1    3    3    0    0  0.18429940000E+01 -0.14787335563E+02 -0.14585243409E+02  0.20851648508E+02  0.51100000000E-03 0. -1.
        -11    1    3    3    0    0 -0.23765606426E+01 -0.15722331892E+02 -0.11499996211E+02  0.19623701835E+02  0.51100000000E-03 0.  1.
        -12    1    3    3    0    0 -0.55363604266E+01  0.56898955574E+00 -0.47422687925E+01  0.73119182975E+01  0.00000000000E+00 0.  1.
</event>
<event>
 7    1  0.3837332E-009  0.4778726E+02  0.7816164E-02  0.1312668E+00
        -11   -1    0    0    0    0  0.00000000000E+00  0.00000000000E+00  0.45593999997E+02  0.45594000000E+02  0.51100000000E-03 0.  1.
         11   -1    0    0    0    0 -0.00000000000E+00 -0.00000000000E+00 -0.45593999997E+02  0.45594000000E+02  0.51100000000E-03 0. -1.
    9900012    2    1    2    0    0  0.32052572855E+02 -0.89403735066E+01 -0.27862633101E+02  0.47787262353E+02  0.19999960370E+02 0.  0.
        -12    1    1    2    0    0 -0.32052572855E+02  0.89403735066E+01  0.27862633101E+02  0.43400737647E+02  0.00000000000E+00 0.  1.
         11    1    3    3    0    0  0.27714069648E+02 -0.26509215407E+01 -0.20523061873E+02  0.34587470425E+02  0.51100000000E-03 0. -1.
        -11    1    3    3    0    0  0.39102031809E+00  0.18669678482E+01 -0.11774301316E+01  0.22416083091E+01  0.51100000000E-03 0.  1.
        -12    1    3    3    0    0  0.39474828889E+01 -0.81564198141E+01 -0.61621410955E+01  0.10958183619E+02  0.00000000000E+00 0.  1.
</event>
<event>
 7    1  0.3837332E-009  0.4778727E+02  0.7816164E-02  0.1312668E+00
        -11   -1    0    0    0    0  0.00000000000E+00  0.00000000000E+00  0.45593999997E+02  0.45594000000E+02  0.51100000000E-03 0. -1.
         11   -1    0    0    0    0 -0.00000000000E+00 -0.00000000000E+00 -0.45593999997E+02  0.45594000000E+02  0.51100000000E-03 0.  1.
    9900012    2    1    2    0    0 -0.23858876123E+02 -0.20176412664E+02  0.30121254408E+02  0.47787267691E+02  0.19999984712E+02 0.  0.
        -12    1    1    2    0    0  0.23858876123E+02  0.20176412664E+02 -0.30121254408E+02  0.43400732309E+02  0.00000000000E+00 0.  1.
         11    1    3    3    0    0 -0.11836646594E+02 -0.64987889666E+01  0.80460424967E+01  0.15718755063E+02  0.51100000000E-03 0. -1.
        -11    1    3    3    0    0 -0.12180102035E+02 -0.14651310233E+02  0.13294868729E+02  0.23232935929E+02  0.51100000000E-03 0.  1.
        -12    1    3    3    0    0  0.15787250591E+00  0.97368653562E+00  0.87803431825E+01  0.88355766988E+01  0.00000000000E+00 0.  1.
</event>
<event>
 7    1  0.3837332E-009  0.4778725E+02  0.7816164E-02  0.1312668E+00
        -11   -1    0    0    0    0  0.00000000000E+00  0.00000000000E+00  0.45593999997E+02  0.45594000000E+02  0.51100000000E-03 0. -1.
         11   -1    0    0    0    0 -0.00000000000E+00 -0.00000000000E+00 -0.45593999997E+02  0.45594000000E+02  0.51100000000E-03 0.  1.
    9900012    2    1    2    0    0 -0.17410211529E+02 -0.35349895223E+02  0.18190518531E+02  0.47787245143E+02  0.19999881904E+02 0.  0.
        -12    1    1    2    0    0  0.17410211529E+02  0.35349895223E+02 -0.18190518531E+02  0.43400754857E+02  0.00000000000E+00 0.  1.
         11    1    3    3    0    0 -0.35622112803E+01 -0.41867896374E+01  0.57113882124E+01  0.79270746336E+01  0.51100000000E-03 0. -1.
        -11    1    3    3    0    0 -0.11740486417E+02 -0.84555474140E+01  0.82847666483E+01  0.16672512170E+02  0.51100000000E-03 0.  1.
        -12    1    3    3    0    0 -0.21075138322E+01 -0.22707558171E+02  0.41943636699E+01  0.23187658339E+02  0.00000000000E+00 0.  1.
</event>
<event>
 7    1  0.3837332E-009  0.4778727E+02  0.7816164E-02  0.1312668E+00
        -11   -1    0    0    0    0  0.00000000000E+00  0.00000000000E+00  0.45593999997E+02  0.45594000000E+02  0.51100000000E-03 0. -1.
         11   -1    0    0    0    0 -0.00000000000E+00 -0.00000000000E+00 -0.45593999997E+02  0.45594000000E+02  0.51100000000E-03 0.  1.
    9900012    2    1    2    0    0  0.19133674753E+02 -0.12722208062E+02  0.36819440318E+02  0.47787271057E+02  0.20000000055E+02 0.  0.
        -12    1    1    2    0    0 -0.19133674753E+02  0.12722208062E+02 -0.36819440318E+02  0.43400728943E+02  0.00000000000E+00 0.  1.
         11    1    3    3    0    0  0.25379874558E+01 -0.65214732032E+00  0.93081883488E+01  0.96700076034E+01  0.51100000000E-03 0. -1.
        -11    1    3    3    0    0 -0.17359580772E+01 -0.71805634695E+01  0.84345857076E+01  0.11212327078E+02  0.51100000000E-03 0.  1.
         12    1    3    3    0    0  0.18331645374E+02 -0.48894972721E+01  0.19076666261E+02  0.26904936375E+02  0.00000000000E+00 0. -1.
</event>
<event>
 7    1  0.3837332E-009  0.4778727E+02  0.7816164E-02  0.1312668E+00
        -11   -1    0    0    0    0  0.00000000000E+00  0.00000000000E+00  0.45593999997E+02  0.45594000000E+02  0.51100000000E-03 0.  1.
         11   -1    0    0    0    0 -0.00000000000E+00 -0.00000000000E+00 -0.45593999997E+02  0.45594000000E+02  0.51100000000E-03 0. -1.
    9900012    2    1    2    0    0  0.36045865479E+02 -0.83088478145E+01 -0.22699821100E+02  0.47787271341E+02  0.20000001352E+02 0.  0.
        -12    1    1    2    0    0 -0.36045865479E+02  0.83088478145E+01  0.22699821100E+02  0.43400728659E+02  0.00000000000E+00 0.  1.
         11    1    3    3    0    0  0.41492028206E+01 -0.62729361281E+01 -0.77081683416E+01  0.10769469400E+02  0.51100000000E-03 0. -1.
        -11    1    3    3    0    0  0.73730329444E+01 -0.36928245855E+00  0.13450933767E+01  0.75038164148E+01  0.51100000000E-03 0.  1.
         12    1    3    3    0    0  0.24523629714E+02 -0.16666292278E+01 -0.16336746135E+02  0.29513985526E+02  0.00000000000E+00 0. -1.
</event>
<event>
 7    1  0.3837332E-009  0.4778728E+02  0.7816164E-02  0.1312668E+00
        -11   -1    0    0    0    0  0.00000000000E+00  0.00000000000E+00  0.45593999997E+02  0.45594000000E+02  0.51100000000E-03 0. -1.
         11   -1    0    0    0    0 -0.00000000000E+00 -0.00000000000E+00 -0.45593999997E+02  0.45594000000E+02  0.51100000000E-03 0.  1.
    9900012    2    1    2    0    0 -0.21795089489E+02 -0.36857889182E+02 -0.70776414626E+01  0.47787275012E+02  0.20000018089E+02 0.  0.
        -12    1    1    2    0    0  0.21795089489E+02  0.36857889182E+02  0.70776414626E+01  0.43400724988E+02  0.00000000000E+00 0.  1.
         11    1    3    3    0    0  0.54225503829E+00 -0.23065647796E+01  0.22682727195E+01  0.32801437469E+01  0.51100000000E-03 0.  1.
        -11    1    3    3    0    0 -0.13950613567E+02 -0.27043137813E+02 -0.12375957428E+02  0.32849889561E+02  0.51100000000E-03 0. -1.
         12    1    3    3    0    0 -0.83867309604E+01 -0.75081865903E+01  0.30300432456E+01  0.11657241704E+02  0.00000000000E+00 0. -1.
</event>
<event>
 7    1  0.3837332E-009  0.4778727E+02  0.7816164E-02  0.1312668E+00
        -11   -1    0    0    0    0  0.00000000000E+00  0.00000000000E+00  0.45593999997E+02  0.45594000000E+02  0.51100000000E-03 0. -1.
         11   -1    0    0    0    0 -0.00000000000E+00 -0.00000000000E+00 -0.45593999997E+02  0.45594000000E+02  0.51100000000E-03 0.  1.
    9900012    2    1    2    0    0  0.35811629314E+02  0.22656707376E+02  0.93714533342E+01  0.47787270504E+02  0.19999997536E+02 0.  0.
        -12    1    1    2    0    0 -0.35811629314E+02 -0.22656707376E+02 -0.93714533342E+01  0.43400729496E+02  0.00000000000E+00 0.  1.
         11    1    3    3    0    0  0.17507548999E+01  0.67287095065E+01 -0.69017801189E+00  0.69869177963E+01  0.51100000000E-03 0.  1.
        -11    1    3    3    0    0  0.82022744571E+01  0.10060662947E+02  0.24083080548E+01  0.13202052611E+02  0.51100000000E-03 0. -1.
        -12    1    3    3    0    0  0.25858599957E+02  0.58673349219E+01  0.76533232913E+01  0.27598300096E+02  0.00000000000E+00 0.  1.
</event>
<event>
 7    1  0.3837332E-009  0.4778727E+02  0.7816164E-02  0.1312668E+00
        -11   -1    0    0    0    0  0.00000000000E+00  0.00000000000E+00  0.45593999997E+02  0.45594000000E+02  0.51100000000E-03 0.  1.
         11   -1    0    0    0    0 -0.00000000000E+00 -0.00000000000E+00 -0.45593999997E+02  0.45594000000E+02  0.51100000000E-03 0. -1.
    9900012    2    1    2    0    0  0.25652931354E+01  0.12071036786E+02 -0.41609288865E+02  0.47787267543E+02  0.19999984035E+02 0.  0.
        -12    1    1    2    0    0 -0.25652931354E+01 -0.12071036786E+02  0.41609288865E+02  0.43400732457E+02  0.00000000000E+00 0.  1.
         11    1    3    3    0    0  0.56397496652E+01  0.58814541741E+01 -0.24032431876E+02  0.25376289359E+02  0.51100000000E-03 0. -1.
        -11    1    3    3    0    0  0.52908925821E+00  0.89795367019E+01 -0.91516583570E+01  0.12832180866E+02  0.51100000000E-03 0.  1.
         12    1    3    3    0    0 -0.36035457880E+01 -0.27899540905E+01 -0.84251986325E+01  0.95787973186E+01  0.00000000000E+00 0. -1.
</event>
<event>
 7    1  0.3837332E-009  0.4778727E+02  0.7816164E-02  0.1312668E+00
        -11   -1    0    0    0    0  0.00000000000E+00  0.00000000000E+00  0.45593999997E+02  0.45594000000E+02  0.51100000000E-03 0. -1.
         11   -1    0    0    0    0 -0.00000000000E+00 -0.00000000000E+00 -0.45593999997E+02  0.45594000000E+02  0.51100000000E-03 0.  1.
    9900012    2    1    2    0    0 -0.70789582002E-01  0.42663535960E+02 -0.79649729165E+01  0.47787272986E+02  0.20000008853E+02 0.  0.
        -12    1    1    2    0    0  0.70789582002E-01 -0.42663535960E+02  0.79649729165E+01  0.43400727014E+02  0.00000000000E+00 0.  1.
         11    1    3    3    0    0  0.12149967789E+01  0.10999394901E+01  0.85144556892E+00  0.18469011540E+01  0.51100000000E-03 0. -1.
        -11    1    3    3    0    0 -0.66989016461E+01  0.16339466792E+02  0.23763707016E+01  0.17818546413E+02  0.51100000000E-03 0.  1.
         12    1    3    3    0    0  0.54131152852E+01  0.25224129678E+02 -0.11192789187E+02  0.28121825419E+02  0.00000000000E+00 0. -1.
</event>
<event>
 7    1  0.3837332E-009  0.4778727E+02  0.7816164E-02  0.1312668E+00
        -11   -1    0    0    0    0  0.00000000000E+00  0.00000000000E+00  0.45593999997E+02  0.45594000000E+02  0.51100000000E-03 0.  1.
         11   -1    0    0    0    0 -0.00000000000E+00 -0.00000000000E+00 -0.45593999997E+02  0.45594000000E+02  0.51100000000E-03 0. -1.
    9900012    2    1    2    0    0 -0.13415891200E+02  0.18575778321E+01 -0.41233317936E+02  0.47787271433E+02  0.20000001773E+02 0.  0.
        -12    1    1    2    0    0  0.13415891200E+02 -0.18575778321E+01  0.41233317936E+02  0.43400728567E+02  0.00000000000E+00 0.  1.
         11    1    3    3    0    0 -0.10590259678E+01 -0.23088352778E+01 -0.20015291823E+01  0.32339411976E+01  0.51100000000E-03 0. -1.
        -11    1    3    3    0    0 -0.91694272153E+01 -0.13505941994E+01 -0.67839630733E+01  0.11485845872E+02  0.51100000000E-03 0.  1.
         12    1    3    3    0    0 -0.31874380173E+01  0.55170073093E+01 -0.32447825681E+02  0.33067484364E+02  0.00000000000E+00 0. -1.
</event>
<event>
 7    1  0.4194515E-009  0.4778727E+02  0.7816164E-02  0.1312668E+00
        -11   -1    0    0    0    0  0.00000000000E+00  0.00000000000E+00  0.45593999997E+02  0.45594000000E+02  0.51100000000E-03 0. -1.
         11   -1    0    0    0    0 -0.00000000000E+00 -0.00000000000E+00 -0.45593999997E+02  0.45594000000E+02  0.51100000000E-03 0.  1.
    9900012    2    1    2    0    0  0.32030618046E+02  0.25047193159E+02  0.15175665278E+02  0.47787271962E+02  0.20000004185E+02 0.  0.
        -12    1    1    2    0    0 -0.32030618046E+02 -0.25047193159E+02 -0.15175665278E+02  0.43400728038E+02  0.00000000000E+00 0.  1.
         11    1    3    3    0    0  0.14841896246E+02  0.14807184653E+02  0.26313012613E+01  0.21129561002E+02  0.51100000000E-03 0. -1.
        -11    1    3    3    0    0  0.44320153360E+01  0.94377586240E+01  0.34953999252E+01  0.10996902686E+02  0.51100000000E-03 0.  1.
        -12    1    3    3    0    0  0.12756706465E+02  0.80224988156E+00  0.90489640910E+01  0.15660808275E+02  0.00000000000E+00 0.  1.
</event>
<event>
 7    1  0.3837332E-009  0.4778728E+02  0.7816164E-02  0.1312668E+00
        -11   -1    0    0    0    0  0.00000000000E+00  0.00000000000E+00  0.45593999997E+02  0.45594000000E+02  0.51100000000E-03 0. -1.
         11   -1    0    0    0    0 -0.00000000000E+00 -0.00000000000E+00 -0.45593999997E+02  0.45594000000E+02  0.51100000000E-03 0.  1.
    9900012    2    1    2    0    0  0.22868930829E+02 -0.35207879563E+02 -0.11001822061E+02  0.47787275706E+02  0.20000021254E+02 0.  0.
        -12    1    1    2    0    0 -0.22868930829E+02  0.35207879563E+02  0.11001822061E+02  0.43400724294E+02  0.00000000000E+00 0.  1.
         11    1    3    3    0    0 -0.15132992473E+01 -0.47450423497E+01 -0.37796381820E+01  0.62522929042E+01  0.51100000000E-03 0. -1.
        -11    1    3    3    0    0  0.11662709594E+02 -0.23882341075E+02 -0.49494024799E+01  0.27034821905E+02  0.51100000000E-03 0.  1.
         12    1    3    3    0    0  0.12719520483E+02 -0.65804961388E+01 -0.22727813987E+01  0.14500160897E+02  0.00000000000E+00 0. -1.
</event>
<event>
 7    1  0.3837332E-009  0.4778727E+02  0.7816164E-02  0.1312668E+00
        -11   -1    0    0    0    0  0.00000000000E+00  0.00000000000E+00  0.45593999997E+02  0.45594000000E+02  0.51100000000E-03 0. -1.
         11   -1    0    0    0    0 -0.00000000000E+00 -0.00000000000E+00 -0.45593999997E+02  0.45594000000E+02  0.51100000000E-03 0.  1.
    9900012    2    1    2    0    0 -0.40809809801E+02 -0.30017970909E+01  0.14462774630E+02  0.47787271759E+02  0.20000003260E+02 0.  0.
        -12    1    1    2    0    0  0.40809809801E+02  0.30017970909E+01 -0.14462774630E+02  0.43400728241E+02  0.00000000000E+00 0.  1.
         11    1    3    3    0    0 -0.27338383648E+02 -0.22685963853E+01  0.13007499993E+02  0.30359986929E+02  0.51100000000E-03 0. -1.
        -11    1    3    3    0    0 -0.90237506114E+01 -0.56199937485E+01  0.19219157437E+01  0.10803062770E+02  0.51100000000E-03 0.  1.
        -12    1    3    3    0    0 -0.44476755424E+01  0.48867930429E+01 -0.46664110671E+00  0.66242220598E+01  0.00000000000E+00 0.  1.
</event>
<event>
 7    1  0.3837332E-009  0.4778729E+02  0.7816164E-02  0.1312668E+00
        -11   -1    0    0    0    0  0.00000000000E+00  0.00000000000E+00  0.45593999997E+02  0.45594000000E+02  0.51100000000E-03 0.  1.
         11   -1    0    0    0    0 -0.00000000000E+00 -0.00000000000E+00 -0.45593999997E+02  0.45594000000E+02  0.51100000000E-03 0. -1.
    9900012    2    1    2    0    0 -0.11126246548E+02  0.37482840393E+02 -0.18837860979E+02  0.47787289263E+02  0.20000083067E+02 0.  0.
        -12    1    1    2    0    0  0.11126246548E+02 -0.37482840393E+02  0.18837860979E+02  0.43400710737E+02  0.00000000000E+00 0.  1.
         11    1    3    3    0    0 -0.41750075099E+01  0.27658783484E+02 -0.65880854460E+01  0.28737464426E+02  0.51100000000E-03 0. -1.
        -11    1    3    3    0    0 -0.30305088915E+00  0.53603982613E+01 -0.13702418865E+01  0.55410533700E+01  0.51100000000E-03 0.  1.
        -12    1    3    3    0    0 -0.66481881487E+01  0.44636586476E+01 -0.10879533647E+02  0.13508771467E+02  0.00000000000E+00 0.  1.
</event>
<event>
 7    1  0.3837332E-009  0.4778727E+02  0.7816164E-02  0.1312668E+00
        -11   -1    0    0    0    0  0.00000000000E+00  0.00000000000E+00  0.45593999997E+02  0.45594000000E+02  0.51100000000E-03 0. -1.
         11   -1    0    0    0    0 -0.00000000000E+00 -0.00000000000E+00 -0.45593999997E+02  0.45594000000E+02  0.51100000000E-03 0.  1.
    9900012    2    1    2    0    0  0.21515242745E+02  0.32067871084E+02 -0.19808309311E+02  0.47787272541E+02  0.20000006822E+02 0.  0.
        -12    1    1    2    0    0 -0.21515242745E+02 -0.32067871084E+02  0.19808309311E+02  0.43400727459E+02  0.00000000000E+00 0.  1.
         11    1    3    3    0    0  0.16715667258E+02  0.31855986328E+02 -0.17496129677E+02  0.40004149169E+02  0.51100000000E-03 0. -1.
        -11    1    3    3    0    0 -0.67368626845E+00  0.64340928704E+00 -0.20901922099E+01  0.22883907958E+01  0.51100000000E-03 0.  1.
         12    1    3    3    0    0  0.54732617556E+01 -0.43152453094E+00 -0.22198742476E+00  0.54947325761E+01  0.00000000000E+00 0. -1.
</event>
<event>
 7    1  0.3837332E-009  0.4778728E+02  0.7816164E-02  0.1312668E+00
        -11   -1    0    0    0    0  0.00000000000E+00  0.00000000000E+00  0.45593999997E+02  0.45594000000E+02  0.51100000000E-03 0.  1.
         11   -1    0    0    0    0 -0.00000000000E+00 -0.00000000000E+00 -0.45593999997E+02  0.45594000000E+02  0.51100000000E-03 0. -1.
    9900012    2    1    2    0    0  0.29077616764E+02  0.20022203116E+02 -0.25243343871E+02  0.47787276226E+02  0.20000023624E+02 0.  0.
        -12    1    1    2    0    0 -0.29077616764E+02 -0.20022203116E+02  0.25243343871E+02  0.43400723774E+02  0.00000000000E+00 0.  1.
         11    1    3    3    0    0 -0.39067300357E+00  0.14209339355E+01 -0.71587379224E+01  0.73088444741E+01  0.51100000000E-03 0. -1.
        -11    1    3    3    0    0 -0.30988564797E+00  0.10717420606E+01  0.52305265394E+00  0.12321706453E+01  0.51100000000E-03 0.  1.
        -12    1    3    3    0    0  0.29778175416E+02  0.17529527120E+02 -0.18607658603E+02  0.39246261106E+02  0.00000000000E+00 0.  1.
</event>
<event>
 7    1  0.3837332E-009  0.4778727E+02  0.7816164E-02  0.1312668E+00
        -11   -1    0    0    0    0  0.00000000000E+00  0.00000000000E+00  0.45593999997E+02  0.45594000000E+02  0.51100000000E-03 0. -1.
         11   -1    0    0    0    0 -0.00000000000E+00 -0.00000000000E+00 -0.45593999997E+02  0.45594000000E+02  0.51100000000E-03 0.  1.
    9900012    2    1    2    0    0 -0.43035090934E+02 -0.32716377720E+01  0.45717614438E+01  0.47787266503E+02  0.19999979294E+02 0.  0.
        -12    1    1    2    0    0  0.43035090934E+02  0.32716377720E+01 -0.45717614438E+01  0.43400733497E+02  0.00000000000E+00 0.  1.
         11    1    3    3    0    0 -0.85589661720E+01  0.11771653854E+01  0.56347787304E+01  0.10314666833E+02  0.51100000000E-03 0. -1.
        -11    1    3    3    0    0 -0.89088868215E+01  0.46529268222E+01  0.16992064537E+01  0.10193394687E+02  0.51100000000E-03 0.  1.
         12    1    3    3    0    0 -0.25567237940E+02 -0.91017299795E+01 -0.27622237404E+01  0.27279204983E+02  0.00000000000E+00 0. -1.
</event>
<event>
 7    1  0.3837332E-009  0.4778727E+02  0.7816164E-02  0.1312668E+00
        -11   -1    0    0    0    0  0.00000000000E+00  0.00000000000E+00  0.45593999997E+02  0.45594000000E+02  0.51100000000E-03 0.  1.
         11   -1    0    0    0    0 -0.00000000000E+00 -0.00000000000E+00 -0.45593999997E+02  0.45594000000E+02  0.51100000000E-03 0. -1.
    9900012    2    1    2    0    0 -0.28739257411E-01 -0.20750692253E+02 -0.38118644628E+02  0.47787272781E+02  0.20000007916E+02 0.  0.
        -12    1    1    2    0    0  0.28739257411E-01  0.20750692253E+02  0.38118644628E+02  0.43400727219E+02  0.00000000000E+00 0.  1.
         11    1    3    3    0    0 -0.36388152669E+01 -0.16929770404E+02 -0.23986431963E+02  0.29583898003E+02  0.51100000000E-03 0. -1.
        -11    1    3    3    0    0  0.40372368093E+01 -0.36655780587E+01 -0.15674263566E+02  0.16595730841E+02  0.51100000000E-03 0.  1.
        -12    1    3    3    0    0 -0.42716079983E+00 -0.15534379044E+00  0.15420509016E+01  0.16076439361E+01  0.00000000000E+00 0.  1.
</event>
<event>
 7    1  0.3837332E-009  0.4778727E+02  0.7816164E-02  0.1312668E+00
        -11   -1    0    0    0    0  0.00000000000E+00  0.00000000000E+00  0.45593999997E+02  0.45594000000E+02  0.51100000000E-03 0. -1.
         11   -1    0    0    0    0 -0.00000000000E+00 -0.00000000000E+00 -0.45593999997E+02  0.45594000000E+02  0.51100000000E-03 0.  1.
    9900012    2    1    2    0    0  0.32646415228E+02 -0.11500989154E+02  0.26183249620E+02  0.47787265681E+02  0.19999975548E+02 0.  0.
        -12    1    1    2    0    0 -0.32646415228E+02  0.11500989154E+02 -0.26183249620E+02  0.43400734319E+02  0.00000000000E+00 0.  1.
         11    1    3    3    0    0  0.42968741749E+01 -0.85614499434E-02 -0.19164472890E+01  0.47048880375E+01  0.51100000000E-03 0. -1.
        -11    1    3    3    0    0  0.49160390938E+01  0.22050215119E+01  0.61377868913E+01  0.81671285299E+01  0.51100000000E-03 0.  1.
         12    1    3    3    0    0  0.23433501959E+02 -0.13697449215E+02  0.21961910017E+02  0.34915249114E+02  0.00000000000E+00 0. -1.
</event>
<event>
 7    1  0.3837332E-009  0.4778727E+02  0.7816164E-02  0.1312668E+00
        -11   -1    0    0    0    0  0.00000000000E+00  0.00000000000E+00  0.45593999997E+02  0.45594000000E+02  0.51100000000E-03 0.  1.
         11   -1    0    0    0    0 -0.00000000000E+00 -0.00000000000E+00 -0.45593999997E+02  0.45594000000E+02  0.51100000000E-03 0. -1.
    9900012    2    1    2    0    0  0.19345836242E+02  0.34068810268E+02 -0.18672917093E+02  0.47787273673E+02  0.20000011984E+02 0.  0.
        -12    1    1    2    0    0 -0.19345836242E+02 -0.34068810268E+02  0.18672917093E+02  0.43400726327E+02  0.00000000000E+00 0.  1.
         11    1    3    3    0    0  0.96544020323E+01  0.57654352113E+01 -0.65217960973E+01  0.12999290226E+02  0.51100000000E-03 0. -1.
        -11    1    3    3    0    0  0.11858662280E+02  0.21101217102E+02 -0.12532485659E+02  0.27257153764E+02  0.51100000000E-03 0.  1.
        -12    1    3    3    0    0 -0.21672280707E+01  0.72021579541E+01  0.38136466278E+00  0.75308296828E+01  0.00000000000E+00 0.  1.
</event>
<event>
 7    1  0.3837332E-009  0.4778727E+02  0.7816164E-02  0.1312668E+00
        -11   -1    0    0    0    0  0.00000000000E+00  0.00000000000E+00  0.45593999997E+02  0.45594000000E+02  0.51100000000E-03 0.  1.
         11   -1    0    0    0    0 -0.00000000000E+00 -0.00000000000E+00 -0.45593999997E+02  0.45594000000E+02  0.51100000000E-03 0. -1.
    9900012    2    1    2    0    0 -0.42682719610E+02 -0.58835307156E+01 -0.52146450185E+01  0.47787274088E+02  0.20000013879E+02 0.  0.
        -12    1    1    2    0    0  0.42682719610E+02  0.58835307156E+01  0.52146450185E+01  0.43400725912E+02  0.00000000000E+00 0.  1.
         11    1    3    3    0    0 -0.23968292052E+02 -0.49261734620E+00  0.45858721313E+01  0.24408029810E+02  0.51100000000E-03 0.  1.
        -11    1    3    3    0    0 -0.75620220087E+01 -0.84233883969E+00  0.36627528888E+00  0.76176026038E+01  0.51100000000E-03 0. -1.
        -12    1    3    3    0    0 -0.11152405549E+02 -0.45485745297E+01 -0.10166792439E+02  0.15761641674E+02  0.00000000000E+00 0.  1.
</event>
<event>
 7    1  0.3837332E-009  0.4778727E+02  0.7816164E-02  0.1312668E+00
        -11   -1    0    0    0    0  0.00000000000E+00  0.00000000000E+00  0.45593999997E+02  0.45594000000E+02  0.51100000000E-03 0.  1.
         11   -1    0    0    0    0 -0.00000000000E+00 -0.00000000000E+00 -0.45593999997E+02  0.45594000000E+02  0.51100000000E-03 0. -1.
    9900012    2    1    2    0    0 -0.33783634962E+02  0.50232295628E+01 -0.26777908980E+02  0.47787271482E+02  0.20000001997E+02 0.  0.
        -12    1    1    2    0    0  0.33783634962E+02 -0.50232295628E+01  0.26777908980E+02  0.43400728518E+02  0.00000000000E+00 0.  1.
         11    1    3    3    0    0 -0.61199971643E+01 -0.19630013962E+01 -0.43099312494E+01  0.77384266752E+01  0.51100000000E-03 0. -1.
        -11    1    3    3    0    0 -0.81275789366E+01  0.63956114408E+01 -0.97230144031E-01  0.10342670788E+02  0.51100000000E-03 0.  1.
        -12    1    3    3    0    0 -0.19536058861E+02  0.59061951827E+00 -0.22370747587E+02  0.29706174019E+02  0.00000000000E+00 0.  1.
</event>
<event>
 7    1  0.3837332E-009  0.4778727E+02  0.7816164E-02  0.1312668E+00
        -11   -1    0    0    0    0  0.00000000000E+00  0.00000000000E+00  0.45593999997E+02  0.45594000000E+02  0.51100000000E-03 0. -1.
         11   -1    0    0    0    0 -0.00000000000E+00 -0.00000000000E+00 -0.45593999997E+02  0.45594000000E+02  0.51100000000E-03 0.  1.
    9900012    2    1    2    0    0 -0.23481659934E+02  0.18272149261E+02  0.31596897849E+02  0.47787265610E+02  0.19999975224E+02 0.  0.
        -12    1    1    2    0    0  0.23481659934E+02 -0.18272149261E+02 -0.31596897849E+02  0.43400734390E+02  0.00000000000E+00 0.  1.
         11    1    3    3    0    0 -0.76526107429E+00  0.50305577813E+01  0.11325584500E+02  0.12416158852E+02  0.51100000000E-03 0. -1.
        -11    1    3    3    0    0 -0.56850929566E+01 -0.19144097071E+00  0.96907809916E+01  0.11236910966E+02  0.51100000000E-03 0.  1.
         12    1    3    3    0    0 -0.17031305903E+02  0.13433032450E+02  0.10580532357E+02  0.24134195792E+02  0.00000000000E+00 0. -1.
</event>
<event>
 7    1  0.3837332E-009  0.4778727E+02  0.7816164E-02  0.1312668E+00
        -11   -1    0    0    0    0  0.00000000000E+00  0.00000000000E+00  0.45593999997E+02  0.45594000000E+02  0.51100000000E-03 0.  1.
         11   -1    0    0    0    0 -0.00000000000E+00 -0.00000000000E+00 -0.45593999997E+02  0.45594000000E+02  0.51100000000E-03 0. -1.
    9900012    2    1    2    0    0 -0.83548591834E+01  0.16349812420E+02 -0.39325602412E+02  0.47787273701E+02  0.20000012114E+02 0.  0.
        -12    1    1    2    0    0  0.83548591834E+01 -0.16349812420E+02  0.39325602412E+02  0.43400726299E+02  0.00000000000E+00 0.  1.
         11    1    3    3    0    0 -0.62326073067E+01  0.16119926228E+01 -0.17449781100E+02  0.18599429420E+02  0.51100000000E-03 0. -1.
        -11    1    3    3    0    0  0.26916167963E+01 -0.98242022285E+00 -0.28255433889E+01  0.40241329720E+01  0.51100000000E-03 0.  1.
         12    1    3    3    0    0 -0.48138686731E+01  0.15720240020E+02 -0.19050277923E+02  0.25163711309E+02  0.00000000000E+00 0. -1.
</event>
<event>
 7    1  0.3837332E-009  0.4778722E+02  0.7816164E-02  0.1312668E+00
        -11   -1    0    0    0    0  0.00000000000E+00  0.00000000000E+00  0.45593999997E+02  0.45594000000E+02  0.51100000000E-03 0.  1.
         11   -1    0    0    0    0 -0.00000000000E+00 -0.00000000000E+00 -0.45593999997E+02  0.45594000000E+02  0.51100000000E-03 0. -1.
    9900012    2    1    2    0    0 -0.40312241468E+02 -0.14189350990E+02 -0.75639172819E+01  0.47787224220E+02  0.19999786505E+02 0.  0.
        -12    1    1    2    0    0  0.40312241468E+02  0.14189350990E+02  0.75639172819E+01  0.43400775780E+02  0.00000000000E+00 0.  1.
         11    1    3    3    0    0 -0.68451415820E+01 -0.74544924591E+01 -0.47228889307E+01  0.11168307894E+02  0.51100000000E-03 0. -1.
        -11    1    3    3    0    0 -0.27724993293E+01 -0.94044307826E-01  0.36156950581E+01  0.45572851433E+01  0.51100000000E-03 0.  1.
         12    1    3    3    0    0 -0.30694600557E+02 -0.66408142227E+01 -0.64567234093E+01  0.32061631182E+02  0.00000000000E+00 0. -1.
</event>
<event>
 7    1  0.3837332E-009  0.4778727E+02  0.7816164E-02  0.1312668E+00
        -11   -1    0    0    0    0  0.00000000000E+00  0.00000000000E+00  0.45593999997E+02  0.45594000000E+02  0.51100000000E-03 0. -1.
         11   -1    0    0    0    0 -0.00000000000E+00 -0.00000000000E+00 -0.45593999997E+02  0.45594000000E+02  0.51100000000E-03 0.  1.
    9900012    2    1    2    0    0 -0.30466247070E+02  0.17091463303E+02  0.25754860334E+02  0.47787272366E+02  0.20000006026E+02 0.  0.
        -12    1    1    2    0    0  0.30466247070E+02 -0.17091463303E+02 -0.25754860334E+02  0.43400727634E+02  0.00000000000E+00 0.  1.
         11    1    3    3    0    0 -0.15283022921E+02  0.12210863632E+02  0.17657453198E+02  0.26352639981E+02  0.51100000000E-03 0. -1.
        -11    1    3    3    0    0 -0.14369960956E+02  0.81008087901E+01  0.71652564837E+01  0.17984987675E+02  0.51100000000E-03 0.  1.
        -12    1    3    3    0    0 -0.81326319294E+00 -0.32202091193E+01  0.93215065203E+00  0.34496447108E+01  0.00000000000E+00 0.  1.
</event>
<event>
 7    1  0.3837332E-009  0.4778727E+02  0.7816164E-02  0.1312668E+00
        -11   -1    0    0    0    0  0.00000000000E+00  0.00000000000E+00  0.45593999997E+02  0.45594000000E+02  0.51100000000E-03 0. -1.
         11   -1    0    0    0    0 -0.00000000000E+00 -0.00000000000E+00 -0.45593999997E+02  0.45594000000E+02  0.51100000000E-03 0.  1.
    9900012    2    1    2    0    0  0.31930154673E+01 -0.43279710635E+02  0.54262716816E+00  0.47787272533E+02  0.20000006787E+02 0.  0.
        -12    1    1    2    0    0 -0.31930154673E+01  0.43279710635E+02 -0.54262716816E+00  0.43400727467E+02  0.00000000000E+00 0.  1.
         11    1    3    3    0    0  0.82994815985E+01 -0.11783204089E+02 -0.48049568405E+01  0.15192527897E+02  0.51100000000E-03 0. -1.
        -11    1    3    3    0    0 -0.97222631086E+00 -0.73588823488E+01  0.29536605269E+01  0.79888975580E+01  0.51100000000E-03 0.  1.
         12    1    3    3    0    0 -0.41342398203E+01 -0.24137624197E+02  0.23939234818E+01  0.24605847078E+02  0.00000000000E+00 0. -1.
</event>
<event>
 7    1  0.3837332E-009  0.4778727E+02  0.7816164E-02  0.1312668E+00
        -11   -1    0    0    0    0  0.00000000000E+00  0.00000000000E+00  0.45593999997E+02  0.45594000000E+02  0.51100000000E-03 0.  1.
         11   -1    0    0    0    0 -0.00000000000E+00 -0.00000000000E+00 -0.45593999997E+02  0.45594000000E+02  0.51100000000E-03 0. -1.
    9900012    2    1    2    0    0  0.96376732627E+01 -0.28682093626E+02 -0.31113917180E+02  0.47787273244E+02  0.20000010027E+02 0.  0.
        -12    1    1    2    0    0 -0.96376732627E+01  0.28682093626E+02  0.31113917180E+02  0.43400726756E+02  0.00000000000E+00 0.  1.
         11    1    3    3    0    0 -0.26056048682E+01 -0.59200963624E+01 -0.88245015043E+01  0.10941140011E+02  0.51100000000E-03 0. -1.
        -11    1    3    3    0    0  0.60925532128E+01 -0.12791559503E+02 -0.20611571242E+02  0.25011598679E+02  0.51100000000E-03 0.  1.
        -12    1    3    3    0    0  0.61507249182E+01 -0.99704377615E+01 -0.16778444336E+01  0.11834534554E+02  0.00000000000E+00 0.  1.
</event>
<event>
 7    1  0.3837332E-009  0.4778727E+02  0.7816164E-02  0.1312668E+00
        -11   -1    0    0    0    0  0.00000000000E+00  0.00000000000E+00  0.45593999997E+02  0.45594000000E+02  0.51100000000E-03 0. -1.
         11   -1    0    0    0    0 -0.00000000000E+00 -0.00000000000E+00 -0.45593999997E+02  0.45594000000E+02  0.51100000000E-03 0.  1.
    9900012    2    1    2    0    0  0.41363078130E+02 -0.12369788768E+02 -0.44393049863E+01  0.47787270336E+02  0.19999996771E+02 0.  0.
        -12    1    1    2    0    0 -0.41363078130E+02  0.12369788768E+02  0.44393049863E+01  0.43400729664E+02  0.00000000000E+00 0.  1.
         11    1    3    3    0    0 -0.19542809828E+00 -0.10047947961E+01  0.84768754977E+00  0.13290519806E+01  0.51100000000E-03 0. -1.
        -11    1    3    3    0    0  0.32373745888E+02 -0.18045181973E+01 -0.70650919261E+00  0.32431695365E+02  0.51100000000E-03 0.  1.
         12    1    3    3    0    0  0.91847603404E+01 -0.95604757744E+01 -0.45804833435E+01  0.14026522991E+02  0.00000000000E+00 0. -1.
</event>
<event>
 7    1  0.3837332E-009  0.4778727E+02  0.7816164E-02  0.1312668E+00
        -11   -1    0    0    0    0  0.00000000000E+00  0.00000000000E+00  0.45593999997E+02  0.45594000000E+02  0.51100000000E-03 0.  1.
         11   -1    0    0    0    0 -0.00000000000E+00 -0.00000000000E+00 -0.45593999997E+02  0.45594000000E+02  0.51100000000E-03 0. -1.
    9900012    2    1    2    0    0 -0.21654282110E+02  0.86399211037E+01 -0.36606932885E+02  0.47787266070E+02  0.19999977319E+02 0.  0.
        -12    1    1    2    0    0  0.21654282110E+02 -0.86399211037E+01  0.36606932885E+02  0.43400733930E+02  0.00000000000E+00 0.  1.
         11    1    3    3    0    0 -0.76801020749E+01  0.12365283734E+02 -0.20762831564E+02  0.25357038165E+02  0.51100000000E-03 0. -1.
        -11    1    3    3    0    0  0.18956609094E+00 -0.98358505453E+00  0.56171658353E-03  0.10016862977E+01  0.51100000000E-03 0.  1.
         12    1    3    3    0    0 -0.14163746126E+02 -0.27417775759E+01 -0.15844663038E+02  0.21428541607E+02  0.00000000000E+00 0. -1.
</event>
<event>
 7    1  0.3837332E-009  0.4778727E+02  0.7816164E-02  0.1312668E+00
        -11   -1    0    0    0    0  0.00000000000E+00  0.00000000000E+00  0.45593999997E+02  0.45594000000E+02  0.51100000000E-03 0.  1.
         11   -1    0    0    0    0 -0.00000000000E+00 -0.00000000000E+00 -0.45593999997E+02  0.45594000000E+02  0.51100000000E-03 0. -1.
    9900012    2    1    2    0    0  0.96927188354E+01 -0.40980892213E+02 -0.10499573367E+02  0.47787269984E+02  0.19999995165E+02 0.  0.
        -12    1    1    2    0    0 -0.96927188354E+01  0.40980892213E+02  0.10499573367E+02  0.43400730016E+02  0.00000000000E+00 0.  1.
         11    1    3    3    0    0  0.19817318532E+01 -0.17553351455E+01 -0.58442455400E+00  0.27110910961E+01  0.51100000000E-03 0. -1.
        -11    1    3    3    0    0  0.18404369071E+01  0.13952163782E+01  0.11329048856E+01  0.25724133595E+01  0.51100000000E-03 0.  1.
         12    1    3    3    0    0  0.58705500751E+01 -0.40620773446E+02 -0.11048053699E+02  0.42503765528E+02  0.00000000000E+00 0. -1.
</event>
<event>
 7    1  0.3837332E-009  0.4778727E+02  0.7816164E-02  0.1312668E+00
        -11   -1    0    0    0    0  0.00000000000E+00  0.00000000000E+00  0.45593999997E+02  0.45594000000E+02  0.51100000000E-03 0.  1.
         11   -1    0    0    0    0 -0.00000000000E+00 -0.00000000000E+00 -0.45593999997E+02  0.45594000000E+02  0.51100000000E-03 0. -1.
    9900012    2    1    2    0    0 -0.29147109613E+02  0.28557720258E+02 -0.14782623856E+02  0.47787270130E+02  0.19999995833E+02 0.  0.
        -12    1    1    2    0    0  0.29147109613E+02 -0.28557720258E+02  0.14782623856E+02  0.43400729870E+02  0.00000000000E+00 0.  1.
         11    1    3    3    0    0 -0.13665329194E+02  0.17007968054E+02 -0.12448644315E+02  0.25119334084E+02  0.51100000000E-03 0. -1.
        -11    1    3    3    0    0 -0.76357239404E+01  0.77294508151E+01 -0.68478362749E+01  0.12842957288E+02  0.51100000000E-03 0.  1.
        -12    1    3    3    0    0 -0.78460564795E+01  0.38203013884E+01  0.45138567340E+01  0.98249787579E+01  0.00000000000E+00 0.  1.
</event>
<event>
 7    1  0.3837332E-009  0.4778727E+02  0.7816164E-02  0.1312668E+00
        -11   -1    0    0    0    0  0.00000000000E+00  0.00000000000E+00  0.45593999997E+02  0.45594000000E+02  0.51100000000E-03 0. -1.
         11   -1    0    0    0    0 -0.00000000000E+00 -0.00000000000E+00 -0.45593999997E+02  0.45594000000E+02  0.51100000000E-03 0.  1.
    9900012    2    1    2    0    0 -0.83488702563E+01 -0.10435172777E+02  0.41291970436E+02  0.47787270883E+02  0.19999999263E+02 0.  0.
        -12    1    1    2    0    0  0.83488702563E+01  0.10435172777E+02 -0.41291970436E+02  0.43400729117E+02  0.00000000000E+00 0.  1.
         11    1    3    3    0    0 -0.86230876025E+00 -0.29730224200E+01  0.63713974590E-01  0.30962071054E+01  0.51100000000E-03 0. -1.
        -11    1    3    3    0    0 -0.84344957578E+01 -0.47824928156E+01  0.12486180894E+02  0.15808784577E+02  0.51100000000E-03 0.  1.
         12    1    3    3    0    0  0.94793426171E+00 -0.26796575417E+01  0.28742075567E+02  0.28882279201E+02  0.00000000000E+00 0. -1.
</event>
<event>
 7    1  0.3837332E-009  0.4778727E+02  0.7816164E-02  0.1312668E+00
        -11   -1    0    0    0    0  0.00000000000E+00  0.00000000000E+00  0.45593999997E+02  0.45594000000E+02  0.51100000000E-03 0.  1.
         11   -1    0    0    0    0 -0.00000000000E+00 -0.00000000000E+00 -0.45593999997E+02  0.45594000000E+02  0.51100000000E-03 0. -1.
    9900012    2    1    2    0    0  0.97152319972E+01 -0.35173720268E+02 -0.23495674410E+02  0.47787273667E+02  0.20000011957E+02 0.  0.
        -12    1    1    2    0    0 -0.97152319972E+01  0.35173720268E+02  0.23495674410E+02  0.43400726333E+02  0.00000000000E+00 0.  1.
         11    1    3    3    0    0  0.81111028325E+01 -0.59549271797E+01 -0.73263606958E+01  0.12446955780E+02  0.51100000000E-03 0.  1.
        -11    1    3    3    0    0  0.54187181633E+01 -0.19400785831E+02 -0.14147199755E+02  0.24614960056E+02  0.51100000000E-03 0. -1.
        -12    1    3    3    0    0 -0.38145889986E+01 -0.98180072576E+01 -0.20221139585E+01  0.10725357831E+02  0.00000000000E+00 0.  1.
</event>
<event>
 7    1  0.3837332E-009  0.4778727E+02  0.7816164E-02  0.1312668E+00
        -11   -1    0    0    0    0  0.00000000000E+00  0.00000000000E+00  0.45593999997E+02  0.45594000000E+02  0.51100000000E-03 0. -1.
         11   -1    0    0    0    0 -0.00000000000E+00 -0.00000000000E+00 -0.45593999997E+02  0.45594000000E+02  0.51100000000E-03 0.  1.
    9900012    2    1    2    0    0 -0.19191179957E+02  0.37813175176E+02  0.92458465718E+01  0.47787270930E+02  0.19999999477E+02 0.  0.
        -12    1    1    2    0    0  0.19191179957E+02 -0.37813175176E+02 -0.92458465718E+01  0.43400729070E+02  0.00000000000E+00 0.  1.
         11    1    3    3    0    0  0.14953570250E+00  0.18536066962E+02  0.70410430164E+01  0.19828878596E+02  0.51100000000E-03 0. -1.
        -11    1    3    3    0    0 -0.44824368347E+01  0.57710630065E+01  0.29128734701E+01  0.78665265725E+01  0.51100000000E-03 0.  1.
        -12    1    3    3    0    0 -0.14858278825E+02  0.13506045207E+02 -0.70806991462E+00  0.20091865762E+02  0.00000000000E+00 0.  1.
</event>
<event>
 7    1  0.3837332E-009  0.4778727E+02  0.7816164E-02  0.1312668E+00
        -11   -1    0    0    0    0  0.00000000000E+00  0.00000000000E+00  0.45593999997E+02  0.45594000000E+02  0.51100000000E-03 0. -1.
         11   -1    0    0    0    0 -0.00000000000E+00 -0.00000000000E+00 -0.45593999997E+02  0.45594000000E+02  0.51100000000E-03 0.  1.
    9900012    2    1    2    0    0 -0.38694239233E+02  0.18739350650E+02 -0.59343159461E+01  0.47787268228E+02  0.19999987159E+02 0.  0.
        -12    1    1    2    0    0  0.38694239233E+02 -0.18739350650E+02  0.59343159461E+01  0.43400731772E+02  0.00000000000E+00 0.  1.
         11    1    3    3    0    0 -0.24960697907E+02  0.77796898199E+01 -0.71696290904E+01  0.27110212010E+02  0.51100000000E-03 0. -1.
        -11    1    3    3    0    0 -0.41196568275E+01 -0.17167540172E+01 -0.11007127974E+01  0.45967799224E+01  0.51100000000E-03 0.  1.
         12    1    3    3    0    0 -0.96138844983E+01  0.12676414847E+02  0.23360259417E+01  0.16080276295E+02  0.00000000000E+00 0. -1.
</event>
<event>
 7    1  0.3837332E-009  0.4778727E+02  0.7816164E-02  0.1312668E+00
        -11   -1    0    0    0    0  0.00000000000E+00  0.00000000000E+00  0.45593999997E+02  0.45594000000E+02  0.51100000000E-03 0.  1.
         11   -1    0    0    0    0 -0.00000000000E+00 -0.00000000000E+00 -0.45593999997E+02  0.45594000000E+02  0.51100000000E-03 0. -1.
    9900012    2    1    2    0    0  0.19502349091E+02  0.24362582105E+02 -0.30161995033E+02  0.47787274531E+02  0.20000015896E+02 0.  0.
        -12    1    1    2    0    0 -0.19502349091E+02 -0.24362582105E+02  0.30161995033E+02  0.43400725469E+02  0.00000000000E+00 0.  1.
         11    1    3    3    0    0  0.18690285900E+02  0.20373801500E+02 -0.19824367151E+02  0.34020936316E+02  0.51100000000E-03 0. -1.
        -11    1    3    3    0    0  0.22351588335E+01  0.54322537514E+01 -0.39853183296E+01  0.70984560490E+01  0.51100000000E-03 0.  1.
        -12    1    3    3    0    0 -0.14230956428E+01 -0.14434731466E+01 -0.63523095525E+01  0.66678821663E+01  0.00000000000E+00 0.  1.
</event>
<event>
 7    1  0.3837332E-009  0.4778727E+02  0.7816164E-02  0.1312668E+00
        -11   -1    0    0    0    0  0.00000000000E+00  0.00000000000E+00  0.45593999997E+02  0.45594000000E+02  0.51100000000E-03 0.  1.
         11   -1    0    0    0    0 -0.00000000000E+00 -0.00000000000E+00 -0.45593999997E+02  0.45594000000E+02  0.51100000000E-03 0. -1.
    9900012    2    1    2    0    0  0.20938146509E+02 -0.35732439672E+02  0.12977279942E+02  0.47787273982E+02  0.20000013396E+02 0.  0.
        -12    1    1    2    0    0 -0.20938146509E+02  0.35732439672E+02 -0.12977279942E+02  0.43400726018E+02  0.00000000000E+00 0.  1.
         11    1    3    3    0    0  0.13875573164E+02 -0.18610125779E+02  0.93816419972E+00  0.23232487264E+02  0.51100000000E-03 0. -1.
        -11    1    3    3    0    0  0.52285808729E+01 -0.15817735427E+02  0.53504353744E+01  0.17497599005E+02  0.51100000000E-03 0.  1.
        -12    1    3    3    0    0  0.18339924723E+01 -0.13045784662E+01  0.66886803680E+01  0.70571877138E+01  0.00000000000E+00 0.  1.
</event>
<event>
 7    1  0.3837332E-009  0.4778726E+02  0.7816164E-02  0.1312668E+00
        -11   -1    0    0    0    0  0.00000000000E+00  0.00000000000E+00  0.45593999997E+02  0.45594000000E+02  0.51100000000E-03 0.  1.
         11   -1    0    0    0    0 -0.00000000000E+00 -0.00000000000E+00 -0.45593999997E+02  0.45594000000E+02  0.51100000000E-03 0. -1.
    9900012    2    1    2    0    0  0.26980152992E+02 -0.46125413607E+01 -0.33681153748E+02  0.47787259095E+02  0.19999945519E+02 0.  0.
        -12    1    1    2    0    0 -0.26980152992E+02  0.46125413607E+01  0.33681153748E+02  0.43400740905E+02  0.00000000000E+00 0.  1.
         11    1    3    3    0    0 -0.11135277749E+01 -0.21885477757E+01 -0.47300417709E+00  0.25006836435E+01  0.51100000000E-03 0. -1.
        -11    1    3    3    0    0  0.14588567462E+02 -0.35305527150E+01 -0.88813169086E+01  0.17440438451E+02  0.51100000000E-03 0.  1.
         12    1    3    3    0    0  0.13505113305E+02  0.11065591300E+01 -0.24326832662E+02  0.27846137001E+02  0.00000000000E+00 0. -1.
</event>
<event>
 7    1  0.3837332E-009  0.4778728E+02  0.7816164E-02  0.1312668E+00
        -11   -1    0    0    0    0  0.00000000000E+00  0.00000000000E+00  0.45593999997E+02  0.45594000000E+02  0.51100000000E-03 0. -1.
         11   -1    0    0    0    0 -0.00000000000E+00 -0.00000000000E+00 -0.45593999997E+02  0.45594000000E+02  0.51100000000E-03 0.  1.
    9900012    2    1    2    0    0  0.27874672246E+01  0.24635663376E+02  0.35622142593E+02  0.47787275047E+02  0.20000018251E+02 0.  0.
        -12    1    1    2    0    0 -0.27874672246E+01 -0.24635663376E+02 -0.35622142593E+02  0.43400724953E+02  0.00000000000E+00 0.  1.
         11    1    3    3    0    0  0.99068704537E+01  0.17577734461E+02  0.28241175984E+02  0.34708599110E+02  0.51100000000E-03 0. -1.
        -11    1    3    3    0    0  0.19266569609E+00 -0.32816872184E+00  0.11554547641E+00  0.39770063953E+00  0.51100000000E-03 0.  1.
        -12    1    3    3    0    0 -0.73120689252E+01  0.73860976372E+01  0.72654211321E+01  0.12680975298E+02  0.00000000000E+00 0.  1.
</event>
<event>
 7    1  0.3837332E-009  0.4778727E+02  0.7816164E-02  0.1312668E+00
        -11   -1    0    0    0    0  0.00000000000E+00  0.00000000000E+00  0.45593999997E+02  0.45594000000E+02  0.51100000000E-03 0.  1.
         11   -1    0    0    0    0 -0.00000000000E+00 -0.00000000000E+00 -0.45593999997E+02  0.45594000000E+02  0.51100000000E-03 0. -1.
    9900012    2    1    2    0    0  0.87290319490E+00  0.20540143657E+02 -0.38222557544E+02  0.47787269976E+02  0.19999995128E+02 0.  0.
        -12    1    1    2    0    0 -0.87290319490E+00 -0.20540143657E+02  0.38222557544E+02  0.43400730024E+02  0.00000000000E+00 0.  1.
         11    1    3    3    0    0  0.47694961297E+01  0.60893951294E+01 -0.70916924691E+01  0.10493851948E+02  0.51100000000E-03 0. -1.
        -11    1    3    3    0    0  0.14646319324E+01  0.13721763301E+02 -0.15501315736E+02  0.20753860474E+02  0.51100000000E-03 0.  1.
        -12    1    3    3    0    0 -0.53612248672E+01  0.72898522724E+00 -0.15629549338E+02  0.16539557553E+02  0.00000000000E+00 0.  1.
</event>
<event>
 7    1  0.3837332E-009  0.4778725E+02  0.7816164E-02  0.1312668E+00
        -11   -1    0    0    0    0  0.00000000000E+00  0.00000000000E+00  0.45593999997E+02  0.45594000000E+02  0.51100000000E-03 0. -1.
         11   -1    0    0    0    0 -0.00000000000E+00 -0.00000000000E+00 -0.45593999997E+02  0.45594000000E+02  0.51100000000E-03 0.  1.
    9900012    2    1    2    0    0  0.23670396637E+02 -0.31723355887E+02  0.17803542567E+02  0.47787249850E+02  0.19999903365E+02 0.  0.
        -12    1    1    2    0    0 -0.23670396637E+02  0.31723355887E+02 -0.17803542567E+02  0.43400750150E+02  0.00000000000E+00 0.  1.
         11    1    3    3    0    0  0.22870387788E+01  0.11268810510E+01 -0.19413950619E+01  0.32045939410E+01  0.51100000000E-03 0.  1.
        -11    1    3    3    0    0  0.35709141033E+01 -0.85448602804E+01  0.80109205827E+01  0.12245036284E+02  0.51100000000E-03 0. -1.
         12    1    3    3    0    0  0.17812443755E+02 -0.24305376657E+02  0.11734017046E+02  0.32337619625E+02  0.00000000000E+00 0. -1.
</event>
<event>
 7    1  0.3837332E-009  0.4778727E+02  0.7816164E-02  0.1312668E+00
        -11   -1    0    0    0    0  0.00000000000E+00  0.00000000000E+00  0.45593999997E+02  0.45594000000E+02  0.51100000000E-03 0. -1.
         11   -1    0    0    0    0 -0.00000000000E+00 -0.00000000000E+00 -0.45593999997E+02  0.45594000000E+02  0.51100000000E-03 0.  1.
    9900012    2    1    2    0    0  0.35208739321E+01  0.19498956122E+02  0.38613692729E+02  0.47787272940E+02  0.20000008644E+02 0.  0.
        -12    1    1    2    0    0 -0.35208739321E+01 -0.19498956122E+02 -0.38613692729E+02  0.43400727060E+02  0.00000000000E+00 0.  1.
         11    1    3    3    0    0  0.91747788674E+00  0.98582967560E+01  0.14237209578E+02  0.17341450845E+02  0.51100000000E-03 0. -1.
        -11    1    3    3    0    0  0.54044883051E+00  0.47797130088E+01 -0.66294355948E+00  0.48556395881E+01  0.51100000000E-03 0.  1.
        -12    1    3    3    0    0  0.20629472148E+01  0.48609463576E+01  0.25039426711E+02  0.25590182507E+02  0.00000000000E+00 0.  1.
</event>
<event>
 7    1  0.3837332E-009  0.4778726E+02  0.7816164E-02  0.1312668E+00
        -11   -1    0    0    0    0  0.00000000000E+00  0.00000000000E+00  0.45593999997E+02  0.45594000000E+02  0.51100000000E-03 0. -1.
         11   -1    0    0    0    0 -0.00000000000E+00 -0.00000000000E+00 -0.45593999997E+02  0.45594000000E+02  0.51100000000E-03 0.  1.
    9900012    2    1    2    0    0 -0.37168157610E+02  0.18954471034E+01  0.22328443804E+02  0.47787261958E+02  0.19999958572E+02 0.  0.
        -12    1    1    2    0    0  0.37168157610E+02 -0.18954471034E+01 -0.22328443804E+02  0.43400738042E+02  0.00000000000E+00 0.  1.
         11    1    3    3    0    0 -0.69308611212E+01  0.63607500872E+00  0.13648811698E+02  0.15320949329E+02  0.51100000000E-03 0. -1.
        -11    1    3    3    0    0 -0.83486321578E+01 -0.19543838343E+01  0.53164592876E+01  0.10088806406E+02  0.51100000000E-03 0.  1.
        -12    1    3    3    0    0 -0.21888664331E+02  0.32137559290E+01  0.33631728181E+01  0.22377506224E+02  0.00000000000E+00 0.  1.
</event>
<event>
 7    1  0.3837332E-009  0.4778727E+02  0.7816164E-02  0.1312668E+00
        -11   -1    0    0    0    0  0.00000000000E+00  0.00000000000E+00  0.45593999997E+02  0.45594000000E+02  0.51100000000E-03 0. -1.
         11   -1    0    0    0    0 -0.00000000000E+00 -0.00000000000E+00 -0.45593999997E+02  0.45594000000E+02  0.51100000000E-03 0.  1.
    9900012    2    1    2    0    0  0.13293985856E+02 -0.24643260884E+02  0.33160261240E+02  0.47787270831E+02  0.19999999025E+02 0.  0.
        -12    1    1    2    0    0 -0.13293985856E+02  0.24643260884E+02 -0.33160261240E+02  0.43400729169E+02  0.00000000000E+00 0.  1.
         11    1    3    3    0    0  0.90307110235E+00 -0.12336272219E+02  0.11725536713E+02  0.17043689775E+02  0.51100000000E-03 0. -1.
        -11    1    3    3    0    0  0.68364209128E+00 -0.52614423205E+01  0.14459819071E+02  0.15402483878E+02  0.51100000000E-03 0.  1.
        -12    1    3    3    0    0  0.11707272662E+02 -0.70455463448E+01  0.69749054563E+01  0.15341097177E+02  0.00000000000E+00 0.  1.
</event>
<event>
 7    1  0.3837332E-009  0.4778727E+02  0.7816164E-02  0.1312668E+00
        -11   -1    0    0    0    0  0.00000000000E+00  0.00000000000E+00  0.45593999997E+02  0.45594000000E+02  0.51100000000E-03 0. -1.
         11   -1    0    0    0    0 -0.00000000000E+00 -0.00000000000E+00 -0.45593999997E+02  0.45594000000E+02  0.51100000000E-03 0.  1.
    9900012    2    1    2    0    0  0.17854855379E+02 -0.37982332432E+02 -0.11053055506E+02  0.47787268744E+02  0.19999989511E+02 0.  0.
        -12    1    1    2    0    0 -0.17854855379E+02  0.37982332432E+02  0.11053055506E+02  0.43400731256E+02  0.00000000000E+00 0.  1.
         11    1    3    3    0    0  0.15779334725E+01 -0.36987678039E-02 -0.31109818329E+01  0.34882797981E+01  0.51100000000E-03 0. -1.
        -11    1    3    3    0    0  0.14794733474E+01  0.76001420419E+00  0.91021559869E+00  0.18960368333E+01  0.51100000000E-03 0.  1.
         12    1    3    3    0    0  0.14797448559E+02 -0.38738647868E+02 -0.88522892715E+01  0.42402952112E+02  0.00000000000E+00 0. -1.
</event>
<event>
 7    1  0.3837332E-009  0.4778727E+02  0.7816164E-02  0.1312668E+00
        -11   -1    0    0    0    0  0.00000000000E+00  0.00000000000E+00  0.45593999997E+02  0.45594000000E+02  0.51100000000E-03 0. -1.
         11   -1    0    0    0    0 -0.00000000000E+00 -0.00000000000E+00 -0.45593999997E+02  0.45594000000E+02  0.51100000000E-03 0.  1.
    9900012    2    1    2    0    0 -0.43111937159E+02  0.22979201819E+01  0.44388986164E+01  0.47787269779E+02  0.19999994231E+02 0.  0.
        -12    1    1    2    0    0  0.43111937159E+02 -0.22979201819E+01 -0.44388986164E+01  0.43400730221E+02  0.00000000000E+00 0.  1.
         11    1    3    3    0    0 -0.10143417339E+02 -0.42712134891E+01  0.16839091271E+01  0.11134079674E+02  0.51100000000E-03 0. -1.
        -11    1    3    3    0    0 -0.15518155883E+02  0.38712978370E+01  0.84643284819E+01  0.18095440472E+02  0.51100000000E-03 0.  1.
         12    1    3    3    0    0 -0.17450363937E+02  0.26978358340E+01 -0.57093389926E+01  0.18557749633E+02  0.00000000000E+00 0. -1.
</event>
<event>
 7    1  0.3837332E-009  0.4778727E+02  0.7816164E-02  0.1312668E+00
        -11   -1    0    0    0    0  0.00000000000E+00  0.00000000000E+00  0.45593999997E+02  0.45594000000E+02  0.51100000000E-03 0.  1.
         11   -1    0    0    0    0 -0.00000000000E+00 -0.00000000000E+00 -0.45593999997E+02  0.45594000000E+02  0.51100000000E-03 0. -1.
    9900012    2    1    2    0    0 -0.38818752030E+02 -0.90554026360E+01 -0.17167625326E+02  0.47787272063E+02  0.20000004646E+02 0.  0.
        -12    1    1    2    0    0  0.38818752030E+02  0.90554026360E+01  0.17167625326E+02  0.43400727937E+02  0.00000000000E+00 0.  1.
         11    1    3    3    0    0 -0.84869541493E+01 -0.51844246809E+01 -0.12709666005E+02  0.16138223577E+02  0.51100000000E-03 0.  1.
        -11    1    3    3    0    0 -0.68381028518E+01  0.29869923709E+00 -0.36898326126E+01  0.77758431579E+01  0.51100000000E-03 0. -1.
        -12    1    3    3    0    0 -0.23493695029E+02 -0.41696771923E+01 -0.76812670842E+00  0.23873205329E+02  0.00000000000E+00 0.  1.
</event>
<event>
 7    1  0.3837332E-009  0.4778727E+02  0.7816164E-02  0.1312668E+00
        -11   -1    0    0    0    0  0.00000000000E+00  0.00000000000E+00  0.45593999997E+02  0.45594000000E+02  0.51100000000E-03 0.  1.
         11   -1    0    0    0    0 -0.00000000000E+00 -0.00000000000E+00 -0.45593999997E+02  0.45594000000E+02  0.51100000000E-03 0. -1.
    9900012    2    1    2    0    0 -0.17417193773E+01 -0.20837037791E+02 -0.38031663776E+02  0.47787272127E+02  0.20000004938E+02 0.  0.
        -12    1    1    2    0    0  0.17417193773E+01  0.20837037791E+02  0.38031663776E+02  0.43400727873E+02  0.00000000000E+00 0.  1.
         11    1    3    3    0    0  0.32932335905E+01 -0.85080218200E+01 -0.14620319270E+02  0.17233268947E+02  0.51100000000E-03 0. -1.
        -11    1    3    3    0    0  0.46353776322E+01 -0.45325800486E+01 -0.12225161104E+02  0.13837831187E+02  0.51100000000E-03 0.  1.
         12    1    3    3    0    0 -0.96703306000E+01 -0.77964359228E+01 -0.11186183402E+02  0.16716171993E+02  0.00000000000E+00 0. -1.
</event>
<event>
 7    1  0.3837332E-009  0.4778727E+02  0.7816164E-02  0.1312668E+00
        -11   -1    0    0    0    0  0.00000000000E+00  0.00000000000E+00  0.45593999997E+02  0.45594000000E+02  0.51100000000E-03 0. -1.
         11   -1    0    0    0    0 -0.00000000000E+00 -0.00000000000E+00 -0.45593999997E+02  0.45594000000E+02  0.51100000000E-03 0.  1.
    9900012    2    1    2    0    0  0.31398879362E+02  0.13384851259E+02  0.26806327413E+02  0.47787273534E+02  0.20000011350E+02 0.  0.
        -12    1    1    2    0    0 -0.31398879362E+02 -0.13384851259E+02 -0.26806327413E+02  0.43400726466E+02  0.00000000000E+00 0.  1.
         11    1    3    3    0    0  0.81295250740E-01  0.63261882578E+00 -0.72718983868E+00  0.96727494495E+00  0.51100000000E-03 0. -1.
        -11    1    3    3    0    0  0.24904568840E+02  0.12035678032E+02  0.12291729144E+02  0.30268493527E+02  0.51100000000E-03 0.  1.
         12    1    3    3    0    0  0.64130152715E+01  0.71655440082E+00  0.15241788108E+02  0.16551505062E+02  0.00000000000E+00 0. -1.
</event>
<event>
 7    1  0.3837332E-009  0.4778727E+02  0.7816164E-02  0.1312668E+00
        -11   -1    0    0    0    0  0.00000000000E+00  0.00000000000E+00  0.45593999997E+02  0.45594000000E+02  0.51100000000E-03 0.  1.
         11   -1    0    0    0    0 -0.00000000000E+00 -0.00000000000E+00 -0.45593999997E+02  0.45594000000E+02  0.51100000000E-03 0. -1.
    9900012    2    1    2    0    0  0.28295238140E+02 -0.47690612378E+01 -0.32561617370E+02  0.47787269912E+02  0.19999994836E+02 0.  0.
        -12    1    1    2    0    0 -0.28295238140E+02  0.47690612378E+01  0.32561617370E+02  0.43400730088E+02  0.00000000000E+00 0.  1.
         11    1    3    3    0    0  0.87863546284E+01  0.89790261669E+00 -0.12741489740E+02  0.15503284098E+02  0.51100000000E-03 0. -1.
        -11    1    3    3    0    0  0.12293254864E+02  0.10666396500E+01 -0.28683371286E+01  0.12668432951E+02  0.51100000000E-03 0.  1.
        -12    1    3    3    0    0  0.72156286476E+01 -0.67336035045E+01 -0.16951790501E+02  0.19615552863E+02  0.00000000000E+00 0.  1.
</event>
<event>
 7    1  0.3837332E-009  0.4778727E+02  0.7816164E-02  0.1312668E+00
        -11   -1    0    0    0    0  0.00000000000E+00  0.00000000000E+00  0.45593999997E+02  0.45594000000E+02  0.51100000000E-03 0.  1.
         11   -1    0    0    0    0 -0.00000000000E+00 -0.00000000000E+00 -0.45593999997E+02  0.45594000000E+02  0.51100000000E-03 0. -1.
    9900012    2    1    2    0    0 -0.93998967118E+01 -0.13802805991E+02 -0.40059300425E+02  0.47787273486E+02  0.20000011133E+02 0.  0.
        -12    1    1    2    0    0  0.93998967118E+01  0.13802805991E+02  0.40059300425E+02  0.43400726514E+02  0.00000000000E+00 0.  1.
         11    1    3    3    0    0 -0.29234587430E+01  0.18279048456E+01 -0.85126796572E+01  0.91844195437E+01  0.51100000000E-03 0. -1.
        -11    1    3    3    0    0 -0.78494495491E+01 -0.66535193913E+01 -0.70403029426E+01  0.12467920608E+02  0.51100000000E-03 0.  1.
        -12    1    3    3    0    0  0.13730115802E+01 -0.89771914452E+01 -0.24506317825E+02  0.26134933334E+02  0.00000000000E+00 0.  1.
</event>
<event>
 7    1  0.3837332E-009  0.4778721E+02  0.7816164E-02  0.1312668E+00
        -11   -1    0    0    0    0  0.00000000000E+00  0.00000000000E+00  0.45593999997E+02  0.45594000000E+02  0.51100000000E-03 0.  1.
         11   -1    0    0    0    0 -0.00000000000E+00 -0.00000000000E+00 -0.45593999997E+02  0.45594000000E+02  0.51100000000E-03 0. -1.
    9900012    2    1    2    0    0 -0.27105230963E+01 -0.26339431214E+02 -0.34387731377E+02  0.47787209207E+02  0.19999718058E+02 0.  0.
        -12    1    1    2    0    0  0.27105230963E+01  0.26339431214E+02  0.34387731377E+02  0.43400790793E+02  0.00000000000E+00 0.  1.
         11    1    3    3    0    0  0.32404859764E+01 -0.12252902418E+02 -0.70827309426E+01  0.14518934013E+02  0.51100000000E-03 0. -1.
        -11    1    3    3    0    0 -0.24589657885E+01  0.89900114259E+00 -0.10181797775E+01  0.28091646666E+01  0.51100000000E-03 0.  1.
         12    1    3    3    0    0 -0.34920432842E+01 -0.14985529939E+02 -0.26286820657E+02  0.30459110527E+02  0.00000000000E+00 0. -1.
</event>
<event>
 7    1  0.3837332E-009  0.4778727E+02  0.7816164E-02  0.1312668E+00
        -11   -1    0    0    0    0  0.00000000000E+00  0.00000000000E+00  0.45593999997E+02  0.45594000000E+02  0.51100000000E-03 0. -1.
         11   -1    0    0    0    0 -0.00000000000E+00 -0.00000000000E+00 -0.45593999997E+02  0.45594000000E+02  0.51100000000E-03 0.  1.
    9900012    2    1    2    0    0  0.44856456986E+01  0.38073235206E+02  0.20345297327E+02  0.47787269825E+02  0.19999994442E+02 0.  0.
        -12    1    1    2    0    0 -0.44856456986E+01 -0.38073235206E+02 -0.20345297327E+02  0.43400730175E+02  0.00000000000E+00 0.  1.
         11    1    3    3    0    0  0.44146933922E+01  0.27004744794E+02  0.23354386326E+02  0.35974617720E+02  0.51100000000E-03 0. -1.
        -11    1    3    3    0    0 -0.35844449255E+00  0.52810452772E+01 -0.38810840867E-01  0.52933380977E+01  0.51100000000E-03 0.  1.
         12    1    3    3    0    0  0.42939679899E+00  0.57874451343E+01 -0.29702781586E+01  0.65193140079E+01  0.00000000000E+00 0. -1.
</event>
<event>
 7    1  0.3837332E-009  0.4778727E+02  0.7816164E-02  0.1312668E+00
        -11   -1    0    0    0    0  0.00000000000E+00  0.00000000000E+00  0.45593999997E+02  0.45594000000E+02  0.51100000000E-03 0.  1.
         11   -1    0    0    0    0 -0.00000000000E+00 -0.00000000000E+00 -0.45593999997E+02  0.45594000000E+02  0.51100000000E-03 0. -1.
    9900012    2    1    2    0    0  0.37677558987E+02  0.15649003836E+02 -0.14803158522E+02  0.47787271037E+02  0.19999999966E+02 0.  0.
        -12    1    1    2    0    0 -0.37677558987E+02 -0.15649003836E+02  0.14803158522E+02  0.43400728963E+02  0.00000000000E+00 0.  1.
         11    1    3    3    0    0  0.19002424141E+02  0.83028753908E+01 -0.31829189603E+01  0.20980010399E+02  0.51100000000E-03 0. -1.
        -11    1    3    3    0    0  0.14886458945E+02 -0.10287523192E+01 -0.64015692670E+01  0.16237151246E+02  0.51100000000E-03 0.  1.
         12    1    3    3    0    0  0.37886759016E+01  0.83748807645E+01 -0.52186702946E+01  0.10570109392E+02  0.00000000000E+00 0. -1.
</event>
<event>
 7    1  0.3837332E-009  0.4778727E+02  0.7816164E-02  0.1312668E+00
        -11   -1    0    0    0    0  0.00000000000E+00  0.00000000000E+00  0.45593999997E+02  0.45594000000E+02  0.51100000000E-03 0. -1.
         11   -1    0    0    0    0 -0.00000000000E+00 -0.00000000000E+00 -0.45593999997E+02  0.45594000000E+02  0.51100000000E-03 0.  1.
    9900012    2    1    2    0    0  0.11376463222E+02  0.20641944452E+02  0.36443236653E+02  0.47787270929E+02  0.19999999474E+02 0.  0.
        -12    1    1    2    0    0 -0.11376463222E+02 -0.20641944452E+02 -0.36443236653E+02  0.43400729071E+02  0.00000000000E+00 0.  1.
         11    1    3    3    0    0  0.14283500109E+01  0.42964674523E+01  0.81687813314E+01  0.93396362362E+01  0.51100000000E-03 0. -1.
        -11    1    3    3    0    0 -0.20017481343E+01  0.17127456412E+01 -0.16135494983E+01  0.30893422390E+01  0.51100000000E-03 0.  1.
        -12    1    3    3    0    0  0.11949861345E+02  0.14632731358E+02  0.29888004819E+02  0.35358292454E+02  0.00000000000E+00 0.  1.
</event>
<event>
 7    1  0.3837332E-009  0.4778729E+02  0.7816164E-02  0.1312668E+00
        -11   -1    0    0    0    0  0.00000000000E+00  0.00000000000E+00  0.45593999997E+02  0.45594000000E+02  0.51100000000E-03 0.  1.
         11   -1    0    0    0    0 -0.00000000000E+00 -0.00000000000E+00 -0.45593999997E+02  0.45594000000E+02  0.51100000000E-03 0. -1.
    9900012    2    1    2    0    0 -0.14887267654E+02  0.40492019438E+02 -0.47314719699E+01  0.47787294898E+02  0.20000108756E+02 0.  0.
        -12    1    1    2    0    0  0.14887267654E+02 -0.40492019438E+02  0.47314719699E+01  0.43400705102E+02  0.00000000000E+00 0.  1.
         11    1    3    3    0    0 -0.58010618106E+01  0.27061816483E+02 -0.41968979713E-01  0.27676632583E+02  0.51100000000E-03 0. -1.
        -11    1    3    3    0    0  0.54595232029E+00  0.65655076020E+01 -0.50124724647E+01  0.82782144499E+01  0.51100000000E-03 0.  1.
         12    1    3    3    0    0 -0.96321581635E+01  0.68646953530E+01  0.32296947454E+00  0.11832447864E+02  0.00000000000E+00 0. -1.
</event>
<event>
 7    1  0.3837332E-009  0.4778727E+02  0.7816164E-02  0.1312668E+00
        -11   -1    0    0    0    0  0.00000000000E+00  0.00000000000E+00  0.45593999997E+02  0.45594000000E+02  0.51100000000E-03 0.  1.
         11   -1    0    0    0    0 -0.00000000000E+00 -0.00000000000E+00 -0.45593999997E+02  0.45594000000E+02  0.51100000000E-03 0. -1.
    9900012    2    1    2    0    0  0.33104259642E+02 -0.31643720889E+01 -0.27887596486E+02  0.47787270802E+02  0.19999998895E+02 0.  0.
        -12    1    1    2    0    0 -0.33104259642E+02  0.31643720889E+01  0.27887596486E+02  0.43400729198E+02  0.00000000000E+00 0.  1.
         11    1    3    3    0    0  0.13729208716E+02  0.16469574061E+01 -0.17245486006E+02  0.22104534117E+02  0.51100000000E-03 0.  1.
        -11    1    3    3    0    0  0.19865622967E+02 -0.16124971103E+01 -0.10281146590E+02  0.22426437485E+02  0.51100000000E-03 0. -1.
         12    1    3    3    0    0 -0.49057204114E+00 -0.31988323847E+01 -0.36096388973E+00  0.32562992004E+01  0.00000000000E+00 0. -1.
</event>
<event>
 7    1  0.3837332E-009  0.4778727E+02  0.7816164E-02  0.1312668E+00
        -11   -1    0    0    0    0  0.00000000000E+00  0.00000000000E+00  0.45593999997E+02  0.45594000000E+02  0.51100000000E-03 0.  1.
         11   -1    0    0    0    0 -0.00000000000E+00 -0.00000000000E+00 -0.45593999997E+02  0.45594000000E+02  0.51100000000E-03 0. -1.
    9900012    2    1    2    0    0 -0.23380391857E+02 -0.29685052613E+02 -0.21348964204E+02  0.47787270230E+02  0.19999996286E+02 0.  0.
        -12    1    1    2    0    0  0.23380391857E+02  0.29685052613E+02  0.21348964204E+02  0.43400729770E+02  0.00000000000E+00 0.  1.
         11    1    3    3    0    0 -0.34114334357E+01  0.85262814778E+00 -0.91285757361E+00  0.36329274773E+01  0.51100000000E-03 0. -1.
        -11    1    3    3    0    0 -0.81771655117E+01 -0.97169905664E+01 -0.19513722167E-01  0.12699855216E+02  0.51100000000E-03 0.  1.
         12    1    3    3    0    0 -0.11791792910E+02 -0.20820690194E+02 -0.20416592908E+02  0.31454487536E+02  0.00000000000E+00 0. -1.
</event>
<event>
 7    1  0.3837332E-009  0.4778727E+02  0.7816164E-02  0.1312668E+00
        -11   -1    0    0    0    0  0.00000000000E+00  0.00000000000E+00  0.45593999997E+02  0.45594000000E+02  0.51100000000E-03 0.  1.
         11   -1    0    0    0    0 -0.00000000000E+00 -0.00000000000E+00 -0.45593999997E+02  0.45594000000E+02  0.51100000000E-03 0. -1.
    9900012    2    1    2    0    0 -0.38955588534E+02  0.10930199390E+02 -0.15704013014E+02  0.47787272339E+02  0.20000005904E+02 0.  0.
        -12    1    1    2    0    0  0.38955588534E+02 -0.10930199390E+02  0.15704013014E+02  0.43400727661E+02  0.00000000000E+00 0.  1.
         11    1    3    3    0    0 -0.11342025109E+02  0.68606259793E+01 -0.67064152740E+01  0.14855494892E+02  0.51100000000E-03 0. -1.
        -11    1    3    3    0    0 -0.10468993489E+02  0.67536859500E+01 -0.93468728546E+01  0.15574855730E+02  0.51100000000E-03 0.  1.
         12    1    3    3    0    0 -0.17144569935E+02 -0.26841125394E+01  0.34927511430E+00  0.17356921717E+02  0.00000000000E+00 0. -1.
</event>
<event>
 7    1  0.3837332E-009  0.4778728E+02  0.7816164E-02  0.1312668E+00
        -11   -1    0    0    0    0  0.00000000000E+00  0.00000000000E+00  0.45593999997E+02  0.45594000000E+02  0.51100000000E-03 0.  1.
         11   -1    0    0    0    0 -0.00000000000E+00 -0.00000000000E+00 -0.45593999997E+02  0.45594000000E+02  0.51100000000E-03 0. -1.
    9900012    2    1    2    0    0  0.39566969843E+02 -0.73481632455E+01 -0.16250593976E+02  0.47787280994E+02  0.20000045365E+02 0.  0.
        -12    1    1    2    0    0 -0.39566969843E+02  0.73481632455E+01  0.16250593976E+02  0.43400719006E+02  0.00000000000E+00 0.  1.
         11    1    3    3    0    0  0.30456442468E+02 -0.13853747898E+01 -0.16349798598E+02  0.34595231833E+02  0.51100000000E-03 0. -1.
        -11    1    3    3    0    0  0.86622430341E+01 -0.20538299746E+01 -0.13396550639E+01  0.90026300545E+01  0.51100000000E-03 0.  1.
        -12    1    3    3    0    0  0.44828434082E+00 -0.39089584811E+01  0.14388596859E+01  0.41894191068E+01  0.00000000000E+00 0.  1.
</event>
<event>
 7    1  0.3837332E-009  0.4778727E+02  0.7816164E-02  0.1312668E+00
        -11   -1    0    0    0    0  0.00000000000E+00  0.00000000000E+00  0.45593999997E+02  0.45594000000E+02  0.51100000000E-03 0.  1.
         11   -1    0    0    0    0 -0.00000000000E+00 -0.00000000000E+00 -0.45593999997E+02  0.45594000000E+02  0.51100000000E-03 0. -1.
    9900012    2    1    2    0    0 -0.37505488880E+00 -0.41826649743E+01 -0.43197081137E+02  0.47787272227E+02  0.20000005392E+02 0.  0.
        -12    1    1    2    0    0  0.37505488880E+00  0.41826649743E+01  0.43197081137E+02  0.43400727773E+02  0.00000000000E+00 0.  1.
         11    1    3    3    0    0  0.35155327811E+01  0.31615057612E+01 -0.30554425067E+02  0.30918068841E+02  0.51100000000E-03 0.  1.
        -11    1    3    3    0    0  0.90066367493E+00 -0.60647841856E+01 -0.79696551184E+01  0.10055257592E+02  0.51100000000E-03 0. -1.
        -12    1    3    3    0    0 -0.47912513448E+01 -0.12793865498E+01 -0.46730009520E+01  0.68139457945E+01  0.00000000000E+00 0.  1.
</event>
<event>
 7    1  0.3837332E-009  0.4778726E+02  0.7816164E-02  0.1312668E+00
        -11   -1    0    0    0    0  0.00000000000E+00  0.00000000000E+00  0.45593999997E+02  0.45594000000E+02  0.51100000000E-03 0. -1.
         11   -1    0    0    0    0 -0.00000000000E+00 -0.00000000000E+00 -0.45593999997E+02  0.45594000000E+02  0.51100000000E-03 0.  1.
    9900012    2    1    2    0    0 -0.10900921866E+02 -0.28460972634E+02  0.30899303234E+02  0.47787262666E+02  0.19999961798E+02 0.  0.
        -12    1    1    2    0    0  0.10900921866E+02  0.28460972634E+02 -0.30899303234E+02  0.43400737334E+02  0.00000000000E+00 0.  1.
         11    1    3    3    0    0 -0.11886134799E+01  0.20095529053E+01  0.25875817630E+01  0.34852093947E+01  0.51100000000E-03 0. -1.
        -11    1    3    3    0    0 -0.84868766238E+01 -0.88382972606E+01  0.12291250395E+02  0.17355616089E+02  0.51100000000E-03 0.  1.
        -12    1    3    3    0    0 -0.12254317623E+01 -0.21632228279E+02  0.16020471076E+02  0.26946437182E+02  0.00000000000E+00 0.  1.
</event>
<event>
 7    1  0.3837332E-009  0.4778727E+02  0.7816164E-02  0.1312668E+00
        -11   -1    0    0    0    0  0.00000000000E+00  0.00000000000E+00  0.45593999997E+02  0.45594000000E+02  0.51100000000E-03 0.  1.
         11   -1    0    0    0    0 -0.00000000000E+00 -0.00000000000E+00 -0.45593999997E+02  0.45594000000E+02  0.51100000000E-03 0. -1.
    9900012    2    1    2    0    0 -0.37722079268E+02  0.80272445449E+01 -0.19905565893E+02  0.47787268753E+02  0.19999989551E+02 0.  0.
        -12    1    1    2    0    0  0.37722079268E+02 -0.80272445449E+01  0.19905565893E+02  0.43400731247E+02  0.00000000000E+00 0.  1.
         11    1    3    3    0    0 -0.80186655457E+01 -0.35992621703E+01 -0.42838332243E+01  0.97777764680E+01  0.51100000000E-03 0. -1.
        -11    1    3    3    0    0 -0.18021491145E+02  0.53369194713E+01 -0.16078585305E+02  0.24734141550E+02  0.51100000000E-03 0.  1.
        -12    1    3    3    0    0 -0.11681922577E+02  0.62895872439E+01  0.45685263656E+00  0.13275350735E+02  0.00000000000E+00 0.  1.
</event>
<event>
 7    1  0.3837332E-009  0.4778727E+02  0.7816164E-02  0.1312668E+00
        -11   -1    0    0    0    0  0.00000000000E+00  0.00000000000E+00  0.45593999997E+02  0.45594000000E+02  0.51100000000E-03 0. -1.
         11   -1    0    0    0    0 -0.00000000000E+00 -0.00000000000E+00 -0.45593999997E+02  0.45594000000E+02  0.51100000000E-03 0.  1.
    9900012    2    1    2    0    0 -0.40902559983E+02 -0.14495226401E+02  0.70171078211E+00  0.47787269596E+02  0.19999993398E+02 0.  0.
        -12    1    1    2    0    0  0.40902559983E+02  0.14495226401E+02 -0.70171078211E+00  0.43400730404E+02  0.00000000000E+00 0.  1.
         11    1    3    3    0    0 -0.12331606499E+02 -0.33462920936E+01  0.13279792226E+01  0.12846389325E+02  0.51100000000E-03 0. -1.
        -11    1    3    3    0    0 -0.14630324851E+01  0.37325669894E+01 -0.19508635259E+00  0.40137986159E+01  0.51100000000E-03 0.  1.
         12    1    3    3    0    0 -0.27107920999E+02 -0.14881501296E+02 -0.43118208788E+00  0.30927081655E+02  0.00000000000E+00 0. -1.
</event>
<event>
 7    1  0.3837332E-009  0.4778727E+02  0.7816164E-02  0.1312668E+00
        -11   -1    0    0    0    0  0.00000000000E+00  0.00000000000E+00  0.45593999997E+02  0.45594000000E+02  0.51100000000E-03 0.  1.
         11   -1    0    0    0    0 -0.00000000000E+00 -0.00000000000E+00 -0.45593999997E+02  0.45594000000E+02  0.51100000000E-03 0. -1.
    9900012    2    1    2    0    0  0.14599036722E+02  0.31942259269E+02 -0.25498698994E+02  0.47787269006E+02  0.19999990705E+02 0.  0.
        -12    1    1    2    0    0 -0.14599036722E+02 -0.31942259269E+02  0.25498698994E+02  0.43400730994E+02  0.00000000000E+00 0.  1.
         11    1    3    3    0    0  0.66941742570E+01  0.11385236010E+02 -0.83366281605E-01  0.13207668916E+02  0.51100000000E-03 0. -1.
        -11    1    3    3    0    0  0.51503186764E+01  0.56765617424E+01 -0.49402376660E+01  0.91189409550E+01  0.51100000000E-03 0.  1.
        -12    1    3    3    0    0  0.27545437887E+01  0.14880461517E+02 -0.20475095046E+02  0.25460659135E+02  0.00000000000E+00 0.  1.
</event>
<event>
 7    1  0.3837332E-009  0.4778727E+02  0.7816164E-02  0.1312668E+00
        -11   -1    0    0    0    0  0.00000000000E+00  0.00000000000E+00  0.45593999997E+02  0.45594000000E+02  0.51100000000E-03 0. -1.
         11   -1    0    0    0    0 -0.00000000000E+00 -0.00000000000E+00 -0.45593999997E+02  0.45594000000E+02  0.51100000000E-03 0.  1.
    9900012    2    1    2    0    0 -0.12290234412E+02 -0.31925368557E+02  0.26708513733E+02  0.47787265845E+02  0.19999976293E+02 0.  0.
        -12    1    1    2    0    0  0.12290234412E+02  0.31925368557E+02 -0.26708513733E+02  0.43400734155E+02  0.00000000000E+00 0.  1.
         11    1    3    3    0    0 -0.77748048989E+01 -0.25402341503E+02  0.16560518158E+02  0.31304589232E+02  0.51100000000E-03 0. -1.
        -11    1    3    3    0    0  0.23073394985E+01 -0.27139151959E+01  0.73766773596E+01  0.81917348822E+01  0.51100000000E-03 0.  1.
         12    1    3    3    0    0 -0.68227690117E+01 -0.38091118581E+01  0.27713182151E+01  0.82909417309E+01  0.00000000000E+00 0. -1.
</event>
<event>
 7    1  0.3837332E-009  0.4778727E+02  0.7816164E-02  0.1312668E+00
        -11   -1    0    0    0    0  0.00000000000E+00  0.00000000000E+00  0.45593999997E+02  0.45594000000E+02  0.51100000000E-03 0.  1.
         11   -1    0    0    0    0 -0.00000000000E+00 -0.00000000000E+00 -0.45593999997E+02  0.45594000000E+02  0.51100000000E-03 0. -1.
    9900012    2    1    2    0    0  0.11017185343E+02  0.16652830270E+02 -0.38534769081E+02  0.47787267782E+02  0.19999985126E+02 0.  0.
        -12    1    1    2    0    0 -0.11017185343E+02 -0.16652830270E+02  0.38534769081E+02  0.43400732218E+02  0.00000000000E+00 0.  1.
         11    1    3    3    0    0  0.40796735315E+01  0.15209917088E+00 -0.17608557851E+00  0.40863035464E+01  0.51100000000E-03 0. -1.
        -11    1    3    3    0    0 -0.88608609490E-01  0.15468564383E+01  0.37194182688E+00  0.15934105906E+01  0.51100000000E-03 0.  1.
         12    1    3    3    0    0  0.70261204210E+01  0.14953874661E+02 -0.38730625330E+02  0.42107553645E+02  0.00000000000E+00 0. -1.
</event>
<event>
 7    1  0.3837332E-009  0.4778727E+02  0.7816164E-02  0.1312668E+00
        -11   -1    0    0    0    0  0.00000000000E+00  0.00000000000E+00  0.45593999997E+02  0.45594000000E+02  0.51100000000E-03 0.  1.
         11   -1    0    0    0    0 -0.00000000000E+00 -0.00000000000E+00 -0.45593999997E+02  0.45594000000E+02  0.51100000000E-03 0. -1.
    9900012    2    1    2    0    0 -0.28748604166E+02  0.12508043768E+02 -0.30011500892E+02  0.47787267446E+02  0.19999983594E+02 0.  0.
        -12    1    1    2    0    0  0.28748604166E+02 -0.12508043768E+02  0.30011500892E+02  0.43400732554E+02  0.00000000000E+00 0.  1.
         11    1    3    3    0    0 -0.14821094186E+01  0.60042609155E+01 -0.77927688835E+01  0.99486202361E+01  0.51100000000E-03 0. -1.
        -11    1    3    3    0    0 -0.39988737660E+01 -0.34799866915E+01 -0.35213590528E+01  0.63640607012E+01  0.51100000000E-03 0.  1.
         12    1    3    3    0    0 -0.23267620982E+02  0.99837695436E+01 -0.18697372956E+02  0.31474586509E+02  0.00000000000E+00 0. -1.
</event>
<event>
 7    1  0.3837332E-009  0.4778728E+02  0.7816164E-02  0.1312668E+00
        -11   -1    0    0    0    0  0.00000000000E+00  0.00000000000E+00  0.45593999997E+02  0.45594000000E+02  0.51100000000E-03 0.  1.
         11   -1    0    0    0    0 -0.00000000000E+00 -0.00000000000E+00 -0.45593999997E+02  0.45594000000E+02  0.51100000000E-03 0. -1.
    9900012    2    1    2    0    0 -0.42715883333E+02 -0.84787312407E-01 -0.76790900127E+01  0.47787282250E+02  0.20000051089E+02 0.  0.
        -12    1    1    2    0    0  0.42715883333E+02  0.84787312407E-01  0.76790900127E+01  0.43400717750E+02  0.00000000000E+00 0.  1.
         11    1    3    3    0    0 -0.71525749802E+01 -0.72116054747E+00 -0.25754656792E+01  0.76362572710E+01  0.51100000000E-03 0. -1.
        -11    1    3    3    0    0 -0.45859109208E+01  0.66048374561E+01  0.71222448585E+00  0.80722810144E+01  0.51100000000E-03 0.  1.
        -12    1    3    3    0    0 -0.30977397432E+02 -0.59684642210E+01 -0.58158488194E+01  0.32078743964E+02  0.00000000000E+00 0.  1.
</event>
<event>
 7    1  0.3837332E-009  0.4778727E+02  0.7816164E-02  0.1312668E+00
        -11   -1    0    0    0    0  0.00000000000E+00  0.00000000000E+00  0.45593999997E+02  0.45594000000E+02  0.51100000000E-03 0.  1.
         11   -1    0    0    0    0 -0.00000000000E+00 -0.00000000000E+00 -0.45593999997E+02  0.45594000000E+02  0.51100000000E-03 0. -1.
    9900012    2    1    2    0    0  0.20257814865E+02  0.33203796286E+02 -0.19254921498E+02  0.47787272439E+02  0.20000006358E+02 0.  0.
        -12    1    1    2    0    0 -0.20257814865E+02 -0.33203796286E+02  0.19254921498E+02  0.43400727561E+02  0.00000000000E+00 0.  1.
         11    1    3    3    0    0  0.11703108733E+02  0.20033773644E+02 -0.12800971201E+02  0.26498673634E+02  0.51100000000E-03 0. -1.
        -11    1    3    3    0    0  0.11745068171E+02  0.80171699893E+01 -0.42935846915E+01  0.14854511461E+02  0.51100000000E-03 0.  1.
         12    1    3    3    0    0 -0.31903620383E+01  0.51528526533E+01 -0.21603656062E+01  0.64340873443E+01  0.00000000000E+00 0. -1.
</event>
<event>
 7    1  0.3837332E-009  0.4778726E+02  0.7816164E-02  0.1312668E+00
        -11   -1    0    0    0    0  0.00000000000E+00  0.00000000000E+00  0.45593999997E+02  0.45594000000E+02  0.51100000000E-03 0.  1.
         11   -1    0    0    0    0 -0.00000000000E+00 -0.00000000000E+00 -0.45593999997E+02  0.45594000000E+02  0.51100000000E-03 0. -1.
    9900012    2    1    2    0    0 -0.18231282752E+02 -0.12445303299E+02 -0.37367881598E+02  0.47787264751E+02  0.19999971307E+02 0.  0.
        -12    1    1    2    0    0  0.18231282752E+02  0.12445303299E+02  0.37367881598E+02  0.43400735249E+02  0.00000000000E+00 0.  1.
         11    1    3    3    0    0 -0.29183326950E+00 -0.69731509792E+01 -0.11038089711E+02  0.13059457338E+02  0.51100000000E-03 0. -1.
        -11    1    3    3    0    0 -0.90799114818E+01 -0.90750150842E+01 -0.12538822255E+02  0.17944992480E+02  0.51100000000E-03 0.  1.
        -12    1    3    3    0    0 -0.88595380011E+01  0.36028627644E+01 -0.13790969632E+02  0.16782814933E+02  0.00000000000E+00 0.  1.
</event>
<event>
 7    1  0.3837332E-009  0.4778725E+02  0.7816164E-02  0.1312668E+00
        -11   -1    0    0    0    0  0.00000000000E+00  0.00000000000E+00  0.45593999997E+02  0.45594000000E+02  0.51100000000E-03 0.  1.
         11   -1    0    0    0    0 -0.00000000000E+00 -0.00000000000E+00 -0.45593999997E+02  0.45594000000E+02  0.51100000000E-03 0. -1.
    9900012    2    1    2    0    0 -0.63379275005E+01  0.42935469941E+02  0.28612687847E-01  0.47787254353E+02  0.19999923896E+02 0.  0.
        -12    1    1    2    0    0  0.63379275005E+01 -0.42935469941E+02 -0.28612687847E-01  0.43400745647E+02  0.00000000000E+00 0.  1.
         11    1    3    3    0    0 -0.34213003957E+01  0.29346993144E+01  0.16529421704E+01  0.48010389025E+01  0.51100000000E-03 0. -1.
        -11    1    3    3    0    0 -0.49197820711E+01  0.18023867919E+02 -0.75269137211E+01  0.20142455184E+02  0.51100000000E-03 0.  1.
         12    1    3    3    0    0  0.20031549663E+01  0.21976902707E+02  0.59025842385E+01  0.22843760266E+02  0.00000000000E+00 0. -1.
</event>
<event>
 7    1  0.3837332E-009  0.4778727E+02  0.7816164E-02  0.1312668E+00
        -11   -1    0    0    0    0  0.00000000000E+00  0.00000000000E+00  0.45593999997E+02  0.45594000000E+02  0.51100000000E-03 0.  1.
         11   -1    0    0    0    0 -0.00000000000E+00 -0.00000000000E+00 -0.45593999997E+02  0.45594000000E+02  0.51100000000E-03 0. -1.
    9900012    2    1    2    0    0 -0.30429450790E+02 -0.24886584495E+02 -0.18393732670E+02  0.47787274606E+02  0.20000016238E+02 0.  0.
        -12    1    1    2    0    0  0.30429450790E+02  0.24886584495E+02  0.18393732670E+02  0.43400725394E+02  0.00000000000E+00 0.  1.
         11    1    3    3    0    0 -0.74188994669E+01 -0.13832565808E+02 -0.89316068507E+01  0.18059721685E+02  0.51100000000E-03 0. -1.
        -11    1    3    3    0    0 -0.12898568745E+02 -0.79073798557E+01 -0.11422804949E+02  0.18957325893E+02  0.51100000000E-03 0.  1.
        -12    1    3    3    0    0 -0.10111982579E+02 -0.31466388311E+01  0.19606791289E+01  0.10770227029E+02  0.00000000000E+00 0.  1.
</event>
<event>
 7    1  0.3837332E-009  0.4778727E+02  0.7816164E-02  0.1312668E+00
        -11   -1    0    0    0    0  0.00000000000E+00  0.00000000000E+00  0.45593999997E+02  0.45594000000E+02  0.51100000000E-03 0.  1.
         11   -1    0    0    0    0 -0.00000000000E+00 -0.00000000000E+00 -0.45593999997E+02  0.45594000000E+02  0.51100000000E-03 0. -1.
    9900012    2    1    2    0    0 -0.22263356930E+02  0.12242164235E+02 -0.35186583742E+02  0.47787270485E+02  0.19999997452E+02 0.  0.
        -12    1    1    2    0    0  0.22263356930E+02 -0.12242164235E+02  0.35186583742E+02  0.43400729515E+02  0.00000000000E+00 0.  1.
         11    1    3    3    0    0  0.14720038685E+00  0.61310668433E+01 -0.12754878509E+02  0.14152687894E+02  0.51100000000E-03 0. -1.
        -11    1    3    3    0    0  0.12443283243E+00 -0.25877247070E+00  0.67648119921E+00  0.73489713252E+00  0.51100000000E-03 0.  1.
        -12    1    3    3    0    0 -0.22534990150E+02  0.63698698626E+01 -0.23108186432E+02  0.32899685459E+02  0.00000000000E+00 0.  1.
</event>
<event>
 7    1  0.3837332E-009  0.4778727E+02  0.7816164E-02  0.1312668E+00
        -11   -1    0    0    0    0  0.00000000000E+00  0.00000000000E+00  0.45593999997E+02  0.45594000000E+02  0.51100000000E-03 0. -1.
         11   -1    0    0    0    0 -0.00000000000E+00 -0.00000000000E+00 -0.45593999997E+02  0.45594000000E+02  0.51100000000E-03 0.  1.
    9900012    2    1    2    0    0 -0.74448205968E+01  0.39401902960E+02  0.16603857563E+02  0.47787269631E+02  0.19999993558E+02 0.  0.
        -12    1    1    2    0    0  0.74448205968E+01 -0.39401902960E+02 -0.16603857563E+02  0.43400730369E+02  0.00000000000E+00 0.  1.
         11    1    3    3    0    0  0.21296057973E+00 -0.57169901378E+00 -0.19472023973E+00  0.64039691111E+00  0.51100000000E-03 0.  1.
        -11    1    3    3    0    0  0.51667059130E+01  0.13304900157E+02  0.34525206653E+01  0.14684519651E+02  0.51100000000E-03 0. -1.
         12    1    3    3    0    0 -0.12824487089E+02  0.26668701817E+02  0.13346057137E+02  0.32462353069E+02  0.00000000000E+00 0. -1.
</event>
<event>
 7    1  0.3837332E-009  0.4778728E+02  0.7816164E-02  0.1312668E+00
        -11   -1    0    0    0    0  0.00000000000E+00  0.00000000000E+00  0.45593999997E+02  0.45594000000E+02  0.51100000000E-03 0. -1.
         11   -1    0    0    0    0 -0.00000000000E+00 -0.00000000000E+00 -0.45593999997E+02  0.45594000000E+02  0.51100000000E-03 0.  1.
    9900012    2    1    2    0    0  0.15955399788E+02  0.16714731690E+02  0.36737792495E+02  0.47787280706E+02  0.20000044049E+02 0.  0.
        -12    1    1    2    0    0 -0.15955399788E+02 -0.16714731690E+02 -0.36737792495E+02  0.43400719294E+02  0.00000000000E+00 0.  1.
         11    1    3    3    0    0  0.11743623226E+01 -0.92541217349E+00  0.13148480821E+01  0.19910651159E+01  0.51100000000E-03 0. -1.
        -11    1    3    3    0    0  0.18678866555E+01  0.14578845642E+02  0.12435069167E+02  0.19252602065E+02  0.51100000000E-03 0.  1.
        -12    1    3    3    0    0  0.12913150810E+02  0.30612982215E+01  0.22987875246E+02  0.26543613525E+02  0.00000000000E+00 0.  1.
</event>
<event>
 7    1  0.3837332E-009  0.4778727E+02  0.7816164E-02  0.1312668E+00
        -11   -1    0    0    0    0  0.00000000000E+00  0.00000000000E+00  0.45593999997E+02  0.45594000000E+02  0.51100000000E-03 0. -1.
         11   -1    0    0    0    0 -0.00000000000E+00 -0.00000000000E+00 -0.45593999997E+02  0.45594000000E+02  0.51100000000E-03 0.  1.
    9900012    2    1    2    0    0 -0.40063962981E+02 -0.10249900598E+02 -0.13169731938E+02  0.47787269230E+02  0.19999991729E+02 0.  0.
        -12    1    1    2    0    0  0.40063962981E+02  0.10249900598E+02  0.13169731938E+02  0.43400730770E+02  0.00000000000E+00 0.  1.
         11    1    3    3    0    0 -0.11468256884E+01  0.22422901076E+01 -0.23173208997E+01  0.34224334178E+01  0.51100000000E-03 0. -1.
        -11    1    3    3    0    0 -0.30113181484E+01 -0.39345984338E+01  0.19087451313E+01  0.53096525370E+01  0.51100000000E-03 0.  1.
         12    1    3    3    0    0 -0.35905819144E+02 -0.85575922713E+01 -0.12761156170E+02  0.39055183276E+02  0.00000000000E+00 0. -1.
</event>
<event>
 7    1  0.3837332E-009  0.4778728E+02  0.7816164E-02  0.1312668E+00
        -11   -1    0    0    0    0  0.00000000000E+00  0.00000000000E+00  0.45593999997E+02  0.45594000000E+02  0.51100000000E-03 0. -1.
         11   -1    0    0    0    0 -0.00000000000E+00 -0.00000000000E+00 -0.45593999997E+02  0.45594000000E+02  0.51100000000E-03 0.  1.
    9900012    2    1    2    0    0 -0.38838771654E+02  0.13916315846E+02  0.13472523414E+02  0.47787275151E+02  0.20000018723E+02 0.  0.
        -12    1    1    2    0    0  0.38838771654E+02 -0.13916315846E+02 -0.13472523414E+02  0.43400724849E+02  0.00000000000E+00 0.  1.
         11    1    3    3    0    0 -0.62992486136E+01  0.55372939696E+01 -0.35386085278E+01  0.91029615058E+01  0.51100000000E-03 0.  1.
        -11    1    3    3    0    0 -0.15117727653E+02  0.38188311372E+01  0.30271144475E+01  0.15883720684E+02  0.51100000000E-03 0. -1.
        -12    1    3    3    0    0 -0.17421795387E+02  0.45601907395E+01  0.13984017494E+02  0.22800592961E+02  0.00000000000E+00 0.  1.
</event>
<event>
 7    1  0.3837332E-009  0.4778727E+02  0.7816164E-02  0.1312668E+00
        -11   -1    0    0    0    0  0.00000000000E+00  0.00000000000E+00  0.45593999997E+02  0.45594000000E+02  0.51100000000E-03 0.  1.
         11   -1    0    0    0    0 -0.00000000000E+00 -0.00000000000E+00 -0.45593999997E+02  0.45594000000E+02  0.51100000000E-03 0. -1.
    9900012    2    1    2    0    0  0.42654551700E+02  0.13509857355E+01 -0.78985445135E+01  0.47787274791E+02  0.20000017083E+02 0.  0.
        -12    1    1    2    0    0 -0.42654551700E+02 -0.13509857355E+01  0.78985445135E+01  0.43400725209E+02  0.00000000000E+00 0.  1.
         11    1    3    3    0    0  0.40818292034E+01 -0.42424283289E+01 -0.24327873710E+01  0.63700849621E+01  0.51100000000E-03 0. -1.
        -11    1    3    3    0    0  0.37415301040E+01  0.49339932642E+01 -0.13481637144E+01  0.63372614521E+01  0.51100000000E-03 0.  1.
         12    1    3    3    0    0  0.34831192393E+02  0.65942080023E+00 -0.41175934281E+01  0.35079928377E+02  0.00000000000E+00 0. -1.
</event>
<event>
 7    1  0.3837332E-009  0.4778728E+02  0.7816164E-02  0.1312668E+00
        -11   -1    0    0    0    0  0.00000000000E+00  0.00000000000E+00  0.45593999997E+02  0.45594000000E+02  0.51100000000E-03 0.  1.
         11   -1    0    0    0    0 -0.00000000000E+00 -0.00000000000E+00 -0.45593999997E+02  0.45594000000E+02  0.51100000000E-03 0. -1.
    9900012    2    1    2    0    0  0.35471524146E+02  0.14340792569E+02 -0.20487447428E+02  0.47787275826E+02  0.20000021799E+02 0.  0.
        -12    1    1    2    0    0 -0.35471524146E+02 -0.14340792569E+02  0.20487447428E+02  0.43400724174E+02  0.00000000000E+00 0.  1.
         11    1    3    3    0    0  0.93617492548E+01  0.59180066893E+01 -0.15894416853E+02  0.19372600229E+02  0.51100000000E-03 0. -1.
        -11    1    3    3    0    0  0.79817005948E+01 -0.10289109074E-01 -0.21933615022E+01  0.82775893345E+01  0.51100000000E-03 0.  1.
        -12    1    3    3    0    0  0.18128074296E+02  0.84330749891E+01 -0.23996690730E+01  0.20137086262E+02  0.00000000000E+00 0.  1.
</event>
<event>
 7    1  0.3837332E-009  0.4778727E+02  0.7816164E-02  0.1312668E+00
        -11   -1    0    0    0    0  0.00000000000E+00  0.00000000000E+00  0.45593999997E+02  0.45594000000E+02  0.51100000000E-03 0.  1.
         11   -1    0    0    0    0 -0.00000000000E+00 -0.00000000000E+00 -0.45593999997E+02  0.45594000000E+02  0.51100000000E-03 0. -1.
    9900012    2    1    2    0    0 -0.37856990392E+01 -0.43004279189E+02  0.44635873693E+01  0.47787272379E+02  0.20000006087E+02 0.  0.
        -12    1    1    2    0    0  0.37856990392E+01  0.43004279189E+02 -0.44635873693E+01  0.43400727621E+02  0.00000000000E+00 0.  1.
         11    1    3    3    0    0  0.14893148967E+01 -0.12366995450E+02  0.12566569086E+01  0.12519577555E+02  0.51100000000E-03 0. -1.
        -11    1    3    3    0    0  0.18178862844E+01 -0.47510612624E+00 -0.31212341389E+01  0.36431496244E+01  0.51100000000E-03 0.  1.
        -12    1    3    3    0    0 -0.70929002203E+01 -0.30162177613E+02  0.63281645996E+01  0.31624545200E+02  0.00000000000E+00 0.  1.
</event>
<event>
 7    1  0.3837332E-009  0.4778727E+02  0.7816164E-02  0.1312668E+00
        -11   -1    0    0    0    0  0.00000000000E+00  0.00000000000E+00  0.45593999997E+02  0.45594000000E+02  0.51100000000E-03 0. -1.
         11   -1    0    0    0    0 -0.00000000000E+00 -0.00000000000E+00 -0.45593999997E+02  0.45594000000E+02  0.51100000000E-03 0.  1.
    9900012    2    1    2    0    0  0.18489337467E+02 -0.30680879681E+02  0.24504107888E+02  0.47787270958E+02  0.19999999606E+02 0.  0.
        -12    1    1    2    0    0 -0.18489337467E+02  0.30680879681E+02 -0.24504107888E+02  0.43400729042E+02  0.00000000000E+00 0.  1.
         11    1    3    3    0    0  0.12156250870E+02 -0.14664394240E+02  0.79635809936E+01  0.20645520486E+02  0.51100000000E-03 0. -1.
        -11    1    3    3    0    0  0.99531669620E+01 -0.10323988826E+02  0.85963066992E+01  0.16719652119E+02  0.51100000000E-03 0.  1.
        -12    1    3    3    0    0 -0.36200803651E+01 -0.56924966151E+01  0.79442201952E+01  0.10422098353E+02  0.00000000000E+00 0.  1.
</event>
<event>
 7    1  0.3837332E-009  0.4778727E+02  0.7816164E-02  0.1312668E+00
        -11   -1    0    0    0    0  0.00000000000E+00  0.00000000000E+00  0.45593999997E+02  0.45594000000E+02  0.51100000000E-03 0.  1.
         11   -1    0    0    0    0 -0.00000000000E+00 -0.00000000000E+00 -0.45593999997E+02  0.45594000000E+02  0.51100000000E-03 0. -1.
    9900012    2    1    2    0    0 -0.42926532220E+02  0.23782435641E+00 -0.63937313229E+01  0.47787268104E+02  0.19999986594E+02 0.  0.
        -12    1    1    2    0    0  0.42926532220E+02 -0.23782435641E+00  0.63937313229E+01  0.43400731896E+02  0.00000000000E+00 0.  1.
         11    1    3    3    0    0 -0.18554016475E+02 -0.48387441787E+00 -0.47170104990E+01  0.19150348564E+02  0.51100000000E-03 0. -1.
        -11    1    3    3    0    0 -0.21863701960E+02 -0.19231982439E+01 -0.62194502773E+01  0.22812315028E+02  0.51100000000E-03 0.  1.
        -12    1    3    3    0    0 -0.25088137846E+01  0.26448970182E+01  0.45427294534E+01  0.58246045127E+01  0.00000000000E+00 0.  1.
</event>
<event>
 7    1  0.3837332E-009  0.4778727E+02  0.7816164E-02  0.1312668E+00
        -11   -1    0    0    0    0  0.00000000000E+00  0.00000000000E+00  0.45593999997E+02  0.45594000000E+02  0.51100000000E-03 0.  1.
         11   -1    0    0    0    0 -0.00000000000E+00 -0.00000000000E+00 -0.45593999997E+02  0.45594000000E+02  0.51100000000E-03 0. -1.
    9900012    2    1    2    0    0 -0.32796410218E+02 -0.22396408410E+02 -0.17504851271E+02  0.47787269006E+02  0.19999990704E+02 0.  0.
        -12    1    1    2    0    0  0.32796410218E+02  0.22396408410E+02  0.17504851271E+02  0.43400730994E+02  0.00000000000E+00 0.  1.
         11    1    3    3    0    0  0.56691595917E+00 -0.30733107313E+01 -0.27104351098E+01  0.41367972276E+01  0.51100000000E-03 0.  1.
        -11    1    3    3    0    0 -0.69926480788E+01  0.18296857720E+01 -0.19496512288E+01  0.74863888059E+01  0.51100000000E-03 0. -1.
         12    1    3    3    0    0 -0.26370678098E+02 -0.21152783450E+02 -0.12844764933E+02  0.36164082972E+02  0.00000000000E+00 0. -1.
</event>
<event>
 7    1  0.3837332E-009  0.4778727E+02  0.7816164E-02  0.1312668E+00
        -11   -1    0    0    0    0  0.00000000000E+00  0.00000000000E+00  0.45593999997E+02  0.45594000000E+02  0.51100000000E-03 0.  1.
         11   -1    0    0    0    0 -0.00000000000E+00 -0.00000000000E+00 -0.45593999997E+02  0.45594000000E+02  0.51100000000E-03 0. -1.
    9900012    2    1    2    0    0  0.29514649939E+02  0.31605954482E+02  0.36840655456E+01  0.47787271220E+02  0.20000000799E+02 0.  0.
        -12    1    1    2    0    0 -0.29514649939E+02 -0.31605954482E+02 -0.36840655456E+01  0.43400728780E+02  0.00000000000E+00 0.  1.
         11    1    3    3    0    0  0.11347189782E+02  0.77676536181E+01 -0.17934949342E+01  0.13867652398E+02  0.51100000000E-03 0. -1.
        -11    1    3    3    0    0  0.20169090028E+02  0.23833096717E+02  0.61226650227E+01  0.31816595024E+02  0.51100000000E-03 0.  1.
        -12    1    3    3    0    0 -0.20016298711E+01  0.52041466120E-02 -0.64510454293E+00  0.21030237981E+01  0.00000000000E+00 0.  1.
</event>
<event>
 7    1  0.4316108E-009  0.4778728E+02  0.7816164E-02  0.1312668E+00
        -11   -1    0    0    0    0  0.00000000000E+00  0.00000000000E+00  0.45593999997E+02  0.45594000000E+02  0.51100000000E-03 0. -1.
         11   -1    0    0    0    0 -0.00000000000E+00 -0.00000000000E+00 -0.45593999997E+02  0.45594000000E+02  0.51100000000E-03 0.  1.
    9900012    2    1    2    0    0  0.32875711285E+02 -0.18860457886E+02 -0.21144589174E+02  0.47787275174E+02  0.20000018826E+02 0.  0.
        -12    1    1    2    0    0 -0.32875711285E+02  0.18860457886E+02  0.21144589174E+02  0.43400724826E+02  0.00000000000E+00 0.  1.
         11    1    3    3    0    0  0.15228231694E+02 -0.50449422309E+01 -0.47421100945E+01  0.16728361876E+02  0.51100000000E-03 0. -1.
        -11    1    3    3    0    0  0.15174758709E+02 -0.58051967439E+01 -0.15785518308E+02  0.22652951235E+02  0.51100000000E-03 0.  1.
        -12    1    3    3    0    0  0.24727208814E+01 -0.80103189108E+01 -0.61696077106E+00  0.84059620630E+01  0.00000000000E+00 0.  1.
</event>
<event>
 7    1  0.3837332E-009  0.4778727E+02  0.7816164E-02  0.1312668E+00
        -11   -1    0    0    0    0  0.00000000000E+00  0.00000000000E+00  0.45593999997E+02  0.45594000000E+02  0.51100000000E-03 0.  1.
         11   -1    0    0    0    0 -0.00000000000E+00 -0.00000000000E+00 -0.45593999997E+02  0.45594000000E+02  0.51100000000E-03 0. -1.
    9900012    2    1    2    0    0 -0.13596442624E+02 -0.16521796353E+02  0.37759636599E+02  0.47787272323E+02  0.20000005829E+02 0.  0.
        -12    1    1    2    0    0  0.13596442624E+02  0.16521796353E+02 -0.37759636599E+02  0.43400727677E+02  0.00000000000E+00 0.  1.
         11    1    3    3    0    0 -0.58846969158E+01 -0.99904531766E+01  0.15258366118E+02  0.19163938774E+02  0.51100000000E-03 0. -1.
        -11    1    3    3    0    0 -0.65121589352E+01 -0.10908947318E+02  0.19150058844E+02  0.22981255396E+02  0.51100000000E-03 0.  1.
         12    1    3    3    0    0 -0.11995867735E+01  0.43776041417E+01  0.33512116373E+01  0.56420781532E+01  0.00000000000E+00 0. -1.
</event>
<event>
 7    1  0.3837332E-009  0.4778727E+02  0.7816164E-02  0.1312668E+00
        -11   -1    0    0    0    0  0.00000000000E+00  0.00000000000E+00  0.45593999997E+02  0.45594000000E+02  0.51100000000E-03 0. -1.
         11   -1    0    0    0    0 -0.00000000000E+00 -0.00000000000E+00 -0.45593999997E+02  0.45594000000E+02  0.51100000000E-03 0.  1.
    9900012    2    1    2    0    0  0.22846297694E+02 -0.29086728691E+02  0.22707535338E+02  0.47787271142E+02  0.20000000444E+02 0.  0.
        -12    1    1    2    0    0 -0.22846297694E+02  0.29086728691E+02 -0.22707535338E+02  0.43400728858E+02  0.00000000000E+00 0.  1.
         11    1    3    3    0    0  0.19043502441E+02 -0.17303114665E+02  0.16580005922E+02  0.30609628534E+02  0.51100000000E-03 0. -1.
        -11    1    3    3    0    0  0.63829146536E+01 -0.82475930692E+01  0.71974305242E+01  0.12671519140E+02  0.51100000000E-03 0.  1.
        -12    1    3    3    0    0 -0.25801194003E+01 -0.35360209567E+01 -0.10699011082E+01  0.45061234678E+01  0.00000000000E+00 0.  1.
</event>
<event>
 7    1  0.3837332E-009  0.4778726E+02  0.7816164E-02  0.1312668E+00
        -11   -1    0    0    0    0  0.00000000000E+00  0.00000000000E+00  0.45593999997E+02  0.45594000000E+02  0.51100000000E-03 0. -1.
         11   -1    0    0    0    0 -0.00000000000E+00 -0.00000000000E+00 -0.45593999997E+02  0.45594000000E+02  0.51100000000E-03 0.  1.
    9900012    2    1    2    0    0 -0.32118097066E+02  0.28310890650E+02  0.71095586802E+01  0.47787256767E+02  0.19999934903E+02 0.  0.
        -12    1    1    2    0    0  0.32118097066E+02 -0.28310890650E+02 -0.71095586802E+01  0.43400743233E+02  0.00000000000E+00 0.  1.
         11    1    3    3    0    0 -0.21030510045E+02  0.18957726787E+02  0.51764871589E+01  0.28783220412E+02  0.51100000000E-03 0. -1.
        -11    1    3    3    0    0 -0.67961151386E+01  0.37463245003E+01  0.68895872059E+01  0.10377308917E+02  0.51100000000E-03 0.  1.
         12    1    3    3    0    0 -0.42914718823E+01  0.56068393626E+01 -0.49565156846E+01  0.86267274378E+01  0.00000000000E+00 0. -1.
</event>
<event>
 7    1  0.3837332E-009  0.4778727E+02  0.7816164E-02  0.1312668E+00
        -11   -1    0    0    0    0  0.00000000000E+00  0.00000000000E+00  0.45593999997E+02  0.45594000000E+02  0.51100000000E-03 0.  1.
         11   -1    0    0    0    0 -0.00000000000E+00 -0.00000000000E+00 -0.45593999997E+02  0.45594000000E+02  0.51100000000E-03 0. -1.
    9900012    2    1    2    0    0  0.23717275510E+02  0.11907639039E+02 -0.34341262459E+02  0.47787270370E+02  0.19999996925E+02 0.  0.
        -12    1    1    2    0    0 -0.23717275510E+02 -0.11907639039E+02  0.34341262459E+02  0.43400729630E+02  0.00000000000E+00 0.  1.
         11    1    3    3    0    0 -0.16409116485E+01  0.10928388677E+01 -0.40968725554E+01  0.45465649479E+01  0.51100000000E-03 0. -1.
        -11    1    3    3    0    0  0.80529818589E+01 -0.27835853840E+01 -0.55832110553E+01  0.10186810608E+02  0.51100000000E-03 0.  1.
         12    1    3    3    0    0  0.17305205300E+02  0.13598385555E+02 -0.24661178849E+02  0.33053894814E+02  0.00000000000E+00 0. -1.
</event>
<event>
 7    1  0.3837332E-009  0.4778727E+02  0.7816164E-02  0.1312668E+00
        -11   -1    0    0    0    0  0.00000000000E+00  0.00000000000E+00  0.45593999997E+02  0.45594000000E+02  0.51100000000E-03 0.  1.
         11   -1    0    0    0    0 -0.00000000000E+00 -0.00000000000E+00 -0.45593999997E+02  0.45594000000E+02  0.51100000000E-03 0. -1.
    9900012    2    1    2    0    0 -0.38516331861E+02 -0.33351835176E+01 -0.19722881263E+02  0.47787270577E+02  0.19999997871E+02 0.  0.
        -12    1    1    2    0    0  0.38516331861E+02  0.33351835176E+01  0.19722881263E+02  0.43400729423E+02  0.00000000000E+00 0.  1.
         11    1    3    3    0    0 -0.35871854541E+01 -0.20705798579E+01 -0.62348652710E+01  0.74852351759E+01  0.51100000000E-03 0. -1.
        -11    1    3    3    0    0 -0.54457433560E+01 -0.22229547129E+01 -0.85723596240E+01  0.10396297328E+02  0.51100000000E-03 0.  1.
         12    1    3    3    0    0 -0.29483403050E+02  0.95835105320E+00 -0.49156563681E+01  0.29905738073E+02  0.00000000000E+00 0. -1.
</event>
<event>
 7    1  0.3837332E-009  0.4778727E+02  0.7816164E-02  0.1312668E+00
        -11   -1    0    0    0    0  0.00000000000E+00  0.00000000000E+00  0.45593999997E+02  0.45594000000E+02  0.51100000000E-03 0. -1.
         11   -1    0    0    0    0 -0.00000000000E+00 -0.00000000000E+00 -0.45593999997E+02  0.45594000000E+02  0.51100000000E-03 0.  1.
    9900012    2    1    2    0    0  0.27778534887E+02 -0.32092309072E+02 -0.90586963181E+01  0.47787270962E+02  0.19999999624E+02 0.  0.
        -12    1    1    2    0    0 -0.27778534887E+02  0.32092309072E+02  0.90586963181E+01  0.43400729038E+02  0.00000000000E+00 0.  1.
         11    1    3    3    0    0  0.24072218906E+02 -0.14558263074E+02 -0.14508172345E+01  0.28169480253E+02  0.51100000000E-03 0. -1.
        -11    1    3    3    0    0  0.19464964176E+01 -0.41763155705E+01 -0.18211489906E+01  0.49544973464E+01  0.51100000000E-03 0.  1.
         12    1    3    3    0    0  0.17598195631E+01 -0.13357730428E+02 -0.57867300930E+01  0.14663293363E+02  0.00000000000E+00 0. -1.
</event>
<event>
 7    1  0.3837332E-009  0.4778726E+02  0.7816164E-02  0.1312668E+00
        -11   -1    0    0    0    0  0.00000000000E+00  0.00000000000E+00  0.45593999997E+02  0.45594000000E+02  0.51100000000E-03 0.  1.
         11   -1    0    0    0    0 -0.00000000000E+00 -0.00000000000E+00 -0.45593999997E+02  0.45594000000E+02  0.51100000000E-03 0. -1.
    9900012    2    1    2    0    0 -0.22061841376E+02 -0.31288689088E+02 -0.20443016799E+02  0.47787264458E+02  0.19999969970E+02 0.  0.
        -12    1    1    2    0    0  0.22061841376E+02  0.31288689088E+02  0.20443016799E+02  0.43400735542E+02  0.00000000000E+00 0.  1.
         11    1    3    3    0    0 -0.78551137067E+01 -0.16340542267E+02 -0.84203021291E+01  0.19990438243E+02  0.51100000000E-03 0. -1.
        -11    1    3    3    0    0 -0.63330298603E+01 -0.14805331062E+02 -0.11719280994E+02  0.19915989615E+02  0.51100000000E-03 0.  1.
        -12    1    3    3    0    0 -0.78736978087E+01 -0.14281575857E+00 -0.30343367645E+00  0.78808366002E+01  0.00000000000E+00 0.  1.
</event>
<event>
 7    1  0.3837332E-009  0.4778727E+02  0.7816164E-02  0.1312668E+00
        -11   -1    0    0    0    0  0.00000000000E+00  0.00000000000E+00  0.45593999997E+02  0.45594000000E+02  0.51100000000E-03 0.  1.
         11   -1    0    0    0    0 -0.00000000000E+00 -0.00000000000E+00 -0.45593999997E+02  0.45594000000E+02  0.51100000000E-03 0. -1.
    9900012    2    1    2    0    0 -0.38266296531E+02 -0.32655743962E+01 -0.20215092936E+02  0.47787269491E+02  0.19999992916E+02 0.  0.
        -12    1    1    2    0    0  0.38266296531E+02  0.32655743962E+01  0.20215092936E+02  0.43400730509E+02  0.00000000000E+00 0.  1.
         11    1    3    3    0    0 -0.23140919232E+02 -0.17630656318E+00 -0.10744182394E+02  0.25514127116E+02  0.51100000000E-03 0. -1.
        -11    1    3    3    0    0 -0.43896061630E+00  0.34568463308E+01 -0.39620176251E+01  0.52763677753E+01  0.51100000000E-03 0.  1.
         12    1    3    3    0    0 -0.14686416682E+02 -0.65461141639E+01 -0.55088929176E+01  0.16996774599E+02  0.00000000000E+00 0. -1.
</event>
<event>
 7    1  0.3837332E-009  0.4778727E+02  0.7816164E-02  0.1312668E+00
        -11   -1    0    0    0    0  0.00000000000E+00  0.00000000000E+00  0.45593999997E+02  0.45594000000E+02  0.51100000000E-03 0.  1.
         11   -1    0    0    0    0 -0.00000000000E+00 -0.00000000000E+00 -0.45593999997E+02  0.45594000000E+02  0.51100000000E-03 0. -1.
    9900012    2    1    2    0    0  0.13370641838E+02  0.32134629350E+02 -0.25927101775E+02  0.47787273358E+02  0.20000010547E+02 0.  0.
        -12    1    1    2    0    0 -0.13370641838E+02 -0.32134629350E+02  0.25927101775E+02  0.43400726642E+02  0.00000000000E+00 0.  1.
         11    1    3    3    0    0 -0.25102882047E+01  0.17659733621E+01 -0.39430048052E+01  0.49967485369E+01  0.51100000000E-03 0. -1.
        -11    1    3    3    0    0 -0.17951582991E+01  0.23062030645E+01  0.13518638507E+00  0.29256523227E+01  0.51100000000E-03 0.  1.
         12    1    3    3    0    0  0.17676088342E+02  0.28062452924E+02 -0.22119283354E+02  0.39864872498E+02  0.00000000000E+00 0. -1.
</event>
<event>
 7    1  0.3837332E-009  0.4778728E+02  0.7816164E-02  0.1312668E+00
        -11   -1    0    0    0    0  0.00000000000E+00  0.00000000000E+00  0.45593999997E+02  0.45594000000E+02  0.51100000000E-03 0. -1.
         11   -1    0    0    0    0 -0.00000000000E+00 -0.00000000000E+00 -0.45593999997E+02  0.45594000000E+02  0.51100000000E-03 0.  1.
    9900012    2    1    2    0    0  0.28228502270E+02 -0.28853502298E+02 -0.15945194419E+02  0.47787283874E+02  0.20000058493E+02 0.  0.
        -12    1    1    2    0    0 -0.28228502270E+02  0.28853502298E+02  0.15945194419E+02  0.43400716126E+02  0.00000000000E+00 0.  1.
         11    1    3    3    0    0  0.16232546471E+02 -0.20705527034E+02 -0.72224263765E+01  0.27283288983E+02  0.51100000000E-03 0. -1.
        -11    1    3    3    0    0  0.13889323571E+02 -0.64215901788E+01 -0.52276848933E+01  0.16170306716E+02  0.51100000000E-03 0.  1.
        -12    1    3    3    0    0 -0.18933677716E+01 -0.17263850846E+01 -0.34950831493E+01  0.43336881751E+01  0.00000000000E+00 0.  1.
</event>
<event>
 7    1  0.3837332E-009  0.4778727E+02  0.7816164E-02  0.1312668E+00
        -11   -1    0    0    0    0  0.00000000000E+00  0.00000000000E+00  0.45593999997E+02  0.45594000000E+02  0.51100000000E-03 0. -1.
         11   -1    0    0    0    0 -0.00000000000E+00 -0.00000000000E+00 -0.45593999997E+02  0.45594000000E+02  0.51100000000E-03 0.  1.
    9900012    2    1    2    0    0  0.10775439986E+02  0.34173274327E+02  0.24488780013E+02  0.47787272683E+02  0.20000007470E+02 0.  0.
        -12    1    1    2    0    0 -0.10775439986E+02 -0.34173274327E+02 -0.24488780013E+02  0.43400727317E+02  0.00000000000E+00 0.  1.
         11    1    3    3    0    0  0.20245274011E+01  0.48610043931E+00 -0.14547746274E+01  0.25399555730E+01  0.51100000000E-03 0. -1.
        -11    1    3    3    0    0  0.85649084522E+01  0.10773135120E+02  0.12987892622E+02  0.18923621539E+02  0.51100000000E-03 0.  1.
         12    1    3    3    0    0  0.18600413235E+00  0.22914038768E+02  0.12955662018E+02  0.26323695571E+02  0.00000000000E+00 0. -1.
</event>
<event>
 7    1  0.3837332E-009  0.4778727E+02  0.7816164E-02  0.1312668E+00
        -11   -1    0    0    0    0  0.00000000000E+00  0.00000000000E+00  0.45593999997E+02  0.45594000000E+02  0.51100000000E-03 0. -1.
         11   -1    0    0    0    0 -0.00000000000E+00 -0.00000000000E+00 -0.45593999997E+02  0.45594000000E+02  0.51100000000E-03 0.  1.
    9900012    2    1    2    0    0 -0.37529585484E+02  0.11989514086E+02 -0.18204526666E+02  0.47787273903E+02  0.20000013032E+02 0.  0.
        -12    1    1    2    0    0  0.37529585484E+02 -0.11989514086E+02  0.18204526666E+02  0.43400726097E+02  0.00000000000E+00 0.  1.
         11    1    3    3    0    0 -0.94207610343E+01  0.31641316603E+01 -0.37266602692E+01  0.10613692319E+02  0.51100000000E-03 0. -1.
        -11    1    3    3    0    0 -0.17420787745E+02 -0.20949708715E+01 -0.24276048959E+01  0.17713441630E+02  0.51100000000E-03 0.  1.
         12    1    3    3    0    0 -0.10688036705E+02  0.10920353297E+02 -0.12050261501E+02  0.19460139953E+02  0.00000000000E+00 0. -1.
</event>
<event>
 7    1  0.3837332E-009  0.4778726E+02  0.7816164E-02  0.1312668E+00
        -11   -1    0    0    0    0  0.00000000000E+00  0.00000000000E+00  0.45593999997E+02  0.45594000000E+02  0.51100000000E-03 0.  1.
         11   -1    0    0    0    0 -0.00000000000E+00 -0.00000000000E+00 -0.45593999997E+02  0.45594000000E+02  0.51100000000E-03 0. -1.
    9900012    2    1    2    0    0 -0.18849337911E+00  0.36060591765E+02 -0.24149996716E+02  0.47787260956E+02  0.19999954002E+02 0.  0.
        -12    1    1    2    0    0  0.18849337911E+00 -0.36060591765E+02  0.24149996716E+02  0.43400739044E+02  0.00000000000E+00 0.  1.
         11    1    3    3    0    0 -0.33942789938E+01  0.17132304949E+01 -0.22647402391E+01  0.44255324232E+01  0.51100000000E-03 0. -1.
        -11    1    3    3    0    0 -0.54307258052E+01  0.92314451284E+01 -0.44940074225E+01  0.11615010327E+02  0.51100000000E-03 0.  1.
        -12    1    3    3    0    0  0.86365114199E+01  0.25115916141E+02 -0.17391249055E+02  0.31746718205E+02  0.00000000000E+00 0.  1.
</event>
<event>
 7    1  0.3837332E-009  0.4778727E+02  0.7816164E-02  0.1312668E+00
        -11   -1    0    0    0    0  0.00000000000E+00  0.00000000000E+00  0.45593999997E+02  0.45594000000E+02  0.51100000000E-03 0. -1.
         11   -1    0    0    0    0 -0.00000000000E+00 -0.00000000000E+00 -0.45593999997E+02  0.45594000000E+02  0.51100000000E-03 0.  1.
    9900012    2    1    2    0    0 -0.33547977708E+02  0.27436376022E+02 -0.23241708837E+01  0.47787270654E+02  0.19999998218E+02 0.  0.
        -12    1    1    2    0    0  0.33547977708E+02 -0.27436376022E+02  0.23241708837E+01  0.43400729346E+02  0.00000000000E+00 0.  1.
         11    1    3    3    0    0 -0.18211191492E+02  0.11966967330E+02  0.66660126772E+01  0.22787968929E+02  0.51100000000E-03 0. -1.
        -11    1    3    3    0    0 -0.16982461519E+01  0.60370915388E+01 -0.30205955392E+00  0.62786745795E+01  0.51100000000E-03 0.  1.
        -12    1    3    3    0    0 -0.13638540064E+02  0.94323171537E+01 -0.86881240069E+01  0.18720627145E+02  0.00000000000E+00 0.  1.
</event>
<event>
 7    1  0.3837332E-009  0.4778727E+02  0.7816164E-02  0.1312668E+00
        -11   -1    0    0    0    0  0.00000000000E+00  0.00000000000E+00  0.45593999997E+02  0.45594000000E+02  0.51100000000E-03 0. -1.
         11   -1    0    0    0    0 -0.00000000000E+00 -0.00000000000E+00 -0.45593999997E+02  0.45594000000E+02  0.51100000000E-03 0.  1.
    9900012    2    1    2    0    0 -0.42281845289E+02  0.92143239474E+01  0.33114200695E+01  0.47787266024E+02  0.19999977108E+02 0.  0.
        -12    1    1    2    0    0  0.42281845289E+02 -0.92143239474E+01 -0.33114200695E+01  0.43400733976E+02  0.00000000000E+00 0.  1.
         11    1    3    3    0    0 -0.45689447393E+01 -0.30683261988E+01 -0.13423243808E+01  0.56649551364E+01  0.51100000000E-03 0. -1.
        -11    1    3    3    0    0 -0.12942943993E+02 -0.14439429469E+01 -0.15993605164E+01  0.13121079405E+02  0.51100000000E-03 0.  1.
         12    1    3    3    0    0 -0.24769956557E+02  0.13726593093E+02  0.62531049667E+01  0.29001231482E+02  0.00000000000E+00 0. -1.
</event>
<event>
 7    1  0.3837332E-009  0.4778727E+02  0.7816164E-02  0.1312668E+00
        -11   -1    0    0    0    0  0.00000000000E+00  0.00000000000E+00  0.45593999997E+02  0.45594000000E+02  0.51100000000E-03 0.  1.
         11   -1    0    0    0    0 -0.00000000000E+00 -0.00000000000E+00 -0.45593999997E+02  0.45594000000E+02  0.51100000000E-03 0. -1.
    9900012    2    1    2    0    0 -0.34666159255E+02 -0.11514822546E+02 -0.23436925451E+02  0.47787271776E+02  0.20000003337E+02 0.  0.
        -12    1    1    2    0    0  0.34666159255E+02  0.11514822546E+02  0.23436925451E+02  0.43400728224E+02  0.00000000000E+00 0.  1.
         11    1    3    3    0    0 -0.28436793667E+02 -0.14670196944E+02 -0.17383982534E+02  0.36415227055E+02  0.51100000000E-03 0. -1.
        -11    1    3    3    0    0  0.11402529287E+01 -0.27637823126E+00 -0.19255282925E+01  0.22548217523E+01  0.51100000000E-03 0.  1.
         12    1    3    3    0    0 -0.73696185165E+01  0.34317526295E+01 -0.41274146252E+01  0.91172229695E+01  0.00000000000E+00 0. -1.
</event>
<event>
 7    1  0.3837332E-009  0.4778727E+02  0.7816164E-02  0.1312668E+00
        -11   -1    0    0    0    0  0.00000000000E+00  0.00000000000E+00  0.45593999997E+02  0.45594000000E+02  0.51100000000E-03 0. -1.
         11   -1    0    0    0    0 -0.00000000000E+00 -0.00000000000E+00 -0.45593999997E+02  0.45594000000E+02  0.51100000000E-03 0.  1.
    9900012    2    1    2    0    0  0.23320349513E+02 -0.25396699696E+02  0.26358911561E+02  0.47787271025E+02  0.19999999912E+02 0.  0.
        -12    1    1    2    0    0 -0.23320349513E+02  0.25396699696E+02 -0.26358911561E+02  0.43400728975E+02  0.00000000000E+00 0.  1.
         11    1    3    3    0    0  0.10037098869E+02 -0.10542945609E+02  0.92060305477E+01  0.17223473939E+02  0.51100000000E-03 0. -1.
        -11    1    3    3    0    0  0.15093479566E+02 -0.12204945749E+02  0.18743200067E+02  0.26982983066E+02  0.51100000000E-03 0.  1.
        -12    1    3    3    0    0 -0.18102289210E+01 -0.26488083378E+01 -0.15903190534E+01  0.35808140203E+01  0.00000000000E+00 0.  1.
</event>
<event>
 7    1  0.3837332E-009  0.4778727E+02  0.7816164E-02  0.1312668E+00
        -11   -1    0    0    0    0  0.00000000000E+00  0.00000000000E+00  0.45593999997E+02  0.45594000000E+02  0.51100000000E-03 0.  1.
         11   -1    0    0    0    0 -0.00000000000E+00 -0.00000000000E+00 -0.45593999997E+02  0.45594000000E+02  0.51100000000E-03 0. -1.
    9900012    2    1    2    0    0  0.67655361636E+00 -0.18049815306E+01 -0.43357901692E+02  0.47787270487E+02  0.19999997459E+02 0.  0.
        -12    1    1    2    0    0 -0.67655361636E+00  0.18049815306E+01  0.43357901692E+02  0.43400729513E+02  0.00000000000E+00 0.  1.
         11    1    3    3    0    0 -0.59117851903E+00 -0.52067055080E+01 -0.10660994447E+02  0.11879228811E+02  0.51100000000E-03 0.  1.
        -11    1    3    3    0    0 -0.23098615367E+01 -0.34862950641E-01 -0.30318841541E+02  0.30406723408E+02  0.51100000000E-03 0. -1.
        -12    1    3    3    0    0  0.35775936721E+01  0.34365869281E+01 -0.23780657042E+01  0.55013182684E+01  0.00000000000E+00 0.  1.
</event>
<event>
 7    1  0.3837332E-009  0.4778726E+02  0.7816164E-02  0.1312668E+00
        -11   -1    0    0    0    0  0.00000000000E+00  0.00000000000E+00  0.45593999997E+02  0.45594000000E+02  0.51100000000E-03 0.  1.
         11   -1    0    0    0    0 -0.00000000000E+00 -0.00000000000E+00 -0.45593999997E+02  0.45594000000E+02  0.51100000000E-03 0. -1.
    9900012    2    1    2    0    0  0.61418235896E+01 -0.42941395966E+02 -0.13924350501E+01  0.47787258533E+02  0.19999942957E+02 0.  0.
        -12    1    1    2    0    0 -0.61418235896E+01  0.42941395966E+02  0.13924350501E+01  0.43400741467E+02  0.00000000000E+00 0.  1.
         11    1    3    3    0    0 -0.72615082567E+00 -0.82515064392E+01 -0.28565666053E+01  0.87621131338E+01  0.51100000000E-03 0. -1.
        -11    1    3    3    0    0 -0.38479391878E+01 -0.21227778887E+01 -0.14222751939E+01  0.46190571490E+01  0.51100000000E-03 0.  1.
        -12    1    3    3    0    0  0.10715913603E+02 -0.32567111638E+02  0.28864067491E+01  0.34406088251E+02  0.00000000000E+00 0.  1.
</event>
<event>
 7    1  0.3837332E-009  0.4778727E+02  0.7816164E-02  0.1312668E+00
        -11   -1    0    0    0    0  0.00000000000E+00  0.00000000000E+00  0.45593999997E+02  0.45594000000E+02  0.51100000000E-03 0. -1.
         11   -1    0    0    0    0 -0.00000000000E+00 -0.00000000000E+00 -0.45593999997E+02  0.45594000000E+02  0.51100000000E-03 0.  1.
    9900012    2    1    2    0    0  0.83541472474E+01 -0.42554824835E+02 -0.17083426960E+01  0.47787270423E+02  0.19999997169E+02 0.  0.
        -12    1    1    2    0    0 -0.83541472474E+01  0.42554824835E+02  0.17083426960E+01  0.43400729577E+02  0.00000000000E+00 0.  1.
         11    1    3    3    0    0  0.25186954203E+01 -0.10385436386E+02 -0.60312005017E+00  0.10703498008E+02  0.51100000000E-03 0. -1.
        -11    1    3    3    0    0  0.77554098073E+01 -0.13983470028E+02  0.65231444374E+01  0.17269488380E+02  0.51100000000E-03 0.  1.
         12    1    3    3    0    0 -0.19199579802E+01 -0.18185918421E+02 -0.76283670832E+01  0.19814284035E+02  0.00000000000E+00 0. -1.
</event>
<event>
 7    1  0.3837332E-009  0.4778727E+02  0.7816164E-02  0.1312668E+00
        -11   -1    0    0    0    0  0.00000000000E+00  0.00000000000E+00  0.45593999997E+02  0.45594000000E+02  0.51100000000E-03 0.  1.
         11   -1    0    0    0    0 -0.00000000000E+00 -0.00000000000E+00 -0.45593999997E+02  0.45594000000E+02  0.51100000000E-03 0. -1.
    9900012    2    1    2    0    0  0.24853809171E+02  0.64684966016E+01 -0.34986711853E+02  0.47787270917E+02  0.19999999421E+02 0.  0.
        -12    1    1    2    0    0 -0.24853809171E+02 -0.64684966016E+01  0.34986711853E+02  0.43400729083E+02  0.00000000000E+00 0.  1.
         11    1    3    3    0    0  0.11836742395E+02 -0.35754910023E+01 -0.19580658048E+02  0.23158039129E+02  0.51100000000E-03 0. -1.
        -11    1    3    3    0    0  0.47569605624E+00 -0.93382414553E+00  0.84828682980E+00  0.13482971035E+01  0.51100000000E-03 0.  1.
         12    1    3    3    0    0  0.12541370719E+02  0.10977811749E+02 -0.16254340635E+02  0.23280934685E+02  0.00000000000E+00 0. -1.
</event>
<event>
 7    1  0.3837332E-009  0.4778727E+02  0.7816164E-02  0.1312668E+00
        -11   -1    0    0    0    0  0.00000000000E+00  0.00000000000E+00  0.45593999997E+02  0.45594000000E+02  0.51100000000E-03 0.  1.
         11   -1    0    0    0    0 -0.00000000000E+00 -0.00000000000E+00 -0.45593999997E+02  0.45594000000E+02  0.51100000000E-03 0. -1.
    9900012    2    1    2    0    0  0.11885838748E+02  0.15923260342E+02 -0.38584967905E+02  0.47787272692E+02  0.20000007511E+02 0.  0.
        -12    1    1    2    0    0 -0.11885838748E+02 -0.15923260342E+02  0.38584967905E+02  0.43400727308E+02  0.00000000000E+00 0.  1.
         11    1    3    3    0    0  0.19849523011E+01  0.84635907860E-01 -0.10004614709E+02  0.10199976206E+02  0.51100000000E-03 0. -1.
        -11    1    3    3    0    0 -0.13973468823E+01  0.41182457401E+01  0.37958245941E+00  0.43653876564E+01  0.51100000000E-03 0.  1.
         12    1    3    3    0    0  0.11298233330E+02  0.11720378694E+02 -0.28959935656E+02  0.33221908829E+02  0.00000000000E+00 0. -1.
</event>
<event>
 7    1  0.3837332E-009  0.4778727E+02  0.7816164E-02  0.1312668E+00
        -11   -1    0    0    0    0  0.00000000000E+00  0.00000000000E+00  0.45593999997E+02  0.45594000000E+02  0.51100000000E-03 0. -1.
         11   -1    0    0    0    0 -0.00000000000E+00 -0.00000000000E+00 -0.45593999997E+02  0.45594000000E+02  0.51100000000E-03 0.  1.
    9900012    2    1    2    0    0  0.25810806632E+02 -0.22654915872E+02  0.26536391803E+02  0.47787273715E+02  0.20000012177E+02 0.  0.
        -12    1    1    2    0    0 -0.25810806632E+02  0.22654915872E+02 -0.26536391803E+02  0.43400726285E+02  0.00000000000E+00 0.  1.
         11    1    3    3    0    0  0.17871840144E+02 -0.91331088691E+01  0.21016748389E+02  0.29060627331E+02  0.51100000000E-03 0. -1.
        -11    1    3    3    0    0  0.73422898116E+01 -0.74102524892E+01  0.68021602200E+01  0.12453531449E+02  0.51100000000E-03 0.  1.
        -12    1    3    3    0    0  0.59667667582E+00 -0.61115545137E+01 -0.12825168068E+01  0.62731149351E+01  0.00000000000E+00 0.  1.
</event>
<event>
 7    1  0.3837332E-009  0.4778727E+02  0.7816164E-02  0.1312668E+00
        -11   -1    0    0    0    0  0.00000000000E+00  0.00000000000E+00  0.45593999997E+02  0.45594000000E+02  0.51100000000E-03 0. -1.
         11   -1    0    0    0    0 -0.00000000000E+00 -0.00000000000E+00 -0.45593999997E+02  0.45594000000E+02  0.51100000000E-03 0.  1.
    9900012    2    1    2    0    0  0.15094171959E+02 -0.31459251540E+02  0.25809002872E+02  0.47787272312E+02  0.20000005779E+02 0.  0.
        -12    1    1    2    0    0 -0.15094171959E+02  0.31459251540E+02 -0.25809002872E+02  0.43400727688E+02  0.00000000000E+00 0.  1.
         11    1    3    3    0    0 -0.88287000753E+00 -0.51047510665E+01  0.16941855326E+01  0.54505236245E+01  0.51100000000E-03 0. -1.
        -11    1    3    3    0    0  0.42038191746E+01 -0.11071336723E+02  0.51327504309E+00  0.11853693265E+02  0.51100000000E-03 0.  1.
        -12    1    3    3    0    0  0.11773222792E+02 -0.15283163751E+02  0.23601542296E+02  0.30483055423E+02  0.00000000000E+00 0.  1.
</event>
<event>
 7    1  0.3837332E-009  0.4778729E+02  0.7816164E-02  0.1312668E+00
        -11   -1    0    0    0    0  0.00000000000E+00  0.00000000000E+00  0.45593999997E+02  0.45594000000E+02  0.51100000000E-03 0.  1.
         11   -1    0    0    0    0 -0.00000000000E+00 -0.00000000000E+00 -0.45593999997E+02  0.45594000000E+02  0.51100000000E-03 0. -1.
    9900012    2    1    2    0    0 -0.30899690408E+02  0.29101530453E+02  0.90516217210E+01  0.47787288050E+02  0.20000077535E+02 0.  0.
        -12    1    1    2    0    0  0.30899690408E+02 -0.29101530453E+02 -0.90516217210E+01  0.43400711950E+02  0.00000000000E+00 0.  1.
         11    1    3    3    0    0 -0.15429446956E+02  0.78657568381E+01  0.70930032029E-01  0.17318862415E+02  0.51100000000E-03 0. -1.
        -11    1    3    3    0    0 -0.14475268763E+02  0.97572092169E+01  0.39589182223E+01  0.17899988023E+02  0.51100000000E-03 0.  1.
         12    1    3    3    0    0 -0.99497468821E+00  0.11478564398E+02  0.50217734666E+01  0.12568437612E+02  0.00000000000E+00 0. -1.
</event>
<event>
 7    1  0.3837332E-009  0.4778727E+02  0.7816164E-02  0.1312668E+00
        -11   -1    0    0    0    0  0.00000000000E+00  0.00000000000E+00  0.45593999997E+02  0.45594000000E+02  0.51100000000E-03 0.  1.
         11   -1    0    0    0    0 -0.00000000000E+00 -0.00000000000E+00 -0.45593999997E+02  0.45594000000E+02  0.51100000000E-03 0. -1.
    9900012    2    1    2    0    0 -0.25831277412E+02  0.50248281808E+01 -0.34512599690E+02  0.47787270417E+02  0.19999997140E+02 0.  0.
        -12    1    1    2    0    0  0.25831277412E+02 -0.50248281808E+01  0.34512599690E+02  0.43400729583E+02  0.00000000000E+00 0.  1.
         11    1    3    3    0    0  0.17419827055E+00 -0.20709277128E+01 -0.20967448475E+01  0.29521900084E+01  0.51100000000E-03 0. -1.
        -11    1    3    3    0    0 -0.10856299278E+02  0.66740521847E+01 -0.53624027113E+01  0.13825974456E+02  0.51100000000E-03 0.  1.
        -12    1    3    3    0    0 -0.15149176405E+02  0.42170370886E+00 -0.27053452131E+02  0.31009105952E+02  0.00000000000E+00 0.  1.
</event>
<event>
 7    1  0.3837332E-009  0.4778727E+02  0.7816164E-02  0.1312668E+00
        -11   -1    0    0    0    0  0.00000000000E+00  0.00000000000E+00  0.45593999997E+02  0.45594000000E+02  0.51100000000E-03 0.  1.
         11   -1    0    0    0    0 -0.00000000000E+00 -0.00000000000E+00 -0.45593999997E+02  0.45594000000E+02  0.51100000000E-03 0. -1.
    9900012    2    1    2    0    0  0.13466635665E+02  0.26441890407E+02 -0.31671745175E+02  0.47787270894E+02  0.19999999316E+02 0.  0.
        -12    1    1    2    0    0 -0.13466635665E+02 -0.26441890407E+02  0.31671745175E+02  0.43400729106E+02  0.00000000000E+00 0.  1.
         11    1    3    3    0    0  0.79490758131E+00  0.11219560345E+01 -0.76293569185E+01  0.77522739023E+01  0.51100000000E-03 0. -1.
        -11    1    3    3    0    0 -0.20149677141E+01  0.10339178358E+02 -0.11488354753E+02  0.15586564702E+02  0.51100000000E-03 0.  1.
         12    1    3    3    0    0  0.14686695798E+02  0.14980756015E+02 -0.12554033503E+02  0.24448432290E+02  0.00000000000E+00 0. -1.
</event>
<event>
 7    1  0.3837332E-009  0.4778728E+02  0.7816164E-02  0.1312668E+00
        -11   -1    0    0    0    0  0.00000000000E+00  0.00000000000E+00  0.45593999997E+02  0.45594000000E+02  0.51100000000E-03 0. -1.
         11   -1    0    0    0    0 -0.00000000000E+00 -0.00000000000E+00 -0.45593999997E+02  0.45594000000E+02  0.51100000000E-03 0.  1.
    9900012    2    1    2    0    0  0.34409341095E+02  0.22721205907E+02  0.13541304326E+02  0.47787275636E+02  0.20000020934E+02 0.  0.
        -12    1    1    2    0    0 -0.34409341095E+02 -0.22721205907E+02 -0.13541304326E+02  0.43400724364E+02  0.00000000000E+00 0.  1.
         11    1    3    3    0    0  0.11073557334E+02  0.13203713831E+02  0.80011213118E+01  0.18999465084E+02  0.51100000000E-03 0.  1.
        -11    1    3    3    0    0  0.14097719062E+02  0.10367762791E+02 -0.85424948552E+00  0.17520443217E+02  0.51100000000E-03 0. -1.
         12    1    3    3    0    0  0.92380646987E+01 -0.85027071558E+00  0.63944325002E+01  0.11267367335E+02  0.00000000000E+00 0. -1.
</event>
<event>
 7    1  0.3837332E-009  0.4778727E+02  0.7816164E-02  0.1312668E+00
        -11   -1    0    0    0    0  0.00000000000E+00  0.00000000000E+00  0.45593999997E+02  0.45594000000E+02  0.51100000000E-03 0.  1.
         11   -1    0    0    0    0 -0.00000000000E+00 -0.00000000000E+00 -0.45593999997E+02  0.45594000000E+02  0.51100000000E-03 0. -1.
    9900012    2    1    2    0    0 -0.21214027004E+02 -0.31299616562E+02 -0.21305456367E+02  0.47787269480E+02  0.19999992865E+02 0.  0.
        -12    1    1    2    0    0  0.21214027004E+02  0.31299616562E+02  0.21305456367E+02  0.43400730520E+02  0.00000000000E+00 0.  1.
         11    1    3    3    0    0 -0.11272373338E+02 -0.18818332284E+02 -0.95751281451E+01  0.23934893145E+02  0.51100000000E-03 0. -1.
        -11    1    3    3    0    0 -0.89782167885E+01 -0.15184294536E+02 -0.86644757537E+01  0.19653099440E+02  0.51100000000E-03 0.  1.
        -12    1    3    3    0    0 -0.96343687768E+00  0.27030102579E+01 -0.30658524686E+01  0.41992768938E+01  0.00000000000E+00 0.  1.
</event>
<event>
 7    1  0.3837332E-009  0.4778727E+02  0.7816164E-02  0.1312668E+00
        -11   -1    0    0    0    0  0.00000000000E+00  0.00000000000E+00  0.45593999997E+02  0.45594000000E+02  0.51100000000E-03 0. -1.
         11   -1    0    0    0    0 -0.00000000000E+00 -0.00000000000E+00 -0.45593999997E+02  0.45594000000E+02  0.51100000000E-03 0.  1.
    9900012    2    1    2    0    0 -0.18721133625E+02  0.39048380505E+02  0.28924653572E+01  0.47787271664E+02  0.20000002825E+02 0.  0.
        -12    1    1    2    0    0  0.18721133625E+02 -0.39048380505E+02 -0.28924653572E+01  0.43400728336E+02  0.00000000000E+00 0.  1.
         11    1    3    3    0    0 -0.63658231064E+01  0.48996783415E+01 -0.31803310799E+01  0.86397371320E+01  0.51100000000E-03 0. -1.
        -11    1    3    3    0    0 -0.40197354830E+01  0.14805864940E+01  0.31283008722E+01  0.53044015994E+01  0.51100000000E-03 0.  1.
        -12    1    3    3    0    0 -0.83355750355E+01  0.32668115669E+02  0.29444955649E+01  0.33843132933E+02  0.00000000000E+00 0.  1.
</event>
<event>
 7    1  0.3837332E-009  0.4778727E+02  0.7816164E-02  0.1312668E+00
        -11   -1    0    0    0    0  0.00000000000E+00  0.00000000000E+00  0.45593999997E+02  0.45594000000E+02  0.51100000000E-03 0.  1.
         11   -1    0    0    0    0 -0.00000000000E+00 -0.00000000000E+00 -0.45593999997E+02  0.45594000000E+02  0.51100000000E-03 0. -1.
    9900012    2    1    2    0    0 -0.13807973269E+02 -0.40606921094E+02  0.66363451929E+01  0.47787271388E+02  0.20000001565E+02 0.  0.
        -12    1    1    2    0    0  0.13807973269E+02  0.40606921094E+02 -0.66363451929E+01  0.43400728612E+02  0.00000000000E+00 0.  1.
         11    1    3    3    0    0 -0.25788950403E+01 -0.18314608335E+02  0.45161831973E+01  0.19038684015E+02  0.51100000000E-03 0. -1.
        -11    1    3    3    0    0  0.16362420600E+00 -0.82960549386E+01  0.60621401388E+01  0.10276227116E+02  0.51100000000E-03 0.  1.
        -12    1    3    3    0    0 -0.11392702434E+02 -0.13996257820E+02 -0.39419781433E+01  0.18472360256E+02  0.00000000000E+00 0.  1.
</event>
<event>
 7    1  0.3837332E-009  0.4778727E+02  0.7816164E-02  0.1312668E+00
        -11   -1    0    0    0    0  0.00000000000E+00  0.00000000000E+00  0.45593999997E+02  0.45594000000E+02  0.51100000000E-03 0. -1.
         11   -1    0    0    0    0 -0.00000000000E+00 -0.00000000000E+00 -0.45593999997E+02  0.45594000000E+02  0.51100000000E-03 0.  1.
    9900012    2    1    2    0    0  0.33849236333E+02  0.26201778760E+02  0.71637798292E+01  0.47787265537E+02  0.19999974888E+02 0.  0.
        -12    1    1    2    0    0 -0.33849236333E+02 -0.26201778760E+02 -0.71637798292E+01  0.43400734463E+02  0.00000000000E+00 0.  1.
         11    1    3    3    0    0  0.12542702881E+02  0.59168781006E+01  0.53514477848E+01  0.14864953268E+02  0.51100000000E-03 0. -1.
        -11    1    3    3    0    0  0.20287333346E+02  0.10200064962E+02  0.18909054002E+01  0.22785801346E+02  0.51100000000E-03 0.  1.
        -12    1    3    3    0    0  0.10192001067E+01  0.10084835697E+02 -0.78573355863E-01  0.10136510922E+02  0.00000000000E+00 0.  1.
</event>
<event>
 7    1  0.3837332E-009  0.4778727E+02  0.7816164E-02  0.1312668E+00
        -11   -1    0    0    0    0  0.00000000000E+00  0.00000000000E+00  0.45593999997E+02  0.45594000000E+02  0.51100000000E-03 0. -1.
         11   -1    0    0    0    0 -0.00000000000E+00 -0.00000000000E+00 -0.45593999997E+02  0.45594000000E+02  0.51100000000E-03 0.  1.
    9900012    2    1    2    0    0  0.15563837112E+02  0.16752356027E+01  0.40479428729E+02  0.47787267401E+02  0.19999983386E+02 0.  0.
        -12    1    1    2    0    0 -0.15563837112E+02 -0.16752356027E+01 -0.40479428729E+02  0.43400732599E+02  0.00000000000E+00 0.  1.
         11    1    3    3    0    0  0.15289118448E+02 -0.27021325636E+00  0.22124539303E+02  0.26894709475E+02  0.51100000000E-03 0. -1.
        -11    1    3    3    0    0  0.17035332978E+01 -0.36813388669E+01  0.60107307383E+01  0.72514250889E+01  0.51100000000E-03 0.  1.
        -12    1    3    3    0    0 -0.14288146338E+01  0.56267877260E+01  0.12344158687E+02  0.13641132836E+02  0.00000000000E+00 0.  1.
</event>
<event>
 7    1  0.3837332E-009  0.4778727E+02  0.7816164E-02  0.1312668E+00
        -11   -1    0    0    0    0  0.00000000000E+00  0.00000000000E+00  0.45593999997E+02  0.45594000000E+02  0.51100000000E-03 0.  1.
         11   -1    0    0    0    0 -0.00000000000E+00 -0.00000000000E+00 -0.45593999997E+02  0.45594000000E+02  0.51100000000E-03 0. -1.
    9900012    2    1    2    0    0  0.28700511920E+02 -0.16136794947E+02 -0.28275564438E+02  0.47787273279E+02  0.20000010188E+02 0.  0.
        -12    1    1    2    0    0 -0.28700511920E+02  0.16136794947E+02  0.28275564438E+02  0.43400726721E+02  0.00000000000E+00 0.  1.
         11    1    3    3    0    0  0.25585180355E+01 -0.52295887017E+01 -0.14377186394E+02  0.15511225013E+02  0.51100000000E-03 0.  1.
        -11    1    3    3    0    0  0.17296392474E+01 -0.11715399795E+01 -0.33671785453E+01  0.39625811622E+01  0.51100000000E-03 0. -1.
        -12    1    3    3    0    0  0.24412354637E+02 -0.97356662657E+01 -0.10531199498E+02  0.28313467104E+02  0.00000000000E+00 0.  1.
</event>
<event>
 7    1  0.3837332E-009  0.4778727E+02  0.7816164E-02  0.1312668E+00
        -11   -1    0    0    0    0  0.00000000000E+00  0.00000000000E+00  0.45593999997E+02  0.45594000000E+02  0.51100000000E-03 0.  1.
         11   -1    0    0    0    0 -0.00000000000E+00 -0.00000000000E+00 -0.45593999997E+02  0.45594000000E+02  0.51100000000E-03 0. -1.
    9900012    2    1    2    0    0  0.31309392657E+02 -0.18654051706E+02 -0.23566331134E+02  0.47787266403E+02  0.19999978840E+02 0.  0.
        -12    1    1    2    0    0 -0.31309392657E+02  0.18654051706E+02  0.23566331134E+02  0.43400733597E+02  0.00000000000E+00 0.  1.
         11    1    3    3    0    0  0.87721747815E+01 -0.30103495621E+01 -0.12330864548E+02  0.15429305741E+02  0.51100000000E-03 0. -1.
        -11    1    3    3    0    0  0.14300181017E+02 -0.46868381546E+01 -0.11013759587E+02  0.18648445766E+02  0.51100000000E-03 0.  1.
         12    1    3    3    0    0  0.82370368588E+01 -0.10956863989E+02 -0.22170699895E+00  0.13709514896E+02  0.00000000000E+00 0. -1.
</event>
<event>
 7    1  0.3837332E-009  0.4778727E+02  0.7816164E-02  0.1312668E+00
        -11   -1    0    0    0    0  0.00000000000E+00  0.00000000000E+00  0.45593999997E+02  0.45594000000E+02  0.51100000000E-03 0.  1.
         11   -1    0    0    0    0 -0.00000000000E+00 -0.00000000000E+00 -0.45593999997E+02  0.45594000000E+02  0.51100000000E-03 0. -1.
    9900012    2    1    2    0    0 -0.27955619719E+02 -0.30741093692E+02 -0.12533627647E+02  0.47787270314E+02  0.19999996671E+02 0.  0.
        -12    1    1    2    0    0  0.27955619719E+02  0.30741093692E+02  0.12533627647E+02  0.43400729686E+02  0.00000000000E+00 0.  1.
         11    1    3    3    0    0 -0.86537031497E+01 -0.87278498839E+01 -0.21142197145E+01  0.12471241601E+02  0.51100000000E-03 0. -1.
        -11    1    3    3    0    0 -0.16121229111E+02 -0.17550001214E+02 -0.32851074070E+00  0.23832844778E+02  0.51100000000E-03 0.  1.
        -12    1    3    3    0    0 -0.31806874584E+01 -0.44632425941E+01 -0.10090897192E+02  0.11483183935E+02  0.00000000000E+00 0.  1.
</event>
<event>
 7    1  0.3837332E-009  0.4778727E+02  0.7816164E-02  0.1312668E+00
        -11   -1    0    0    0    0  0.00000000000E+00  0.00000000000E+00  0.45593999997E+02  0.45594000000E+02  0.51100000000E-03 0. -1.
         11   -1    0    0    0    0 -0.00000000000E+00 -0.00000000000E+00 -0.45593999997E+02  0.45594000000E+02  0.51100000000E-03 0.  1.
    9900012    2    1    2    0    0 -0.34416001809E+02  0.24453976855E+02  0.10058098698E+02  0.47787268278E+02  0.19999987389E+02 0.  0.
        -12    1    1    2    0    0  0.34416001809E+02 -0.24453976855E+02 -0.10058098698E+02  0.43400731722E+02  0.00000000000E+00 0.  1.
         11    1    3    3    0    0 -0.96862301964E+00 -0.11396067224E+00 -0.28322035216E+01  0.29954289572E+01  0.51100000000E-03 0.  1.
        -11    1    3    3    0    0 -0.41474312015E+01  0.61692898329E+01 -0.10181684940E+01  0.75031986484E+01  0.51100000000E-03 0. -1.
         12    1    3    3    0    0 -0.29299947587E+02  0.18398647695E+02  0.13908470714E+02  0.37288640673E+02  0.00000000000E+00 0. -1.
</event>
<event>
 7    1  0.3837332E-009  0.4778727E+02  0.7816164E-02  0.1312668E+00
        -11   -1    0    0    0    0  0.00000000000E+00  0.00000000000E+00  0.45593999997E+02  0.45594000000E+02  0.51100000000E-03 0.  1.
         11   -1    0    0    0    0 -0.00000000000E+00 -0.00000000000E+00 -0.45593999997E+02  0.45594000000E+02  0.51100000000E-03 0. -1.
    9900012    2    1    2    0    0  0.21400652705E+02  0.17763153088E+02 -0.33318247543E+02  0.47787272320E+02  0.20000005814E+02 0.  0.
        -12    1    1    2    0    0 -0.21400652705E+02 -0.17763153088E+02  0.33318247543E+02  0.43400727680E+02  0.00000000000E+00 0.  1.
         11    1    3    3    0    0  0.87561421935E+01 -0.40823032796E+00 -0.16540176940E+02  0.18719351793E+02  0.51100000000E-03 0. -1.
        -11    1    3    3    0    0  0.90806507219E+01  0.56415525051E+01 -0.69755024469E+01  0.12764911549E+02  0.51100000000E-03 0.  1.
        -12    1    3    3    0    0  0.35638597896E+01  0.12529830911E+02 -0.98025681568E+01  0.16303008977E+02  0.00000000000E+00 0.  1.
</event>
<event>
 7    1  0.3837332E-009  0.4778727E+02  0.7816164E-02  0.1312668E+00
        -11   -1    0    0    0    0  0.00000000000E+00  0.00000000000E+00  0.45593999997E+02  0.45594000000E+02  0.51100000000E-03 0.  1.
         11   -1    0    0    0    0 -0.00000000000E+00 -0.00000000000E+00 -0.45593999997E+02  0.45594000000E+02  0.51100000000E-03 0. -1.
    9900012    2    1    2    0    0 -0.21893061554E+02  0.16131786852E+02 -0.33824289459E+02  0.47787271335E+02  0.20000001324E+02 0.  0.
        -12    1    1    2    0    0  0.21893061554E+02 -0.16131786852E+02  0.33824289459E+02  0.43400728665E+02  0.00000000000E+00 0.  1.
         11    1    3    3    0    0 -0.89397440824E+01  0.16106198422E+01 -0.43629362176E+01  0.10077119292E+02  0.51100000000E-03 0. -1.
        -11    1    3    3    0    0  0.61828027071E+00  0.24995089350E+01  0.56364761066E+00  0.26358137831E+01  0.51100000000E-03 0.  1.
         12    1    3    3    0    0 -0.13571597742E+02  0.12021658075E+02 -0.30025000852E+02  0.35074338259E+02  0.00000000000E+00 0. -1.
</event>
<event>
 7    1  0.3837332E-009  0.4778727E+02  0.7816164E-02  0.1312668E+00
        -11   -1    0    0    0    0  0.00000000000E+00  0.00000000000E+00  0.45593999997E+02  0.45594000000E+02  0.51100000000E-03 0.  1.
         11   -1    0    0    0    0 -0.00000000000E+00 -0.00000000000E+00 -0.45593999997E+02  0.45594000000E+02  0.51100000000E-03 0. -1.
    9900012    2    1    2    0    0  0.39609712718E+01  0.78867158324E+01 -0.42493922150E+02  0.47787274203E+02  0.20000014401E+02 0.  0.
        -12    1    1    2    0    0 -0.39609712718E+01 -0.78867158324E+01  0.42493922150E+02  0.43400725797E+02  0.00000000000E+00 0.  1.
         11    1    3    3    0    0  0.32148126230E+00  0.55830181967E+01 -0.90140044698E+01  0.10607814065E+02  0.51100000000E-03 0. -1.
        -11    1    3    3    0    0 -0.38060849864E+01  0.62536803479E+01 -0.19816640984E+02  0.21125673030E+02  0.51100000000E-03 0.  1.
        -12    1    3    3    0    0  0.74455749959E+01 -0.39499827122E+01 -0.13663276697E+02  0.16053787109E+02  0.00000000000E+00 0.  1.
</event>
<event>
 7    1  0.3837332E-009  0.4778726E+02  0.7816164E-02  0.1312668E+00
        -11   -1    0    0    0    0  0.00000000000E+00  0.00000000000E+00  0.45593999997E+02  0.45594000000E+02  0.51100000000E-03 0.  1.
         11   -1    0    0    0    0 -0.00000000000E+00 -0.00000000000E+00 -0.45593999997E+02  0.45594000000E+02  0.51100000000E-03 0. -1.
    9900012    2    1    2    0    0 -0.18575577218E+02 -0.29813548353E+02 -0.25489689781E+02  0.47787262454E+02  0.19999960834E+02 0.  0.
        -12    1    1    2    0    0  0.18575577218E+02  0.29813548353E+02  0.25489689781E+02  0.43400737546E+02  0.00000000000E+00 0.  1.
         11    1    3    3    0    0 -0.53444090922E+01 -0.41392570052E+01 -0.31242701048E+01  0.74469605242E+01  0.51100000000E-03 0. -1.
        -11    1    3    3    0    0 -0.97804533772E+00 -0.70999528934E+01  0.19022611346E+01  0.74151535019E+01  0.51100000000E-03 0.  1.
         12    1    3    3    0    0 -0.12253122788E+02 -0.18574338455E+02 -0.24267680811E+02  0.32925148428E+02  0.00000000000E+00 0. -1.
</event>
<event>
 7    1  0.3837332E-009  0.4778727E+02  0.7816164E-02  0.1312668E+00
        -11   -1    0    0    0    0  0.00000000000E+00  0.00000000000E+00  0.45593999997E+02  0.45594000000E+02  0.51100000000E-03 0. -1.
         11   -1    0    0    0    0 -0.00000000000E+00 -0.00000000000E+00 -0.45593999997E+02  0.45594000000E+02  0.51100000000E-03 0.  1.
    9900012    2    1    2    0    0 -0.23483091828E+02  0.11847697884E+02  0.34522452356E+02  0.47787271163E+02  0.20000000539E+02 0.  0.
        -12    1    1    2    0    0  0.23483091828E+02 -0.11847697884E+02 -0.34522452356E+02  0.43400728837E+02  0.00000000000E+00 0.  1.
         11    1    3    3    0    0 -0.98294541970E+01  0.10062851696E+02  0.19748358378E+02  0.24246171099E+02  0.51100000000E-03 0. -1.
        -11    1    3    3    0    0 -0.71786526601E+01  0.22105059685E+01  0.11738995960E+00  0.75122014959E+01  0.51100000000E-03 0.  1.
         12    1    3    3    0    0 -0.64749849707E+01 -0.42565978039E+00  0.14656704018E+02  0.16028898568E+02  0.00000000000E+00 0. -1.
</event>
<event>
 7    1  0.3837332E-009  0.4778727E+02  0.7816164E-02  0.1312668E+00
        -11   -1    0    0    0    0  0.00000000000E+00  0.00000000000E+00  0.45593999997E+02  0.45594000000E+02  0.51100000000E-03 0.  1.
         11   -1    0    0    0    0 -0.00000000000E+00 -0.00000000000E+00 -0.45593999997E+02  0.45594000000E+02  0.51100000000E-03 0. -1.
    9900012    2    1    2    0    0 -0.17415213862E+02  0.16181506897E+02 -0.36311048828E+02  0.47787272975E+02  0.20000008803E+02 0.  0.
        -12    1    1    2    0    0  0.17415213862E+02 -0.16181506897E+02  0.36311048828E+02  0.43400727025E+02  0.00000000000E+00 0.  1.
         11    1    3    3    0    0 -0.52101642629E+01  0.30771261697E+01 -0.88771419831E+01  0.10743284747E+02  0.51100000000E-03 0. -1.
        -11    1    3    3    0    0  0.14488594076E+00  0.74795748895E+01 -0.12949083620E+01  0.75922210447E+01  0.51100000000E-03 0.  1.
        -12    1    3    3    0    0 -0.12349935539E+02  0.56248058376E+01 -0.26138998483E+02  0.29451767183E+02  0.00000000000E+00 0.  1.
</event>
<event>
 7    1  0.3837332E-009  0.4778726E+02  0.7816164E-02  0.1312668E+00
        -11   -1    0    0    0    0  0.00000000000E+00  0.00000000000E+00  0.45593999997E+02  0.45594000000E+02  0.51100000000E-03 0.  1.
         11   -1    0    0    0    0 -0.00000000000E+00 -0.00000000000E+00 -0.45593999997E+02  0.45594000000E+02  0.51100000000E-03 0. -1.
    9900012    2    1    2    0    0 -0.25422571754E+01 -0.18651045394E+02 -0.39106255843E+02  0.47787264846E+02  0.19999971741E+02 0.  0.
        -12    1    1    2    0    0  0.25422571754E+01  0.18651045394E+02  0.39106255843E+02  0.43400735154E+02  0.00000000000E+00 0.  1.
         11    1    3    3    0    0 -0.24134460495E+01 -0.95009266418E+00 -0.18690847189E+01  0.31970104554E+01  0.51100000000E-03 0.  1.
        -11    1    3    3    0    0 -0.46797463580E+01  0.10520592611E+01 -0.11180323547E+02  0.12165791776E+02  0.51100000000E-03 0. -1.
         12    1    3    3    0    0  0.45509352321E+01 -0.18753011991E+02 -0.26056847577E+02  0.32424462615E+02  0.00000000000E+00 0. -1.
</event>
<event>
 7    1  0.3837332E-009  0.4778727E+02  0.7816164E-02  0.1312668E+00
        -11   -1    0    0    0    0  0.00000000000E+00  0.00000000000E+00  0.45593999997E+02  0.45594000000E+02  0.51100000000E-03 0.  1.
         11   -1    0    0    0    0 -0.00000000000E+00 -0.00000000000E+00 -0.45593999997E+02  0.45594000000E+02  0.51100000000E-03 0. -1.
    9900012    2    1    2    0    0 -0.85668942666E+01  0.11673790304E+02 -0.40913983343E+02  0.47787273158E+02  0.20000009638E+02 0.  0.
        -12    1    1    2    0    0  0.85668942666E+01 -0.11673790304E+02  0.40913983343E+02  0.43400726842E+02  0.00000000000E+00 0.  1.
         11    1    3    3    0    0 -0.73792468292E+00  0.46559378042E+01 -0.20860790657E+02  0.21386792110E+02  0.51100000000E-03 0. -1.
        -11    1    3    3    0    0 -0.35399913837E+01 -0.11844327845E+01 -0.15762315344E+02  0.16198302544E+02  0.51100000000E-03 0.  1.
        -12    1    3    3    0    0 -0.42889782000E+01  0.82022852840E+01 -0.42908773418E+01  0.10202178505E+02  0.00000000000E+00 0.  1.
</event>
<event>
 7    1  0.3837332E-009  0.4778726E+02  0.7816164E-02  0.1312668E+00
        -11   -1    0    0    0    0  0.00000000000E+00  0.00000000000E+00  0.45593999997E+02  0.45594000000E+02  0.51100000000E-03 0.  1.
         11   -1    0    0    0    0 -0.00000000000E+00 -0.00000000000E+00 -0.45593999997E+02  0.45594000000E+02  0.51100000000E-03 0. -1.
    9900012    2    1    2    0    0 -0.18114183349E+01 -0.33050351119E+02 -0.28071647728E+02  0.47787258628E+02  0.19999943389E+02 0.  0.
        -12    1    1    2    0    0  0.18114183349E+01  0.33050351119E+02  0.28071647728E+02  0.43400741372E+02  0.00000000000E+00 0.  1.
         11    1    3    3    0    0 -0.13544378035E+00 -0.15253565295E+02 -0.14120416381E+02  0.20786432071E+02  0.51100000000E-03 0. -1.
        -11    1    3    3    0    0 -0.76794139774E+01 -0.12378003015E+02 -0.63101655122E+01  0.15874714067E+02  0.51100000000E-03 0.  1.
         12    1    3    3    0    0  0.60034394228E+01 -0.54187828098E+01 -0.76410658349E+01  0.11126112490E+02  0.00000000000E+00 0. -1.
</event>
<event>
 7    1  0.3837332E-009  0.4778727E+02  0.7816164E-02  0.1312668E+00
        -11   -1    0    0    0    0  0.00000000000E+00  0.00000000000E+00  0.45593999997E+02  0.45594000000E+02  0.51100000000E-03 0.  1.
         11   -1    0    0    0    0 -0.00000000000E+00 -0.00000000000E+00 -0.45593999997E+02  0.45594000000E+02  0.51100000000E-03 0. -1.
    9900012    2    1    2    0    0 -0.33523970456E+02 -0.80622537782E+01 -0.26358426648E+02  0.47787272051E+02  0.20000004588E+02 0.  0.
        -12    1    1    2    0    0  0.33523970456E+02  0.80622537782E+01  0.26358426648E+02  0.43400727949E+02  0.00000000000E+00 0.  1.
         11    1    3    3    0    0  0.97506280686E+00 -0.18767654164E+01 -0.22340459410E+01  0.30763545688E+01  0.51100000000E-03 0. -1.
        -11    1    3    3    0    0 -0.16992441664E+02 -0.62317244490E+00 -0.19293850669E+02  0.25717388893E+02  0.51100000000E-03 0.  1.
         12    1    3    3    0    0 -0.17506591600E+02 -0.55623159169E+01 -0.48305300388E+01  0.18993528589E+02  0.00000000000E+00 0. -1.
</event>
<event>
 7    1  0.3837332E-009  0.4778727E+02  0.7816164E-02  0.1312668E+00
        -11   -1    0    0    0    0  0.00000000000E+00  0.00000000000E+00  0.45593999997E+02  0.45594000000E+02  0.51100000000E-03 0.  1.
         11   -1    0    0    0    0 -0.00000000000E+00 -0.00000000000E+00 -0.45593999997E+02  0.45594000000E+02  0.51100000000E-03 0. -1.
    9900012    2    1    2    0    0 -0.30932686647E+01  0.40587352880E+02 -0.15057284805E+02  0.47787270161E+02  0.19999995972E+02 0.  0.
        -12    1    1    2    0    0  0.30932686647E+01 -0.40587352880E+02  0.15057284805E+02  0.43400729839E+02  0.00000000000E+00 0.  1.
         11    1    3    3    0    0 -0.63222345604E+01  0.25306421240E+02 -0.10099793965E+02  0.27971261041E+02  0.51100000000E-03 0. -1.
        -11    1    3    3    0    0  0.35649509084E+01  0.16957526560E+02 -0.37682805374E+01  0.17733203897E+02  0.51100000000E-03 0.  1.
        -12    1    3    3    0    0 -0.33598501277E+00 -0.16765949193E+01 -0.11892103029E+01  0.20828052229E+01  0.00000000000E+00 0.  1.
</event>
<event>
 7    1  0.3837332E-009  0.4778727E+02  0.7816164E-02  0.1312668E+00
        -11   -1    0    0    0    0  0.00000000000E+00  0.00000000000E+00  0.45593999997E+02  0.45594000000E+02  0.51100000000E-03 0. -1.
         11   -1    0    0    0    0 -0.00000000000E+00 -0.00000000000E+00 -0.45593999997E+02  0.45594000000E+02  0.51100000000E-03 0.  1.
    9900012    2    1    2    0    0 -0.18846721802E+02  0.38170747838E+02 -0.84509444797E+01  0.47787269871E+02  0.19999994648E+02 0.  0.
        -12    1    1    2    0    0  0.18846721802E+02 -0.38170747838E+02  0.84509444797E+01  0.43400730129E+02  0.00000000000E+00 0.  1.
         11    1    3    3    0    0  0.16497437446E+01  0.70051550184E+01  0.10142141693E+01  0.72679076698E+01  0.51100000000E-03 0. -1.
        -11    1    3    3    0    0  0.11509196360E+01  0.18822379896E+01  0.12806745677E+01  0.25509926436E+01  0.51100000000E-03 0.  1.
         12    1    3    3    0    0 -0.21647385182E+02  0.29283354830E+02 -0.10745833217E+02  0.37968369557E+02  0.00000000000E+00 0. -1.
</event>
<event>
 7    1  0.3837332E-009  0.4778728E+02  0.7816164E-02  0.1312668E+00
        -11   -1    0    0    0    0  0.00000000000E+00  0.00000000000E+00  0.45593999997E+02  0.45594000000E+02  0.51100000000E-03 0. -1.
         11   -1    0    0    0    0 -0.00000000000E+00 -0.00000000000E+00 -0.45593999997E+02  0.45594000000E+02  0.51100000000E-03 0.  1.
    9900012    2    1    2    0    0 -0.52557389197E+01  0.30396293469E+02  0.30529742056E+02  0.47787278828E+02  0.20000035486E+02 0.  0.
        -12    1    1    2    0    0  0.52557389197E+01 -0.30396293469E+02 -0.30529742056E+02  0.43400721172E+02  0.00000000000E+00 0.  1.
         11    1    3    3    0    0  0.10473995194E+01  0.18397786067E+02  0.19132056188E+02  0.26563342263E+02  0.51100000000E-03 0. -1.
        -11    1    3    3    0    0  0.22201165873E+01  0.59364688312E+01  0.89371803464E+00  0.64007274611E+01  0.51100000000E-03 0.  1.
        -12    1    3    3    0    0 -0.85232550263E+01  0.60620385711E+01  0.10503967833E+02  0.14823209103E+02  0.00000000000E+00 0.  1.
</event>
<event>
 7    1  0.3837332E-009  0.4778727E+02  0.7816164E-02  0.1312668E+00
        -11   -1    0    0    0    0  0.00000000000E+00  0.00000000000E+00  0.45593999997E+02  0.45594000000E+02  0.51100000000E-03 0.  1.
         11   -1    0    0    0    0 -0.00000000000E+00 -0.00000000000E+00 -0.45593999997E+02  0.45594000000E+02  0.51100000000E-03 0. -1.
    9900012    2    1    2    0    0 -0.32574204151E+02  0.24185153030E+02  0.15415017007E+02  0.47787272443E+02  0.20000006376E+02 0.  0.
        -12    1    1    2    0    0  0.32574204151E+02 -0.24185153030E+02 -0.15415017007E+02  0.43400727557E+02  0.00000000000E+00 0.  1.
         11    1    3    3    0    0 -0.14333127362E+02  0.10487970552E+02  0.64587514431E+01  0.18898453290E+02  0.51100000000E-03 0. -1.
        -11    1    3    3    0    0 -0.76042268089E+01 -0.14887309248E+01  0.66393469285E+01  0.10203994954E+02  0.51100000000E-03 0.  1.
         12    1    3    3    0    0 -0.10636849980E+02  0.15185913403E+02  0.23169186356E+01  0.18684824199E+02  0.00000000000E+00 0. -1.
</event>
<event>
 7    1  0.3837332E-009  0.4778727E+02  0.7816164E-02  0.1312668E+00
        -11   -1    0    0    0    0  0.00000000000E+00  0.00000000000E+00  0.45593999997E+02  0.45594000000E+02  0.51100000000E-03 0.  1.
         11   -1    0    0    0    0 -0.00000000000E+00 -0.00000000000E+00 -0.45593999997E+02  0.45594000000E+02  0.51100000000E-03 0. -1.
    9900012    2    1    2    0    0 -0.15073108490E+02 -0.40230950770E+02  0.61559226498E+01  0.47787269787E+02  0.19999994265E+02 0.  0.
        -12    1    1    2    0    0  0.15073108490E+02  0.40230950770E+02 -0.61559226498E+01  0.43400730213E+02  0.00000000000E+00 0.  1.
         11    1    3    3    0    0 -0.89775028410E+01 -0.27104567575E+02  0.73721423468E+01  0.29489008524E+02  0.51100000000E-03 0. -1.
        -11    1    3    3    0    0  0.27562529507E+01 -0.39991757578E+01  0.18865979945E+01  0.52105267799E+01  0.51100000000E-03 0.  1.
        -12    1    3    3    0    0 -0.88518585999E+01 -0.91272074370E+01 -0.31028176915E+01  0.13087734483E+02  0.00000000000E+00 0.  1.
</event>
<event>
 7    1  0.3837332E-009  0.4778727E+02  0.7816164E-02  0.1312668E+00
        -11   -1    0    0    0    0  0.00000000000E+00  0.00000000000E+00  0.45593999997E+02  0.45594000000E+02  0.51100000000E-03 0. -1.
         11   -1    0    0    0    0 -0.00000000000E+00 -0.00000000000E+00 -0.45593999997E+02  0.45594000000E+02  0.51100000000E-03 0.  1.
    9900012    2    1    2    0    0  0.32310117542E+02  0.49893233965E+01  0.28544456462E+02  0.47787273759E+02  0.20000012378E+02 0.  0.
        -12    1    1    2    0    0 -0.32310117542E+02 -0.49893233965E+01 -0.28544456462E+02  0.43400726241E+02  0.00000000000E+00 0.  1.
         11    1    3    3    0    0  0.13930666296E+02  0.52096930264E+00  0.89936821005E+01  0.16589791755E+02  0.51100000000E-03 0. -1.
        -11    1    3    3    0    0  0.17259642220E+02 -0.14351709971E+00  0.86457995994E+01  0.19304551217E+02  0.51100000000E-03 0.  1.
        -12    1    3    3    0    0  0.11198090257E+01  0.46118711935E+01  0.10904974762E+02  0.11892930787E+02  0.00000000000E+00 0.  1.
</event>
<event>
 7    1  0.3837332E-009  0.4778727E+02  0.7816164E-02  0.1312668E+00
        -11   -1    0    0    0    0  0.00000000000E+00  0.00000000000E+00  0.45593999997E+02  0.45594000000E+02  0.51100000000E-03 0. -1.
         11   -1    0    0    0    0 -0.00000000000E+00 -0.00000000000E+00 -0.45593999997E+02  0.45594000000E+02  0.51100000000E-03 0.  1.
    9900012    2    1    2    0    0  0.28016875701E+02 -0.27878570272E+02  0.17929406980E+02  0.47787266837E+02  0.19999980816E+02 0.  0.
        -12    1    1    2    0    0 -0.28016875701E+02  0.27878570272E+02 -0.17929406980E+02  0.43400733163E+02  0.00000000000E+00 0.  1.
         11    1    3    3    0    0  0.51575665378E+01 -0.46244922825E+01  0.42813216508E+01  0.81434720360E+01  0.51100000000E-03 0. -1.
        -11    1    3    3    0    0  0.13936155743E+02 -0.98330107207E+01  0.15964224154E+02  0.23361527986E+02  0.51100000000E-03 0.  1.
         12    1    3    3    0    0  0.89231534196E+01 -0.13421067269E+02 -0.23161388247E+01  0.16282266815E+02  0.00000000000E+00 0. -1.
</event>
<event>
 7    1  0.3837332E-009  0.4778727E+02  0.7816164E-02  0.1312668E+00
        -11   -1    0    0    0    0  0.00000000000E+00  0.00000000000E+00  0.45593999997E+02  0.45594000000E+02  0.51100000000E-03 0.  1.
         11   -1    0    0    0    0 -0.00000000000E+00 -0.00000000000E+00 -0.45593999997E+02  0.45594000000E+02  0.51100000000E-03 0. -1.
    9900012    2    1    2    0    0  0.84744991368E+01  0.32979386353E+02 -0.26910331944E+02  0.47787273909E+02  0.20000013063E+02 0.  0.
        -12    1    1    2    0    0 -0.84744991368E+01 -0.32979386353E+02  0.26910331944E+02  0.43400726091E+02  0.00000000000E+00 0.  1.
         11    1    3    3    0    0  0.74186598964E+01  0.19477779151E+02 -0.22603999759E+02  0.30746726666E+02  0.51100000000E-03 0. -1.
        -11    1    3    3    0    0  0.23530859001E+01  0.95342026864E+01 -0.70115521112E+01  0.12066478251E+02  0.51100000000E-03 0.  1.
        -12    1    3    3    0    0 -0.12972466598E+01  0.39674045157E+01  0.27052199262E+01  0.49740689920E+01  0.00000000000E+00 0.  1.
</event>
<event>
 7    1  0.3837332E-009  0.4778727E+02  0.7816164E-02  0.1312668E+00
        -11   -1    0    0    0    0  0.00000000000E+00  0.00000000000E+00  0.45593999997E+02  0.45594000000E+02  0.51100000000E-03 0.  1.
         11   -1    0    0    0    0 -0.00000000000E+00 -0.00000000000E+00 -0.45593999997E+02  0.45594000000E+02  0.51100000000E-03 0. -1.
    9900012    2    1    2    0    0  0.42508142367E+01 -0.16239675707E+01 -0.43161518234E+02  0.47787270183E+02  0.19999996073E+02 0.  0.
        -12    1    1    2    0    0 -0.42508142367E+01  0.16239675707E+01  0.43161518234E+02  0.43400729817E+02  0.00000000000E+00 0.  1.
         11    1    3    3    0    0  0.26443653639E+01  0.38990511992E+00 -0.16573631217E+02  0.16787791581E+02  0.51100000000E-03 0. -1.
        -11    1    3    3    0    0  0.45993557428E+01  0.58682888777E+01 -0.13729709848E+02  0.15623566186E+02  0.51100000000E-03 0.  1.
        -12    1    3    3    0    0 -0.29929068699E+01 -0.78821615683E+01 -0.12858177169E+02  0.15375912416E+02  0.00000000000E+00 0.  1.
</event>
<event>
 7    1  0.3837332E-009  0.4778727E+02  0.7816164E-02  0.1312668E+00
        -11   -1    0    0    0    0  0.00000000000E+00  0.00000000000E+00  0.45593999997E+02  0.45594000000E+02  0.51100000000E-03 0.  1.
         11   -1    0    0    0    0 -0.00000000000E+00 -0.00000000000E+00 -0.45593999997E+02  0.45594000000E+02  0.51100000000E-03 0. -1.
    9900012    2    1    2    0    0  0.17229967052E+02  0.23969677282E+02 -0.31815182581E+02  0.47787273781E+02  0.20000012478E+02 0.  0.
        -12    1    1    2    0    0 -0.17229967052E+02 -0.23969677282E+02  0.31815182581E+02  0.43400726219E+02  0.00000000000E+00 0.  1.
         11    1    3    3    0    0 -0.13964300198E+00 -0.44828359677E+00  0.30268901214E+00  0.55864053767E+00  0.51100000000E-03 0. -1.
        -11    1    3    3    0    0 -0.27602896604E+01  0.82936857410E+01 -0.66605137753E+01  0.10989397899E+02  0.51100000000E-03 0.  1.
         12    1    3    3    0    0  0.20129899715E+02  0.16124275138E+02 -0.25457357818E+02  0.36239235344E+02  0.00000000000E+00 0. -1.
</event>
<event>
 7    1  0.3837332E-009  0.4778726E+02  0.7816164E-02  0.1312668E+00
        -11   -1    0    0    0    0  0.00000000000E+00  0.00000000000E+00  0.45593999997E+02  0.45594000000E+02  0.51100000000E-03 0.  1.
         11   -1    0    0    0    0 -0.00000000000E+00 -0.00000000000E+00 -0.45593999997E+02  0.45594000000E+02  0.51100000000E-03 0. -1.
    9900012    2    1    2    0    0  0.18029050080E+01  0.36322834475E+02 -0.23685979980E+02  0.47787257859E+02  0.19999939882E+02 0.  0.
        -12    1    1    2    0    0 -0.18029050080E+01 -0.36322834475E+02  0.23685979980E+02  0.43400742141E+02  0.00000000000E+00 0.  1.
         11    1    3    3    0    0  0.36054947432E+01  0.17928125995E+02 -0.48173694334E+01  0.18910958266E+02  0.51100000000E-03 0. -1.
        -11    1    3    3    0    0 -0.47036105883E+00 -0.33176198777E-01  0.13840780557E+01  0.14621944164E+01  0.51100000000E-03 0.  1.
         12    1    3    3    0    0 -0.13322286764E+01  0.18427884679E+02 -0.20252688603E+02  0.27414105177E+02  0.00000000000E+00 0. -1.
</event>
<event>
 7    1  0.3837332E-009  0.4778727E+02  0.7816164E-02  0.1312668E+00
        -11   -1    0    0    0    0  0.00000000000E+00  0.00000000000E+00  0.45593999997E+02  0.45594000000E+02  0.51100000000E-03 0.  1.
         11   -1    0    0    0    0 -0.00000000000E+00 -0.00000000000E+00 -0.45593999997E+02  0.45594000000E+02  0.51100000000E-03 0. -1.
    9900012    2    1    2    0    0  0.39903465526E+02  0.14929383630E+02 -0.82734682969E+01  0.47787270349E+02  0.19999996831E+02 0.  0.
        -12    1    1    2    0    0 -0.39903465526E+02 -0.14929383630E+02  0.82734682969E+01  0.43400729651E+02  0.00000000000E+00 0.  1.
         11    1    3    3    0    0  0.96015166639E+01  0.96670349856E+00 -0.17188677385E+01  0.98019459530E+01  0.51100000000E-03 0. -1.
        -11    1    3    3    0    0  0.24607958797E+02  0.17890686644E+02 -0.44035542258E+01  0.30741171006E+02  0.51100000000E-03 0.  1.
        -12    1    3    3    0    0  0.56939900648E+01 -0.39280065121E+01 -0.21510463326E+01  0.72441533903E+01  0.00000000000E+00 0.  1.
</event>
<event>
 7    1  0.3837332E-009  0.4778727E+02  0.7816164E-02  0.1312668E+00
        -11   -1    0    0    0    0  0.00000000000E+00  0.00000000000E+00  0.45593999997E+02  0.45594000000E+02  0.51100000000E-03 0.  1.
         11   -1    0    0    0    0 -0.00000000000E+00 -0.00000000000E+00 -0.45593999997E+02  0.45594000000E+02  0.51100000000E-03 0. -1.
    9900012    2    1    2    0    0 -0.28683896445E+00  0.43224479615E+02  0.38968385131E+01  0.47787271147E+02  0.20000000466E+02 0.  0.
        -12    1    1    2    0    0  0.28683896445E+00 -0.43224479615E+02 -0.38968385131E+01  0.43400728853E+02  0.00000000000E+00 0.  1.
         11    1    3    3    0    0  0.63150902487E+01  0.23298808673E+02 -0.48845487662E+01  0.24628716316E+02  0.51100000000E-03 0. -1.
        -11    1    3    3    0    0 -0.25201335057E+01  0.35705993478E+01  0.56744545766E+00  0.44070678685E+01  0.51100000000E-03 0.  1.
         12    1    3    3    0    0 -0.40817957074E+01  0.16355071594E+02  0.82139418217E+01  0.18751486962E+02  0.00000000000E+00 0. -1.
</event>
<event>
 7    1  0.3837332E-009  0.4778727E+02  0.7816164E-02  0.1312668E+00
        -11   -1    0    0    0    0  0.00000000000E+00  0.00000000000E+00  0.45593999997E+02  0.45594000000E+02  0.51100000000E-03 0. -1.
         11   -1    0    0    0    0 -0.00000000000E+00 -0.00000000000E+00 -0.45593999997E+02  0.45594000000E+02  0.51100000000E-03 0.  1.
    9900012    2    1    2    0    0 -0.15851019861E+02 -0.48417500390E+01  0.40111415735E+02  0.47787273666E+02  0.20000011951E+02 0.  0.
        -12    1    1    2    0    0  0.15851019861E+02  0.48417500390E+01 -0.40111415735E+02  0.43400726334E+02  0.00000000000E+00 0.  1.
         11    1    3    3    0    0  0.28179120385E+01 -0.31807057829E+01  0.44098765332E+01  0.61240941235E+01  0.51100000000E-03 0. -1.
        -11    1    3    3    0    0 -0.28463467067E+00  0.12422372803E+01 -0.13507781805E+00  0.12815680373E+01  0.51100000000E-03 0.  1.
         12    1    3    3    0    0 -0.18384297229E+02 -0.29032815364E+01  0.35836617020E+02  0.40381611505E+02  0.00000000000E+00 0. -1.
</event>
<event>
 7    1  0.3837332E-009  0.4778728E+02  0.7816164E-02  0.1312668E+00
        -11   -1    0    0    0    0  0.00000000000E+00  0.00000000000E+00  0.45593999997E+02  0.45594000000E+02  0.51100000000E-03 0. -1.
         11   -1    0    0    0    0 -0.00000000000E+00 -0.00000000000E+00 -0.45593999997E+02  0.45594000000E+02  0.51100000000E-03 0.  1.
    9900012    2    1    2    0    0  0.13027359000E+02  0.40688854352E+02  0.76372433794E+01  0.47787280681E+02  0.20000043935E+02 0.  0.
        -12    1    1    2    0    0 -0.13027359000E+02 -0.40688854352E+02 -0.76372433794E+01  0.43400719319E+02  0.00000000000E+00 0.  1.
         11    1    3    3    0    0  0.41076422340E+01  0.20426977669E+02  0.82423652587E+01  0.22406934791E+02  0.51100000000E-03 0. -1.
        -11    1    3    3    0    0 -0.30150654422E+01  0.37731931988E+01 -0.13401061871E+01  0.50123339264E+01  0.51100000000E-03 0.  1.
         12    1    3    3    0    0  0.11934782208E+02  0.16488683484E+02  0.73498430781E+00  0.20368011963E+02  0.00000000000E+00 0. -1.
</event>
<event>
 7    1  0.3837332E-009  0.4778727E+02  0.7816164E-02  0.1312668E+00
        -11   -1    0    0    0    0  0.00000000000E+00  0.00000000000E+00  0.45593999997E+02  0.45594000000E+02  0.51100000000E-03 0. -1.
         11   -1    0    0    0    0 -0.00000000000E+00 -0.00000000000E+00 -0.45593999997E+02  0.45594000000E+02  0.51100000000E-03 0.  1.
    9900012    2    1    2    0    0 -0.11078506938E+02  0.25728097811E+02  0.33150487582E+02  0.47787272358E+02  0.20000005988E+02 0.  0.
        -12    1    1    2    0    0  0.11078506938E+02 -0.25728097811E+02 -0.33150487582E+02  0.43400727642E+02  0.00000000000E+00 0.  1.
         11    1    3    3    0    0 -0.50109297928E+01  0.43559471625E+01  0.39317222354E+01  0.77163549081E+01  0.51100000000E-03 0. -1.
        -11    1    3    3    0    0 -0.46423384732E+01  0.21086360971E+02  0.30996063340E+02  0.37774884094E+02  0.51100000000E-03 0.  1.
        -12    1    3    3    0    0 -0.14252386718E+01  0.28578967788E+00 -0.17772979934E+01  0.22960333553E+01  0.00000000000E+00 0.  1.
</event>
<event>
 7    1  0.3837332E-009  0.4778727E+02  0.7816164E-02  0.1312668E+00
        -11   -1    0    0    0    0  0.00000000000E+00  0.00000000000E+00  0.45593999997E+02  0.45594000000E+02  0.51100000000E-03 0.  1.
         11   -1    0    0    0    0 -0.00000000000E+00 -0.00000000000E+00 -0.45593999997E+02  0.45594000000E+02  0.51100000000E-03 0. -1.
    9900012    2    1    2    0    0  0.39854105274E+02 -0.16849865405E+02  0.33698021296E+01  0.47787271460E+02  0.20000001895E+02 0.  0.
        -12    1    1    2    0    0 -0.39854105274E+02  0.16849865405E+02 -0.33698021296E+01  0.43400728540E+02  0.00000000000E+00 0.  1.
         11    1    3    3    0    0  0.13471951289E+02 -0.10547890189E+02  0.43849955629E+01  0.17662945546E+02  0.51100000000E-03 0. -1.
        -11    1    3    3    0    0 -0.42411152345E+00 -0.10028097437E+01  0.23527976545E+01  0.25925190511E+01  0.51100000000E-03 0.  1.
         12    1    3    3    0    0  0.26806265508E+02 -0.52991654722E+01 -0.33679910877E+01  0.27531806864E+02  0.00000000000E+00 0. -1.
</event>
<event>
 7    1  0.3837332E-009  0.4778727E+02  0.7816164E-02  0.1312668E+00
        -11   -1    0    0    0    0  0.00000000000E+00  0.00000000000E+00  0.45593999997E+02  0.45594000000E+02  0.51100000000E-03 0.  1.
         11   -1    0    0    0    0 -0.00000000000E+00 -0.00000000000E+00 -0.45593999997E+02  0.45594000000E+02  0.51100000000E-03 0. -1.
    9900012    2    1    2    0    0 -0.36518808860E+02 -0.18801253574E+02 -0.14018296398E+02  0.47787272236E+02  0.20000005434E+02 0.  0.
        -12    1    1    2    0    0  0.36518808860E+02  0.18801253574E+02  0.14018296398E+02  0.43400727764E+02  0.00000000000E+00 0.  1.
         11    1    3    3    0    0 -0.37205700088E+02 -0.16701418120E+02 -0.14322800241E+02  0.43224346071E+02  0.51100000000E-03 0. -1.
        -11    1    3    3    0    0  0.15211940530E+00 -0.29777310584E+01 -0.76636310972E+00  0.30785280974E+01  0.51100000000E-03 0.  1.
         12    1    3    3    0    0  0.53477182230E+00  0.87789560442E+00  0.10708669526E+01  0.14843980680E+01  0.00000000000E+00 0. -1.
</event>
<event>
 7    1  0.3837332E-009  0.4778728E+02  0.7816164E-02  0.1312668E+00
        -11   -1    0    0    0    0  0.00000000000E+00  0.00000000000E+00  0.45593999997E+02  0.45594000000E+02  0.51100000000E-03 0.  1.
         11   -1    0    0    0    0 -0.00000000000E+00 -0.00000000000E+00 -0.45593999997E+02  0.45594000000E+02  0.51100000000E-03 0. -1.
    9900012    2    1    2    0    0 -0.38279613903E+02 -0.11027075956E+02  0.17224901320E+02  0.47787280303E+02  0.20000042215E+02 0.  0.
        -12    1    1    2    0    0  0.38279613903E+02  0.11027075956E+02 -0.17224901320E+02  0.43400719697E+02  0.00000000000E+00 0.  1.
         11    1    3    3    0    0 -0.25236374924E+02 -0.83422702916E+01  0.65948058016E+01  0.27385389476E+02  0.51100000000E-03 0. -1.
        -11    1    3    3    0    0 -0.13512951081E+02  0.10448134373E+01  0.73782706872E+01  0.15431473055E+02  0.51100000000E-03 0.  1.
        -12    1    3    3    0    0  0.46971210210E+00 -0.37296191019E+01  0.32518248313E+01  0.49704177730E+01  0.00000000000E+00 0.  1.
</event>
<event>
 7    1  0.3837332E-009  0.4778727E+02  0.7816164E-02  0.1312668E+00
        -11   -1    0    0    0    0  0.00000000000E+00  0.00000000000E+00  0.45593999997E+02  0.45594000000E+02  0.51100000000E-03 0.  1.
         11   -1    0    0    0    0 -0.00000000000E+00 -0.00000000000E+00 -0.45593999997E+02  0.45594000000E+02  0.51100000000E-03 0. -1.
    9900012    2    1    2    0    0  0.89153584480E+01  0.38651736455E+02 -0.17612017529E+02  0.47787268339E+02  0.19999987665E+02 0.  0.
        -12    1    1    2    0    0 -0.89153584480E+01 -0.38651736455E+02  0.17612017529E+02  0.43400731661E+02  0.00000000000E+00 0.  1.
         11    1    3    3    0    0  0.39193534531E+01  0.10846224706E+02 -0.59481120889E+01  0.12976207441E+02  0.51100000000E-03 0. -1.
        -11    1    3    3    0    0 -0.54964475438E+01  0.12838460632E+02 -0.19180225681E+01  0.14096659811E+02  0.51100000000E-03 0.  1.
         12    1    3    3    0    0  0.10492452539E+02  0.14967051117E+02 -0.97458828721E+01  0.20714401086E+02  0.00000000000E+00 0. -1.
</event>
<event>
 7    1  0.3837332E-009  0.4778727E+02  0.7816164E-02  0.1312668E+00
        -11   -1    0    0    0    0  0.00000000000E+00  0.00000000000E+00  0.45593999997E+02  0.45594000000E+02  0.51100000000E-03 0.  1.
         11   -1    0    0    0    0 -0.00000000000E+00 -0.00000000000E+00 -0.45593999997E+02  0.45594000000E+02  0.51100000000E-03 0. -1.
    9900012    2    1    2    0    0 -0.45106531687E+01 -0.43161507125E+02  0.60123240577E+00  0.47787272244E+02  0.20000005471E+02 0.  0.
        -12    1    1    2    0    0  0.45106531687E+01  0.43161507125E+02 -0.60123240577E+00  0.43400727756E+02  0.00000000000E+00 0.  1.
         11    1    3    3    0    0 -0.13272585244E+01 -0.21684450212E+02 -0.31139765484E+01  0.21947069198E+02  0.51100000000E-03 0. -1.
        -11    1    3    3    0    0  0.29986321081E+01 -0.28856610862E+01 -0.29987572944E+01  0.51294619597E+01  0.51100000000E-03 0.  1.
        -12    1    3    3    0    0 -0.61820267524E+01 -0.18591395827E+02  0.67139662486E+01  0.20710741087E+02  0.00000000000E+00 0.  1.
</event>
<event>
 7    1  0.3837332E-009  0.4778727E+02  0.7816164E-02  0.1312668E+00
        -11   -1    0    0    0    0  0.00000000000E+00  0.00000000000E+00  0.45593999997E+02  0.45594000000E+02  0.51100000000E-03 0.  1.
         11   -1    0    0    0    0 -0.00000000000E+00 -0.00000000000E+00 -0.45593999997E+02  0.45594000000E+02  0.51100000000E-03 0. -1.
    9900012    2    1    2    0    0 -0.26872463145E+01  0.42313991395E+00 -0.43315393454E+02  0.47787266709E+02  0.19999980234E+02 0.  0.
        -12    1    1    2    0    0  0.26872463145E+01 -0.42313991395E+00  0.43315393454E+02  0.43400733291E+02  0.00000000000E+00 0.  1.
         11    1    3    3    0    0 -0.58357722786E+01  0.49599430923E+01 -0.54069206131E+01  0.93750767647E+01  0.51100000000E-03 0. -1.
        -11    1    3    3    0    0  0.11976101414E+01 -0.17567699041E-01 -0.10177648193E+02  0.10247882790E+02  0.51100000000E-03 0.  1.
         12    1    3    3    0    0  0.19509158227E+01 -0.45192354793E+01 -0.27730824648E+02  0.28164307155E+02  0.00000000000E+00 0. -1.
</event>
<event>
 7    1  0.3837332E-009  0.4778727E+02  0.7816164E-02  0.1312668E+00
        -11   -1    0    0    0    0  0.00000000000E+00  0.00000000000E+00  0.45593999997E+02  0.45594000000E+02  0.51100000000E-03 0.  1.
         11   -1    0    0    0    0 -0.00000000000E+00 -0.00000000000E+00 -0.45593999997E+02  0.45594000000E+02  0.51100000000E-03 0. -1.
    9900012    2    1    2    0    0 -0.12009444273E+01  0.47530232342E+01 -0.43122959587E+02  0.47787272576E+02  0.20000006983E+02 0.  0.
        -12    1    1    2    0    0  0.12009444273E+01 -0.47530232342E+01  0.43122959587E+02  0.43400727424E+02  0.00000000000E+00 0.  1.
         11    1    3    3    0    0 -0.45307452433E+01  0.55472082748E+01 -0.24071965020E+02  0.25114909363E+02  0.51100000000E-03 0. -1.
        -11    1    3    3    0    0  0.37906693924E+01 -0.15095529680E+00 -0.20592816878E+02  0.20939342616E+02  0.51100000000E-03 0.  1.
        -12    1    3    3    0    0 -0.46086857639E+00 -0.64322974378E+00  0.15418223117E+01  0.17330205968E+01  0.00000000000E+00 0.  1.
</event>
<event>
 7    1  0.3837332E-009  0.4778727E+02  0.7816164E-02  0.1312668E+00
        -11   -1    0    0    0    0  0.00000000000E+00  0.00000000000E+00  0.45593999997E+02  0.45594000000E+02  0.51100000000E-03 0. -1.
         11   -1    0    0    0    0 -0.00000000000E+00 -0.00000000000E+00 -0.45593999997E+02  0.45594000000E+02  0.51100000000E-03 0.  1.
    9900012    2    1    2    0    0 -0.39911143495E+02  0.47390402036E+01 -0.16378805877E+02  0.47787272366E+02  0.20000006028E+02 0.  0.
        -12    1    1    2    0    0  0.39911143495E+02 -0.47390402036E+01  0.16378805877E+02  0.43400727634E+02  0.00000000000E+00 0.  1.
         11    1    3    3    0    0 -0.31537315724E+02  0.36468549997E+01 -0.15838100010E+02  0.35478828146E+02  0.51100000000E-03 0. -1.
        -11    1    3    3    0    0 -0.18039528560E+01  0.22550334846E+01 -0.38885875680E+01  0.48436076904E+01  0.51100000000E-03 0.  1.
        -12    1    3    3    0    0 -0.65698749156E+01 -0.11628482808E+01  0.33478817009E+01  0.74648365296E+01  0.00000000000E+00 0.  1.
</event>
<event>
 7    1  0.3837332E-009  0.4778728E+02  0.7816164E-02  0.1312668E+00
        -11   -1    0    0    0    0  0.00000000000E+00  0.00000000000E+00  0.45593999997E+02  0.45594000000E+02  0.51100000000E-03 0.  1.
         11   -1    0    0    0    0 -0.00000000000E+00 -0.00000000000E+00 -0.45593999997E+02  0.45594000000E+02  0.51100000000E-03 0. -1.
    9900012    2    1    2    0    0 -0.39584267213E+02 -0.13234586780E+01 -0.17747029885E+02  0.47787276234E+02  0.20000023660E+02 0.  0.
        -12    1    1    2    0    0  0.39584267213E+02  0.13234586780E+01  0.17747029885E+02  0.43400723766E+02  0.00000000000E+00 0.  1.
         11    1    3    3    0    0 -0.22933816980E+02  0.18985979553E+01 -0.99085100935E+01  0.25054804090E+02  0.51100000000E-03 0. -1.
        -11    1    3    3    0    0 -0.11963619691E+02  0.36598032050E+01 -0.22684418322E+01  0.12714880425E+02  0.51100000000E-03 0.  1.
         12    1    3    3    0    0 -0.46868305425E+01 -0.68818598383E+01 -0.55700779597E+01  0.10017591719E+02  0.00000000000E+00 0. -1.
</event>
<event>
 7    1  0.3837332E-009  0.4778727E+02  0.7816164E-02  0.1312668E+00
        -11   -1    0    0    0    0  0.00000000000E+00  0.00000000000E+00  0.45593999997E+02  0.45594000000E+02  0.51100000000E-03 0.  1.
         11   -1    0    0    0    0 -0.00000000000E+00 -0.00000000000E+00 -0.45593999997E+02  0.45594000000E+02  0.51100000000E-03 0. -1.
    9900012    2    1    2    0    0  0.23084294203E+02 -0.33929557902E+02 -0.14125287134E+02  0.47787271032E+02  0.19999999944E+02 0.  0.
        -12    1    1    2    0    0 -0.23084294203E+02  0.33929557902E+02  0.14125287134E+02  0.43400728968E+02  0.00000000000E+00 0.  1.
         11    1    3    3    0    0  0.44426047296E+01 -0.43609696973E+01 -0.17870095305E+01  0.64767427622E+01  0.51100000000E-03 0. -1.
        -11    1    3    3    0    0 -0.71824857240E+00 -0.15094757816E+02 -0.64540891740E+01  0.16432372374E+02  0.51100000000E-03 0.  1.
         12    1    3    3    0    0  0.19359938046E+02 -0.14473830389E+02 -0.58841884299E+01  0.24878155896E+02  0.00000000000E+00 0. -1.
</event>
<event>
 7    1  0.3837332E-009  0.4778727E+02  0.7816164E-02  0.1312668E+00
        -11   -1    0    0    0    0  0.00000000000E+00  0.00000000000E+00  0.45593999997E+02  0.45594000000E+02  0.51100000000E-03 0.  1.
         11   -1    0    0    0    0 -0.00000000000E+00 -0.00000000000E+00 -0.45593999997E+02  0.45594000000E+02  0.51100000000E-03 0. -1.
    9900012    2    1    2    0    0 -0.57576676240E+01  0.21868711530E+02 -0.37043648234E+02  0.47787272415E+02  0.20000006249E+02 0.  0.
        -12    1    1    2    0    0  0.57576676240E+01 -0.21868711530E+02  0.37043648234E+02  0.43400727585E+02  0.00000000000E+00 0.  1.
         11    1    3    3    0    0  0.29199616682E+01  0.33322798290E+01 -0.61575143154E+01  0.75858584094E+01  0.51100000000E-03 0. -1.
        -11    1    3    3    0    0 -0.51160472664E+00  0.17098204812E+02 -0.23703998575E+02  0.29231659137E+02  0.51100000000E-03 0.  1.
        -12    1    3    3    0    0 -0.81660245656E+01  0.14382268889E+01 -0.71821353434E+01  0.10969754869E+02  0.00000000000E+00 0.  1.
</event>
<event>
 7    1  0.3837332E-009  0.4778728E+02  0.7816164E-02  0.1312668E+00
        -11   -1    0    0    0    0  0.00000000000E+00  0.00000000000E+00  0.45593999997E+02  0.45594000000E+02  0.51100000000E-03 0.  1.
         11   -1    0    0    0    0 -0.00000000000E+00 -0.00000000000E+00 -0.45593999997E+02  0.45594000000E+02  0.51100000000E-03 0. -1.
    9900012    2    1    2    0    0 -0.27833104467E+02 -0.29671822302E+02 -0.15117010449E+02  0.47787277104E+02  0.20000027629E+02 0.  0.
        -12    1    1    2    0    0  0.27833104467E+02  0.29671822302E+02  0.15117010449E+02  0.43400722896E+02  0.00000000000E+00 0.  1.
         11    1    3    3    0    0 -0.41042581200E+01 -0.12615521815E+02 -0.70848243042E+01  0.15039649633E+02  0.51100000000E-03 0. -1.
        -11    1    3    3    0    0 -0.33047163627E+01 -0.80026374481E+01  0.86300237511E+00  0.87010418758E+01  0.51100000000E-03 0.  1.
        -12    1    3    3    0    0 -0.20424129984E+02 -0.90536630382E+01 -0.88951885197E+01  0.24046585596E+02  0.00000000000E+00 0.  1.
</event>
<event>
 7    1  0.3837332E-009  0.4778727E+02  0.7816164E-02  0.1312668E+00
        -11   -1    0    0    0    0  0.00000000000E+00  0.00000000000E+00  0.45593999997E+02  0.45594000000E+02  0.51100000000E-03 0.  1.
         11   -1    0    0    0    0 -0.00000000000E+00 -0.00000000000E+00 -0.45593999997E+02  0.45594000000E+02  0.51100000000E-03 0. -1.
    9900012    2    1    2    0    0  0.36989106610E+02 -0.22606392544E+02 -0.20929649169E+01  0.47787268510E+02  0.19999988446E+02 0.  0.
        -12    1    1    2    0    0 -0.36989106610E+02  0.22606392544E+02  0.20929649169E+01  0.43400731490E+02  0.00000000000E+00 0.  1.
         11    1    3    3    0    0  0.26602469107E+02 -0.12878360884E+02 -0.24158822063E+01  0.29654342493E+02  0.51100000000E-03 0. -1.
        -11    1    3    3    0    0  0.72410322324E+01 -0.70549238734E+00 -0.32013956616E+01  0.79485345658E+01  0.51100000000E-03 0.  1.
         12    1    3    3    0    0  0.31456052714E+01 -0.90225392728E+01  0.35243129511E+01  0.10184391451E+02  0.00000000000E+00 0. -1.
</event>
<event>
 7    1  0.3837332E-009  0.4778727E+02  0.7816164E-02  0.1312668E+00
        -11   -1    0    0    0    0  0.00000000000E+00  0.00000000000E+00  0.45593999997E+02  0.45594000000E+02  0.51100000000E-03 0. -1.
         11   -1    0    0    0    0 -0.00000000000E+00 -0.00000000000E+00 -0.45593999997E+02  0.45594000000E+02  0.51100000000E-03 0.  1.
    9900012    2    1    2    0    0 -0.43165387806E+02  0.44973073050E+01  0.38270447365E+00  0.47787274889E+02  0.20000017529E+02 0.  0.
        -12    1    1    2    0    0  0.43165387806E+02 -0.44973073050E+01 -0.38270447365E+00  0.43400725111E+02  0.00000000000E+00 0.  1.
         11    1    3    3    0    0 -0.38532882823E+02  0.43749800396E+01 -0.39987594548E+01  0.38986069133E+02  0.51100000000E-03 0. -1.
        -11    1    3    3    0    0 -0.15346629221E+01 -0.56296881304E-01 -0.15029511096E+01  0.21487721894E+01  0.51100000000E-03 0.  1.
        -12    1    3    3    0    0 -0.30978420615E+01  0.17862414669E+00  0.58844150380E+01  0.66524335670E+01  0.00000000000E+00 0.  1.
</event>
<event>
 7    1  0.3837332E-009  0.4778728E+02  0.7816164E-02  0.1312668E+00
        -11   -1    0    0    0    0  0.00000000000E+00  0.00000000000E+00  0.45593999997E+02  0.45594000000E+02  0.51100000000E-03 0.  1.
         11   -1    0    0    0    0 -0.00000000000E+00 -0.00000000000E+00 -0.45593999997E+02  0.45594000000E+02  0.51100000000E-03 0. -1.
    9900012    2    1    2    0    0  0.10198520879E+01  0.11541303743E+02 -0.41825598892E+02  0.47787279809E+02  0.20000039962E+02 0.  0.
        -12    1    1    2    0    0 -0.10198520879E+01 -0.11541303743E+02  0.41825598892E+02  0.43400720191E+02  0.00000000000E+00 0.  1.
         11    1    3    3    0    0  0.65519810962E+01  0.30585334753E+01 -0.93783850758E+01  0.11842178440E+02  0.51100000000E-03 0. -1.
        -11    1    3    3    0    0  0.30107421936E+00  0.77393583370E+01 -0.95038859822E+01  0.12260186058E+02  0.51100000000E-03 0.  1.
         12    1    3    3    0    0 -0.58332032276E+01  0.74341193069E+00 -0.22943327835E+02  0.23684915312E+02  0.00000000000E+00 0. -1.
</event>
<event>
 7    1  0.3837332E-009  0.4778727E+02  0.7816164E-02  0.1312668E+00
        -11   -1    0    0    0    0  0.00000000000E+00  0.00000000000E+00  0.45593999997E+02  0.45594000000E+02  0.51100000000E-03 0.  1.
         11   -1    0    0    0    0 -0.00000000000E+00 -0.00000000000E+00 -0.45593999997E+02  0.45594000000E+02  0.51100000000E-03 0. -1.
    9900012    2    1    2    0    0 -0.21546655449E+01 -0.19085680245E+02 -0.38919368714E+02  0.47787273795E+02  0.20000012539E+02 0.  0.
        -12    1    1    2    0    0  0.21546655449E+01  0.19085680245E+02  0.38919368714E+02  0.43400726205E+02  0.00000000000E+00 0.  1.
         11    1    3    3    0    0 -0.93378487352E+01 -0.12977603750E+02 -0.21785798634E+02  0.27022854041E+02  0.51100000000E-03 0. -1.
        -11    1    3    3    0    0  0.19553400649E+01 -0.43443404905E+01 -0.30965539827E+01  0.56820151263E+01  0.51100000000E-03 0.  1.
         12    1    3    3    0    0  0.52278431253E+01 -0.17637360041E+01 -0.14037016098E+02  0.15082404628E+02  0.00000000000E+00 0. -1.
</event>
<event>
 7    1  0.3837332E-009  0.4778727E+02  0.7816164E-02  0.1312668E+00
        -11   -1    0    0    0    0  0.00000000000E+00  0.00000000000E+00  0.45593999997E+02  0.45594000000E+02  0.51100000000E-03 0.  1.
         11   -1    0    0    0    0 -0.00000000000E+00 -0.00000000000E+00 -0.45593999997E+02  0.45594000000E+02  0.51100000000E-03 0. -1.
    9900012    2    1    2    0    0 -0.34265634695E+02  0.15610295850E+02 -0.21582596212E+02  0.47787268246E+02  0.19999987239E+02 0.  0.
        -12    1    1    2    0    0  0.34265634695E+02 -0.15610295850E+02  0.21582596212E+02  0.43400731754E+02  0.00000000000E+00 0.  1.
         11    1    3    3    0    0 -0.24831298328E+02  0.60478102137E+01 -0.21614611653E+02  0.33471791440E+02  0.51100000000E-03 0. -1.
        -11    1    3    3    0    0 -0.52346997191E+00 -0.58546081041E+00  0.19623912647E+00  0.80950307467E+00  0.51100000000E-03 0.  1.
         12    1    3    3    0    0 -0.89108663944E+01  0.10147946447E+02 -0.16422368536E+00  0.13505973731E+02  0.00000000000E+00 0. -1.
</event>
<event>
 7    1  0.3837332E-009  0.4778727E+02  0.7816164E-02  0.1312668E+00
        -11   -1    0    0    0    0  0.00000000000E+00  0.00000000000E+00  0.45593999997E+02  0.45594000000E+02  0.51100000000E-03 0.  1.
         11   -1    0    0    0    0 -0.00000000000E+00 -0.00000000000E+00 -0.45593999997E+02  0.45594000000E+02  0.51100000000E-03 0. -1.
    9900012    2    1    2    0    0  0.93509224140E+01 -0.40193770997E+02  0.13440400545E+02  0.47787270239E+02  0.19999996328E+02 0.  0.
        -12    1    1    2    0    0 -0.93509224140E+01  0.40193770997E+02 -0.13440400545E+02  0.43400729761E+02  0.00000000000E+00 0.  1.
         11    1    3    3    0    0  0.59126847138E+01 -0.14260640300E+02  0.54102848964E+01  0.16358388833E+02  0.51100000000E-03 0. -1.
        -11    1    3    3    0    0  0.56372537200E+01 -0.24768934065E+02  0.26985236861E+01  0.25545268732E+02  0.51100000000E-03 0.  1.
        -12    1    3    3    0    0 -0.21990160198E+01 -0.11641966321E+01  0.53315919620E+01  0.58836126744E+01  0.00000000000E+00 0.  1.
</event>
<event>
 7    1  0.3837332E-009  0.4778726E+02  0.7816164E-02  0.1312668E+00
        -11   -1    0    0    0    0  0.00000000000E+00  0.00000000000E+00  0.45593999997E+02  0.45594000000E+02  0.51100000000E-03 0. -1.
         11   -1    0    0    0    0 -0.00000000000E+00 -0.00000000000E+00 -0.45593999997E+02  0.45594000000E+02  0.51100000000E-03 0.  1.
    9900012    2    1    2    0    0 -0.43352423318E+02  0.16517180221E+01  0.12097861964E+01  0.47787258502E+02  0.19999942814E+02 0.  0.
        -12    1    1    2    0    0  0.43352423318E+02 -0.16517180221E+01 -0.12097861964E+01  0.43400741498E+02  0.00000000000E+00 0.  1.
         11    1    3    3    0    0 -0.33767138962E+00  0.14000083929E+01  0.13233321021E+01  0.19558255498E+01  0.51100000000E-03 0. -1.
        -11    1    3    3    0    0 -0.15673102162E+02 -0.53985971773E+00 -0.76646081750E+01  0.17455194030E+02  0.51100000000E-03 0.  1.
         12    1    3    3    0    0 -0.27341649766E+02  0.79156934689E+00  0.75510622693E+01  0.28376238922E+02  0.00000000000E+00 0. -1.
</event>
<event>
 7    1  0.3837332E-009  0.4778727E+02  0.7816164E-02  0.1312668E+00
        -11   -1    0    0    0    0  0.00000000000E+00  0.00000000000E+00  0.45593999997E+02  0.45594000000E+02  0.51100000000E-03 0.  1.
         11   -1    0    0    0    0 -0.00000000000E+00 -0.00000000000E+00 -0.45593999997E+02  0.45594000000E+02  0.51100000000E-03 0. -1.
    9900012    2    1    2    0    0  0.11325876565E+01  0.25626626527E+02 -0.35008805039E+02  0.47787272216E+02  0.20000005340E+02 0.  0.
        -12    1    1    2    0    0 -0.11325876565E+01 -0.25626626527E+02  0.35008805039E+02  0.43400727784E+02  0.00000000000E+00 0.  1.
         11    1    3    3    0    0 -0.61388762374E+01  0.12642091602E+01 -0.82945439153E+01  0.10396320757E+02  0.51100000000E-03 0. -1.
        -11    1    3    3    0    0  0.27148223768E+01  0.26240884763E+01 -0.55403623784E+01  0.67046041206E+01  0.51100000000E-03 0.  1.
        -12    1    3    3    0    0  0.45566415170E+01  0.21738328890E+02 -0.21173898745E+02  0.30686347338E+02  0.00000000000E+00 0.  1.
</event>
<event>
 7    1  0.3837332E-009  0.4778728E+02  0.7816164E-02  0.1312668E+00
        -11   -1    0    0    0    0  0.00000000000E+00  0.00000000000E+00  0.45593999997E+02  0.45594000000E+02  0.51100000000E-03 0.  1.
         11   -1    0    0    0    0 -0.00000000000E+00 -0.00000000000E+00 -0.45593999997E+02  0.45594000000E+02  0.51100000000E-03 0. -1.
    9900012    2    1    2    0    0  0.40230769303E+02  0.15236910342E+02 -0.57397308558E+01  0.47787277129E+02  0.20000027740E+02 0.  0.
        -12    1    1    2    0    0 -0.40230769303E+02 -0.15236910342E+02  0.57397308558E+01  0.43400722871E+02  0.00000000000E+00 0.  1.
         11    1    3    3    0    0  0.17698996697E+02  0.10221784260E+02 -0.55724255189E+01  0.21184694568E+02  0.51100000000E-03 0. -1.
        -11    1    3    3    0    0  0.83911023554E+00  0.48349445047E+01 -0.13775528865E+00  0.49091517731E+01  0.51100000000E-03 0.  1.
        -12    1    3    3    0    0  0.21692662370E+02  0.18018157807E+00 -0.29550048325E-01  0.21693430787E+02  0.00000000000E+00 0.  1.
</event>
<event>
 7    1  0.3837332E-009  0.4778726E+02  0.7816164E-02  0.1312668E+00
        -11   -1    0    0    0    0  0.00000000000E+00  0.00000000000E+00  0.45593999997E+02  0.45594000000E+02  0.51100000000E-03 0.  1.
         11   -1    0    0    0    0 -0.00000000000E+00 -0.00000000000E+00 -0.45593999997E+02  0.45594000000E+02  0.51100000000E-03 0. -1.
    9900012    2    1    2    0    0 -0.73814609135E+01  0.96815964756E+01 -0.41658187849E+02  0.47787263942E+02  0.19999967615E+02 0.  0.
        -12    1    1    2    0    0  0.73814609135E+01 -0.96815964756E+01  0.41658187849E+02  0.43400736058E+02  0.00000000000E+00 0.  1.
         11    1    3    3    0    0  0.61630444918E+00 -0.22742008011E+01 -0.68058565932E+01  0.72021874932E+01  0.51100000000E-03 0. -1.
        -11    1    3    3    0    0  0.21085397500E+01 -0.79956494083E+00 -0.15434971744E+00  0.22603247705E+01  0.51100000000E-03 0.  1.
        -12    1    3    3    0    0 -0.10106305113E+02  0.12755362218E+02 -0.34697981539E+02  0.38324751678E+02  0.00000000000E+00 0.  1.
</event>
<event>
 7    1  0.3837332E-009  0.4778727E+02  0.7816164E-02  0.1312668E+00
        -11   -1    0    0    0    0  0.00000000000E+00  0.00000000000E+00  0.45593999997E+02  0.45594000000E+02  0.51100000000E-03 0. -1.
         11   -1    0    0    0    0 -0.00000000000E+00 -0.00000000000E+00 -0.45593999997E+02  0.45594000000E+02  0.51100000000E-03 0.  1.
    9900012    2    1    2    0    0 -0.12721928739E+02 -0.41411882389E+02 -0.26137705397E+01  0.47787271086E+02  0.20000000189E+02 0.  0.
        -12    1    1    2    0    0  0.12721928739E+02  0.41411882389E+02  0.26137705397E+01  0.43400728914E+02  0.00000000000E+00 0.  1.
         11    1    3    3    0    0  0.13510312192E-01 -0.56559348956E+01  0.64450218434E+01  0.85748521209E+01  0.51100000000E-03 0. -1.
        -11    1    3    3    0    0 -0.14705656618E+01 -0.90258515109E+01 -0.21869870798E+01  0.94027374530E+01  0.51100000000E-03 0.  1.
         12    1    3    3    0    0 -0.11264873390E+02 -0.26730095983E+02 -0.68718053033E+01  0.29809681512E+02  0.00000000000E+00 0. -1.
</event>
<event>
 7    1  0.3837332E-009  0.4778727E+02  0.7816164E-02  0.1312668E+00
        -11   -1    0    0    0    0  0.00000000000E+00  0.00000000000E+00  0.45593999997E+02  0.45594000000E+02  0.51100000000E-03 0.  1.
         11   -1    0    0    0    0 -0.00000000000E+00 -0.00000000000E+00 -0.45593999997E+02  0.45594000000E+02  0.51100000000E-03 0. -1.
    9900012    2    1    2    0    0  0.10047294442E+02 -0.13522554398E+02 -0.39997694593E+02  0.47787272174E+02  0.20000005152E+02 0.  0.
        -12    1    1    2    0    0 -0.10047294442E+02  0.13522554398E+02  0.39997694593E+02  0.43400727826E+02  0.00000000000E+00 0.  1.
         11    1    3    3    0    0  0.37686488920E+01 -0.34533163045E+01 -0.74605274570E+01  0.90436484986E+01  0.51100000000E-03 0. -1.
        -11    1    3    3    0    0  0.11065692081E+02 -0.30514305657E+01 -0.24469742990E+02  0.27028301685E+02  0.51100000000E-03 0.  1.
         12    1    3    3    0    0 -0.47870465310E+01 -0.70178075280E+01 -0.80674241462E+01  0.11715321991E+02  0.00000000000E+00 0. -1.
</event>
<event>
 7    1  0.3837332E-009  0.4778727E+02  0.7816164E-02  0.1312668E+00
        -11   -1    0    0    0    0  0.00000000000E+00  0.00000000000E+00  0.45593999997E+02  0.45594000000E+02  0.51100000000E-03 0.  1.
         11   -1    0    0    0    0 -0.00000000000E+00 -0.00000000000E+00 -0.45593999997E+02  0.45594000000E+02  0.51100000000E-03 0. -1.
    9900012    2    1    2    0    0  0.32987729006E+02 -0.14815122507E+02 -0.23998855706E+02  0.47787271952E+02  0.20000004139E+02 0.  0.
        -12    1    1    2    0    0 -0.32987729006E+02  0.14815122507E+02  0.23998855706E+02  0.43400728048E+02  0.00000000000E+00 0.  1.
         11    1    3    3    0    0  0.21820708368E+01 -0.27572419127E+01 -0.92389890804E+01  0.98854810500E+01  0.51100000000E-03 0. -1.
        -11    1    3    3    0    0  0.17387910181E+02 -0.97974293714E+01 -0.13793156039E+02  0.24260671807E+02  0.51100000000E-03 0.  1.
        -12    1    3    3    0    0  0.13417747988E+02 -0.22604512226E+01 -0.96671058624E+00  0.13641119095E+02  0.00000000000E+00 0.  1.
</event>
<event>
 7    1  0.3837332E-009  0.4778727E+02  0.7816164E-02  0.1312668E+00
        -11   -1    0    0    0    0  0.00000000000E+00  0.00000000000E+00  0.45593999997E+02  0.45594000000E+02  0.51100000000E-03 0.  1.
         11   -1    0    0    0    0 -0.00000000000E+00 -0.00000000000E+00 -0.45593999997E+02  0.45594000000E+02  0.51100000000E-03 0. -1.
    9900012    2    1    2    0    0  0.31979546150E+02  0.12068002763E+00 -0.29341390036E+02  0.47787272992E+02  0.20000008877E+02 0.  0.
        -12    1    1    2    0    0 -0.31979546150E+02 -0.12068002763E+00  0.29341390036E+02  0.43400727008E+02  0.00000000000E+00 0.  1.
         11    1    3    3    0    0  0.41697717811E+01 -0.18226264491E+01  0.10378360806E+01  0.46675548064E+01  0.51100000000E-03 0. -1.
        -11    1    3    3    0    0  0.36368916243E+01 -0.42832061970E+01 -0.61978305907E+01  0.83657599956E+01  0.51100000000E-03 0.  1.
         12    1    3    3    0    0  0.24172882745E+02  0.62265126738E+01 -0.24181395526E+02  0.34753958189E+02  0.00000000000E+00 0. -1.
</event>
<event>
 7    1  0.3837332E-009  0.4778725E+02  0.7816164E-02  0.1312668E+00
        -11   -1    0    0    0    0  0.00000000000E+00  0.00000000000E+00  0.45593999997E+02  0.45594000000E+02  0.51100000000E-03 0.  1.
         11   -1    0    0    0    0 -0.00000000000E+00 -0.00000000000E+00 -0.45593999997E+02  0.45594000000E+02  0.51100000000E-03 0. -1.
    9900012    2    1    2    0    0  0.37231348091E+02  0.96772820860E+01 -0.20094815459E+02  0.47787254874E+02  0.19999926271E+02 0.  0.
        -12    1    1    2    0    0 -0.37231348091E+02 -0.96772820860E+01  0.20094815459E+02  0.43400745126E+02  0.00000000000E+00 0.  1.
         11    1    3    3    0    0  0.12852682961E+02  0.20336391205E+01 -0.11205334386E+02  0.17172264450E+02  0.51100000000E-03 0. -1.
        -11    1    3    3    0    0  0.21390401005E+02  0.87401468271E+01 -0.12108920133E+02  0.26087647820E+02  0.51100000000E-03 0.  1.
        -12    1    3    3    0    0  0.29882641240E+01 -0.10965038616E+01  0.32194390600E+01  0.45273426040E+01  0.00000000000E+00 0.  1.
</event>
<event>
 7    1  0.3837332E-009  0.4778727E+02  0.7816164E-02  0.1312668E+00
        -11   -1    0    0    0    0  0.00000000000E+00  0.00000000000E+00  0.45593999997E+02  0.45594000000E+02  0.51100000000E-03 0.  1.
         11   -1    0    0    0    0 -0.00000000000E+00 -0.00000000000E+00 -0.45593999997E+02  0.45594000000E+02  0.51100000000E-03 0. -1.
    9900012    2    1    2    0    0  0.17465677970E+02  0.49464573729E+00 -0.39728187447E+02  0.47787268909E+02  0.19999990266E+02 0.  0.
        -12    1    1    2    0    0 -0.17465677970E+02 -0.49464573729E+00  0.39728187447E+02  0.43400731091E+02  0.00000000000E+00 0.  1.
         11    1    3    3    0    0  0.28046407858E+01 -0.28698777126E+01 -0.57844842454E+01  0.70400615245E+01  0.51100000000E-03 0. -1.
        -11    1    3    3    0    0  0.12002270546E+02 -0.51974407155E+01 -0.15814279898E+02  0.20522166971E+02  0.51100000000E-03 0.  1.
         12    1    3    3    0    0  0.26587666385E+01  0.85619641653E+01 -0.18129423304E+02  0.20225040414E+02  0.00000000000E+00 0. -1.
</event>
<event>
 7    1  0.3837332E-009  0.4778727E+02  0.7816164E-02  0.1312668E+00
        -11   -1    0    0    0    0  0.00000000000E+00  0.00000000000E+00  0.45593999997E+02  0.45594000000E+02  0.51100000000E-03 0.  1.
         11   -1    0    0    0    0 -0.00000000000E+00 -0.00000000000E+00 -0.45593999997E+02  0.45594000000E+02  0.51100000000E-03 0. -1.
    9900012    2    1    2    0    0 -0.20514054054E+02  0.32157582661E+02 -0.20704746241E+02  0.47787273586E+02  0.20000011588E+02 0.  0.
        -12    1    1    2    0    0  0.20514054054E+02 -0.32157582661E+02  0.20704746241E+02  0.43400726414E+02  0.00000000000E+00 0.  1.
         11    1    3    3    0    0 -0.27265144599E+01  0.27337877713E+01 -0.53152537040E+00  0.38974345612E+01  0.51100000000E-03 0. -1.
        -11    1    3    3    0    0 -0.96462936510E+01  0.14347818399E+01 -0.62773279823E+01  0.11598035480E+02  0.51100000000E-03 0.  1.
         12    1    3    3    0    0 -0.81412459434E+01  0.27989013050E+02 -0.13895892888E+02  0.32291803545E+02  0.00000000000E+00 0. -1.
</event>
<event>
 7    1  0.3837332E-009  0.4778728E+02  0.7816164E-02  0.1312668E+00
        -11   -1    0    0    0    0  0.00000000000E+00  0.00000000000E+00  0.45593999997E+02  0.45594000000E+02  0.51100000000E-03 0. -1.
         11   -1    0    0    0    0 -0.00000000000E+00 -0.00000000000E+00 -0.45593999997E+02  0.45594000000E+02  0.51100000000E-03 0.  1.
    9900012    2    1    2    0    0 -0.32621055257E+02 -0.16048641191E+02  0.23705075647E+02  0.47787277177E+02  0.20000027960E+02 0.  0.
        -12    1    1    2    0    0  0.32621055257E+02  0.16048641191E+02 -0.23705075647E+02  0.43400722823E+02  0.00000000000E+00 0.  1.
         11    1    3    3    0    0 -0.11940311780E+02 -0.94877063014E+01  0.18895300471E+02  0.24282092093E+02  0.51100000000E-03 0. -1.
        -11    1    3    3    0    0 -0.47614011767E+01 -0.46756774947E+01  0.31791494270E+01  0.73918801763E+01  0.51100000000E-03 0.  1.
        -12    1    3    3    0    0 -0.15919342300E+02 -0.18852573949E+01  0.16306257489E+01  0.16113304907E+02  0.00000000000E+00 0.  1.
</event>
<event>
 7    1  0.3837332E-009  0.4778727E+02  0.7816164E-02  0.1312668E+00
        -11   -1    0    0    0    0  0.00000000000E+00  0.00000000000E+00  0.45593999997E+02  0.45594000000E+02  0.51100000000E-03 0.  1.
         11   -1    0    0    0    0 -0.00000000000E+00 -0.00000000000E+00 -0.45593999997E+02  0.45594000000E+02  0.51100000000E-03 0. -1.
    9900012    2    1    2    0    0  0.48652287213E+01 -0.34148773726E+02 -0.26340346610E+02  0.47787273543E+02  0.20000011391E+02 0.  0.
        -12    1    1    2    0    0 -0.48652287213E+01  0.34148773726E+02  0.26340346610E+02  0.43400726457E+02  0.00000000000E+00 0.  1.
         11    1    3    3    0    0  0.18175346895E+01  0.63165272054E+00 -0.15806061006E+01  0.24901271882E+01  0.51100000000E-03 0.  1.
        -11    1    3    3    0    0 -0.36261614479E+01 -0.26458109329E+02 -0.21045119198E+02  0.34001141722E+02  0.51100000000E-03 0. -1.
         12    1    3    3    0    0  0.66738554797E+01 -0.83223171176E+01 -0.37146213114E+01  0.11296004632E+02  0.00000000000E+00 0. -1.
</event>
<event>
 7    1  0.3837332E-009  0.4778727E+02  0.7816164E-02  0.1312668E+00
        -11   -1    0    0    0    0  0.00000000000E+00  0.00000000000E+00  0.45593999997E+02  0.45594000000E+02  0.51100000000E-03 0.  1.
         11   -1    0    0    0    0 -0.00000000000E+00 -0.00000000000E+00 -0.45593999997E+02  0.45594000000E+02  0.51100000000E-03 0. -1.
    9900012    2    1    2    0    0 -0.38212217492E+02 -0.20518059260E+02 -0.15681593733E+01  0.47787269070E+02  0.19999990997E+02 0.  0.
        -12    1    1    2    0    0  0.38212217492E+02  0.20518059260E+02  0.15681593733E+01  0.43400730930E+02  0.00000000000E+00 0.  1.
         11    1    3    3    0    0 -0.10928409220E+02 -0.40356688557E+01 -0.38499704805E+01  0.12269434549E+02  0.51100000000E-03 0. -1.
        -11    1    3    3    0    0  0.17030127945E+01 -0.14428429273E+01 -0.14308872156E+01  0.26513179319E+01  0.51100000000E-03 0.  1.
         12    1    3    3    0    0 -0.28986821066E+02 -0.15039547477E+02  0.37126983228E+01  0.32866516589E+02  0.00000000000E+00 0. -1.
</event>
<event>
 7    1  0.3837332E-009  0.4778727E+02  0.7816164E-02  0.1312668E+00
        -11   -1    0    0    0    0  0.00000000000E+00  0.00000000000E+00  0.45593999997E+02  0.45594000000E+02  0.51100000000E-03 0.  1.
         11   -1    0    0    0    0 -0.00000000000E+00 -0.00000000000E+00 -0.45593999997E+02  0.45594000000E+02  0.51100000000E-03 0. -1.
    9900012    2    1    2    0    0 -0.90510801466E+01 -0.13208372303E+02 -0.40339069972E+02  0.47787265940E+02  0.19999976728E+02 0.  0.
        -12    1    1    2    0    0  0.90510801466E+01  0.13208372303E+02  0.40339069972E+02  0.43400734060E+02  0.00000000000E+00 0.  1.
         11    1    3    3    0    0 -0.63232211582E+01 -0.68596333365E+01 -0.17223578788E+02  0.19587990246E+02  0.51100000000E-03 0. -1.
        -11    1    3    3    0    0  0.56348024823E+01 -0.51605375198E+01 -0.97300767575E+01  0.12371602179E+02  0.51100000000E-03 0.  1.
        -12    1    3    3    0    0 -0.83626614707E+01 -0.11882014466E+01 -0.13385414426E+02  0.15827673515E+02  0.00000000000E+00 0.  1.
</event>
<event>
 7    1  0.3837332E-009  0.4778727E+02  0.7816164E-02  0.1312668E+00
        -11   -1    0    0    0    0  0.00000000000E+00  0.00000000000E+00  0.45593999997E+02  0.45594000000E+02  0.51100000000E-03 0.  1.
         11   -1    0    0    0    0 -0.00000000000E+00 -0.00000000000E+00 -0.45593999997E+02  0.45594000000E+02  0.51100000000E-03 0. -1.
    9900012    2    1    2    0    0 -0.15912508274E+02 -0.33139354950E+02 -0.23069431814E+02  0.47787269012E+02  0.19999990732E+02 0.  0.
        -12    1    1    2    0    0  0.15912508274E+02  0.33139354950E+02  0.23069431814E+02  0.43400730988E+02  0.00000000000E+00 0.  1.
         11    1    3    3    0    0 -0.84493742650E+01 -0.11690771235E+02 -0.42430209283E+01  0.15035600567E+02  0.51100000000E-03 0. -1.
        -11    1    3    3    0    0 -0.60631314553E+01 -0.15256383958E+02 -0.44095417040E+01  0.16998907989E+02  0.51100000000E-03 0.  1.
        -12    1    3    3    0    0 -0.14000025538E+01 -0.61921997571E+01 -0.14416869182E+02  0.15752760456E+02  0.00000000000E+00 0.  1.
</event>
<event>
 7    1  0.3837332E-009  0.4778727E+02  0.7816164E-02  0.1312668E+00
        -11   -1    0    0    0    0  0.00000000000E+00  0.00000000000E+00  0.45593999997E+02  0.45594000000E+02  0.51100000000E-03 0. -1.
         11   -1    0    0    0    0 -0.00000000000E+00 -0.00000000000E+00 -0.45593999997E+02  0.45594000000E+02  0.51100000000E-03 0.  1.
    9900012    2    1    2    0    0 -0.31717486359E+02 -0.10354321445E+02  0.27756302677E+02  0.47787271299E+02  0.20000001159E+02 0.  0.
        -12    1    1    2    0    0  0.31717486359E+02  0.10354321445E+02 -0.27756302677E+02  0.43400728701E+02  0.00000000000E+00 0.  1.
         11    1    3    3    0    0  0.45184412811E+00  0.11702111558E+01  0.38353437215E+01  0.40352718605E+01  0.51100000000E-03 0. -1.
        -11    1    3    3    0    0 -0.69330048122E+01 -0.79647961172E+01  0.10730154357E+02  0.15054592180E+02  0.51100000000E-03 0.  1.
         12    1    3    3    0    0 -0.25236325675E+02 -0.35597364839E+01  0.13190804598E+02  0.28697407258E+02  0.00000000000E+00 0. -1.
</event>
<event>
 7    1  0.3837332E-009  0.4778727E+02  0.7816164E-02  0.1312668E+00
        -11   -1    0    0    0    0  0.00000000000E+00  0.00000000000E+00  0.45593999997E+02  0.45594000000E+02  0.51100000000E-03 0.  1.
         11   -1    0    0    0    0 -0.00000000000E+00 -0.00000000000E+00 -0.45593999997E+02  0.45594000000E+02  0.51100000000E-03 0. -1.
    9900012    2    1    2    0    0 -0.19006686675E+02  0.28581305194E+02 -0.26560836916E+02  0.47787271866E+02  0.20000003744E+02 0.  0.
        -12    1    1    2    0    0  0.19006686675E+02 -0.28581305194E+02  0.26560836916E+02  0.43400728134E+02  0.00000000000E+00 0.  1.
         11    1    3    3    0    0  0.19696619225E+01  0.73640814408E+00 -0.94900472937E+00  0.23070490418E+01  0.51100000000E-03 0. -1.
        -11    1    3    3    0    0 -0.13036608300E+02  0.66412971971E+01 -0.12950689457E+02  0.19539200140E+02  0.51100000000E-03 0.  1.
         12    1    3    3    0    0 -0.79397402979E+01  0.21203599852E+02 -0.12661142729E+02  0.25941022684E+02  0.00000000000E+00 0. -1.
</event>
<event>
 7    1  0.3837332E-009  0.4778727E+02  0.7816164E-02  0.1312668E+00
        -11   -1    0    0    0    0  0.00000000000E+00  0.00000000000E+00  0.45593999997E+02  0.45594000000E+02  0.51100000000E-03 0. -1.
         11   -1    0    0    0    0 -0.00000000000E+00 -0.00000000000E+00 -0.45593999997E+02  0.45594000000E+02  0.51100000000E-03 0.  1.
    9900012    2    1    2    0    0 -0.11889241455E+02  0.39878062010E+02  0.12329198202E+02  0.47787273965E+02  0.20000013317E+02 0.  0.
        -12    1    1    2    0    0  0.11889241455E+02 -0.39878062010E+02 -0.12329198202E+02  0.43400726035E+02  0.00000000000E+00 0.  1.
         11    1    3    3    0    0  0.29521550531E+01  0.16282737882E+02  0.52547385129E+01  0.17362460928E+02  0.51100000000E-03 0. -1.
        -11    1    3    3    0    0 -0.59137879587E+01  0.15592918825E+02  0.78062749263E+01  0.18413308611E+02  0.51100000000E-03 0.  1.
        -12    1    3    3    0    0 -0.89276085491E+01  0.80024053031E+01 -0.73181523732E+00  0.12011504426E+02  0.00000000000E+00 0.  1.
</event>
<event>
 7    1  0.3837332E-009  0.4778727E+02  0.7816164E-02  0.1312668E+00
        -11   -1    0    0    0    0  0.00000000000E+00  0.00000000000E+00  0.45593999997E+02  0.45594000000E+02  0.51100000000E-03 0. -1.
         11   -1    0    0    0    0 -0.00000000000E+00 -0.00000000000E+00 -0.45593999997E+02  0.45594000000E+02  0.51100000000E-03 0.  1.
    9900012    2    1    2    0    0  0.30818486588E+02 -0.26890414286E+02  0.14517214233E+02  0.47787274140E+02  0.20000014116E+02 0.  0.
        -12    1    1    2    0    0 -0.30818486588E+02  0.26890414286E+02 -0.14517214233E+02  0.43400725860E+02  0.00000000000E+00 0.  1.
         11    1    3    3    0    0  0.11028785733E+02 -0.89250750679E+01  0.41751384428E+01  0.14789281963E+02  0.51100000000E-03 0. -1.
        -11    1    3    3    0    0  0.49867669238E+01 -0.10932418323E+02  0.11415689214E+02  0.16574183999E+02  0.51100000000E-03 0.  1.
        -12    1    3    3    0    0  0.14802933932E+02 -0.70329208953E+01 -0.10736134233E+01  0.16423808179E+02  0.00000000000E+00 0.  1.
</event>
<event>
 7    1  0.3837332E-009  0.4778729E+02  0.7816164E-02  0.1312668E+00
        -11   -1    0    0    0    0  0.00000000000E+00  0.00000000000E+00  0.45593999997E+02  0.45594000000E+02  0.51100000000E-03 0.  1.
         11   -1    0    0    0    0 -0.00000000000E+00 -0.00000000000E+00 -0.45593999997E+02  0.45594000000E+02  0.51100000000E-03 0. -1.
    9900012    2    1    2    0    0 -0.31491464238E+02 -0.26132628946E+02 -0.14456666687E+02  0.47787287711E+02  0.20000075988E+02 0.  0.
        -12    1    1    2    0    0  0.31491464238E+02  0.26132628946E+02  0.14456666687E+02  0.43400712289E+02  0.00000000000E+00 0.  1.
         11    1    3    3    0    0 -0.15268856117E+02 -0.17351003280E+02 -0.90677554542E+01  0.24827796341E+02  0.51100000000E-03 0. -1.
        -11    1    3    3    0    0 -0.66423877552E+01 -0.10384100426E+02 -0.47997555151E+01  0.13228322268E+02  0.51100000000E-03 0.  1.
        -12    1    3    3    0    0 -0.95802203667E+01  0.16024747596E+01 -0.58915571766E+00  0.97311691019E+01  0.00000000000E+00 0.  1.
</event>
<event>
 7    1  0.3837332E-009  0.4778727E+02  0.7816164E-02  0.1312668E+00
        -11   -1    0    0    0    0  0.00000000000E+00  0.00000000000E+00  0.45593999997E+02  0.45594000000E+02  0.51100000000E-03 0.  1.
         11   -1    0    0    0    0 -0.00000000000E+00 -0.00000000000E+00 -0.45593999997E+02  0.45594000000E+02  0.51100000000E-03 0. -1.
    9900012    2    1    2    0    0 -0.69293905341E+01 -0.81991943193E+01 -0.42052111228E+02  0.47787270751E+02  0.19999998660E+02 0.  0.
        -12    1    1    2    0    0  0.69293905341E+01  0.81991943193E+01  0.42052111228E+02  0.43400729249E+02  0.00000000000E+00 0.  1.
         11    1    3    3    0    0  0.22161493984E+01  0.10516696031E+01 -0.43602430381E+01  0.50029038290E+01  0.51100000000E-03 0. -1.
        -11    1    3    3    0    0  0.19451077917E+01 -0.26931766284E+01 -0.23018999293E+02  0.23257492843E+02  0.51100000000E-03 0.  1.
         12    1    3    3    0    0 -0.11090647724E+02 -0.65576872941E+01 -0.14672868897E+02  0.19526874078E+02  0.00000000000E+00 0. -1.
</event>
<event>
 7    1  0.3837332E-009  0.4778728E+02  0.7816164E-02  0.1312668E+00
        -11   -1    0    0    0    0  0.00000000000E+00  0.00000000000E+00  0.45593999997E+02  0.45594000000E+02  0.51100000000E-03 0. -1.
         11   -1    0    0    0    0 -0.00000000000E+00 -0.00000000000E+00 -0.45593999997E+02  0.45594000000E+02  0.51100000000E-03 0.  1.
    9900012    2    1    2    0    0  0.24593180587E+02  0.34089968151E+02 -0.10801467779E+02  0.47787283807E+02  0.20000058188E+02 0.  0.
        -12    1    1    2    0    0 -0.24593180587E+02 -0.34089968151E+02  0.10801467779E+02  0.43400716193E+02  0.00000000000E+00 0.  1.
         11    1    3    3    0    0  0.30091276602E+01  0.18687270067E+00 -0.79475351593E-02  0.30149351744E+01  0.51100000000E-03 0. -1.
        -11    1    3    3    0    0  0.17614790772E+02  0.25069130193E+02 -0.50553976569E+00  0.30643069581E+02  0.51100000000E-03 0.  1.
        -12    1    3    3    0    0  0.39692621546E+01  0.88339652569E+01 -0.10287980478E+02  0.14129279052E+02  0.00000000000E+00 0.  1.
</event>
<event>
 7    1  0.3837332E-009  0.4778727E+02  0.7816164E-02  0.1312668E+00
        -11   -1    0    0    0    0  0.00000000000E+00  0.00000000000E+00  0.45593999997E+02  0.45594000000E+02  0.51100000000E-03 0.  1.
         11   -1    0    0    0    0 -0.00000000000E+00 -0.00000000000E+00 -0.45593999997E+02  0.45594000000E+02  0.51100000000E-03 0. -1.
    9900012    2    1    2    0    0 -0.18807847962E+02 -0.34644078739E+02 -0.18156981822E+02  0.47787270449E+02  0.19999997286E+02 0.  0.
        -12    1    1    2    0    0  0.18807847962E+02  0.34644078739E+02  0.18156981822E+02  0.43400729551E+02  0.00000000000E+00 0.  1.
         11    1    3    3    0    0 -0.13046559990E+02 -0.18295314999E+02 -0.15583314198E+02  0.27345401079E+02  0.51100000000E-03 0. -1.
        -11    1    3    3    0    0 -0.62072029583E+01 -0.79183800838E+01 -0.55498256428E+01  0.11490460245E+02  0.51100000000E-03 0.  1.
        -12    1    3    3    0    0  0.44591498708E+00 -0.84303836568E+01  0.29761580189E+01  0.89514091254E+01  0.00000000000E+00 0.  1.
</event>
<event>
 7    1  0.3837332E-009  0.4778728E+02  0.7816164E-02  0.1312668E+00
        -11   -1    0    0    0    0  0.00000000000E+00  0.00000000000E+00  0.45593999997E+02  0.45594000000E+02  0.51100000000E-03 0. -1.
         11   -1    0    0    0    0 -0.00000000000E+00 -0.00000000000E+00 -0.45593999997E+02  0.45594000000E+02  0.51100000000E-03 0.  1.
    9900012    2    1    2    0    0  0.27989517804E+02  0.33094728144E+02  0.22245187956E+01  0.47787278558E+02  0.20000034257E+02 0.  0.
        -12    1    1    2    0    0 -0.27989517804E+02 -0.33094728144E+02 -0.22245187956E+01  0.43400721442E+02  0.00000000000E+00 0.  1.
         11    1    3    3    0    0  0.12857788228E+02  0.16236485774E+02 -0.48729359132E+01  0.21276552659E+02  0.51100000000E-03 0. -1.
        -11    1    3    3    0    0  0.32808680028E+01  0.10572353595E+02 -0.52400376103E+00  0.11082117830E+02  0.51100000000E-03 0.  1.
        -12    1    3    3    0    0  0.11850861574E+02  0.62858887747E+01  0.76214584698E+01  0.15428608069E+02  0.00000000000E+00 0.  1.
</event>
<event>
 7    1  0.3837332E-009  0.4778727E+02  0.7816164E-02  0.1312668E+00
        -11   -1    0    0    0    0  0.00000000000E+00  0.00000000000E+00  0.45593999997E+02  0.45594000000E+02  0.51100000000E-03 0. -1.
         11   -1    0    0    0    0 -0.00000000000E+00 -0.00000000000E+00 -0.45593999997E+02  0.45594000000E+02  0.51100000000E-03 0.  1.
    9900012    2    1    2    0    0 -0.30567917766E+02  0.30526763137E+02  0.41644354586E+01  0.47787269742E+02  0.19999994064E+02 0.  0.
        -12    1    1    2    0    0  0.30567917766E+02 -0.30526763137E+02 -0.41644354586E+01  0.43400730258E+02  0.00000000000E+00 0.  1.
         11    1    3    3    0    0 -0.59405591855E+01 -0.35226949942E+00 -0.44144941098E+00  0.59673457315E+01  0.51100000000E-03 0. -1.
        -11    1    3    3    0    0 -0.49541026242E+00 -0.11897688566E+01  0.77352538385E+00  0.15031044677E+01  0.51100000000E-03 0.  1.
         12    1    3    3    0    0 -0.24131948319E+02  0.32068801493E+02  0.38323594857E+01  0.40316819543E+02  0.00000000000E+00 0. -1.
</event>
<event>
 7    1  0.3837332E-009  0.4778727E+02  0.7816164E-02  0.1312668E+00
        -11   -1    0    0    0    0  0.00000000000E+00  0.00000000000E+00  0.45593999997E+02  0.45594000000E+02  0.51100000000E-03 0. -1.
         11   -1    0    0    0    0 -0.00000000000E+00 -0.00000000000E+00 -0.45593999997E+02  0.45594000000E+02  0.51100000000E-03 0.  1.
    9900012    2    1    2    0    0 -0.30408356553E+02  0.29780915464E+02  0.84883602468E+01  0.47787270354E+02  0.19999996852E+02 0.  0.
        -12    1    1    2    0    0  0.30408356553E+02 -0.29780915464E+02 -0.84883602468E+01  0.43400729646E+02  0.00000000000E+00 0.  1.
         11    1    3    3    0    0 -0.22102124592E+02  0.17316518049E+02  0.87665606283E+01  0.29414593220E+02  0.51100000000E-03 0. -1.
        -11    1    3    3    0    0  0.62514511478E+00  0.10359196262E+01  0.32306784634E+01  0.34498144126E+01  0.51100000000E-03 0.  1.
         12    1    3    3    0    0 -0.89313770762E+01  0.11428477789E+02 -0.35088788449E+01  0.14922862721E+02  0.00000000000E+00 0. -1.
</event>
<event>
 7    1  0.3837332E-009  0.4778727E+02  0.7816164E-02  0.1312668E+00
        -11   -1    0    0    0    0  0.00000000000E+00  0.00000000000E+00  0.45593999997E+02  0.45594000000E+02  0.51100000000E-03 0.  1.
         11   -1    0    0    0    0 -0.00000000000E+00 -0.00000000000E+00 -0.45593999997E+02  0.45594000000E+02  0.51100000000E-03 0. -1.
    9900012    2    1    2    0    0 -0.13785159032E+02  0.35316182911E+02 -0.21127234632E+02  0.47787269268E+02  0.19999991898E+02 0.  0.
        -12    1    1    2    0    0  0.13785159032E+02 -0.35316182911E+02  0.21127234632E+02  0.43400730732E+02  0.00000000000E+00 0.  1.
         11    1    3    3    0    0 -0.47902027537E+01  0.39920498786E+01 -0.29691456930E+01  0.69063978355E+01  0.51100000000E-03 0. -1.
        -11    1    3    3    0    0 -0.12677390222E+02  0.17818662266E+02 -0.69433619740E+01  0.22944089077E+02  0.51100000000E-03 0.  1.
         12    1    3    3    0    0  0.36824339441E+01  0.13505470766E+02 -0.11214726965E+02  0.17936782356E+02  0.00000000000E+00 0. -1.
</event>
<event>
 7    1  0.3837332E-009  0.4778727E+02  0.7816164E-02  0.1312668E+00
        -11   -1    0    0    0    0  0.00000000000E+00  0.00000000000E+00  0.45593999997E+02  0.45594000000E+02  0.51100000000E-03 0.  1.
         11   -1    0    0    0    0 -0.00000000000E+00 -0.00000000000E+00 -0.45593999997E+02  0.45594000000E+02  0.51100000000E-03 0. -1.
    9900012    2    1    2    0    0  0.16512337951E+02  0.23160670457E+02 -0.32780316327E+02  0.47787273058E+02  0.20000009182E+02 0.  0.
        -12    1    1    2    0    0 -0.16512337951E+02 -0.23160670457E+02  0.32780316327E+02  0.43400726942E+02  0.00000000000E+00 0.  1.
         11    1    3    3    0    0  0.10891032846E+02  0.93060837851E+01 -0.16099268233E+02  0.21550040133E+02  0.51100000000E-03 0. -1.
        -11    1    3    3    0    0  0.75368259255E+01  0.54424542971E+01 -0.14687610347E+02  0.17382461039E+02  0.51100000000E-03 0.  1.
        -12    1    3    3    0    0 -0.19155208205E+01  0.84121323745E+01 -0.19934377472E+01  0.88547718860E+01  0.00000000000E+00 0.  1.
</event>
<event>
 7    1  0.3837332E-009  0.4778726E+02  0.7816164E-02  0.1312668E+00
        -11   -1    0    0    0    0  0.00000000000E+00  0.00000000000E+00  0.45593999997E+02  0.45594000000E+02  0.51100000000E-03 0. -1.
         11   -1    0    0    0    0 -0.00000000000E+00 -0.00000000000E+00 -0.45593999997E+02  0.45594000000E+02  0.51100000000E-03 0.  1.
    9900012    2    1    2    0    0  0.32216957924E+02  0.27471759297E+02 -0.95390807657E+01  0.47787262696E+02  0.19999961935E+02 0.  0.
        -12    1    1    2    0    0 -0.32216957924E+02 -0.27471759297E+02  0.95390807657E+01  0.43400737304E+02  0.00000000000E+00 0.  1.
         11    1    3    3    0    0 -0.10443775594E+01  0.10199576965E+01  0.11359408846E+01  0.18497027176E+01  0.51100000000E-03 0. -1.
        -11    1    3    3    0    0  0.76226557169E+01  0.68173522738E+01  0.33062244404E+01  0.10747664514E+02  0.51100000000E-03 0.  1.
         12    1    3    3    0    0  0.25638679766E+02  0.19634449326E+02 -0.13981246091E+02  0.35189895464E+02  0.00000000000E+00 0. -1.
</event>
<event>
 7    1  0.3837332E-009  0.4778727E+02  0.7816164E-02  0.1312668E+00
        -11   -1    0    0    0    0  0.00000000000E+00  0.00000000000E+00  0.45593999997E+02  0.45594000000E+02  0.51100000000E-03 0.  1.
         11   -1    0    0    0    0 -0.00000000000E+00 -0.00000000000E+00 -0.45593999997E+02  0.45594000000E+02  0.51100000000E-03 0. -1.
    9900012    2    1    2    0    0  0.10276843299E+02 -0.34312320137E+01 -0.42026614240E+02  0.47787272290E+02  0.20000005677E+02 0.  0.
        -12    1    1    2    0    0 -0.10276843299E+02  0.34312320137E+01  0.42026614240E+02  0.43400727710E+02  0.00000000000E+00 0.  1.
         11    1    3    3    0    0  0.55615518033E+01 -0.12176352495E+01 -0.15625381288E+02  0.16630274644E+02  0.51100000000E-03 0. -1.
        -11    1    3    3    0    0  0.31744904123E+01 -0.86842110869E+01 -0.19450797913E+02  0.21536630454E+02  0.51100000000E-03 0.  1.
        -12    1    3    3    0    0  0.15408010839E+01  0.64706143227E+01 -0.69504350385E+01  0.96203671924E+01  0.00000000000E+00 0.  1.
</event>
<event>
 7    1  0.3837332E-009  0.4778727E+02  0.7816164E-02  0.1312668E+00
        -11   -1    0    0    0    0  0.00000000000E+00  0.00000000000E+00  0.45593999997E+02  0.45594000000E+02  0.51100000000E-03 0.  1.
         11   -1    0    0    0    0 -0.00000000000E+00 -0.00000000000E+00 -0.45593999997E+02  0.45594000000E+02  0.51100000000E-03 0. -1.
    9900012    2    1    2    0    0  0.29621045775E+02 -0.31075198129E+02  0.63678079812E+01  0.47787271088E+02  0.20000000199E+02 0.  0.
        -12    1    1    2    0    0 -0.29621045775E+02  0.31075198129E+02 -0.63678079812E+01  0.43400728912E+02  0.00000000000E+00 0.  1.
         11    1    3    3    0    0  0.11367483331E+02 -0.99682584287E+01  0.18259645243E+01  0.15228919859E+02  0.51100000000E-03 0. -1.
        -11    1    3    3    0    0  0.63446583299E+01 -0.85112906160E+01  0.97964140022E+01  0.14445292826E+02  0.51100000000E-03 0.  1.
         12    1    3    3    0    0  0.11908904115E+02 -0.12595649084E+02 -0.52545705454E+01  0.18113058402E+02  0.00000000000E+00 0. -1.
</event>
<event>
 7    1  0.3837332E-009  0.4778727E+02  0.7816164E-02  0.1312668E+00
        -11   -1    0    0    0    0  0.00000000000E+00  0.00000000000E+00  0.45593999997E+02  0.45594000000E+02  0.51100000000E-03 0. -1.
         11   -1    0    0    0    0 -0.00000000000E+00 -0.00000000000E+00 -0.45593999997E+02  0.45594000000E+02  0.51100000000E-03 0.  1.
    9900012    2    1    2    0    0  0.16753337882E+02  0.38857605649E+02  0.96454742813E+01  0.47787273957E+02  0.20000013278E+02 0.  0.
        -12    1    1    2    0    0 -0.16753337882E+02 -0.38857605649E+02 -0.96454742813E+01  0.43400726043E+02  0.00000000000E+00 0.  1.
         11    1    3    3    0    0  0.13330100198E+02  0.22776982715E+02  0.36670730886E+01  0.26644510470E+02  0.51100000000E-03 0. -1.
        -11    1    3    3    0    0  0.53852598969E+01  0.11483701297E+02 -0.81379130723E+00  0.12709786631E+02  0.51100000000E-03 0.  1.
         12    1    3    3    0    0 -0.19620222127E+01  0.45969216369E+01  0.67921925000E+01  0.84329768561E+01  0.00000000000E+00 0. -1.
</event>
<event>
 7    1  0.3837332E-009  0.4778727E+02  0.7816164E-02  0.1312668E+00
        -11   -1    0    0    0    0  0.00000000000E+00  0.00000000000E+00  0.45593999997E+02  0.45594000000E+02  0.51100000000E-03 0.  1.
         11   -1    0    0    0    0 -0.00000000000E+00 -0.00000000000E+00 -0.45593999997E+02  0.45594000000E+02  0.51100000000E-03 0. -1.
    9900012    2    1    2    0    0 -0.25901222990E+02 -0.10645906828E+02 -0.33157419959E+02  0.47787272093E+02  0.20000004779E+02 0.  0.
        -12    1    1    2    0    0  0.25901222990E+02  0.10645906828E+02  0.33157419959E+02  0.43400727907E+02  0.00000000000E+00 0.  1.
         11    1    3    3    0    0 -0.50136864008E+01 -0.12331541428E+01 -0.99692281009E+01  0.11226897597E+02  0.51100000000E-03 0. -1.
        -11    1    3    3    0    0 -0.15791329921E+02 -0.24961619646E+01 -0.22945142616E+02  0.27965630606E+02  0.51100000000E-03 0.  1.
        -12    1    3    3    0    0 -0.50962066678E+01 -0.69165907207E+01 -0.24304924153E+00  0.85947438898E+01  0.00000000000E+00 0.  1.
</event>
<event>
 7    1  0.3837332E-009  0.4778727E+02  0.7816164E-02  0.1312668E+00
        -11   -1    0    0    0    0  0.00000000000E+00  0.00000000000E+00  0.45593999997E+02  0.45594000000E+02  0.51100000000E-03 0.  1.
         11   -1    0    0    0    0 -0.00000000000E+00 -0.00000000000E+00 -0.45593999997E+02  0.45594000000E+02  0.51100000000E-03 0. -1.
    9900012    2    1    2    0    0  0.21842019333E+02  0.35937899441E+02  0.10724587948E+02  0.47787271764E+02  0.20000003281E+02 0.  0.
        -12    1    1    2    0    0 -0.21842019333E+02 -0.35937899441E+02 -0.10724587948E+02  0.43400728236E+02  0.00000000000E+00 0.  1.
         11    1    3    3    0    0  0.13561834697E+02  0.11252532377E+02  0.17964598030E+01  0.17713557331E+02  0.51100000000E-03 0. -1.
        -11    1    3    3    0    0  0.57508714777E+01  0.64625875384E+01 -0.17153346593E+01  0.88192932653E+01  0.51100000000E-03 0.  1.
        -12    1    3    3    0    0  0.25293131579E+01  0.18222779526E+02  0.10643462804E+02  0.21254421167E+02  0.00000000000E+00 0.  1.
</event>
<event>
 7    1  0.3837332E-009  0.4778727E+02  0.7816164E-02  0.1312668E+00
        -11   -1    0    0    0    0  0.00000000000E+00  0.00000000000E+00  0.45593999997E+02  0.45594000000E+02  0.51100000000E-03 0.  1.
         11   -1    0    0    0    0 -0.00000000000E+00 -0.00000000000E+00 -0.45593999997E+02  0.45594000000E+02  0.51100000000E-03 0. -1.
    9900012    2    1    2    0    0 -0.24093810893E+02 -0.17850542077E+02 -0.31376261420E+02  0.47787270093E+02  0.19999995661E+02 0.  0.
        -12    1    1    2    0    0  0.24093810893E+02  0.17850542077E+02  0.31376261420E+02  0.43400729907E+02  0.00000000000E+00 0.  1.
         11    1    3    3    0    0 -0.11285124072E+02 -0.10312066733E+02 -0.11441936677E+02  0.19094780983E+02  0.51100000000E-03 0. -1.
        -11    1    3    3    0    0 -0.13628234859E+02 -0.92291081968E+00 -0.10958219500E+02  0.17511799583E+02  0.51100000000E-03 0.  1.
        -12    1    3    3    0    0  0.81954803790E+00 -0.66155645241E+01 -0.89761052431E+01  0.11180689527E+02  0.00000000000E+00 0.  1.
</event>
<event>
 7    1  0.3837332E-009  0.4778727E+02  0.7816164E-02  0.1312668E+00
        -11   -1    0    0    0    0  0.00000000000E+00  0.00000000000E+00  0.45593999997E+02  0.45594000000E+02  0.51100000000E-03 0. -1.
         11   -1    0    0    0    0 -0.00000000000E+00 -0.00000000000E+00 -0.45593999997E+02  0.45594000000E+02  0.51100000000E-03 0.  1.
    9900012    2    1    2    0    0 -0.35584236767E+02 -0.18919021084E+02 -0.16107637906E+02  0.47787271159E+02  0.20000000523E+02 0.  0.
        -12    1    1    2    0    0  0.35584236767E+02  0.18919021084E+02  0.16107637906E+02  0.43400728841E+02  0.00000000000E+00 0.  1.
         11    1    3    3    0    0 -0.75160396068E+01 -0.69407010347E+01  0.13486670376E+01  0.10319064166E+02  0.51100000000E-03 0. -1.
        -11    1    3    3    0    0 -0.10244773325E+02  0.78251078931E+00 -0.15644261836E+01  0.10393032914E+02  0.51100000000E-03 0.  1.
        -12    1    3    3    0    0 -0.17823423835E+02 -0.12760830838E+02 -0.15891878760E+02  0.27075174079E+02  0.00000000000E+00 0.  1.
</event>
<event>
 7    1  0.3837332E-009  0.4778727E+02  0.7816164E-02  0.1312668E+00
        -11   -1    0    0    0    0  0.00000000000E+00  0.00000000000E+00  0.45593999997E+02  0.45594000000E+02  0.51100000000E-03 0.  1.
         11   -1    0    0    0    0 -0.00000000000E+00 -0.00000000000E+00 -0.45593999997E+02  0.45594000000E+02  0.51100000000E-03 0. -1.
    9900012    2    1    2    0    0  0.29873100495E+02 -0.31327636853E+02 -0.31305461767E+01  0.47787270935E+02  0.19999999502E+02 0.  0.
        -12    1    1    2    0    0 -0.29873100495E+02  0.31327636853E+02  0.31305461767E+01  0.43400729065E+02  0.00000000000E+00 0.  1.
         11    1    3    3    0    0  0.11707823330E+02 -0.12652719044E+02 -0.55992871464E+01  0.18125022569E+02  0.51100000000E-03 0. -1.
        -11    1    3    3    0    0  0.12041558423E+02 -0.27138799027E+01 -0.28248537695E+00  0.12346824355E+02  0.51100000000E-03 0.  1.
        -12    1    3    3    0    0  0.61237187418E+01 -0.15961037907E+02  0.27512263467E+01  0.17315424011E+02  0.00000000000E+00 0.  1.
</event>
<event>
 7    1  0.3837332E-009  0.4778727E+02  0.7816164E-02  0.1312668E+00
        -11   -1    0    0    0    0  0.00000000000E+00  0.00000000000E+00  0.45593999997E+02  0.45594000000E+02  0.51100000000E-03 0.  1.
         11   -1    0    0    0    0 -0.00000000000E+00 -0.00000000000E+00 -0.45593999997E+02  0.45594000000E+02  0.51100000000E-03 0. -1.
    9900012    2    1    2    0    0  0.11745549088E+01  0.30496858659E+02 -0.30857507655E+02  0.47787265605E+02  0.19999975201E+02 0.  0.
        -12    1    1    2    0    0 -0.11745549088E+01 -0.30496858659E+02  0.30857507655E+02  0.43400734395E+02  0.00000000000E+00 0.  1.
         11    1    3    3    0    0  0.33578011439E+00  0.22646007668E+02 -0.14374196040E+02  0.26824837812E+02  0.51100000000E-03 0. -1.
        -11    1    3    3    0    0  0.13632292260E+01  0.36507670530E+01  0.48573907629E-01  0.38972879908E+01  0.51100000000E-03 0.  1.
         12    1    3    3    0    0 -0.52445443156E+00  0.42000839380E+01 -0.16531885522E+02  0.17065139802E+02  0.00000000000E+00 0. -1.
</event>
<event>
 7    1  0.3837332E-009  0.4778727E+02  0.7816164E-02  0.1312668E+00
        -11   -1    0    0    0    0  0.00000000000E+00  0.00000000000E+00  0.45593999997E+02  0.45594000000E+02  0.51100000000E-03 0. -1.
         11   -1    0    0    0    0 -0.00000000000E+00 -0.00000000000E+00 -0.45593999997E+02  0.45594000000E+02  0.51100000000E-03 0.  1.
    9900012    2    1    2    0    0 -0.28395824090E+01  0.39860652874E+02  0.16931866431E+02  0.47787274469E+02  0.20000015613E+02 0.  0.
        -12    1    1    2    0    0  0.28395824090E+01 -0.39860652874E+02 -0.16931866431E+02  0.43400725531E+02  0.00000000000E+00 0.  1.
         11    1    3    3    0    0  0.26090199774E+01  0.48256223667E+01  0.61144051709E+01  0.82145947754E+01  0.51100000000E-03 0. -1.
        -11    1    3    3    0    0  0.37232505586E+01  0.32030834448E+01  0.19030411801E+01  0.52672482636E+01  0.51100000000E-03 0.  1.
         12    1    3    3    0    0 -0.91718529450E+01  0.31831947062E+02  0.89144200804E+01  0.34305431430E+02  0.00000000000E+00 0. -1.
</event>
<event>
 7    1  0.3837332E-009  0.4778727E+02  0.7816164E-02  0.1312668E+00
        -11   -1    0    0    0    0  0.00000000000E+00  0.00000000000E+00  0.45593999997E+02  0.45594000000E+02  0.51100000000E-03 0. -1.
         11   -1    0    0    0    0 -0.00000000000E+00 -0.00000000000E+00 -0.45593999997E+02  0.45594000000E+02  0.51100000000E-03 0.  1.
    9900012    2    1    2    0    0 -0.49914907002E+01  0.37210454937E+02  0.21773617266E+02  0.47787270226E+02  0.19999996269E+02 0.  0.
        -12    1    1    2    0    0  0.49914907002E+01 -0.37210454937E+02 -0.21773617266E+02  0.43400729774E+02  0.00000000000E+00 0.  1.
         11    1    3    3    0    0  0.48290732970E+01  0.14144751854E+02  0.63900012943E+01  0.16255032166E+02  0.51100000000E-03 0. -1.
        -11    1    3    3    0    0 -0.30999746621E+01  0.12027552301E+02  0.14124574164E+01  0.12500675721E+02  0.51100000000E-03 0.  1.
         12    1    3    3    0    0 -0.67205893350E+01  0.11038150783E+02  0.13971158555E+02  0.19031562340E+02  0.00000000000E+00 0. -1.
</event>
<event>
 7    1  0.3837332E-009  0.4778727E+02  0.7816164E-02  0.1312668E+00
        -11   -1    0    0    0    0  0.00000000000E+00  0.00000000000E+00  0.45593999997E+02  0.45594000000E+02  0.51100000000E-03 0. -1.
         11   -1    0    0    0    0 -0.00000000000E+00 -0.00000000000E+00 -0.45593999997E+02  0.45594000000E+02  0.51100000000E-03 0.  1.
    9900012    2    1    2    0    0 -0.35362790497E+02 -0.17458461465E+01  0.25100763321E+02  0.47787271322E+02  0.20000001264E+02 0.  0.
        -12    1    1    2    0    0  0.35362790497E+02  0.17458461465E+01 -0.25100763321E+02  0.43400728678E+02  0.00000000000E+00 0.  1.
         11    1    3    3    0    0 -0.51997575452E+01  0.13418657678E+01  0.61715058148E+01  0.81808047618E+01  0.51100000000E-03 0. -1.
        -11    1    3    3    0    0 -0.33495691550E+01  0.54977776080E+01  0.52382236299E+01  0.82996481377E+01  0.51100000000E-03 0.  1.
         12    1    3    3    0    0 -0.26813463797E+02 -0.85854895223E+01  0.13691033876E+02  0.31306818422E+02  0.00000000000E+00 0. -1.
</event>
<event>
 7    1  0.3837332E-009  0.4778727E+02  0.7816164E-02  0.1312668E+00
        -11   -1    0    0    0    0  0.00000000000E+00  0.00000000000E+00  0.45593999997E+02  0.45594000000E+02  0.51100000000E-03 0. -1.
         11   -1    0    0    0    0 -0.00000000000E+00 -0.00000000000E+00 -0.45593999997E+02  0.45594000000E+02  0.51100000000E-03 0.  1.
    9900012    2    1    2    0    0  0.37389953318E+02  0.21958717513E+02  0.18519419809E+01  0.47787267598E+02  0.19999984286E+02 0.  0.
        -12    1    1    2    0    0 -0.37389953318E+02 -0.21958717513E+02 -0.18519419809E+01  0.43400732402E+02  0.00000000000E+00 0.  1.
         11    1    3    3    0    0  0.77903938736E+01 -0.14551165276E+00  0.40469714483E+01  0.87800562932E+01  0.51100000000E-03 0. -1.
        -11    1    3    3    0    0  0.12946627363E+02  0.89809267382E+01 -0.70407011456E+01  0.17258148164E+02  0.51100000000E-03 0.  1.
         12    1    3    3    0    0  0.16652932081E+02  0.13123302427E+02  0.48456716782E+01  0.21749063141E+02  0.00000000000E+00 0. -1.
</event>
<event>
 7    1  0.3837332E-009  0.4778727E+02  0.7816164E-02  0.1312668E+00
        -11   -1    0    0    0    0  0.00000000000E+00  0.00000000000E+00  0.45593999997E+02  0.45594000000E+02  0.51100000000E-03 0.  1.
         11   -1    0    0    0    0 -0.00000000000E+00 -0.00000000000E+00 -0.45593999997E+02  0.45594000000E+02  0.51100000000E-03 0. -1.
    9900012    2    1    2    0    0 -0.36578147064E+01 -0.23420100034E+02 -0.36355778893E+02  0.47787270134E+02  0.19999995848E+02 0.  0.
        -12    1    1    2    0    0  0.36578147064E+01  0.23420100034E+02  0.36355778893E+02  0.43400729866E+02  0.00000000000E+00 0.  1.
         11    1    3    3    0    0 -0.45408569122E+01  0.90708575184E-01 -0.27594883503E+01  0.53143565706E+01  0.51100000000E-03 0. -1.
        -11    1    3    3    0    0 -0.17385626344E+01  0.91544933669E-01 -0.50419397496E+01  0.53340544812E+01  0.51100000000E-03 0.  1.
        -12    1    3    3    0    0  0.26216048403E+01 -0.23602353543E+02 -0.28554350793E+02  0.37138859082E+02  0.00000000000E+00 0.  1.
</event>
<event>
 7    1  0.3837332E-009  0.4778727E+02  0.7816164E-02  0.1312668E+00
        -11   -1    0    0    0    0  0.00000000000E+00  0.00000000000E+00  0.45593999997E+02  0.45594000000E+02  0.51100000000E-03 0.  1.
         11   -1    0    0    0    0 -0.00000000000E+00 -0.00000000000E+00 -0.45593999997E+02  0.45594000000E+02  0.51100000000E-03 0. -1.
    9900012    2    1    2    0    0  0.76065126511E+01 -0.17655710364E+02 -0.38910671613E+02  0.47787268341E+02  0.19999987675E+02 0.  0.
        -12    1    1    2    0    0 -0.76065126511E+01  0.17655710364E+02  0.38910671613E+02  0.43400731659E+02  0.00000000000E+00 0.  1.
         11    1    3    3    0    0 -0.11940950301E+01 -0.25104513025E+01 -0.15850431429E+01  0.32000922970E+01  0.51100000000E-03 0. -1.
        -11    1    3    3    0    0 -0.48857749774E+01 -0.24030737737E+01 -0.59794008119E+01  0.80869521466E+01  0.51100000000E-03 0.  1.
         12    1    3    3    0    0  0.13686382659E+02 -0.12742185287E+02 -0.31346227658E+02  0.36500223898E+02  0.00000000000E+00 0. -1.
</event>
<event>
 7    1  0.3837332E-009  0.4778727E+02  0.7816164E-02  0.1312668E+00
        -11   -1    0    0    0    0  0.00000000000E+00  0.00000000000E+00  0.45593999997E+02  0.45594000000E+02  0.51100000000E-03 0. -1.
         11   -1    0    0    0    0 -0.00000000000E+00 -0.00000000000E+00 -0.45593999997E+02  0.45594000000E+02  0.51100000000E-03 0.  1.
    9900012    2    1    2    0    0  0.41646661005E+02  0.11413526795E+02  0.43486056871E+01  0.47787270303E+02  0.19999996622E+02 0.  0.
        -12    1    1    2    0    0 -0.41646661005E+02 -0.11413526795E+02 -0.43486056871E+01  0.43400729697E+02  0.00000000000E+00 0.  1.
         11    1    3    3    0    0  0.23453420321E+02  0.72147358099E+00 -0.42617218655E+01  0.23848390353E+02  0.51100000000E-03 0. -1.
        -11    1    3    3    0    0  0.58240199465E+01  0.56096024681E-01  0.37100376620E+01  0.69055582551E+01  0.51100000000E-03 0.  1.
         12    1    3    3    0    0  0.12369220738E+02  0.10635957189E+02  0.49002898906E+01  0.17033321696E+02  0.00000000000E+00 0. -1.
</event>
<event>
 7    1  0.3837332E-009  0.4778727E+02  0.7816164E-02  0.1312668E+00
        -11   -1    0    0    0    0  0.00000000000E+00  0.00000000000E+00  0.45593999997E+02  0.45594000000E+02  0.51100000000E-03 0.  1.
         11   -1    0    0    0    0 -0.00000000000E+00 -0.00000000000E+00 -0.45593999997E+02  0.45594000000E+02  0.51100000000E-03 0. -1.
    9900012    2    1    2    0    0  0.37627484411E+02  0.14883783464E+02 -0.15692944059E+02  0.47787273202E+02  0.20000009839E+02 0.  0.
        -12    1    1    2    0    0 -0.37627484411E+02 -0.14883783464E+02  0.15692944059E+02  0.43400726798E+02  0.00000000000E+00 0.  1.
         11    1    3    3    0    0  0.14521406907E+02  0.10443584257E+02 -0.28110118435E+01  0.18106393858E+02  0.51100000000E-03 0. -1.
        -11    1    3    3    0    0  0.14370239569E+02  0.12747200562E+01 -0.81304609739E+00  0.14449558495E+02  0.51100000000E-03 0.  1.
        -12    1    3    3    0    0  0.87358379353E+01  0.31654791513E+01 -0.12068886118E+02  0.15231320849E+02  0.00000000000E+00 0.  1.
</event>
<event>
 7    1 -0.3837332E-009  0.4778727E+02  0.7816164E-02  0.1312668E+00
        -11   -1    0    0    0    0  0.00000000000E+00  0.00000000000E+00  0.45593999997E+02  0.45594000000E+02  0.51100000000E-03 0.  1.
         11   -1    0    0    0    0 -0.00000000000E+00 -0.00000000000E+00 -0.45593999997E+02  0.45594000000E+02  0.51100000000E-03 0. -1.
    9900012    2    1    2    0    0  0.24560348382E+02 -0.35770367107E+02 -0.94516377816E+00  0.47787271778E+02  0.20000003345E+02 0.  0.
        -12    1    1    2    0    0 -0.24560348382E+02  0.35770367107E+02  0.94516377816E+00  0.43400728222E+02  0.00000000000E+00 0.  1.
         11    1    3    3    0    0  0.22389578673E+02 -0.23339988380E+02 -0.75518833305E+00  0.32351485289E+02  0.51100000000E-03 0. -1.
        -11    1    3    3    0    0  0.25221094983E+01 -0.12969049480E-01 -0.15162229755E+01  0.29428110524E+01  0.51100000000E-03 0.  1.
         12    1    3    3    0    0 -0.35133978896E+00 -0.12417409677E+02  0.13262475304E+01  0.12492975437E+02  0.00000000000E+00 0. -1.
</event>
<event>
 7    1  0.3837332E-009  0.4778727E+02  0.7816164E-02  0.1312668E+00
        -11   -1    0    0    0    0  0.00000000000E+00  0.00000000000E+00  0.45593999997E+02  0.45594000000E+02  0.51100000000E-03 0. -1.
         11   -1    0    0    0    0 -0.00000000000E+00 -0.00000000000E+00 -0.45593999997E+02  0.45594000000E+02  0.51100000000E-03 0.  1.
    9900012    2    1    2    0    0 -0.85339486039E+01 -0.33747288217E+02 -0.25921327031E+02  0.47787274939E+02  0.20000017756E+02 0.  0.
        -12    1    1    2    0    0  0.85339486039E+01  0.33747288217E+02  0.25921327031E+02  0.43400725061E+02  0.00000000000E+00 0.  1.
         11    1    3    3    0    0 -0.28689121367E+01 -0.86780376123E+01 -0.87682458103E+01  0.12665746267E+02  0.51100000000E-03 0. -1.
        -11    1    3    3    0    0 -0.81969364141E+01 -0.53073878461E+01 -0.99357534222E+01  0.13931163937E+02  0.51100000000E-03 0.  1.
         12    1    3    3    0    0  0.25318999469E+01 -0.19761862758E+02 -0.72173277990E+01  0.21190364734E+02  0.00000000000E+00 0. -1.
</event>
<event>
 7    1  0.3837332E-009  0.4778728E+02  0.7816164E-02  0.1312668E+00
        -11   -1    0    0    0    0  0.00000000000E+00  0.00000000000E+00  0.45593999997E+02  0.45594000000E+02  0.51100000000E-03 0.  1.
         11   -1    0    0    0    0 -0.00000000000E+00 -0.00000000000E+00 -0.45593999997E+02  0.45594000000E+02  0.51100000000E-03 0. -1.
    9900012    2    1    2    0    0 -0.19925556289E+02  0.21277793640E+01 -0.38497630095E+02  0.47787276948E+02  0.20000026919E+02 0.  0.
        -12    1    1    2    0    0  0.19925556289E+02 -0.21277793640E+01  0.38497630095E+02  0.43400723052E+02  0.00000000000E+00 0.  1.
         11    1    3    3    0    0 -0.10277723838E+02  0.99433197104E+00 -0.10753371851E+02  0.14908229599E+02  0.51100000000E-03 0. -1.
        -11    1    3    3    0    0 -0.58069143702E+01 -0.63952074844E+01 -0.18098602806E+02  0.20054384984E+02  0.51100000000E-03 0.  1.
        -12    1    3    3    0    0 -0.38409180814E+01  0.75286548773E+01 -0.96456554372E+01  0.12824662365E+02  0.00000000000E+00 0.  1.
</event>
<event>
 7    1  0.3837332E-009  0.4778727E+02  0.7816164E-02  0.1312668E+00
        -11   -1    0    0    0    0  0.00000000000E+00  0.00000000000E+00  0.45593999997E+02  0.45594000000E+02  0.51100000000E-03 0.  1.
         11   -1    0    0    0    0 -0.00000000000E+00 -0.00000000000E+00 -0.45593999997E+02  0.45594000000E+02  0.51100000000E-03 0. -1.
    9900012    2    1    2    0    0  0.98651610129E+01  0.71114638892E+01 -0.41662080471E+02  0.47787271093E+02  0.20000000222E+02 0.  0.
        -12    1    1    2    0    0 -0.98651610129E+01 -0.71114638892E+01  0.41662080471E+02  0.43400728907E+02  0.00000000000E+00 0.  1.
         11    1    3    3    0    0  0.71448785634E+01 -0.22100192714E+01 -0.10793920128E+02  0.13131724443E+02  0.51100000000E-03 0. -1.
        -11    1    3    3    0    0  0.45607256129E+00  0.43018689966E+01 -0.12121108751E+01  0.44925818946E+01  0.51100000000E-03 0.  1.
        -12    1    3    3    0    0  0.22642098883E+01  0.50196141641E+01 -0.29656049468E+02  0.30162964755E+02  0.00000000000E+00 0.  1.
</event>
<event>
 7    1  0.3837332E-009  0.4778727E+02  0.7816164E-02  0.1312668E+00
        -11   -1    0    0    0    0  0.00000000000E+00  0.00000000000E+00  0.45593999997E+02  0.45594000000E+02  0.51100000000E-03 0.  1.
         11   -1    0    0    0    0 -0.00000000000E+00 -0.00000000000E+00 -0.45593999997E+02  0.45594000000E+02  0.51100000000E-03 0. -1.
    9900012    2    1    2    0    0 -0.40660563499E+02 -0.37832342036E+01 -0.14697928621E+02  0.47787269696E+02  0.19999993854E+02 0.  0.
        -12    1    1    2    0    0  0.40660563499E+02  0.37832342036E+01  0.14697928621E+02  0.43400730304E+02  0.00000000000E+00 0.  1.
         11    1    3    3    0    0 -0.10616356872E+02 -0.13102136992E+00 -0.97651713369E+01  0.14425074396E+02  0.51100000000E-03 0. -1.
        -11    1    3    3    0    0 -0.26805096712E+02 -0.49330055839E+01 -0.83268546188E+01  0.28498846677E+02  0.51100000000E-03 0.  1.
         12    1    3    3    0    0 -0.32391099153E+01  0.12807927503E+01  0.33940973345E+01  0.48633486230E+01  0.00000000000E+00 0. -1.
</event>
<event>
 7    1  0.3837332E-009  0.4778727E+02  0.7816164E-02  0.1312668E+00
        -11   -1    0    0    0    0  0.00000000000E+00  0.00000000000E+00  0.45593999997E+02  0.45594000000E+02  0.51100000000E-03 0.  1.
         11   -1    0    0    0    0 -0.00000000000E+00 -0.00000000000E+00 -0.45593999997E+02  0.45594000000E+02  0.51100000000E-03 0. -1.
    9900012    2    1    2    0    0 -0.33070271109E+02 -0.13320502198E+02 -0.24749640665E+02  0.47787270478E+02  0.19999997417E+02 0.  0.
        -12    1    1    2    0    0  0.33070271109E+02  0.13320502198E+02  0.24749640665E+02  0.43400729522E+02  0.00000000000E+00 0.  1.
         11    1    3    3    0    0 -0.51217233113E+01  0.23110592251E+01 -0.19326200988E+01  0.59420589973E+01  0.51100000000E-03 0. -1.
        -11    1    3    3    0    0 -0.11575821580E+02 -0.21493951814E+01 -0.16643455732E+01  0.11890735526E+02  0.51100000000E-03 0.  1.
         12    1    3    3    0    0 -0.16372726217E+02 -0.13482166242E+02 -0.21152674992E+02  0.29954475954E+02  0.00000000000E+00 0. -1.
</event>
<event>
 7    1  0.3837332E-009  0.4778727E+02  0.7816164E-02  0.1312668E+00
        -11   -1    0    0    0    0  0.00000000000E+00  0.00000000000E+00  0.45593999997E+02  0.45594000000E+02  0.51100000000E-03 0.  1.
         11   -1    0    0    0    0 -0.00000000000E+00 -0.00000000000E+00 -0.45593999997E+02  0.45594000000E+02  0.51100000000E-03 0. -1.
    9900012    2    1    2    0    0 -0.42278236039E+02 -0.36194650388E+01 -0.91144651960E+01  0.47787271370E+02  0.20000001486E+02 0.  0.
        -12    1    1    2    0    0  0.42278236039E+02  0.36194650388E+01  0.91144651960E+01  0.43400728630E+02  0.00000000000E+00 0.  1.
         11    1    3    3    0    0 -0.71302975351E+01 -0.82700510653E+01 -0.16701681128E+01  0.11046463205E+02  0.51100000000E-03 0. -1.
        -11    1    3    3    0    0 -0.71257377913E+01  0.20641174476E+01 -0.38877640811E+01  0.83756450331E+01  0.51100000000E-03 0.  1.
         12    1    3    3    0    0 -0.28022200713E+02  0.25864685789E+01 -0.35565330021E+01  0.28365163132E+02  0.00000000000E+00 0. -1.
</event>
<event>
 7    1  0.3837332E-009  0.4778727E+02  0.7816164E-02  0.1312668E+00
        -11   -1    0    0    0    0  0.00000000000E+00  0.00000000000E+00  0.45593999997E+02  0.45594000000E+02  0.51100000000E-03 0.  1.
         11   -1    0    0    0    0 -0.00000000000E+00 -0.00000000000E+00 -0.45593999997E+02  0.45594000000E+02  0.51100000000E-03 0. -1.
    9900012    2    1    2    0    0  0.24715606241E+01  0.18295957826E+02 -0.39278146030E+02  0.47787269128E+02  0.19999991262E+02 0.  0.
        -12    1    1    2    0    0 -0.24715606241E+01 -0.18295957826E+02  0.39278146030E+02  0.43400730872E+02  0.00000000000E+00 0.  1.
         11    1    3    3    0    0 -0.80188531142E+00  0.10010066561E+01 -0.24471354862E+01  0.27628801507E+01  0.51100000000E-03 0. -1.
        -11    1    3    3    0    0 -0.54508757460E+01  0.42479588037E+00 -0.15638699564E+02  0.16566877264E+02  0.51100000000E-03 0.  1.
         12    1    3    3    0    0  0.87243216815E+01  0.16870155290E+02 -0.21192310979E+02  0.28457511714E+02  0.00000000000E+00 0. -1.
</event>
<event>
 7    1  0.3837332E-009  0.4778727E+02  0.7816164E-02  0.1312668E+00
        -11   -1    0    0    0    0  0.00000000000E+00  0.00000000000E+00  0.45593999997E+02  0.45594000000E+02  0.51100000000E-03 0.  1.
         11   -1    0    0    0    0 -0.00000000000E+00 -0.00000000000E+00 -0.45593999997E+02  0.45594000000E+02  0.51100000000E-03 0. -1.
    9900012    2    1    2    0    0  0.33282269378E+02 -0.43307005135E+01 -0.27516520303E+02  0.47787270611E+02  0.19999998023E+02 0.  0.
        -12    1    1    2    0    0 -0.33282269378E+02  0.43307005135E+01  0.27516520303E+02  0.43400729389E+02  0.00000000000E+00 0.  1.
         11    1    3    3    0    0  0.12882245915E+02 -0.36548786967E+01 -0.21672667267E+02  0.25475770937E+02  0.51100000000E-03 0. -1.
        -11    1    3    3    0    0  0.11272001151E+02 -0.10999311025E+01 -0.66577014759E+01  0.13137459708E+02  0.51100000000E-03 0.  1.
         12    1    3    3    0    0  0.91280223120E+01  0.42410928558E+00  0.81384843941E+00  0.91740399659E+01  0.00000000000E+00 0. -1.
</event>
<event>
 7    1  0.3837332E-009  0.4778727E+02  0.7816164E-02  0.1312668E+00
        -11   -1    0    0    0    0  0.00000000000E+00  0.00000000000E+00  0.45593999997E+02  0.45594000000E+02  0.51100000000E-03 0.  1.
         11   -1    0    0    0    0 -0.00000000000E+00 -0.00000000000E+00 -0.45593999997E+02  0.45594000000E+02  0.51100000000E-03 0. -1.
    9900012    2    1    2    0    0 -0.35862020328E+02  0.13344592777E+02 -0.20480734539E+02  0.47787272522E+02  0.20000006736E+02 0.  0.
        -12    1    1    2    0    0  0.35862020328E+02 -0.13344592777E+02  0.20480734539E+02  0.43400727478E+02  0.00000000000E+00 0.  1.
         11    1    3    3    0    0 -0.16880585011E+02  0.58017412443E+01 -0.47580629291E+01  0.18473048338E+02  0.51100000000E-03 0. -1.
        -11    1    3    3    0    0 -0.55290293277E+01  0.87623075633E+01 -0.30697273987E+01  0.10806082810E+02  0.51100000000E-03 0.  1.
         12    1    3    3    0    0 -0.13452405989E+02 -0.12194560304E+01 -0.12652944211E+02  0.18508141374E+02  0.00000000000E+00 0. -1.
</event>
<event>
 7    1  0.3837332E-009  0.4778727E+02  0.7816164E-02  0.1312668E+00
        -11   -1    0    0    0    0  0.00000000000E+00  0.00000000000E+00  0.45593999997E+02  0.45594000000E+02  0.51100000000E-03 0. -1.
         11   -1    0    0    0    0 -0.00000000000E+00 -0.00000000000E+00 -0.45593999997E+02  0.45594000000E+02  0.51100000000E-03 0.  1.
    9900012    2    1    2    0    0 -0.32015995338E+02 -0.26056340597E+02  0.13403977894E+02  0.47787268829E+02  0.19999989901E+02 0.  0.
        -12    1    1    2    0    0  0.32015995338E+02  0.26056340597E+02 -0.13403977894E+02  0.43400731171E+02  0.00000000000E+00 0.  1.
         11    1    3    3    0    0 -0.26126077255E+01 -0.73400178977E+01  0.62267705810E+01  0.99736780576E+01  0.51100000000E-03 0. -1.
        -11    1    3    3    0    0 -0.20248227924E+01  0.64784334252E-01 -0.25123826208E+01  0.32274093395E+01  0.51100000000E-03 0.  1.
         12    1    3    3    0    0 -0.27378564820E+02 -0.18781107033E+02  0.96895899340E+01  0.34586181432E+02  0.00000000000E+00 0. -1.
</event>
<event>
 7    1  0.3837332E-009  0.4778727E+02  0.7816164E-02  0.1312668E+00
        -11   -1    0    0    0    0  0.00000000000E+00  0.00000000000E+00  0.45593999997E+02  0.45594000000E+02  0.51100000000E-03 0.  1.
         11   -1    0    0    0    0 -0.00000000000E+00 -0.00000000000E+00 -0.45593999997E+02  0.45594000000E+02  0.51100000000E-03 0. -1.
    9900012    2    1    2    0    0 -0.22211528537E+02  0.25769369723E+02 -0.26948294546E+02  0.47787274260E+02  0.20000014659E+02 0.  0.
        -12    1    1    2    0    0  0.22211528537E+02 -0.25769369723E+02  0.26948294546E+02  0.43400725740E+02  0.00000000000E+00 0.  1.
         11    1    3    3    0    0 -0.24876632886E+02  0.21529654399E+02 -0.26529634325E+02  0.42263392907E+02  0.51100000000E-03 0. -1.
        -11    1    3    3    0    0  0.23624661339E-02  0.24749655578E+00 -0.67433662258E+00  0.71832462581E+00  0.51100000000E-03 0.  1.
        -12    1    3    3    0    0  0.26627418834E+01  0.39922187685E+01  0.25567640213E+00  0.48055567269E+01  0.00000000000E+00 0.  1.
</event>
<event>
 7    1  0.3837332E-009  0.4778727E+02  0.7816164E-02  0.1312668E+00
        -11   -1    0    0    0    0  0.00000000000E+00  0.00000000000E+00  0.45593999997E+02  0.45594000000E+02  0.51100000000E-03 0.  1.
         11   -1    0    0    0    0 -0.00000000000E+00 -0.00000000000E+00 -0.45593999997E+02  0.45594000000E+02  0.51100000000E-03 0. -1.
    9900012    2    1    2    0    0 -0.73093930286E+01  0.35519213048E+02 -0.23844958863E+02  0.47787265155E+02  0.19999973146E+02 0.  0.
        -12    1    1    2    0    0  0.73093930286E+01 -0.35519213048E+02  0.23844958863E+02  0.43400734845E+02  0.00000000000E+00 0.  1.
         11    1    3    3    0    0 -0.28782430401E+01  0.72808952609E+01 -0.24855160954E+01  0.82142260329E+01  0.51100000000E-03 0. -1.
        -11    1    3    3    0    0  0.71027066492E+00  0.11146077776E+02 -0.18336420440E+02  0.21470068677E+02  0.51100000000E-03 0.  1.
        -12    1    3    3    0    0 -0.51414206534E+01  0.17092240010E+02 -0.30230223274E+01  0.18102970444E+02  0.00000000000E+00 0.  1.
</event>
<event>
 7    1  0.3837332E-009  0.4778727E+02  0.7816164E-02  0.1312668E+00
        -11   -1    0    0    0    0  0.00000000000E+00  0.00000000000E+00  0.45593999997E+02  0.45594000000E+02  0.51100000000E-03 0. -1.
         11   -1    0    0    0    0 -0.00000000000E+00 -0.00000000000E+00 -0.45593999997E+02  0.45594000000E+02  0.51100000000E-03 0.  1.
    9900012    2    1    2    0    0 -0.38951734714E+02 -0.13502508122E+02 -0.13567168386E+02  0.47787269352E+02  0.19999992281E+02 0.  0.
        -12    1    1    2    0    0  0.38951734714E+02  0.13502508122E+02  0.13567168386E+02  0.43400730648E+02  0.00000000000E+00 0.  1.
         11    1    3    3    0    0 -0.59933185740E+01 -0.70894417451E+01  0.61790771112E+00  0.93038627455E+01  0.51100000000E-03 0. -1.
        -11    1    3    3    0    0 -0.18308742019E+02 -0.43466770187E+01 -0.12968726272E+01  0.18862277548E+02  0.51100000000E-03 0.  1.
        -12    1    3    3    0    0 -0.14649674121E+02 -0.20663893578E+01 -0.12888203470E+02  0.19621129058E+02  0.00000000000E+00 0.  1.
</event>
<event>
 7    1  0.3837332E-009  0.4778727E+02  0.7816164E-02  0.1312668E+00
        -11   -1    0    0    0    0  0.00000000000E+00  0.00000000000E+00  0.45593999997E+02  0.45594000000E+02  0.51100000000E-03 0.  1.
         11   -1    0    0    0    0 -0.00000000000E+00 -0.00000000000E+00 -0.45593999997E+02  0.45594000000E+02  0.51100000000E-03 0. -1.
    9900012    2    1    2    0    0 -0.20969892785E+02  0.37163937116E+02 -0.79201388453E+01  0.47787271611E+02  0.20000002581E+02 0.  0.
        -12    1    1    2    0    0  0.20969892785E+02 -0.37163937116E+02  0.79201388453E+01  0.43400728389E+02  0.00000000000E+00 0.  1.
         11    1    3    3    0    0 -0.72295773993E+01  0.49812879389E+01 -0.42575511709E+01  0.97573952024E+01  0.51100000000E-03 0. -1.
        -11    1    3    3    0    0 -0.13787754310E+01  0.64317480075E+01 -0.65960628374E+01  0.93153877717E+01  0.51100000000E-03 0.  1.
         12    1    3    3    0    0 -0.12361539955E+02  0.25750901170E+02  0.29334751630E+01  0.28714488636E+02  0.00000000000E+00 0. -1.
</event>
<event>
 7    1  0.4390932E-009  0.4778730E+02  0.7816164E-02  0.1312668E+00
        -11   -1    0    0    0    0  0.00000000000E+00  0.00000000000E+00  0.45593999997E+02  0.45594000000E+02  0.51100000000E-03 0.  1.
         11   -1    0    0    0    0 -0.00000000000E+00 -0.00000000000E+00 -0.45593999997E+02  0.45594000000E+02  0.51100000000E-03 0. -1.
    9900012    2    1    2    0    0  0.35704037544E+02  0.10909690748E+02 -0.22131904316E+02  0.47787299109E+02  0.20000127957E+02 0.  0.
        -12    1    1    2    0    0 -0.35704037544E+02 -0.10909690748E+02  0.22131904316E+02  0.43400700891E+02  0.00000000000E+00 0.  1.
         11    1    3    3    0    0  0.38821372777E+01 -0.12707355050E+00 -0.57252440619E+01  0.69184938649E+01  0.51100000000E-03 0.  1.
        -11    1    3    3    0    0  0.58485614294E+00  0.35889859510E+01  0.16880728351E+01  0.40090481442E+01  0.51100000000E-03 0. -1.
         12    1    3    3    0    0  0.31237044123E+02  0.74477783477E+01 -0.18094733090E+02  0.36859757100E+02  0.00000000000E+00 0. -1.
</event>
<event>
 7    1  0.3837332E-009  0.4778727E+02  0.7816164E-02  0.1312668E+00
        -11   -1    0    0    0    0  0.00000000000E+00  0.00000000000E+00  0.45593999997E+02  0.45594000000E+02  0.51100000000E-03 0.  1.
         11   -1    0    0    0    0 -0.00000000000E+00 -0.00000000000E+00 -0.45593999997E+02  0.45594000000E+02  0.51100000000E-03 0. -1.
    9900012    2    1    2    0    0  0.14193589669E+02 -0.25586484861E+02 -0.32054601315E+02  0.47787266588E+02  0.19999979680E+02 0.  0.
        -12    1    1    2    0    0 -0.14193589669E+02  0.25586484861E+02  0.32054601315E+02  0.43400733412E+02  0.00000000000E+00 0.  1.
         11    1    3    3    0    0  0.95588845902E+01 -0.10524639397E+02 -0.16889807422E+02  0.22077271209E+02  0.51100000000E-03 0. -1.
        -11    1    3    3    0    0  0.78201847786E+01 -0.80508889139E+01 -0.35452901978E+01  0.11770351954E+02  0.51100000000E-03 0.  1.
         12    1    3    3    0    0 -0.31854796994E+01 -0.70109565496E+01 -0.11619503696E+02  0.13939643424E+02  0.00000000000E+00 0. -1.
</event>
<event>
 7    1  0.3837332E-009  0.4778727E+02  0.7816164E-02  0.1312668E+00
        -11   -1    0    0    0    0  0.00000000000E+00  0.00000000000E+00  0.45593999997E+02  0.45594000000E+02  0.51100000000E-03 0. -1.
         11   -1    0    0    0    0 -0.00000000000E+00 -0.00000000000E+00 -0.45593999997E+02  0.45594000000E+02  0.51100000000E-03 0.  1.
    9900012    2    1    2    0    0 -0.96234034335E+01  0.68565181760E+01  0.41761245138E+02  0.47787270390E+02  0.19999997017E+02 0.  0.
        -12    1    1    2    0    0  0.96234034335E+01 -0.68565181760E+01 -0.41761245138E+02  0.43400729610E+02  0.00000000000E+00 0.  1.
         11    1    3    3    0    0 -0.33254730093E+01  0.48798163500E+01  0.22463187939E+02  0.23226411496E+02  0.51100000000E-03 0. -1.
        -11    1    3    3    0    0  0.10425885505E+01  0.64642888396E+01  0.74495664900E+01  0.99181682904E+01  0.51100000000E-03 0.  1.
         12    1    3    3    0    0 -0.73405189747E+01 -0.44875870136E+01  0.11848490710E+02  0.14642690604E+02  0.00000000000E+00 0. -1.
</event>
<event>
 7    1  0.3837332E-009  0.4778727E+02  0.7816164E-02  0.1312668E+00
        -11   -1    0    0    0    0  0.00000000000E+00  0.00000000000E+00  0.45593999997E+02  0.45594000000E+02  0.51100000000E-03 0.  1.
         11   -1    0    0    0    0 -0.00000000000E+00 -0.00000000000E+00 -0.45593999997E+02  0.45594000000E+02  0.51100000000E-03 0. -1.
    9900012    2    1    2    0    0 -0.43003188984E+02 -0.55929763801E+01 -0.17514405661E+01  0.47787271992E+02  0.20000004319E+02 0.  0.
        -12    1    1    2    0    0  0.43003188984E+02  0.55929763801E+01  0.17514405661E+01  0.43400728008E+02  0.00000000000E+00 0.  1.
         11    1    3    3    0    0 -0.11073477448E+02 -0.39251682851E+01  0.13883493217E+01  0.11830315421E+02  0.51100000000E-03 0. -1.
        -11    1    3    3    0    0 -0.19029793062E+02 -0.57860966335E+01  0.45230629968E+01  0.20397794914E+02  0.51100000000E-03 0.  1.
        -12    1    3    3    0    0 -0.12899918474E+02  0.41182885384E+01 -0.76628528846E+01  0.15559161657E+02  0.00000000000E+00 0.  1.
</event>
<event>
 7    1  0.3837332E-009  0.4778728E+02  0.7816164E-02  0.1312668E+00
        -11   -1    0    0    0    0  0.00000000000E+00  0.00000000000E+00  0.45593999997E+02  0.45594000000E+02  0.51100000000E-03 0.  1.
         11   -1    0    0    0    0 -0.00000000000E+00 -0.00000000000E+00 -0.45593999997E+02  0.45594000000E+02  0.51100000000E-03 0. -1.
    9900012    2    1    2    0    0  0.38691268421E+02 -0.10173334369E+02 -0.16825912708E+02  0.47787282003E+02  0.20000049964E+02 0.  0.
        -12    1    1    2    0    0 -0.38691268421E+02  0.10173334369E+02  0.16825912708E+02  0.43400717997E+02  0.00000000000E+00 0.  1.
         11    1    3    3    0    0  0.57309389614E+01  0.16141335541E+00  0.10644108141E+01  0.58311822381E+01  0.51100000000E-03 0. -1.
        -11    1    3    3    0    0 -0.12517974224E+01 -0.38690229710E+00  0.98206137799E+00  0.16374171690E+01  0.51100000000E-03 0.  1.
         12    1    3    3    0    0  0.34212126882E+02 -0.99478454272E+01 -0.18872384900E+02  0.40318682596E+02  0.00000000000E+00 0. -1.
</event>
<event>
 7    1  0.3837332E-009  0.4778727E+02  0.7816164E-02  0.1312668E+00
        -11   -1    0    0    0    0  0.00000000000E+00  0.00000000000E+00  0.45593999997E+02  0.45594000000E+02  0.51100000000E-03 0.  1.
         11   -1    0    0    0    0 -0.00000000000E+00 -0.00000000000E+00 -0.45593999997E+02  0.45594000000E+02  0.51100000000E-03 0. -1.
    9900012    2    1    2    0    0 -0.24226386045E+02  0.31153467034E+02 -0.18060091956E+02  0.47787271775E+02  0.20000003329E+02 0.  0.
        -12    1    1    2    0    0  0.24226386045E+02 -0.31153467034E+02  0.18060091956E+02  0.43400728225E+02  0.00000000000E+00 0.  1.
         11    1    3    3    0    0 -0.75112656456E+01  0.53411047085E+01 -0.11017317237E+02  0.14364114677E+02  0.51100000000E-03 0. -1.
        -11    1    3    3    0    0 -0.11708495622E+02  0.83018631721E+01 -0.17618461948E+01  0.14460771215E+02  0.51100000000E-03 0.  1.
         12    1    3    3    0    0 -0.50066247770E+01  0.17510499154E+02 -0.52809285245E+01  0.18962385882E+02  0.00000000000E+00 0. -1.
</event>
<event>
 7    1  0.3837332E-009  0.4778727E+02  0.7816164E-02  0.1312668E+00
        -11   -1    0    0    0    0  0.00000000000E+00  0.00000000000E+00  0.45593999997E+02  0.45594000000E+02  0.51100000000E-03 0. -1.
         11   -1    0    0    0    0 -0.00000000000E+00 -0.00000000000E+00 -0.45593999997E+02  0.45594000000E+02  0.51100000000E-03 0.  1.
    9900012    2    1    2    0    0  0.75182609438E+01 -0.22825989901E+02  0.36139632222E+02  0.47787273281E+02  0.20000010199E+02 0.  0.
        -12    1    1    2    0    0 -0.75182609438E+01  0.22825989901E+02 -0.36139632222E+02  0.43400726719E+02  0.00000000000E+00 0.  1.
         11    1    3    3    0    0 -0.54249902341E+01 -0.89873689169E+01  0.17321276397E+02  0.20254133785E+02  0.51100000000E-03 0. -1.
        -11    1    3    3    0    0  0.21462695322E+01 -0.43578880642E+00  0.23240462933E+00  0.22023616782E+01  0.51100000000E-03 0.  1.
         12    1    3    3    0    0  0.10796981646E+02 -0.13402832178E+02  0.18585951196E+02  0.25330777818E+02  0.00000000000E+00 0. -1.
</event>
<event>
 7    1  0.3837332E-009  0.4778727E+02  0.7816164E-02  0.1312668E+00
        -11   -1    0    0    0    0  0.00000000000E+00  0.00000000000E+00  0.45593999997E+02  0.45594000000E+02  0.51100000000E-03 0.  1.
         11   -1    0    0    0    0 -0.00000000000E+00 -0.00000000000E+00 -0.45593999997E+02  0.45594000000E+02  0.51100000000E-03 0. -1.
    9900012    2    1    2    0    0 -0.33351439228E+02 -0.10583944943E+02 -0.25676540748E+02  0.47787272656E+02  0.20000007350E+02 0.  0.
        -12    1    1    2    0    0  0.33351439228E+02  0.10583944943E+02  0.25676540748E+02  0.43400727344E+02  0.00000000000E+00 0.  1.
         11    1    3    3    0    0 -0.26977990522E+02 -0.81784995762E+01 -0.14048712322E+02  0.31497081549E+02  0.51100000000E-03 0. -1.
        -11    1    3    3    0    0 -0.75059175269E+01 -0.32552296898E+01 -0.51678579654E+01  0.96768835099E+01  0.51100000000E-03 0.  1.
        -12    1    3    3    0    0  0.11324688207E+01  0.84978432322E+00 -0.64599704607E+01  0.66133075974E+01  0.00000000000E+00 0.  1.
</event>
<event>
 7    1  0.3837332E-009  0.4778728E+02  0.7816164E-02  0.1312668E+00
        -11   -1    0    0    0    0  0.00000000000E+00  0.00000000000E+00  0.45593999997E+02  0.45594000000E+02  0.51100000000E-03 0.  1.
         11   -1    0    0    0    0 -0.00000000000E+00 -0.00000000000E+00 -0.45593999997E+02  0.45594000000E+02  0.51100000000E-03 0. -1.
    9900012    2    1    2    0    0  0.19882561732E+02 -0.17322088075E+02 -0.34471019012E+02  0.47787284015E+02  0.20000059137E+02 0.  0.
        -12    1    1    2    0    0 -0.19882561732E+02  0.17322088075E+02  0.34471019012E+02  0.43400715985E+02  0.00000000000E+00 0.  1.
         11    1    3    3    0    0  0.81283312337E-01 -0.44921725524E+01 -0.65797524101E+01  0.79673937556E+01  0.51100000000E-03 0.  1.
        -11    1    3    3    0    0 -0.25555671781E+00 -0.78427901207E+00 -0.10835723450E+02  0.10867074388E+02  0.51100000000E-03 0. -1.
         12    1    3    3    0    0  0.20056835138E+02 -0.12045636511E+02 -0.17055543152E+02  0.28952815872E+02  0.00000000000E+00 0. -1.
</event>
<event>
 7    1  0.3837332E-009  0.4778727E+02  0.7816164E-02  0.1312668E+00
        -11   -1    0    0    0    0  0.00000000000E+00  0.00000000000E+00  0.45593999997E+02  0.45594000000E+02  0.51100000000E-03 0.  1.
         11   -1    0    0    0    0 -0.00000000000E+00 -0.00000000000E+00 -0.45593999997E+02  0.45594000000E+02  0.51100000000E-03 0. -1.
    9900012    2    1    2    0    0  0.25142428476E+02 -0.17078319489E+02 -0.30980842071E+02  0.47787270955E+02  0.19999999593E+02 0.  0.
        -12    1    1    2    0    0 -0.25142428476E+02  0.17078319489E+02  0.30980842071E+02  0.43400729045E+02  0.00000000000E+00 0.  1.
         11    1    3    3    0    0  0.90045966064E+01 -0.44618362707E+01 -0.11359563962E+02  0.15166754321E+02  0.51100000000E-03 0. -1.
        -11    1    3    3    0    0  0.25888606586E+01 -0.12188263529E+02 -0.84555120617E+01  0.15058275195E+02  0.51100000000E-03 0.  1.
        -12    1    3    3    0    0  0.13548971211E+02 -0.42821968927E+00 -0.11165766047E+02  0.17562241439E+02  0.00000000000E+00 0.  1.
</event>
<event>
 7    1  0.3837332E-009  0.4778727E+02  0.7816164E-02  0.1312668E+00
        -11   -1    0    0    0    0  0.00000000000E+00  0.00000000000E+00  0.45593999997E+02  0.45594000000E+02  0.51100000000E-03 0. -1.
         11   -1    0    0    0    0 -0.00000000000E+00 -0.00000000000E+00 -0.45593999997E+02  0.45594000000E+02  0.51100000000E-03 0.  1.
    9900012    2    1    2    0    0 -0.25082306978E+02  0.32290035410E+02 -0.14555247536E+02  0.47787265663E+02  0.19999975466E+02 0.  0.
        -12    1    1    2    0    0  0.25082306978E+02 -0.32290035410E+02  0.14555247536E+02  0.43400734337E+02  0.00000000000E+00 0.  1.
         11    1    3    3    0    0 -0.17160238814E+02  0.18130017007E+02 -0.52825092559E+01  0.25516195193E+02  0.51100000000E-03 0. -1.
        -11    1    3    3    0    0 -0.56147367606E+00 -0.22143186480E+01 -0.80973821408E+00  0.24236616926E+01  0.51100000000E-03 0.  1.
         12    1    3    3    0    0 -0.73605944875E+01  0.16374337051E+02 -0.84630000658E+01  0.19847408778E+02  0.00000000000E+00 0. -1.
</event>
<event>
 7    1  0.3837332E-009  0.4778727E+02  0.7816164E-02  0.1312668E+00
        -11   -1    0    0    0    0  0.00000000000E+00  0.00000000000E+00  0.45593999997E+02  0.45594000000E+02  0.51100000000E-03 0.  1.
         11   -1    0    0    0    0 -0.00000000000E+00 -0.00000000000E+00 -0.45593999997E+02  0.45594000000E+02  0.51100000000E-03 0. -1.
    9900012    2    1    2    0    0  0.32178110725E+02  0.14006091114E+02 -0.25534721186E+02  0.47787269774E+02  0.19999994207E+02 0.  0.
        -12    1    1    2    0    0 -0.32178110725E+02 -0.14006091114E+02  0.25534721186E+02  0.43400730226E+02  0.00000000000E+00 0.  1.
         11    1    3    3    0    0  0.59095586375E+01  0.44904966288E+01 -0.35303606200E+01  0.82189348234E+01  0.51100000000E-03 0. -1.
        -11    1    3    3    0    0  0.10000519247E+02 -0.47471860841E+01 -0.55268890355E+01  0.12373062014E+02  0.51100000000E-03 0.  1.
        -12    1    3    3    0    0  0.16268032840E+02  0.14262780570E+02 -0.16477471530E+02  0.27195272937E+02  0.00000000000E+00 0.  1.
</event>
<event>
 7    1  0.3837332E-009  0.4778727E+02  0.7816164E-02  0.1312668E+00
        -11   -1    0    0    0    0  0.00000000000E+00  0.00000000000E+00  0.45593999997E+02  0.45594000000E+02  0.51100000000E-03 0.  1.
         11   -1    0    0    0    0 -0.00000000000E+00 -0.00000000000E+00 -0.45593999997E+02  0.45594000000E+02  0.51100000000E-03 0. -1.
    9900012    2    1    2    0    0 -0.27554673088E+02 -0.52009272569E-01 -0.33531493855E+02  0.47787265052E+02  0.19999972676E+02 0.  0.
        -12    1    1    2    0    0  0.27554673088E+02  0.52009272569E-01  0.33531493855E+02  0.43400734948E+02  0.00000000000E+00 0.  1.
         11    1    3    3    0    0 -0.19639951750E+02 -0.39868879198E+01 -0.21841718076E+02  0.29642598213E+02  0.51100000000E-03 0. -1.
        -11    1    3    3    0    0 -0.29897541211E+01 -0.37214736869E+01 -0.40192876843E+01  0.62404062254E+01  0.51100000000E-03 0.  1.
        -12    1    3    3    0    0 -0.49249672170E+01  0.76563523342E+01 -0.76704880939E+01  0.11904260613E+02  0.00000000000E+00 0.  1.
</event>
<event>
 7    1  0.3837332E-009  0.4778731E+02  0.7816164E-02  0.1312668E+00
        -11   -1    0    0    0    0  0.00000000000E+00  0.00000000000E+00  0.45593999997E+02  0.45594000000E+02  0.51100000000E-03 0.  1.
         11   -1    0    0    0    0 -0.00000000000E+00 -0.00000000000E+00 -0.45593999997E+02  0.45594000000E+02  0.51100000000E-03 0. -1.
    9900012    2    1    2    0    0 -0.36893992915E+01  0.28996800165E+02 -0.32081055398E+02  0.47787306429E+02  0.20000161333E+02 0.  0.
        -12    1    1    2    0    0  0.36893992915E+01 -0.28996800165E+02  0.32081055398E+02  0.43400693571E+02  0.00000000000E+00 0.  1.
         11    1    3    3    0    0 -0.38106421058E+01  0.13175623185E+02 -0.21080875040E+02  0.25149976785E+02  0.51100000000E-03 0. -1.
        -11    1    3    3    0    0 -0.15444254866E+01 -0.16267377067E+01 -0.15305442793E+01  0.27155278865E+01  0.51100000000E-03 0.  1.
        -12    1    3    3    0    0  0.16656683009E+01  0.17447914687E+02 -0.94696360786E+01  0.19921801758E+02  0.00000000000E+00 0.  1.
</event>
<event>
 7    1  0.3837332E-009  0.4778725E+02  0.7816164E-02  0.1312668E+00
        -11   -1    0    0    0    0  0.00000000000E+00  0.00000000000E+00  0.45593999997E+02  0.45594000000E+02  0.51100000000E-03 0.  1.
         11   -1    0    0    0    0 -0.00000000000E+00 -0.00000000000E+00 -0.45593999997E+02  0.45594000000E+02  0.51100000000E-03 0. -1.
    9900012    2    1    2    0    0 -0.28045855952E+01 -0.26082692776E+02 -0.34575314175E+02  0.47787252159E+02  0.19999913896E+02 0.  0.
        -12    1    1    2    0    0  0.28045855952E+01  0.26082692776E+02  0.34575314175E+02  0.43400747841E+02  0.00000000000E+00 0.  1.
         11    1    3    3    0    0  0.12953411618E+01 -0.22314431023E+02 -0.22661131147E+02  0.31829838293E+02  0.51100000000E-03 0. -1.
        -11    1    3    3    0    0 -0.81985766276E+00 -0.55462957820E+01 -0.31470842053E+01  0.64294403135E+01  0.51100000000E-03 0.  1.
        -12    1    3    3    0    0 -0.32800690943E+01  0.17780340287E+01 -0.87670988223E+01  0.95279735532E+01  0.00000000000E+00 0.  1.
</event>
<event>
 7    1  0.3837332E-009  0.4778727E+02  0.7816164E-02  0.1312668E+00
        -11   -1    0    0    0    0  0.00000000000E+00  0.00000000000E+00  0.45593999997E+02  0.45594000000E+02  0.51100000000E-03 0.  1.
         11   -1    0    0    0    0 -0.00000000000E+00 -0.00000000000E+00 -0.45593999997E+02  0.45594000000E+02  0.51100000000E-03 0. -1.
    9900012    2    1    2    0    0  0.50144529950E+01 -0.41372173404E+02 -0.12117010301E+02  0.47787269481E+02  0.19999992869E+02 0.  0.
        -12    1    1    2    0    0 -0.50144529950E+01  0.41372173404E+02  0.12117010301E+02  0.43400730519E+02  0.00000000000E+00 0.  1.
         11    1    3    3    0    0  0.14464989672E+01 -0.86352711318E+00  0.81355141723E+00  0.18708031716E+01  0.51100000000E-03 0. -1.
        -11    1    3    3    0    0 -0.22414655290E+01 -0.12183435000E+02  0.32163657024E+01  0.12798643080E+02  0.51100000000E-03 0.  1.
         12    1    3    3    0    0  0.58094195569E+01 -0.28325211291E+02 -0.16146927421E+02  0.33117823229E+02  0.00000000000E+00 0. -1.
</event>
<event>
 7    1  0.3837332E-009  0.4778728E+02  0.7816164E-02  0.1312668E+00
        -11   -1    0    0    0    0  0.00000000000E+00  0.00000000000E+00  0.45593999997E+02  0.45594000000E+02  0.51100000000E-03 0. -1.
         11   -1    0    0    0    0 -0.00000000000E+00 -0.00000000000E+00 -0.45593999997E+02  0.45594000000E+02  0.51100000000E-03 0.  1.
    9900012    2    1    2    0    0 -0.36289263140E+01  0.57024520849E+01  0.42871154189E+02  0.47787275035E+02  0.20000018196E+02 0.  0.
        -12    1    1    2    0    0  0.36289263140E+01 -0.57024520849E+01 -0.42871154189E+02  0.43400724965E+02  0.00000000000E+00 0.  1.
         11    1    3    3    0    0  0.12921068886E+01  0.17678666943E+01  0.74816915012E+00  0.23140117110E+01  0.51100000000E-03 0. -1.
        -11    1    3    3    0    0  0.41834037743E+01  0.59113583706E+01  0.12809887081E+02  0.14715238096E+02  0.51100000000E-03 0.  1.
         12    1    3    3    0    0 -0.91044369769E+01 -0.19767729800E+01  0.29313097957E+02  0.30758025228E+02  0.00000000000E+00 0. -1.
</event>
<event>
 7    1  0.3837332E-009  0.4778727E+02  0.7816164E-02  0.1312668E+00
        -11   -1    0    0    0    0  0.00000000000E+00  0.00000000000E+00  0.45593999997E+02  0.45594000000E+02  0.51100000000E-03 0.  1.
         11   -1    0    0    0    0 -0.00000000000E+00 -0.00000000000E+00 -0.45593999997E+02  0.45594000000E+02  0.51100000000E-03 0. -1.
    9900012    2    1    2    0    0 -0.83581703438E+01  0.41085029460E+02 -0.11215374071E+02  0.47787271057E+02  0.20000000057E+02 0.  0.
        -12    1    1    2    0    0  0.83581703438E+01 -0.41085029460E+02  0.11215374071E+02  0.43400728943E+02  0.00000000000E+00 0.  1.
         11    1    3    3    0    0 -0.40213008089E+01  0.56005751894E+01  0.14303875368E+01  0.70415418350E+01  0.51100000000E-03 0. -1.
        -11    1    3    3    0    0  0.37702883146E+01  0.62470972701E+01  0.12009939672E+01  0.73948417866E+01  0.51100000000E-03 0.  1.
         12    1    3    3    0    0 -0.81071578495E+01  0.29237357001E+02 -0.13846755575E+02  0.33350887435E+02  0.00000000000E+00 0. -1.
</event>
<event>
 7    1  0.3837332E-009  0.4778726E+02  0.7816164E-02  0.1312668E+00
        -11   -1    0    0    0    0  0.00000000000E+00  0.00000000000E+00  0.45593999997E+02  0.45594000000E+02  0.51100000000E-03 0. -1.
         11   -1    0    0    0    0 -0.00000000000E+00 -0.00000000000E+00 -0.45593999997E+02  0.45594000000E+02  0.51100000000E-03 0.  1.
    9900012    2    1    2    0    0  0.16416696008E+01  0.28950818404E+02  0.32292086803E+02  0.47787264574E+02  0.19999970501E+02 0.  0.
        -12    1    1    2    0    0 -0.16416696008E+01 -0.28950818404E+02 -0.32292086803E+02  0.43400735426E+02  0.00000000000E+00 0.  1.
         11    1    3    3    0    0 -0.15911200533E+01  0.50097742016E+00  0.74295819175E+00  0.18260965296E+01  0.51100000000E-03 0. -1.
        -11    1    3    3    0    0 -0.38623877239E+01  0.22196306962E+01  0.17842987110E+00  0.44583221998E+01  0.51100000000E-03 0.  1.
         12    1    3    3    0    0  0.70951773780E+01  0.26230210288E+02  0.31370698740E+02  0.41502845845E+02  0.00000000000E+00 0. -1.
</event>
<event>
 7    1  0.3837332E-009  0.4778727E+02  0.7816164E-02  0.1312668E+00
        -11   -1    0    0    0    0  0.00000000000E+00  0.00000000000E+00  0.45593999997E+02  0.45594000000E+02  0.51100000000E-03 0.  1.
         11   -1    0    0    0    0 -0.00000000000E+00 -0.00000000000E+00 -0.45593999997E+02  0.45594000000E+02  0.51100000000E-03 0. -1.
    9900012    2    1    2    0    0  0.22470526428E+02  0.23138423263E+02 -0.29039832703E+02  0.47787273365E+02  0.20000010580E+02 0.  0.
        -12    1    1    2    0    0 -0.22470526428E+02 -0.23138423263E+02  0.29039832703E+02  0.43400726635E+02  0.00000000000E+00 0.  1.
         11    1    3    3    0    0  0.20994593611E+02  0.18601703405E+02 -0.18032425669E+02  0.33346134802E+02  0.51100000000E-03 0. -1.
        -11    1    3    3    0    0 -0.12467762760E+00  0.29275948994E+01  0.26528561890E+00  0.29422326772E+01  0.51100000000E-03 0.  1.
         12    1    3    3    0    0  0.16006104442E+01  0.16091249589E+01 -0.11272692653E+02  0.11498905886E+02  0.00000000000E+00 0. -1.
</event>
<event>
 7    1  0.3837332E-009  0.4778727E+02  0.7816164E-02  0.1312668E+00
        -11   -1    0    0    0    0  0.00000000000E+00  0.00000000000E+00  0.45593999997E+02  0.45594000000E+02  0.51100000000E-03 0. -1.
         11   -1    0    0    0    0 -0.00000000000E+00 -0.00000000000E+00 -0.45593999997E+02  0.45594000000E+02  0.51100000000E-03 0.  1.
    9900012    2    1    2    0    0  0.40270450671E+02  0.12138838367E+02  0.10703390194E+02  0.47787272405E+02  0.20000006203E+02 0.  0.
        -12    1    1    2    0    0 -0.40270450671E+02 -0.12138838367E+02 -0.10703390194E+02  0.43400727595E+02  0.00000000000E+00 0.  1.
         11    1    3    3    0    0  0.96681871915E+01  0.55752696692E+01  0.62126226262E+01  0.12773181108E+02  0.51100000000E-03 0. -1.
        -11    1    3    3    0    0  0.19182939768E+01  0.24365958858E+00  0.52888875320E+01  0.56313012141E+01  0.51100000000E-03 0.  1.
        -12    1    3    3    0    0  0.28683969503E+02  0.63199091092E+01 -0.79811996465E+00  0.29382790083E+02  0.00000000000E+00 0.  1.
</event>
<event>
 7    1  0.3837332E-009  0.4778727E+02  0.7816164E-02  0.1312668E+00
        -11   -1    0    0    0    0  0.00000000000E+00  0.00000000000E+00  0.45593999997E+02  0.45594000000E+02  0.51100000000E-03 0.  1.
         11   -1    0    0    0    0 -0.00000000000E+00 -0.00000000000E+00 -0.45593999997E+02  0.45594000000E+02  0.51100000000E-03 0. -1.
    9900012    2    1    2    0    0  0.32124469885E+02 -0.29044901045E+02 -0.28346478882E+01  0.47787273384E+02  0.20000010668E+02 0.  0.
        -12    1    1    2    0    0 -0.32124469885E+02  0.29044901045E+02  0.28346478882E+01  0.43400726616E+02  0.00000000000E+00 0.  1.
         11    1    3    3    0    0  0.64988377510E-01 -0.65961915107E+00 -0.92439068315E-01  0.66922803000E+00  0.51100000000E-03 0. -1.
        -11    1    3    3    0    0  0.98891133216E+01 -0.21601811444E+02  0.11229697260E+00  0.23758060333E+02  0.51100000000E-03 0.  1.
         12    1    3    3    0    0  0.22170368186E+02 -0.67834704506E+01 -0.28545057925E+01  0.23359985021E+02  0.00000000000E+00 0. -1.
</event>
<event>
 7    1  0.3837332E-009  0.4778726E+02  0.7816164E-02  0.1312668E+00
        -11   -1    0    0    0    0  0.00000000000E+00  0.00000000000E+00  0.45593999997E+02  0.45594000000E+02  0.51100000000E-03 0.  1.
         11   -1    0    0    0    0 -0.00000000000E+00 -0.00000000000E+00 -0.45593999997E+02  0.45594000000E+02  0.51100000000E-03 0. -1.
    9900012    2    1    2    0    0 -0.18894162892E+02 -0.26159712689E+02 -0.29022482539E+02  0.47787257471E+02  0.19999938113E+02 0.  0.
        -12    1    1    2    0    0  0.18894162892E+02  0.26159712689E+02  0.29022482539E+02  0.43400742529E+02  0.00000000000E+00 0.  1.
         11    1    3    3    0    0 -0.13632672218E+02 -0.64171701520E+01 -0.12267513900E+02  0.19429918222E+02  0.51100000000E-03 0. -1.
        -11    1    3    3    0    0 -0.18663736483E+01 -0.49014873905E+01  0.59074550626E+00  0.52779645460E+01  0.51100000000E-03 0.  1.
         12    1    3    3    0    0 -0.33951170261E+01 -0.14841055146E+02 -0.17345714145E+02  0.23079374703E+02  0.00000000000E+00 0. -1.
</event>
<event>
 7    1  0.3837332E-009  0.4778727E+02  0.7816164E-02  0.1312668E+00
        -11   -1    0    0    0    0  0.00000000000E+00  0.00000000000E+00  0.45593999997E+02  0.45594000000E+02  0.51100000000E-03 0. -1.
         11   -1    0    0    0    0 -0.00000000000E+00 -0.00000000000E+00 -0.45593999997E+02  0.45594000000E+02  0.51100000000E-03 0.  1.
    9900012    2    1    2    0    0 -0.30468926346E+02  0.21790345450E+02  0.21919135902E+02  0.47787272516E+02  0.20000006708E+02 0.  0.
        -12    1    1    2    0    0  0.30468926346E+02 -0.21790345450E+02 -0.21919135902E+02  0.43400727484E+02  0.00000000000E+00 0.  1.
         11    1    3    3    0    0 -0.89154348303E+01  0.30266568208E+01 -0.47603791957E+00  0.94272075445E+01  0.51100000000E-03 0. -1.
        -11    1    3    3    0    0  0.74265429196E+00  0.50603966106E+00 -0.92424007625E+00  0.12891204426E+01  0.51100000000E-03 0.  1.
         12    1    3    3    0    0 -0.22296145808E+02  0.18257648968E+02  0.23319413898E+02  0.37070944529E+02  0.00000000000E+00 0. -1.
</event>
<event>
 7    1  0.3837332E-009  0.4778727E+02  0.7816164E-02  0.1312668E+00
        -11   -1    0    0    0    0  0.00000000000E+00  0.00000000000E+00  0.45593999997E+02  0.45594000000E+02  0.51100000000E-03 0.  1.
         11   -1    0    0    0    0 -0.00000000000E+00 -0.00000000000E+00 -0.45593999997E+02  0.45594000000E+02  0.51100000000E-03 0. -1.
    9900012    2    1    2    0    0 -0.18106053401E+02 -0.16773353800E+02 -0.35699422813E+02  0.47787270091E+02  0.19999995653E+02 0.  0.
        -12    1    1    2    0    0  0.18106053401E+02  0.16773353800E+02  0.35699422813E+02  0.43400729909E+02  0.00000000000E+00 0.  1.
         11    1    3    3    0    0 -0.44471914505E+01 -0.68717142911E+01 -0.18874658062E+02  0.20573057291E+02  0.51100000000E-03 0. -1.
        -11    1    3    3    0    0  0.16803705545E+01 -0.41544437398E+01 -0.63456278150E+01  0.77685288579E+01  0.51100000000E-03 0.  1.
        -12    1    3    3    0    0 -0.15339232505E+02 -0.57471957691E+01 -0.10479136936E+02  0.19445683942E+02  0.00000000000E+00 0.  1.
</event>
<event>
 7    1  0.3837332E-009  0.4778723E+02  0.7816164E-02  0.1312668E+00
        -11   -1    0    0    0    0  0.00000000000E+00  0.00000000000E+00  0.45593999997E+02  0.45594000000E+02  0.51100000000E-03 0.  1.
         11   -1    0    0    0    0 -0.00000000000E+00 -0.00000000000E+00 -0.45593999997E+02  0.45594000000E+02  0.51100000000E-03 0. -1.
    9900012    2    1    2    0    0  0.41493322390E+02  0.10505939121E+02 -0.71802893654E+01  0.47787226791E+02  0.19999798229E+02 0.  0.
        -12    1    1    2    0    0 -0.41493322390E+02 -0.10505939121E+02  0.71802893654E+01  0.43400773209E+02  0.00000000000E+00 0.  1.
         11    1    3    3    0    0  0.13510184691E+02  0.30567724125E+01 -0.20690149283E+01  0.14005347943E+02  0.51100000000E-03 0. -1.
        -11    1    3    3    0    0  0.41125321023E+01  0.75778258940E+01 -0.48855862215E+01  0.99098596640E+01  0.51100000000E-03 0.  1.
        -12    1    3    3    0    0  0.23870605597E+02 -0.12865918598E+00 -0.22568821563E+00  0.23872019184E+02  0.00000000000E+00 0.  1.
</event>
<event>
 7    1  0.3837332E-009  0.4778727E+02  0.7816164E-02  0.1312668E+00
        -11   -1    0    0    0    0  0.00000000000E+00  0.00000000000E+00  0.45593999997E+02  0.45594000000E+02  0.51100000000E-03 0. -1.
         11   -1    0    0    0    0 -0.00000000000E+00 -0.00000000000E+00 -0.45593999997E+02  0.45594000000E+02  0.51100000000E-03 0.  1.
    9900012    2    1    2    0    0  0.94323591706E+01 -0.14857605023E+02  0.39672479477E+02  0.47787268965E+02  0.19999990518E+02 0.  0.
        -12    1    1    2    0    0 -0.94323591706E+01  0.14857605023E+02 -0.39672479477E+02  0.43400731035E+02  0.00000000000E+00 0.  1.
         11    1    3    3    0    0  0.10140775921E+02 -0.85421996351E+01  0.32808166218E+02  0.35386159465E+02  0.51100000000E-03 0. -1.
        -11    1    3    3    0    0  0.26420106168E+01 -0.61135730649E+01  0.59288600862E+01  0.89166909727E+01  0.51100000000E-03 0.  1.
        -12    1    3    3    0    0 -0.33504273673E+01 -0.20183232329E+00  0.93545317292E+00  0.34844185267E+01  0.00000000000E+00 0.  1.
</event>
<event>
 7    1  0.3837332E-009  0.4778728E+02  0.7816164E-02  0.1312668E+00
        -11   -1    0    0    0    0  0.00000000000E+00  0.00000000000E+00  0.45593999997E+02  0.45594000000E+02  0.51100000000E-03 0.  1.
         11   -1    0    0    0    0 -0.00000000000E+00 -0.00000000000E+00 -0.45593999997E+02  0.45594000000E+02  0.51100000000E-03 0. -1.
    9900012    2    1    2    0    0  0.45063384386E+01  0.18436229420E+02 -0.39031021631E+02  0.47787282369E+02  0.20000051631E+02 0.  0.
        -12    1    1    2    0    0 -0.45063384386E+01 -0.18436229420E+02  0.39031021631E+02  0.43400717631E+02  0.00000000000E+00 0.  1.
         11    1    3    3    0    0  0.76247015773E-01  0.53367073705E+01 -0.95746846562E+01  0.10961790259E+02  0.51100000000E-03 0. -1.
        -11    1    3    3    0    0 -0.52455528928E+01  0.77231400017E+01 -0.66108438059E+01  0.11439666635E+02  0.51100000000E-03 0.  1.
         12    1    3    3    0    0  0.96756443156E+01  0.53763820479E+01 -0.22845493169E+02  0.25385825474E+02  0.00000000000E+00 0. -1.
</event>
<event>
 7    1  0.3837332E-009  0.4778727E+02  0.7816164E-02  0.1312668E+00
        -11   -1    0    0    0    0  0.00000000000E+00  0.00000000000E+00  0.45593999997E+02  0.45594000000E+02  0.51100000000E-03 0. -1.
         11   -1    0    0    0    0 -0.00000000000E+00 -0.00000000000E+00 -0.45593999997E+02  0.45594000000E+02  0.51100000000E-03 0.  1.
    9900012    2    1    2    0    0 -0.45895128657E+01  0.42073423386E+02  0.96117933424E+01  0.47787272413E+02  0.20000006241E+02 0.  0.
        -12    1    1    2    0    0  0.45895128657E+01 -0.42073423386E+02 -0.96117933424E+01  0.43400727587E+02  0.00000000000E+00 0.  1.
         11    1    3    3    0    0 -0.71816306072E+01  0.18363003103E+02 -0.79720915102E+00  0.19733505615E+02  0.51100000000E-03 0. -1.
        -11    1    3    3    0    0  0.85399947181E+00 -0.54025881223E+00 -0.79282205551E+00  0.12844305177E+01  0.51100000000E-03 0.  1.
         12    1    3    3    0    0  0.17381182696E+01  0.24250679095E+02  0.11201824549E+02  0.26769336281E+02  0.00000000000E+00 0. -1.
</event>
<event>
 7    1  0.3837332E-009  0.4778727E+02  0.7816164E-02  0.1312668E+00
        -11   -1    0    0    0    0  0.00000000000E+00  0.00000000000E+00  0.45593999997E+02  0.45594000000E+02  0.51100000000E-03 0. -1.
         11   -1    0    0    0    0 -0.00000000000E+00 -0.00000000000E+00 -0.45593999997E+02  0.45594000000E+02  0.51100000000E-03 0.  1.
    9900012    2    1    2    0    0  0.29090013626E+02 -0.27264438239E+02  0.17147727542E+02  0.47787273680E+02  0.20000012016E+02 0.  0.
        -12    1    1    2    0    0 -0.29090013626E+02  0.27264438239E+02 -0.17147727542E+02  0.43400726320E+02  0.00000000000E+00 0.  1.
         11    1    3    3    0    0  0.59210447275E+01 -0.10131248483E+02  0.85524914434E+01  0.14520539819E+02  0.51100000000E-03 0. -1.
        -11    1    3    3    0    0  0.21100437616E+02 -0.77089356812E+01  0.65998021534E+01  0.23413960486E+02  0.51100000000E-03 0.  1.
        -12    1    3    3    0    0  0.20685312827E+01 -0.94242540758E+01  0.19954339447E+01  0.98527733750E+01  0.00000000000E+00 0.  1.
</event>
<event>
 7    1  0.3837332E-009  0.4778727E+02  0.7816164E-02  0.1312668E+00
        -11   -1    0    0    0    0  0.00000000000E+00  0.00000000000E+00  0.45593999997E+02  0.45594000000E+02  0.51100000000E-03 0.  1.
         11   -1    0    0    0    0 -0.00000000000E+00 -0.00000000000E+00 -0.45593999997E+02  0.45594000000E+02  0.51100000000E-03 0. -1.
    9900012    2    1    2    0    0  0.41319622429E+02 -0.47380549756E+01  0.12404151673E+02  0.47787270267E+02  0.19999996454E+02 0.  0.
        -12    1    1    2    0    0 -0.41319622429E+02  0.47380549756E+01 -0.12404151673E+02  0.43400729733E+02  0.00000000000E+00 0.  1.
         11    1    3    3    0    0  0.36925143775E+01  0.32145143824E+01  0.52004063706E+01  0.71422679748E+01  0.51100000000E-03 0.  1.
        -11    1    3    3    0    0  0.97002273072E+01 -0.47852732211E+00  0.65751895214E+01  0.11728448990E+02  0.51100000000E-03 0. -1.
        -12    1    3    3    0    0  0.27926880745E+02 -0.74740420359E+01  0.62855578103E+00  0.28916553302E+02  0.00000000000E+00 0.  1.
</event>
<event>
 7    1  0.3837332E-009  0.4778728E+02  0.7816164E-02  0.1312668E+00
        -11   -1    0    0    0    0  0.00000000000E+00  0.00000000000E+00  0.45593999997E+02  0.45594000000E+02  0.51100000000E-03 0.  1.
         11   -1    0    0    0    0 -0.00000000000E+00 -0.00000000000E+00 -0.45593999997E+02  0.45594000000E+02  0.51100000000E-03 0. -1.
    9900012    2    1    2    0    0  0.64167654452E+01 -0.38756290507E+01 -0.42748420560E+02  0.47787276046E+02  0.20000022805E+02 0.  0.
        -12    1    1    2    0    0 -0.64167654452E+01  0.38756290507E+01  0.42748420560E+02  0.43400723954E+02  0.00000000000E+00 0.  1.
         11    1    3    3    0    0  0.94489314361E+00  0.21963867804E+01 -0.10027674643E+01  0.25927747281E+01  0.51100000000E-03 0.  1.
        -11    1    3    3    0    0  0.22540661244E+01  0.41114935509E+01 -0.46951490829E+01  0.66354817824E+01  0.51100000000E-03 0. -1.
         12    1    3    3    0    0  0.32178061772E+01 -0.10183509382E+02 -0.37050504013E+02  0.38559019536E+02  0.00000000000E+00 0. -1.
</event>
<event>
 7    1  0.3837332E-009  0.4778728E+02  0.7816164E-02  0.1312668E+00
        -11   -1    0    0    0    0  0.00000000000E+00  0.00000000000E+00  0.45593999997E+02  0.45594000000E+02  0.51100000000E-03 0. -1.
         11   -1    0    0    0    0 -0.00000000000E+00 -0.00000000000E+00 -0.45593999997E+02  0.45594000000E+02  0.51100000000E-03 0.  1.
    9900012    2    1    2    0    0 -0.51496748676E+01  0.43054468827E+02  0.18483492910E+01  0.47787276131E+02  0.20000023193E+02 0.  0.
        -12    1    1    2    0    0  0.51496748676E+01 -0.43054468827E+02 -0.18483492910E+01  0.43400723869E+02  0.00000000000E+00 0.  1.
         11    1    3    3    0    0  0.15593534337E+01  0.64142208000E+01  0.39719542305E+00  0.66129854126E+01  0.51100000000E-03 0. -1.
        -11    1    3    3    0    0 -0.60737313139E+01  0.22721317858E+01 -0.15564308446E+01  0.66689783446E+01  0.51100000000E-03 0.  1.
         12    1    3    3    0    0 -0.63529698744E+00  0.34368116241E+02  0.30075847126E+01  0.34505312374E+02  0.00000000000E+00 0. -1.
</event>
<event>
 7    1  0.3837332E-009  0.4778727E+02  0.7816164E-02  0.1312668E+00
        -11   -1    0    0    0    0  0.00000000000E+00  0.00000000000E+00  0.45593999997E+02  0.45594000000E+02  0.51100000000E-03 0. -1.
         11   -1    0    0    0    0 -0.00000000000E+00 -0.00000000000E+00 -0.45593999997E+02  0.45594000000E+02  0.51100000000E-03 0.  1.
    9900012    2    1    2    0    0 -0.23951366184E+02 -0.51538071824E+00  0.36189637557E+02  0.47787269294E+02  0.19999992017E+02 0.  0.
        -12    1    1    2    0    0  0.23951366184E+02  0.51538071824E+00 -0.36189637557E+02  0.43400730706E+02  0.00000000000E+00 0.  1.
         11    1    3    3    0    0 -0.22672142654E+02 -0.47436216255E+00  0.33582891680E+02  0.40522360319E+02  0.51100000000E-03 0. -1.
        -11    1    3    3    0    0 -0.25170374663E+01 -0.25589674222E+01  0.26453564733E+01  0.44588903335E+01  0.51100000000E-03 0.  1.
        -12    1    3    3    0    0  0.12378139360E+01  0.25179488665E+01 -0.38610596772E-01  0.28060186408E+01  0.00000000000E+00 0.  1.
</event>
<event>
 7    1  0.3837332E-009  0.4778728E+02  0.7816164E-02  0.1312668E+00
        -11   -1    0    0    0    0  0.00000000000E+00  0.00000000000E+00  0.45593999997E+02  0.45594000000E+02  0.51100000000E-03 0.  1.
         11   -1    0    0    0    0 -0.00000000000E+00 -0.00000000000E+00 -0.45593999997E+02  0.45594000000E+02  0.51100000000E-03 0. -1.
    9900012    2    1    2    0    0 -0.12618656649E+02  0.35650406069E+02 -0.21294136120E+02  0.47787283628E+02  0.20000057374E+02 0.  0.
        -12    1    1    2    0    0  0.12618656649E+02 -0.35650406069E+02  0.21294136120E+02  0.43400716372E+02  0.00000000000E+00 0.  1.
         11    1    3    3    0    0 -0.33070365821E+01  0.18092309410E-01 -0.44887294118E+01  0.55754381245E+01  0.51100000000E-03 0. -1.
        -11    1    3    3    0    0 -0.62022279471E+01  0.54377996568E+01 -0.22593722454E+01  0.85523131269E+01  0.51100000000E-03 0.  1.
         12    1    3    3    0    0 -0.31093921202E+01  0.30194514102E+02 -0.14546034463E+02  0.33659532377E+02  0.00000000000E+00 0. -1.
</event>
<event>
 7    1  0.3837332E-009  0.4778727E+02  0.7816164E-02  0.1312668E+00
        -11   -1    0    0    0    0  0.00000000000E+00  0.00000000000E+00  0.45593999997E+02  0.45594000000E+02  0.51100000000E-03 0. -1.
         11   -1    0    0    0    0 -0.00000000000E+00 -0.00000000000E+00 -0.45593999997E+02  0.45594000000E+02  0.51100000000E-03 0.  1.
    9900012    2    1    2    0    0 -0.38672826256E+02 -0.15336687084E+02 -0.12362117664E+02  0.47787269425E+02  0.19999992616E+02 0.  0.
        -12    1    1    2    0    0  0.38672826256E+02  0.15336687084E+02  0.12362117664E+02  0.43400730575E+02  0.00000000000E+00 0.  1.
         11    1    3    3    0    0 -0.17315528807E+02 -0.33709729533E+01 -0.11600833918E+01  0.17678710085E+02  0.51100000000E-03 0. -1.
        -11    1    3    3    0    0 -0.12495972959E+02 -0.13981967323E+02 -0.87658419187E+01  0.20699872831E+02  0.51100000000E-03 0.  1.
         12    1    3    3    0    0 -0.88613244892E+01  0.20162531925E+01 -0.24361923530E+01  0.94086865087E+01  0.00000000000E+00 0. -1.
</event>
<event>
 7    1  0.3837332E-009  0.4778730E+02  0.7816164E-02  0.1312668E+00
        -11   -1    0    0    0    0  0.00000000000E+00  0.00000000000E+00  0.45593999997E+02  0.45594000000E+02  0.51100000000E-03 0.  1.
         11   -1    0    0    0    0 -0.00000000000E+00 -0.00000000000E+00 -0.45593999997E+02  0.45594000000E+02  0.51100000000E-03 0. -1.
    9900012    2    1    2    0    0  0.14706099979E+02 -0.40164097856E+02 -0.73618404218E+01  0.47787299227E+02  0.20000128493E+02 0.  0.
        -12    1    1    2    0    0 -0.14706099979E+02  0.40164097856E+02  0.73618404218E+01  0.43400700773E+02  0.00000000000E+00 0.  1.
         11    1    3    3    0    0  0.73544602007E+01 -0.16793618896E+02 -0.38223377492E+01  0.18727626294E+02  0.51100000000E-03 0. -1.
        -11    1    3    3    0    0  0.19802106516E+01 -0.16988373893E+02  0.42748727298E+01  0.17629538249E+02  0.51100000000E-03 0.  1.
        -12    1    3    3    0    0  0.53714291269E+01 -0.63821050670E+01 -0.78143754025E+01  0.11430134683E+02  0.00000000000E+00 0.  1.
</event>
<event>
 7    1  0.3837332E-009  0.4778732E+02  0.7816164E-02  0.1312668E+00
        -11   -1    0    0    0    0  0.00000000000E+00  0.00000000000E+00  0.45593999997E+02  0.45594000000E+02  0.51100000000E-03 0.  1.
         11   -1    0    0    0    0 -0.00000000000E+00 -0.00000000000E+00 -0.45593999997E+02  0.45594000000E+02  0.51100000000E-03 0. -1.
    9900012    2    1    2    0    0  0.31642321762E+02 -0.27930997942E+02 -0.10111461094E+02  0.47787322379E+02  0.20000234054E+02 0.  0.
        -12    1    1    2    0    0 -0.31642321762E+02  0.27930997942E+02  0.10111461094E+02  0.43400677621E+02  0.00000000000E+00 0.  1.
         11    1    3    3    0    0  0.25207190901E+02 -0.19888485360E+02  0.10210032471E+01  0.32124706550E+02  0.51100000000E-03 0.  1.
        -11    1    3    3    0    0  0.37288236729E+01 -0.19811108562E+01 -0.30780068804E+01  0.52252323226E+01  0.51100000000E-03 0. -1.
        -12    1    3    3    0    0  0.27063071880E+01 -0.60614017251E+01 -0.80544574606E+01  0.10437383506E+02  0.00000000000E+00 0.  1.
</event>
<event>
 7    1  0.3837332E-009  0.4778728E+02  0.7816164E-02  0.1312668E+00
        -11   -1    0    0    0    0  0.00000000000E+00  0.00000000000E+00  0.45593999997E+02  0.45594000000E+02  0.51100000000E-03 0. -1.
         11   -1    0    0    0    0 -0.00000000000E+00 -0.00000000000E+00 -0.45593999997E+02  0.45594000000E+02  0.51100000000E-03 0.  1.
    9900012    2    1    2    0    0 -0.42329541939E+02 -0.94895321726E+01 -0.13347537382E+01  0.47787275246E+02  0.20000019155E+02 0.  0.
        -12    1    1    2    0    0  0.42329541939E+02  0.94895321726E+01  0.13347537382E+01  0.43400724754E+02  0.00000000000E+00 0.  1.
         11    1    3    3    0    0 -0.19287861276E+02 -0.88621480853E+01  0.72532352008E+01  0.22431421766E+02  0.51100000000E-03 0. -1.
        -11    1    3    3    0    0 -0.66123727501E+01  0.20658882539E+01 -0.79315797825E+00  0.69728378372E+01  0.51100000000E-03 0.  1.
         12    1    3    3    0    0 -0.16429307913E+02 -0.26932723412E+01 -0.77948309608E+01  0.18383015643E+02  0.00000000000E+00 0. -1.
</event>
<event>
 7    1  0.3837332E-009  0.4778727E+02  0.7816164E-02  0.1312668E+00
        -11   -1    0    0    0    0  0.00000000000E+00  0.00000000000E+00  0.45593999997E+02  0.45594000000E+02  0.51100000000E-03 0.  1.
         11   -1    0    0    0    0 -0.00000000000E+00 -0.00000000000E+00 -0.45593999997E+02  0.45594000000E+02  0.51100000000E-03 0. -1.
    9900012    2    1    2    0    0  0.13672915429E+02  0.28509465125E+02 -0.29730201168E+02  0.47787273283E+02  0.20000010208E+02 0.  0.
        -12    1    1    2    0    0 -0.13672915429E+02 -0.28509465125E+02  0.29730201168E+02  0.43400726717E+02  0.00000000000E+00 0.  1.
         11    1    3    3    0    0  0.71360018742E+01  0.66710124671E+01 -0.26503587755E+01  0.10121725741E+02  0.51100000000E-03 0. -1.
        -11    1    3    3    0    0  0.37417075955E+01  0.50332925796E+01 -0.76591563762E+00  0.63183096590E+01  0.51100000000E-03 0.  1.
         12    1    3    3    0    0  0.27952059593E+01  0.16805160079E+02 -0.26313926755E+02  0.31347237883E+02  0.00000000000E+00 0. -1.
</event>
<event>
 7    1  0.3837332E-009  0.4778726E+02  0.7816164E-02  0.1312668E+00
        -11   -1    0    0    0    0  0.00000000000E+00  0.00000000000E+00  0.45593999997E+02  0.45594000000E+02  0.51100000000E-03 0. -1.
         11   -1    0    0    0    0 -0.00000000000E+00 -0.00000000000E+00 -0.45593999997E+02  0.45594000000E+02  0.51100000000E-03 0.  1.
    9900012    2    1    2    0    0  0.15700576763E+02 -0.68492472845E+01  0.39877360851E+02  0.47787260289E+02  0.19999950960E+02 0.  0.
        -12    1    1    2    0    0 -0.15700576763E+02  0.68492472845E+01 -0.39877360851E+02  0.43400739711E+02  0.00000000000E+00 0.  1.
         11    1    3    3    0    0  0.93025796277E+01  0.34463762260E+01  0.17062304777E+02  0.19736710501E+02  0.51100000000E-03 0. -1.
        -11    1    3    3    0    0  0.58506775729E+01 -0.14734940477E+01  0.39332199544E+01  0.72022102331E+01  0.51100000000E-03 0.  1.
        -12    1    3    3    0    0  0.54731956221E+00 -0.88221294627E+01  0.18881836119E+02  0.20848339555E+02  0.00000000000E+00 0.  1.
</event>
<event>
 7    1  0.3837332E-009  0.4778726E+02  0.7816164E-02  0.1312668E+00
        -11   -1    0    0    0    0  0.00000000000E+00  0.00000000000E+00  0.45593999997E+02  0.45594000000E+02  0.51100000000E-03 0.  1.
         11   -1    0    0    0    0 -0.00000000000E+00 -0.00000000000E+00 -0.45593999997E+02  0.45594000000E+02  0.51100000000E-03 0. -1.
    9900012    2    1    2    0    0 -0.35764052866E+02  0.14744931110E+02 -0.19675959476E+02  0.47787264382E+02  0.19999969625E+02 0.  0.
        -12    1    1    2    0    0  0.35764052866E+02 -0.14744931110E+02  0.19675959476E+02  0.43400735618E+02  0.00000000000E+00 0.  1.
         11    1    3    3    0    0 -0.34574957892E+01  0.11069638405E+01 -0.36192538052E+01  0.51262700323E+01  0.51100000000E-03 0. -1.
        -11    1    3    3    0    0 -0.14619860144E+02  0.15353846939E+02 -0.12258629705E+02  0.24489894426E+02  0.51100000000E-03 0.  1.
        -12    1    3    3    0    0 -0.17686696932E+02 -0.17158796696E+01 -0.37980759661E+01  0.18171099924E+02  0.00000000000E+00 0.  1.
</event>
<event>
 7    1  0.3837332E-009  0.4778733E+02  0.7816164E-02  0.1312667E+00
        -11   -1    0    0    0    0  0.00000000000E+00  0.00000000000E+00  0.45593999997E+02  0.45594000000E+02  0.51100000000E-03 0.  1.
         11   -1    0    0    0    0 -0.00000000000E+00 -0.00000000000E+00 -0.45593999997E+02  0.45594000000E+02  0.51100000000E-03 0. -1.
    9900012    2    1    2    0    0 -0.87231053839E+01 -0.31719796508E+02 -0.28308655991E+02  0.47787331087E+02  0.20000273757E+02 0.  0.
        -12    1    1    2    0    0  0.87231053839E+01  0.31719796508E+02  0.28308655991E+02  0.43400668913E+02  0.00000000000E+00 0.  1.
         11    1    3    3    0    0 -0.10757258693E+02 -0.22682986119E+02 -0.26582351610E+02  0.36563067311E+02  0.51100000000E-03 0. -1.
        -11    1    3    3    0    0 -0.10626361691E+01  0.25936393951E+00 -0.85280377707E+00  0.13869894824E+01  0.51100000000E-03 0.  1.
        -12    1    3    3    0    0  0.30967894780E+01 -0.92961743284E+01 -0.87350060459E+00  0.98372742933E+01  0.00000000000E+00 0.  1.
</event>
<event>
 7    1  0.3837332E-009  0.4778727E+02  0.7816164E-02  0.1312668E+00
        -11   -1    0    0    0    0  0.00000000000E+00  0.00000000000E+00  0.45593999997E+02  0.45594000000E+02  0.51100000000E-03 0.  1.
         11   -1    0    0    0    0 -0.00000000000E+00 -0.00000000000E+00 -0.45593999997E+02  0.45594000000E+02  0.51100000000E-03 0. -1.
    9900012    2    1    2    0    0  0.11754915796E+02 -0.39429393428E+01 -0.41592048873E+02  0.47787270219E+02  0.19999996237E+02 0.  0.
        -12    1    1    2    0    0 -0.11754915796E+02  0.39429393428E+01  0.41592048873E+02  0.43400729781E+02  0.00000000000E+00 0.  1.
         11    1    3    3    0    0  0.12111712722E+02 -0.15493267400E+01 -0.10464974503E+02  0.16081346026E+02  0.51100000000E-03 0. -1.
        -11    1    3    3    0    0 -0.12748231559E+01 -0.47103044767E+00 -0.15881983723E+01  0.20903153093E+01  0.51100000000E-03 0.  1.
         12    1    3    3    0    0  0.91802622937E+00 -0.19225821551E+01 -0.29538875998E+02  0.29615608884E+02  0.00000000000E+00 0. -1.
</event>
<event>
 7    1  0.3837332E-009  0.4778727E+02  0.7816164E-02  0.1312668E+00
        -11   -1    0    0    0    0  0.00000000000E+00  0.00000000000E+00  0.45593999997E+02  0.45594000000E+02  0.51100000000E-03 0.  1.
         11   -1    0    0    0    0 -0.00000000000E+00 -0.00000000000E+00 -0.45593999997E+02  0.45594000000E+02  0.51100000000E-03 0. -1.
    9900012    2    1    2    0    0  0.26988678184E+02  0.21115546742E+02 -0.26633967197E+02  0.47787271054E+02  0.20000000046E+02 0.  0.
        -12    1    1    2    0    0 -0.26988678184E+02 -0.21115546742E+02  0.26633967197E+02  0.43400728946E+02  0.00000000000E+00 0.  1.
         11    1    3    3    0    0  0.39202562931E+01  0.17752565332E+01 -0.37370070676E+01  0.56995760585E+01  0.51100000000E-03 0. -1.
        -11    1    3    3    0    0  0.23230205823E+02  0.20455322340E+02 -0.15520786673E+02  0.34625965602E+02  0.51100000000E-03 0.  1.
         12    1    3    3    0    0 -0.16178393210E+00 -0.11150321313E+01 -0.73761734566E+01  0.74617293945E+01  0.00000000000E+00 0. -1.
</event>
<event>
 7    1  0.3837332E-009  0.4778727E+02  0.7816164E-02  0.1312668E+00
        -11   -1    0    0    0    0  0.00000000000E+00  0.00000000000E+00  0.45593999997E+02  0.45594000000E+02  0.51100000000E-03 0.  1.
         11   -1    0    0    0    0 -0.00000000000E+00 -0.00000000000E+00 -0.45593999997E+02  0.45594000000E+02  0.51100000000E-03 0. -1.
    9900012    2    1    2    0    0  0.42526972404E+02  0.86259820789E+01  0.81980168243E+00  0.47787273929E+02  0.20000013153E+02 0.  0.
        -12    1    1    2    0    0 -0.42526972404E+02 -0.86259820789E+01 -0.81980168243E+00  0.43400726071E+02  0.00000000000E+00 0.  1.
         11    1    3    3    0    0  0.26941264918E+01  0.56211505018E+01  0.21060798220E+00  0.62369869730E+01  0.51100000000E-03 0. -1.
        -11    1    3    3    0    0  0.40828935170E+01  0.11619893330E+01 -0.35212248281E+01  0.55153661014E+01  0.51100000000E-03 0.  1.
        -12    1    3    3    0    0  0.35749952395E+02  0.18428422440E+01  0.41304185283E+01  0.36034920855E+02  0.00000000000E+00 0.  1.
</event>
<event>
 7    1  0.3837332E-009  0.4778727E+02  0.7816164E-02  0.1312668E+00
        -11   -1    0    0    0    0  0.00000000000E+00  0.00000000000E+00  0.45593999997E+02  0.45594000000E+02  0.51100000000E-03 0. -1.
         11   -1    0    0    0    0 -0.00000000000E+00 -0.00000000000E+00 -0.45593999997E+02  0.45594000000E+02  0.51100000000E-03 0.  1.
    9900012    2    1    2    0    0 -0.15681054544E+02 -0.40452360694E+02 -0.11550875266E+01  0.47787272074E+02  0.20000004693E+02 0.  0.
        -12    1    1    2    0    0  0.15681054544E+02  0.40452360694E+02  0.11550875266E+01  0.43400727926E+02  0.00000000000E+00 0.  1.
         11    1    3    3    0    0 -0.17047560226E+01 -0.92699702941E+01 -0.11056823626E+01  0.94900514276E+01  0.51100000000E-03 0. -1.
        -11    1    3    3    0    0 -0.17581359561E+02 -0.23137063302E+02  0.23689362400E+01  0.29155441369E+02  0.51100000000E-03 0.  1.
        -12    1    3    3    0    0  0.36050610389E+01 -0.80453270980E+01 -0.24183414039E+01  0.91417792773E+01  0.00000000000E+00 0.  1.
</event>
<event>
 7    1  0.3837332E-009  0.4778727E+02  0.7816164E-02  0.1312668E+00
        -11   -1    0    0    0    0  0.00000000000E+00  0.00000000000E+00  0.45593999997E+02  0.45594000000E+02  0.51100000000E-03 0.  1.
         11   -1    0    0    0    0 -0.00000000000E+00 -0.00000000000E+00 -0.45593999997E+02  0.45594000000E+02  0.51100000000E-03 0. -1.
    9900012    2    1    2    0    0  0.64145560953E+01 -0.18238245175E+02 -0.38856698747E+02  0.47787272420E+02  0.20000006270E+02 0.  0.
        -12    1    1    2    0    0 -0.64145560953E+01  0.18238245175E+02  0.38856698747E+02  0.43400727580E+02  0.00000000000E+00 0.  1.
         11    1    3    3    0    0  0.32935948467E+01  0.22774006300E+00 -0.52156119468E+01  0.61727012556E+01  0.51100000000E-03 0. -1.
        -11    1    3    3    0    0  0.36512336572E+01 -0.81880812032E+00 -0.13824499905E+00  0.37444713777E+01  0.51100000000E-03 0.  1.
         12    1    3    3    0    0 -0.53027240856E+00 -0.17647177117E+02 -0.33502841802E+02  0.37870099786E+02  0.00000000000E+00 0. -1.
</event>
<event>
 7    1  0.3837332E-009  0.4778728E+02  0.7816164E-02  0.1312668E+00
        -11   -1    0    0    0    0  0.00000000000E+00  0.00000000000E+00  0.45593999997E+02  0.45594000000E+02  0.51100000000E-03 0.  1.
         11   -1    0    0    0    0 -0.00000000000E+00 -0.00000000000E+00 -0.45593999997E+02  0.45594000000E+02  0.51100000000E-03 0. -1.
    9900012    2    1    2    0    0  0.65786634617E+01 -0.19439040235E+02 -0.38242224809E+02  0.47787275852E+02  0.20000021921E+02 0.  0.
        -12    1    1    2    0    0 -0.65786634617E+01  0.19439040235E+02  0.38242224809E+02  0.43400724148E+02  0.00000000000E+00 0.  1.
         11    1    3    3    0    0 -0.35218470738E+01 -0.13727801673E+02 -0.19457215067E+02  0.24071542618E+02  0.51100000000E-03 0. -1.
        -11    1    3    3    0    0  0.42333018287E+01 -0.66181097693E+01 -0.14146774086E+02  0.16181824328E+02  0.51100000000E-03 0.  1.
        -12    1    3    3    0    0  0.58672087068E+01  0.90687120776E+00 -0.46382356559E+01  0.75339089055E+01  0.00000000000E+00 0.  1.
</event>
<event>
 7    1  0.4226814E-009  0.4778727E+02  0.7816164E-02  0.1312668E+00
        -11   -1    0    0    0    0  0.00000000000E+00  0.00000000000E+00  0.45593999997E+02  0.45594000000E+02  0.51100000000E-03 0. -1.
         11   -1    0    0    0    0 -0.00000000000E+00 -0.00000000000E+00 -0.45593999997E+02  0.45594000000E+02  0.51100000000E-03 0.  1.
    9900012    2    1    2    0    0 -0.39852212801E+02  0.75359188434E+01  0.15447788987E+02  0.47787272787E+02  0.20000007946E+02 0.  0.
        -12    1    1    2    0    0  0.39852212801E+02 -0.75359188434E+01 -0.15447788987E+02  0.43400727213E+02  0.00000000000E+00 0.  1.
         11    1    3    3    0    0 -0.30060941502E+02  0.76991336026E+01  0.13309215647E+02  0.33764953481E+02  0.51100000000E-03 0. -1.
        -11    1    3    3    0    0 -0.48741833880E+01 -0.17601993923E+01  0.57311486108E+01  0.77267088893E+01  0.51100000000E-03 0.  1.
        -12    1    3    3    0    0 -0.49170879117E+01  0.15969846331E+01 -0.35925752698E+01  0.62956104167E+01  0.00000000000E+00 0.  1.
</event>
<event>
 7    1  0.3837332E-009  0.4778727E+02  0.7816164E-02  0.1312668E+00
        -11   -1    0    0    0    0  0.00000000000E+00  0.00000000000E+00  0.45593999997E+02  0.45594000000E+02  0.51100000000E-03 0.  1.
         11   -1    0    0    0    0 -0.00000000000E+00 -0.00000000000E+00 -0.45593999997E+02  0.45594000000E+02  0.51100000000E-03 0. -1.
    9900012    2    1    2    0    0 -0.42452968987E+02  0.86330498868E+01  0.26151694058E+01  0.47787271467E+02  0.20000001926E+02 0.  0.
        -12    1    1    2    0    0  0.42452968987E+02 -0.86330498868E+01 -0.26151694058E+01  0.43400728533E+02  0.00000000000E+00 0.  1.
         11    1    3    3    0    0 -0.26359419541E+01 -0.11128254352E+01 -0.27972300288E+01  0.40013830771E+01  0.51100000000E-03 0. -1.
        -11    1    3    3    0    0 -0.19155017039E+02  0.28212564323E+01 -0.44500856367E+01  0.19866490079E+02  0.51100000000E-03 0.  1.
         12    1    3    3    0    0 -0.20662009994E+02  0.69246188897E+01  0.98624850712E+01  0.23919398311E+02  0.00000000000E+00 0. -1.
</event>
<event>
 7    1  0.3837332E-009  0.4778727E+02  0.7816164E-02  0.1312668E+00
        -11   -1    0    0    0    0  0.00000000000E+00  0.00000000000E+00  0.45593999997E+02  0.45594000000E+02  0.51100000000E-03 0.  1.
         11   -1    0    0    0    0 -0.00000000000E+00 -0.00000000000E+00 -0.45593999997E+02  0.45594000000E+02  0.51100000000E-03 0. -1.
    9900012    2    1    2    0    0 -0.43030297962E+02  0.55889872228E+01 -0.88319244785E+00  0.47787270170E+02  0.19999996012E+02 0.  0.
        -12    1    1    2    0    0  0.43030297962E+02 -0.55889872228E+01  0.88319244785E+00  0.43400729830E+02  0.00000000000E+00 0.  1.
         11    1    3    3    0    0 -0.16883782730E+02 -0.65240282997E+01 -0.16681102483E+01  0.18177119040E+02  0.51100000000E-03 0. -1.
        -11    1    3    3    0    0 -0.86388350274E+00  0.20834046910E+01 -0.72459676781E+00  0.23689471395E+01  0.51100000000E-03 0.  1.
         12    1    3    3    0    0 -0.25282631729E+02  0.10029610832E+02  0.15095145682E+01  0.27241203990E+02  0.00000000000E+00 0. -1.
</event>
<event>
 7    1  0.3837332E-009  0.4778727E+02  0.7816164E-02  0.1312668E+00
        -11   -1    0    0    0    0  0.00000000000E+00  0.00000000000E+00  0.45593999997E+02  0.45594000000E+02  0.51100000000E-03 0. -1.
         11   -1    0    0    0    0 -0.00000000000E+00 -0.00000000000E+00 -0.45593999997E+02  0.45594000000E+02  0.51100000000E-03 0.  1.
    9900012    2    1    2    0    0  0.36169959435E+02  0.15028133938E+02 -0.18695254222E+02  0.47787270678E+02  0.19999998331E+02 0.  0.
        -12    1    1    2    0    0 -0.36169959435E+02 -0.15028133938E+02  0.18695254222E+02  0.43400729322E+02  0.00000000000E+00 0.  1.
         11    1    3    3    0    0  0.10043322724E+02 -0.26504216791E+01 -0.71521585873E+01  0.12611361510E+02  0.51100000000E-03 0. -1.
        -11    1    3    3    0    0  0.36344733025E+01  0.70620421841E+00  0.16613945824E+01  0.40581218321E+01  0.51100000000E-03 0.  1.
         12    1    3    3    0    0  0.22492163409E+02  0.16972351399E+02 -0.13204490217E+02  0.31117787336E+02  0.00000000000E+00 0. -1.
</event>
<event>
 7    1  0.3837332E-009  0.4778722E+02  0.7816164E-02  0.1312668E+00
        -11   -1    0    0    0    0  0.00000000000E+00  0.00000000000E+00  0.45593999997E+02  0.45594000000E+02  0.51100000000E-03 0.  1.
         11   -1    0    0    0    0 -0.00000000000E+00 -0.00000000000E+00 -0.45593999997E+02  0.45594000000E+02  0.51100000000E-03 0. -1.
    9900012    2    1    2    0    0 -0.19297783035E+02  0.37163842986E+02  0.11404894847E+02  0.47787224868E+02  0.19999789463E+02 0.  0.
        -12    1    1    2    0    0  0.19297783035E+02 -0.37163842986E+02 -0.11404894847E+02  0.43400775132E+02  0.00000000000E+00 0.  1.
         11    1    3    3    0    0 -0.17293262418E+02  0.24368118857E+02  0.41243651470E+01  0.30164093386E+02  0.51100000000E-03 0. -1.
        -11    1    3    3    0    0 -0.29294683867E+01 -0.63403835940E-01  0.25608872161E+00  0.29413239824E+01  0.51100000000E-03 0.  1.
         12    1    3    3    0    0  0.92494776946E+00  0.12859127965E+02  0.70244409780E+01  0.14681807500E+02  0.00000000000E+00 0. -1.
</event>
<event>
 7    1  0.3837332E-009  0.4778727E+02  0.7816164E-02  0.1312668E+00
        -11   -1    0    0    0    0  0.00000000000E+00  0.00000000000E+00  0.45593999997E+02  0.45594000000E+02  0.51100000000E-03 0.  1.
         11   -1    0    0    0    0 -0.00000000000E+00 -0.00000000000E+00 -0.45593999997E+02  0.45594000000E+02  0.51100000000E-03 0. -1.
    9900012    2    1    2    0    0  0.90023881970E+01  0.21042624141E+01 -0.42404624683E+02  0.47787272955E+02  0.20000008710E+02 0.  0.
        -12    1    1    2    0    0 -0.90023881970E+01 -0.21042624141E+01  0.42404624683E+02  0.43400727045E+02  0.00000000000E+00 0.  1.
         11    1    3    3    0    0  0.60981504866E+01 -0.14843666592E+00 -0.26921822250E+02  0.27604238558E+02  0.51100000000E-03 0. -1.
        -11    1    3    3    0    0  0.14850721606E+00  0.59923906632E+01 -0.14123503333E+02  0.15342885873E+02  0.51100000000E-03 0.  1.
        -12    1    3    3    0    0  0.27557304944E+01 -0.37396915832E+01 -0.13592990998E+01  0.48401485244E+01  0.00000000000E+00 0.  1.
</event>
<event>
 7    1  0.3837332E-009  0.4778727E+02  0.7816164E-02  0.1312668E+00
        -11   -1    0    0    0    0  0.00000000000E+00  0.00000000000E+00  0.45593999997E+02  0.45594000000E+02  0.51100000000E-03 0.  1.
         11   -1    0    0    0    0 -0.00000000000E+00 -0.00000000000E+00 -0.45593999997E+02  0.45594000000E+02  0.51100000000E-03 0. -1.
    9900012    2    1    2    0    0  0.22160702159E+02  0.74285276275E+01 -0.36569707768E+02  0.47787271099E+02  0.20000000248E+02 0.  0.
        -12    1    1    2    0    0 -0.22160702159E+02 -0.74285276275E+01  0.36569707768E+02  0.43400728901E+02  0.00000000000E+00 0.  1.
         11    1    3    3    0    0  0.35996047335E+01 -0.24946612697E+01 -0.16399346807E+02  0.16974070374E+02  0.51100000000E-03 0. -1.
        -11    1    3    3    0    0  0.70997278324E+01  0.75276106631E+01 -0.14473206073E+02  0.17791704580E+02  0.51100000000E-03 0.  1.
        -12    1    3    3    0    0  0.11461369593E+02  0.23955782341E+01 -0.56971548881E+01  0.13021496145E+02  0.00000000000E+00 0.  1.
</event>
<event>
 7    1  0.3837332E-009  0.4778727E+02  0.7816164E-02  0.1312668E+00
        -11   -1    0    0    0    0  0.00000000000E+00  0.00000000000E+00  0.45593999997E+02  0.45594000000E+02  0.51100000000E-03 0. -1.
         11   -1    0    0    0    0 -0.00000000000E+00 -0.00000000000E+00 -0.45593999997E+02  0.45594000000E+02  0.51100000000E-03 0.  1.
    9900012    2    1    2    0    0 -0.14924566163E+02  0.40751030219E+02 -0.48420740809E+00  0.47787267335E+02  0.19999983088E+02 0.  0.
        -12    1    1    2    0    0  0.14924566163E+02 -0.40751030219E+02  0.48420740809E+00  0.43400732665E+02  0.00000000000E+00 0.  1.
         11    1    3    3    0    0  0.10480803839E+01  0.35736573298E+00  0.97953417457E+00  0.14784012373E+01  0.51100000000E-03 0. -1.
        -11    1    3    3    0    0 -0.10427347604E+02  0.74575469985E+01  0.70324108103E+00  0.12838969334E+02  0.51100000000E-03 0.  1.
         12    1    3    3    0    0 -0.55452989430E+01  0.32936117487E+02 -0.21669826637E+01  0.33469896763E+02  0.00000000000E+00 0. -1.
</event>
<event>
 7    1  0.3837332E-009  0.4778727E+02  0.7816164E-02  0.1312668E+00
        -11   -1    0    0    0    0  0.00000000000E+00  0.00000000000E+00  0.45593999997E+02  0.45594000000E+02  0.51100000000E-03 0.  1.
         11   -1    0    0    0    0 -0.00000000000E+00 -0.00000000000E+00 -0.45593999997E+02  0.45594000000E+02  0.51100000000E-03 0. -1.
    9900012    2    1    2    0    0 -0.39076879917E+02 -0.15246795122E+02 -0.11142541515E+02  0.47787268014E+02  0.19999986182E+02 0.  0.
        -12    1    1    2    0    0  0.39076879917E+02  0.15246795122E+02  0.11142541515E+02  0.43400731986E+02  0.00000000000E+00 0.  1.
         11    1    3    3    0    0 -0.54285724705E+01 -0.17979661331E+01  0.21392443853E+01  0.61056079210E+01  0.51100000000E-03 0. -1.
        -11    1    3    3    0    0 -0.11105648742E+01 -0.34831924743E+01 -0.57732315603E+01  0.68334608408E+01  0.51100000000E-03 0.  1.
         12    1    3    3    0    0 -0.32537742572E+02 -0.99656365151E+01 -0.75085543404E+01  0.34848199252E+02  0.00000000000E+00 0. -1.
</event>
<event>
 7    1  0.3837332E-009  0.4778728E+02  0.7816164E-02  0.1312668E+00
        -11   -1    0    0    0    0  0.00000000000E+00  0.00000000000E+00  0.45593999997E+02  0.45594000000E+02  0.51100000000E-03 0.  1.
         11   -1    0    0    0    0 -0.00000000000E+00 -0.00000000000E+00 -0.45593999997E+02  0.45594000000E+02  0.51100000000E-03 0. -1.
    9900012    2    1    2    0    0  0.20035003828E+01 -0.15162431500E+02 -0.40616616334E+02  0.47787275753E+02  0.20000021467E+02 0.  0.
        -12    1    1    2    0    0 -0.20035003828E+01  0.15162431500E+02  0.40616616334E+02  0.43400724247E+02  0.00000000000E+00 0.  1.
         11    1    3    3    0    0 -0.41234052812E+01  0.31260544950E+01 -0.58065139148E+01  0.77775505091E+01  0.51100000000E-03 0. -1.
        -11    1    3    3    0    0  0.23013468880E+01 -0.21942613926E+01 -0.57986020670E+01  0.66132266520E+01  0.51100000000E-03 0.  1.
         12    1    3    3    0    0  0.38255587759E+01 -0.16094224603E+02 -0.29011500352E+02  0.33396498592E+02  0.00000000000E+00 0. -1.
</event>
<event>
 7    1  0.3837332E-009  0.4778728E+02  0.7816164E-02  0.1312668E+00
        -11   -1    0    0    0    0  0.00000000000E+00  0.00000000000E+00  0.45593999997E+02  0.45594000000E+02  0.51100000000E-03 0.  1.
         11   -1    0    0    0    0 -0.00000000000E+00 -0.00000000000E+00 -0.45593999997E+02  0.45594000000E+02  0.51100000000E-03 0. -1.
    9900012    2    1    2    0    0  0.30446126759E+02 -0.20828388618E+02 -0.22865573933E+02  0.47787275601E+02  0.20000020776E+02 0.  0.
        -12    1    1    2    0    0 -0.30446126759E+02  0.20828388618E+02  0.22865573933E+02  0.43400724399E+02  0.00000000000E+00 0.  1.
         11    1    3    3    0    0  0.20784096109E+02 -0.89263770368E+01 -0.17237242767E+02  0.28439082203E+02  0.51100000000E-03 0. -1.
        -11    1    3    3    0    0  0.36034228622E+00 -0.59258748048E+01  0.15879611159E+01  0.61455235360E+01  0.51100000000E-03 0.  1.
        -12    1    3    3    0    0  0.93016883638E+01 -0.59761367768E+01 -0.72162922822E+01  0.13202669862E+02  0.00000000000E+00 0.  1.
</event>
<event>
 7    1  0.3837332E-009  0.4778727E+02  0.7816164E-02  0.1312668E+00
        -11   -1    0    0    0    0  0.00000000000E+00  0.00000000000E+00  0.45593999997E+02  0.45594000000E+02  0.51100000000E-03 0.  1.
         11   -1    0    0    0    0 -0.00000000000E+00 -0.00000000000E+00 -0.45593999997E+02  0.45594000000E+02  0.51100000000E-03 0. -1.
    9900012    2    1    2    0    0 -0.73279111735E+01  0.36806518883E+02 -0.21799201858E+02  0.47787270558E+02  0.19999997782E+02 0.  0.
        -12    1    1    2    0    0  0.73279111735E+01 -0.36806518883E+02  0.21799201858E+02  0.43400729442E+02  0.00000000000E+00 0.  1.
         11    1    3    3    0    0 -0.66591094325E+00  0.19600369163E+01  0.71418657901E+00  0.21898047466E+01  0.51100000000E-03 0. -1.
        -11    1    3    3    0    0 -0.53684744590E+01  0.18390290532E+01 -0.72554056557E+01  0.92110508285E+01  0.51100000000E-03 0.  1.
         12    1    3    3    0    0 -0.12935257713E+01  0.33007452913E+02 -0.15257982782E+02  0.36386414983E+02  0.00000000000E+00 0. -1.
</event>
<event>
 7    1  0.3837332E-009  0.4778723E+02  0.7816164E-02  0.1312668E+00
        -11   -1    0    0    0    0  0.00000000000E+00  0.00000000000E+00  0.45593999997E+02  0.45594000000E+02  0.51100000000E-03 0. -1.
         11   -1    0    0    0    0 -0.00000000000E+00 -0.00000000000E+00 -0.45593999997E+02  0.45594000000E+02  0.51100000000E-03 0.  1.
    9900012    2    1    2    0    0  0.10161662970E+02 -0.14758126859E+02  0.39529296864E+02  0.47787227964E+02  0.19999803580E+02 0.  0.
        -12    1    1    2    0    0 -0.10161662970E+02  0.14758126859E+02 -0.39529296864E+02  0.43400772036E+02  0.00000000000E+00 0.  1.
         11    1    3    3    0    0 -0.20119091541E+01 -0.94715667132E+01  0.18745906785E+02  0.21098989926E+02  0.51100000000E-03 0.  1.
        -11    1    3    3    0    0  0.19197941453E+01 -0.18062472078E+01  0.13219455126E+02  0.13479693343E+02  0.51100000000E-03 0. -1.
        -12    1    3    3    0    0  0.10253777979E+02 -0.34803129382E+01  0.75639349529E+01  0.13208544695E+02  0.00000000000E+00 0.  1.
</event>
<event>
 7    1  0.3837332E-009  0.4778726E+02  0.7816164E-02  0.1312668E+00
        -11   -1    0    0    0    0  0.00000000000E+00  0.00000000000E+00  0.45593999997E+02  0.45594000000E+02  0.51100000000E-03 0. -1.
         11   -1    0    0    0    0 -0.00000000000E+00 -0.00000000000E+00 -0.45593999997E+02  0.45594000000E+02  0.51100000000E-03 0.  1.
    9900012    2    1    2    0    0  0.15760125374E+02  0.36181678352E+02  0.18059046209E+02  0.47787256341E+02  0.19999932961E+02 0.  0.
        -12    1    1    2    0    0 -0.15760125374E+02 -0.36181678352E+02 -0.18059046209E+02  0.43400743659E+02  0.00000000000E+00 0.  1.
         11    1    3    3    0    0  0.55569437635E+01  0.11339267020E+02  0.13193063495E+02  0.18262407431E+02  0.51100000000E-03 0. -1.
        -11    1    3    3    0    0  0.34230475866E+01  0.91814763032E-01  0.11436739106E+00  0.34261880994E+01  0.51100000000E-03 0.  1.
        -12    1    3    3    0    0  0.67801340237E+01  0.24750596570E+02  0.47516153232E+01  0.26098660811E+02  0.00000000000E+00 0.  1.
</event>
<event>
 7    1  0.3837332E-009  0.4778727E+02  0.7816164E-02  0.1312668E+00
        -11   -1    0    0    0    0  0.00000000000E+00  0.00000000000E+00  0.45593999997E+02  0.45594000000E+02  0.51100000000E-03 0. -1.
         11   -1    0    0    0    0 -0.00000000000E+00 -0.00000000000E+00 -0.45593999997E+02  0.45594000000E+02  0.51100000000E-03 0.  1.
    9900012    2    1    2    0    0 -0.39507887664E+02 -0.17914512598E+02 -0.13491776416E+01  0.47787271554E+02  0.20000002324E+02 0.  0.
        -12    1    1    2    0    0  0.39507887664E+02  0.17914512598E+02  0.13491776416E+01  0.43400728446E+02  0.00000000000E+00 0.  1.
         11    1    3    3    0    0 -0.10796333325E+02 -0.65219018767E+00  0.50671030880E+00  0.10827877026E+02  0.51100000000E-03 0. -1.
        -11    1    3    3    0    0 -0.18516345778E+02 -0.71649002454E+01  0.58152578367E+01  0.20688356157E+02  0.51100000000E-03 0.  1.
        -12    1    3    3    0    0 -0.10195208562E+02 -0.10097422165E+02 -0.76711457871E+01  0.16271038371E+02  0.00000000000E+00 0.  1.
</event>
<event>
 7    1  0.3837332E-009  0.4778727E+02  0.7816164E-02  0.1312668E+00
        -11   -1    0    0    0    0  0.00000000000E+00  0.00000000000E+00  0.45593999997E+02  0.45594000000E+02  0.51100000000E-03 0.  1.
         11   -1    0    0    0    0 -0.00000000000E+00 -0.00000000000E+00 -0.45593999997E+02  0.45594000000E+02  0.51100000000E-03 0. -1.
    9900012    2    1    2    0    0  0.41557482324E+02  0.69384213468E+01 -0.10414289703E+02  0.47787268925E+02  0.19999990335E+02 0.  0.
        -12    1    1    2    0    0 -0.41557482324E+02 -0.69384213468E+01  0.10414289703E+02  0.43400731075E+02  0.00000000000E+00 0.  1.
         11    1    3    3    0    0  0.19745488824E+02  0.12359919403E+02 -0.89343622759E+01  0.24949444204E+02  0.51100000000E-03 0. -1.
        -11    1    3    3    0    0  0.13890481976E+02 -0.16227435640E+01 -0.13697576308E+01  0.14051869002E+02  0.51100000000E-03 0.  1.
         12    1    3    3    0    0  0.79215115239E+01 -0.37987544925E+01 -0.11016979583E+00  0.87859557193E+01  0.00000000000E+00 0. -1.
</event>
<event>
 7    1  0.3837332E-009  0.4778727E+02  0.7816164E-02  0.1312668E+00
        -11   -1    0    0    0    0  0.00000000000E+00  0.00000000000E+00  0.45593999997E+02  0.45594000000E+02  0.51100000000E-03 0. -1.
         11   -1    0    0    0    0 -0.00000000000E+00 -0.00000000000E+00 -0.45593999997E+02  0.45594000000E+02  0.51100000000E-03 0.  1.
    9900012    2    1    2    0    0 -0.41646082102E+02 -0.45520627288E+00  0.12207366565E+02  0.47787272291E+02  0.20000005685E+02 0.  0.
        -12    1    1    2    0    0  0.41646082102E+02  0.45520627288E+00 -0.12207366565E+02  0.43400727709E+02  0.00000000000E+00 0.  1.
         11    1    3    3    0    0 -0.13863673184E+02 -0.81980516679E+00  0.10541911615E+01  0.13927843836E+02  0.51100000000E-03 0.  1.
        -11    1    3    3    0    0 -0.24831838399E+02  0.42567091962E+01  0.44790388936E+01  0.25589090666E+02  0.51100000000E-03 0. -1.
         12    1    3    3    0    0 -0.29505705194E+01 -0.38921103022E+01  0.66741365094E+01  0.82703377888E+01  0.00000000000E+00 0. -1.
</event>
<event>
 7    1  0.3837332E-009  0.4778728E+02  0.7816164E-02  0.1312668E+00
        -11   -1    0    0    0    0  0.00000000000E+00  0.00000000000E+00  0.45593999997E+02  0.45594000000E+02  0.51100000000E-03 0.  1.
         11   -1    0    0    0    0 -0.00000000000E+00 -0.00000000000E+00 -0.45593999997E+02  0.45594000000E+02  0.51100000000E-03 0. -1.
    9900012    2    1    2    0    0 -0.21922002863E+02 -0.15450797479E+02 -0.34122150268E+02  0.47787280062E+02  0.20000041116E+02 0.  0.
        -12    1    1    2    0    0  0.21922002863E+02  0.15450797479E+02  0.34122150268E+02  0.43400719938E+02  0.00000000000E+00 0.  1.
         11    1    3    3    0    0 -0.12171067953E+02 -0.43294085293E+01 -0.21617395520E+02  0.25183138459E+02  0.51100000000E-03 0. -1.
        -11    1    3    3    0    0 -0.41453844442E+00  0.13616991767E+01 -0.51960653718E+01  0.53875005688E+01  0.51100000000E-03 0.  1.
         12    1    3    3    0    0 -0.93363964647E+01 -0.12483088126E+02 -0.73086893758E+01  0.17216641034E+02  0.00000000000E+00 0. -1.
</event>
<event>
 7    1  0.3837332E-009  0.4778727E+02  0.7816164E-02  0.1312668E+00
        -11   -1    0    0    0    0  0.00000000000E+00  0.00000000000E+00  0.45593999997E+02  0.45594000000E+02  0.51100000000E-03 0.  1.
         11   -1    0    0    0    0 -0.00000000000E+00 -0.00000000000E+00 -0.45593999997E+02  0.45594000000E+02  0.51100000000E-03 0. -1.
    9900012    2    1    2    0    0  0.12581420529E+02  0.14804795715E+02 -0.38809135135E+02  0.47787273178E+02  0.20000009728E+02 0.  0.
        -12    1    1    2    0    0 -0.12581420529E+02 -0.14804795715E+02  0.38809135135E+02  0.43400726822E+02  0.00000000000E+00 0.  1.
         11    1    3    3    0    0  0.53967640284E+00 -0.11298013968E+01 -0.42182846537E+01  0.44001849390E+01  0.51100000000E-03 0.  1.
        -11    1    3    3    0    0 -0.47653707182E+00  0.10859842493E+02 -0.77859006354E+01  0.13370995308E+02  0.51100000000E-03 0. -1.
         12    1    3    3    0    0  0.12518281198E+02  0.50747546190E+01 -0.26804949846E+02  0.30016092931E+02  0.00000000000E+00 0. -1.
</event>
<event>
 7    1  0.3837332E-009  0.4778727E+02  0.7816164E-02  0.1312668E+00
        -11   -1    0    0    0    0  0.00000000000E+00  0.00000000000E+00  0.45593999997E+02  0.45594000000E+02  0.51100000000E-03 0.  1.
         11   -1    0    0    0    0 -0.00000000000E+00 -0.00000000000E+00 -0.45593999997E+02  0.45594000000E+02  0.51100000000E-03 0. -1.
    9900012    2    1    2    0    0 -0.13899610464E+02  0.41000833121E+02  0.30586793233E+01  0.47787274121E+02  0.20000014026E+02 0.  0.
        -12    1    1    2    0    0  0.13899610464E+02 -0.41000833121E+02 -0.30586793233E+01  0.43400725879E+02  0.00000000000E+00 0.  1.
         11    1    3    3    0    0 -0.55420289724E+01  0.20507115035E+02 -0.33206184481E+01  0.21500752529E+02  0.51100000000E-03 0. -1.
        -11    1    3    3    0    0 -0.84379309564E+01  0.76612878486E+01 -0.10719815615E+01  0.11447408224E+02  0.51100000000E-03 0.  1.
        -12    1    3    3    0    0  0.80349464567E-01  0.12832430237E+02  0.74512793329E+01  0.14839113367E+02  0.00000000000E+00 0.  1.
</event>
<event>
 7    1  0.3837332E-009  0.4778727E+02  0.7816164E-02  0.1312668E+00
        -11   -1    0    0    0    0  0.00000000000E+00  0.00000000000E+00  0.45593999997E+02  0.45594000000E+02  0.51100000000E-03 0.  1.
         11   -1    0    0    0    0 -0.00000000000E+00 -0.00000000000E+00 -0.45593999997E+02  0.45594000000E+02  0.51100000000E-03 0. -1.
    9900012    2    1    2    0    0  0.31418460078E+02  0.14668983857E+02 -0.26102194117E+02  0.47787271218E+02  0.20000000791E+02 0.  0.
        -12    1    1    2    0    0 -0.31418460078E+02 -0.14668983857E+02  0.26102194117E+02  0.43400728782E+02  0.00000000000E+00 0.  1.
         11    1    3    3    0    0  0.17872102586E+01  0.68481712735E+01 -0.42278424319E+01  0.82441629163E+01  0.51100000000E-03 0.  1.
        -11    1    3    3    0    0  0.62385776073E+01  0.61996564442E+01 -0.98008190891E+01  0.13168585561E+02  0.51100000000E-03 0. -1.
         12    1    3    3    0    0  0.23392672212E+02  0.16211561390E+01 -0.12073532596E+02  0.26374522741E+02  0.00000000000E+00 0. -1.
</event>
<event>
 7    1  0.3837332E-009  0.4778728E+02  0.7816164E-02  0.1312668E+00
        -11   -1    0    0    0    0  0.00000000000E+00  0.00000000000E+00  0.45593999997E+02  0.45594000000E+02  0.51100000000E-03 0.  1.
         11   -1    0    0    0    0 -0.00000000000E+00 -0.00000000000E+00 -0.45593999997E+02  0.45594000000E+02  0.51100000000E-03 0. -1.
    9900012    2    1    2    0    0  0.14271128668E+02  0.19996232437E+02 -0.35778600523E+02  0.47787277880E+02  0.20000031166E+02 0.  0.
        -12    1    1    2    0    0 -0.14271128668E+02 -0.19996232437E+02  0.35778600523E+02  0.43400722120E+02  0.00000000000E+00 0.  1.
         11    1    3    3    0    0  0.15203597104E+02  0.18644497164E+02 -0.34412741190E+02  0.41988133989E+02  0.51100000000E-03 0. -1.
        -11    1    3    3    0    0  0.14017931742E+01  0.10991644786E+00 -0.25422730253E+01  0.29052122341E+01  0.51100000000E-03 0.  1.
        -12    1    3    3    0    0 -0.23342616104E+01  0.12418188254E+01  0.11764136920E+01  0.28939316571E+01  0.00000000000E+00 0.  1.
</event>
<event>
 7    1  0.3837332E-009  0.4778727E+02  0.7816164E-02  0.1312668E+00
        -11   -1    0    0    0    0  0.00000000000E+00  0.00000000000E+00  0.45593999997E+02  0.45594000000E+02  0.51100000000E-03 0.  1.
         11   -1    0    0    0    0 -0.00000000000E+00 -0.00000000000E+00 -0.45593999997E+02  0.45594000000E+02  0.51100000000E-03 0. -1.
    9900012    2    1    2    0    0  0.23262799075E+02  0.23111130620E+02 -0.28431340315E+02  0.47787270842E+02  0.19999999079E+02 0.  0.
        -12    1    1    2    0    0 -0.23262799075E+02 -0.23111130620E+02  0.28431340315E+02  0.43400729158E+02  0.00000000000E+00 0.  1.
         11    1    3    3    0    0  0.31140015536E+01  0.12797679797E+02 -0.75073102147E+01  0.15160386564E+02  0.51100000000E-03 0. -1.
        -11    1    3    3    0    0  0.19298266109E+02  0.11667822922E+02 -0.21259960794E+02  0.30992694297E+02  0.51100000000E-03 0.  1.
        -12    1    3    3    0    0  0.85053141236E+00 -0.13543720983E+01  0.33593069432E+00  0.16341899814E+01  0.00000000000E+00 0.  1.
</event>
<event>
 7    1  0.3837332E-009  0.4778730E+02  0.7816164E-02  0.1312668E+00
        -11   -1    0    0    0    0  0.00000000000E+00  0.00000000000E+00  0.45593999997E+02  0.45594000000E+02  0.51100000000E-03 0. -1.
         11   -1    0    0    0    0 -0.00000000000E+00 -0.00000000000E+00 -0.45593999997E+02  0.45594000000E+02  0.51100000000E-03 0.  1.
    9900012    2    1    2    0    0 -0.40700923135E+02  0.83306257128E+01 -0.12556128651E+02  0.47787299136E+02  0.20000128081E+02 0.  0.
        -12    1    1    2    0    0  0.40700923135E+02 -0.83306257128E+01  0.12556128651E+02  0.43400700864E+02  0.00000000000E+00 0.  1.
         11    1    3    3    0    0 -0.41943642751E+02  0.10150225856E+02 -0.13688788673E+02  0.45273382773E+02  0.51100000000E-03 0. -1.
        -11    1    3    3    0    0  0.23875261577E+00 -0.26846641419E+00  0.36785548552E+00  0.51419349124E+00  0.51100000000E-03 0.  1.
         12    1    3    3    0    0  0.10039670003E+01 -0.15511337294E+01  0.76480453701E+00  0.19997228718E+01  0.00000000000E+00 0. -1.
</event>
<event>
 7    1  0.5915243E-009  0.4778727E+02  0.7816164E-02  0.1312668E+00
        -11   -1    0    0    0    0  0.00000000000E+00  0.00000000000E+00  0.45593999997E+02  0.45594000000E+02  0.51100000000E-03 0.  1.
         11   -1    0    0    0    0 -0.00000000000E+00 -0.00000000000E+00 -0.45593999997E+02  0.45594000000E+02  0.51100000000E-03 0. -1.
    9900012    2    1    2    0    0  0.28729996208E+02  0.32529802073E+02  0.15050063562E+00  0.47787270105E+02  0.19999995718E+02 0.  0.
        -12    1    1    2    0    0 -0.28729996208E+02 -0.32529802073E+02 -0.15050063562E+00  0.43400729895E+02  0.00000000000E+00 0.  1.
         11    1    3    3    0    0  0.16415731444E+02  0.14333992769E+02 -0.59011539330E+01  0.22577936255E+02  0.51100000000E-03 0. -1.
        -11    1    3    3    0    0 -0.12553784514E+01  0.57630321777E+00 -0.11874584995E+01  0.18215812922E+01  0.51100000000E-03 0.  1.
         12    1    3    3    0    0  0.13569643215E+02  0.17619506086E+02  0.72391130681E+01  0.23387752558E+02  0.00000000000E+00 0. -1.
</event>
<event>
 7    1  0.3837332E-009  0.4778727E+02  0.7816164E-02  0.1312668E+00
        -11   -1    0    0    0    0  0.00000000000E+00  0.00000000000E+00  0.45593999997E+02  0.45594000000E+02  0.51100000000E-03 0.  1.
         11   -1    0    0    0    0 -0.00000000000E+00 -0.00000000000E+00 -0.45593999997E+02  0.45594000000E+02  0.51100000000E-03 0. -1.
    9900012    2    1    2    0    0 -0.42794161991E+02  0.37479841634E+01  0.61834978627E+01  0.47787270379E+02  0.19999996967E+02 0.  0.
        -12    1    1    2    0    0  0.42794161991E+02 -0.37479841634E+01 -0.61834978627E+01  0.43400729621E+02  0.00000000000E+00 0.  1.
         11    1    3    3    0    0 -0.20043036832E+02  0.32000142414E+01 -0.33121362205E+01  0.20565351035E+02  0.51100000000E-03 0. -1.
        -11    1    3    3    0    0 -0.68289620152E+01  0.53189818966E+01  0.15299990868E+01  0.87901756574E+01  0.51100000000E-03 0.  1.
        -12    1    3    3    0    0 -0.15922163143E+02 -0.47710119746E+01  0.79656349965E+01  0.18431743687E+02  0.00000000000E+00 0.  1.
</event>
<event>
 7    1  0.3837332E-009  0.4778727E+02  0.7816164E-02  0.1312668E+00
        -11   -1    0    0    0    0  0.00000000000E+00  0.00000000000E+00  0.45593999997E+02  0.45594000000E+02  0.51100000000E-03 0.  1.
         11   -1    0    0    0    0 -0.00000000000E+00 -0.00000000000E+00 -0.45593999997E+02  0.45594000000E+02  0.51100000000E-03 0. -1.
    9900012    2    1    2    0    0  0.62092656686E+01  0.12047633454E+02 -0.41230122630E+02  0.47787268853E+02  0.19999990008E+02 0.  0.
        -12    1    1    2    0    0 -0.62092656686E+01 -0.12047633454E+02  0.41230122630E+02  0.43400731147E+02  0.00000000000E+00 0.  1.
         11    1    3    3    0    0  0.26819912792E+01  0.21964260080E+01 -0.14063234250E+02  0.14484195603E+02  0.51100000000E-03 0. -1.
        -11    1    3    3    0    0  0.64939734463E+01  0.12182387950E+02 -0.25852652456E+02  0.29307710701E+02  0.51100000000E-03 0.  1.
        -12    1    3    3    0    0 -0.29666990570E+01 -0.23311805032E+01 -0.13142359243E+01  0.39953625490E+01  0.00000000000E+00 0.  1.
</event>
<event>
 7    1  0.3837332E-009  0.4778727E+02  0.7816164E-02  0.1312668E+00
        -11   -1    0    0    0    0  0.00000000000E+00  0.00000000000E+00  0.45593999997E+02  0.45594000000E+02  0.51100000000E-03 0.  1.
         11   -1    0    0    0    0 -0.00000000000E+00 -0.00000000000E+00 -0.45593999997E+02  0.45594000000E+02  0.51100000000E-03 0. -1.
    9900012    2    1    2    0    0  0.30485681706E+02  0.29939297752E+02 -0.76082069068E+01  0.47787272457E+02  0.20000006439E+02 0.  0.
        -12    1    1    2    0    0 -0.30485681706E+02 -0.29939297752E+02  0.76082069068E+01  0.43400727543E+02  0.00000000000E+00 0.  1.
         11    1    3    3    0    0  0.40352097138E+01  0.90672572786E+01  0.35266496389E+01  0.10532584200E+02  0.51100000000E-03 0. -1.
        -11    1    3    3    0    0  0.15680213606E+02  0.71088849533E+01 -0.14579063765E+01  0.17278044892E+02  0.51100000000E-03 0.  1.
         12    1    3    3    0    0  0.10770258386E+02  0.13763155520E+02 -0.96769501692E+01  0.19976643365E+02  0.00000000000E+00 0. -1.
</event>
<event>
 7    1  0.3837332E-009  0.4778727E+02  0.7816164E-02  0.1312668E+00
        -11   -1    0    0    0    0  0.00000000000E+00  0.00000000000E+00  0.45593999997E+02  0.45594000000E+02  0.51100000000E-03 0.  1.
         11   -1    0    0    0    0 -0.00000000000E+00 -0.00000000000E+00 -0.45593999997E+02  0.45594000000E+02  0.51100000000E-03 0. -1.
    9900012    2    1    2    0    0  0.41909404591E+02 -0.94896919568E+01 -0.60968076147E+01  0.47787268328E+02  0.19999987614E+02 0.  0.
        -12    1    1    2    0    0 -0.41909404591E+02  0.94896919568E+01  0.60968076147E+01  0.43400731672E+02  0.00000000000E+00 0.  1.
         11    1    3    3    0    0  0.14440658994E+00 -0.60487669318E+00 -0.15144248644E+01  0.16371353054E+01  0.51100000000E-03 0. -1.
        -11    1    3    3    0    0  0.11274609027E+02  0.78102771505E+00  0.55593921753E+01  0.12594985296E+02  0.51100000000E-03 0.  1.
         12    1    3    3    0    0  0.30490388974E+02 -0.96658429787E+01 -0.10141774926E+02  0.33555147726E+02  0.00000000000E+00 0. -1.
</event>
<event>
 7    1  0.3837332E-009  0.4778728E+02  0.7816164E-02  0.1312668E+00
        -11   -1    0    0    0    0  0.00000000000E+00  0.00000000000E+00  0.45593999997E+02  0.45594000000E+02  0.51100000000E-03 0. -1.
         11   -1    0    0    0    0 -0.00000000000E+00 -0.00000000000E+00 -0.45593999997E+02  0.45594000000E+02  0.51100000000E-03 0.  1.
    9900012    2    1    2    0    0 -0.34609471038E+01 -0.37763359468E+02  0.21108602845E+02  0.47787278955E+02  0.20000036067E+02 0.  0.
        -12    1    1    2    0    0  0.34609471038E+01  0.37763359468E+02 -0.21108602845E+02  0.43400721045E+02  0.00000000000E+00 0.  1.
         11    1    3    3    0    0 -0.46905061691E+01 -0.13957566939E+02  0.11204427845E+02  0.18502803209E+02  0.51100000000E-03 0. -1.
        -11    1    3    3    0    0 -0.47444995619E+01 -0.15791286045E+02  0.21392242146E+01  0.16626823857E+02  0.51100000000E-03 0.  1.
        -12    1    3    3    0    0  0.59740586272E+01 -0.80145064832E+01  0.77649507853E+01  0.12657651889E+02  0.00000000000E+00 0.  1.
</event>
<event>
 7    1  0.3837332E-009  0.4778726E+02  0.7816164E-02  0.1312668E+00
        -11   -1    0    0    0    0  0.00000000000E+00  0.00000000000E+00  0.45593999997E+02  0.45594000000E+02  0.51100000000E-03 0. -1.
         11   -1    0    0    0    0 -0.00000000000E+00 -0.00000000000E+00 -0.45593999997E+02  0.45594000000E+02  0.51100000000E-03 0.  1.
    9900012    2    1    2    0    0  0.28515310721E+02 -0.13377397151E+02  0.29858771070E+02  0.47787263718E+02  0.19999966596E+02 0.  0.
        -12    1    1    2    0    0 -0.28515310721E+02  0.13377397151E+02 -0.29858771070E+02  0.43400736282E+02  0.00000000000E+00 0.  1.
         11    1    3    3    0    0  0.17554754326E+01 -0.34367325370E+01  0.44370808849E+00  0.38845465185E+01  0.51100000000E-03 0. -1.
        -11    1    3    3    0    0  0.15114902379E+01 -0.58229922897E+01  0.10448896340E+02  0.12057001158E+02  0.51100000000E-03 0.  1.
         12    1    3    3    0    0  0.25248345050E+02 -0.41176723244E+01  0.18966166641E+02  0.31845716042E+02  0.00000000000E+00 0. -1.
</event>
<event>
 7    1  0.3837332E-009  0.4778727E+02  0.7816164E-02  0.1312668E+00
        -11   -1    0    0    0    0  0.00000000000E+00  0.00000000000E+00  0.45593999997E+02  0.45594000000E+02  0.51100000000E-03 0. -1.
         11   -1    0    0    0    0 -0.00000000000E+00 -0.00000000000E+00 -0.45593999997E+02  0.45594000000E+02  0.51100000000E-03 0.  1.
    9900012    2    1    2    0    0  0.41791490175E+02  0.11140044142E+02  0.36047047901E+01  0.47787272688E+02  0.20000007496E+02 0.  0.
        -12    1    1    2    0    0 -0.41791490175E+02 -0.11140044142E+02 -0.36047047901E+01  0.43400727312E+02  0.00000000000E+00 0.  1.
         11    1    3    3    0    0  0.13619252136E+02  0.88000978778E+01 -0.17144920175E+01  0.16305374407E+02  0.51100000000E-03 0. -1.
        -11    1    3    3    0    0  0.11924867534E+02  0.65550697098E+01 -0.76182726451E+00  0.13629078679E+02  0.51100000000E-03 0.  1.
         12    1    3    3    0    0  0.16247370505E+02 -0.42151234453E+01  0.60810240722E+01  0.17852819603E+02  0.00000000000E+00 0. -1.
</event>
<event>
 7    1  0.3837332E-009  0.4778727E+02  0.7816164E-02  0.1312668E+00
        -11   -1    0    0    0    0  0.00000000000E+00  0.00000000000E+00  0.45593999997E+02  0.45594000000E+02  0.51100000000E-03 0. -1.
         11   -1    0    0    0    0 -0.00000000000E+00 -0.00000000000E+00 -0.45593999997E+02  0.45594000000E+02  0.51100000000E-03 0.  1.
    9900012    2    1    2    0    0  0.19583648791E+02 -0.34564320507E+02  0.17476046258E+02  0.47787265618E+02  0.19999975259E+02 0.  0.
        -12    1    1    2    0    0 -0.19583648791E+02  0.34564320507E+02 -0.17476046258E+02  0.43400734382E+02  0.00000000000E+00 0.  1.
         11    1    3    3    0    0  0.36234549476E+01 -0.12991726089E+02  0.25648989764E+01  0.13729278188E+02  0.51100000000E-03 0. -1.
        -11    1    3    3    0    0 -0.26044478115E+01 -0.35148684467E+01  0.45529356803E+00  0.43982656917E+01  0.51100000000E-03 0.  1.
        -12    1    3    3    0    0  0.18564641655E+02 -0.18057725971E+02  0.14455853713E+02  0.29659721739E+02  0.00000000000E+00 0.  1.
</event>
<event>
 7    1  0.3837332E-009  0.4778727E+02  0.7816164E-02  0.1312668E+00
        -11   -1    0    0    0    0  0.00000000000E+00  0.00000000000E+00  0.45593999997E+02  0.45594000000E+02  0.51100000000E-03 0. -1.
         11   -1    0    0    0    0 -0.00000000000E+00 -0.00000000000E+00 -0.45593999997E+02  0.45594000000E+02  0.51100000000E-03 0.  1.
    9900012    2    1    2    0    0 -0.38599725331E+02  0.51286712398E+01 -0.19167189181E+02  0.47787271833E+02  0.20000003597E+02 0.  0.
        -12    1    1    2    0    0  0.38599725331E+02 -0.51286712398E+01  0.19167189181E+02  0.43400728167E+02  0.00000000000E+00 0.  1.
         11    1    3    3    0    0 -0.28593141789E+00  0.19105833198E+01  0.54452849500E+00  0.20071365027E+01  0.51100000000E-03 0. -1.
        -11    1    3    3    0    0 -0.72966374232E+01 -0.52262310355E+01 -0.62076749171E+01  0.10912819831E+02  0.51100000000E-03 0.  1.
         12    1    3    3    0    0 -0.31017156490E+02  0.84443189555E+01 -0.13504042759E+02  0.34867315500E+02  0.00000000000E+00 0. -1.
</event>
<event>
 7    1  0.3837332E-009  0.4778727E+02  0.7816164E-02  0.1312668E+00
        -11   -1    0    0    0    0  0.00000000000E+00  0.00000000000E+00  0.45593999997E+02  0.45594000000E+02  0.51100000000E-03 0.  1.
         11   -1    0    0    0    0 -0.00000000000E+00 -0.00000000000E+00 -0.45593999997E+02  0.45594000000E+02  0.51100000000E-03 0. -1.
    9900012    2    1    2    0    0 -0.60995410311E+01  0.46151124695E+01 -0.42721419597E+02  0.47787270096E+02  0.19999995674E+02 0.  0.
        -12    1    1    2    0    0  0.60995410311E+01 -0.46151124695E+01  0.42721419597E+02  0.43400729904E+02  0.00000000000E+00 0.  1.
         11    1    3    3    0    0  0.17273086180E+01  0.10789835505E+01 -0.69986750399E+01  0.72889816257E+01  0.51100000000E-03 0. -1.
        -11    1    3    3    0    0 -0.75719584575E+01 -0.43166407166E+01 -0.85384772918E+01  0.12201374377E+02  0.51100000000E-03 0.  1.
        -12    1    3    3    0    0 -0.25489119159E+00  0.78527696356E+01 -0.27184267265E+02  0.28296914093E+02  0.00000000000E+00 0.  1.
</event>
<event>
 7    1  0.3837332E-009  0.4778727E+02  0.7816164E-02  0.1312668E+00
        -11   -1    0    0    0    0  0.00000000000E+00  0.00000000000E+00  0.45593999997E+02  0.45594000000E+02  0.51100000000E-03 0. -1.
         11   -1    0    0    0    0 -0.00000000000E+00 -0.00000000000E+00 -0.45593999997E+02  0.45594000000E+02  0.51100000000E-03 0.  1.
    9900012    2    1    2    0    0 -0.32575421727E+01  0.25677875188E+02  0.34837601194E+02  0.47787270604E+02  0.19999997990E+02 0.  0.
        -12    1    1    2    0    0  0.32575421727E+01 -0.25677875188E+02 -0.34837601194E+02  0.43400729396E+02  0.00000000000E+00 0.  1.
         11    1    3    3    0    0 -0.27318280725E+01  0.43142541091E+00  0.13439889282E+02  0.13721502712E+02  0.51100000000E-03 0. -1.
        -11    1    3    3    0    0  0.31896777457E+00  0.22799143958E+01 -0.46188148822E+00  0.23479959250E+01  0.51100000000E-03 0.  1.
         12    1    3    3    0    0 -0.84468187470E+00  0.22966535381E+02  0.21859593401E+02  0.31717771966E+02  0.00000000000E+00 0. -1.
</event>
<event>
 7    1  0.3837332E-009  0.4778727E+02  0.7816164E-02  0.1312668E+00
        -11   -1    0    0    0    0  0.00000000000E+00  0.00000000000E+00  0.45593999997E+02  0.45594000000E+02  0.51100000000E-03 0. -1.
         11   -1    0    0    0    0 -0.00000000000E+00 -0.00000000000E+00 -0.45593999997E+02  0.45594000000E+02  0.51100000000E-03 0.  1.
    9900012    2    1    2    0    0 -0.26878374680E+02  0.33819860341E+02  0.41705022126E+01  0.47787273420E+02  0.20000010832E+02 0.  0.
        -12    1    1    2    0    0  0.26878374680E+02 -0.33819860341E+02 -0.41705022126E+01  0.43400726580E+02  0.00000000000E+00 0.  1.
         11    1    3    3    0    0 -0.21586136571E+02  0.27759775175E+02  0.12045816523E+01  0.35185471817E+02  0.51100000000E-03 0. -1.
        -11    1    3    3    0    0 -0.77213492881E+01  0.30820260910E+01  0.13065852144E+01  0.84157759499E+01  0.51100000000E-03 0.  1.
        -12    1    3    3    0    0  0.24291111787E+01  0.29780590758E+01  0.16593353459E+01  0.41860256530E+01  0.00000000000E+00 0.  1.
</event>
<event>
 7    1  0.3837332E-009  0.4778727E+02  0.7816164E-02  0.1312668E+00
        -11   -1    0    0    0    0  0.00000000000E+00  0.00000000000E+00  0.45593999997E+02  0.45594000000E+02  0.51100000000E-03 0.  1.
         11   -1    0    0    0    0 -0.00000000000E+00 -0.00000000000E+00 -0.45593999997E+02  0.45594000000E+02  0.51100000000E-03 0. -1.
    9900012    2    1    2    0    0  0.84782324078E+01  0.21224649214E+02 -0.36895218472E+02  0.47787270684E+02  0.19999998358E+02 0.  0.
        -12    1    1    2    0    0 -0.84782324078E+01 -0.21224649214E+02  0.36895218472E+02  0.43400729316E+02  0.00000000000E+00 0.  1.
         11    1    3    3    0    0  0.49284466256E+00 -0.18274924110E+01 -0.56282255674E+01  0.59379750481E+01  0.51100000000E-03 0. -1.
        -11    1    3    3    0    0  0.90104188341E+01  0.87250088597E+01 -0.19940205581E+02  0.23556850936E+02  0.51100000000E-03 0.  1.
        -12    1    3    3    0    0 -0.10250310889E+01  0.14327132766E+02 -0.11326787324E+02  0.18292444700E+02  0.00000000000E+00 0.  1.
</event>
<event>
 7    1  0.3837332E-009  0.4778727E+02  0.7816164E-02  0.1312668E+00
        -11   -1    0    0    0    0  0.00000000000E+00  0.00000000000E+00  0.45593999997E+02  0.45594000000E+02  0.51100000000E-03 0.  1.
         11   -1    0    0    0    0 -0.00000000000E+00 -0.00000000000E+00 -0.45593999997E+02  0.45594000000E+02  0.51100000000E-03 0. -1.
    9900012    2    1    2    0    0 -0.57293578391E+01  0.30899986507E+02 -0.29933068140E+02  0.47787271024E+02  0.19999999907E+02 0.  0.
        -12    1    1    2    0    0  0.57293578391E+01 -0.30899986507E+02  0.29933068140E+02  0.43400728976E+02  0.00000000000E+00 0.  1.
         11    1    3    3    0    0  0.12792544381E+00  0.12220027570E+02 -0.11532464724E+02  0.16803070601E+02  0.51100000000E-03 0. -1.
        -11    1    3    3    0    0  0.50192628379E+01  0.32033072882E+01 -0.53301015594E+01  0.79915054848E+01  0.51100000000E-03 0.  1.
         12    1    3    3    0    0 -0.10876546121E+02  0.15476651648E+02 -0.13070501856E+02  0.22992694939E+02  0.00000000000E+00 0. -1.
</event>
<event>
 7    1  0.3837332E-009  0.4778727E+02  0.7816164E-02  0.1312668E+00
        -11   -1    0    0    0    0  0.00000000000E+00  0.00000000000E+00  0.45593999997E+02  0.45594000000E+02  0.51100000000E-03 0. -1.
         11   -1    0    0    0    0 -0.00000000000E+00 -0.00000000000E+00 -0.45593999997E+02  0.45594000000E+02  0.51100000000E-03 0.  1.
    9900012    2    1    2    0    0  0.14211921068E+02  0.32245812501E+02  0.25334798913E+02  0.47787272353E+02  0.20000005968E+02 0.  0.
        -12    1    1    2    0    0 -0.14211921068E+02 -0.32245812501E+02 -0.25334798913E+02  0.43400727647E+02  0.00000000000E+00 0.  1.
         11    1    3    3    0    0  0.81799004629E+01  0.14453523068E+02  0.49266934488E+01  0.17323031180E+02  0.51100000000E-03 0. -1.
        -11    1    3    3    0    0  0.23634062257E+01  0.13499883749E+02  0.59470349506E+01  0.14939871994E+02  0.51100000000E-03 0.  1.
        -12    1    3    3    0    0  0.36686143797E+01  0.42924056837E+01  0.14461070514E+02  0.15524369179E+02  0.00000000000E+00 0.  1.
</event>
<event>
 7    1  0.3837332E-009  0.4778727E+02  0.7816164E-02  0.1312668E+00
        -11   -1    0    0    0    0  0.00000000000E+00  0.00000000000E+00  0.45593999997E+02  0.45594000000E+02  0.51100000000E-03 0.  1.
         11   -1    0    0    0    0 -0.00000000000E+00 -0.00000000000E+00 -0.45593999997E+02  0.45594000000E+02  0.51100000000E-03 0. -1.
    9900012    2    1    2    0    0  0.85242907469E+01  0.14431124466E+02 -0.40033766436E+02  0.47787270269E+02  0.19999996466E+02 0.  0.
        -12    1    1    2    0    0 -0.85242907469E+01 -0.14431124466E+02  0.40033766436E+02  0.43400729731E+02  0.00000000000E+00 0.  1.
         11    1    3    3    0    0  0.20833586039E+00  0.50069508778E+01 -0.24605528337E+02  0.25110654828E+02  0.51100000000E-03 0.  1.
        -11    1    3    3    0    0  0.21426866417E+01  0.71203719379E+01 -0.14120909310E+02  0.15959037646E+02  0.51100000000E-03 0. -1.
        -12    1    3    3    0    0  0.61732682449E+01  0.23038016508E+01 -0.13073287889E+01  0.67175777950E+01  0.00000000000E+00 0.  1.
</event>
<event>
 7    1  0.3837332E-009  0.4778727E+02  0.7816164E-02  0.1312668E+00
        -11   -1    0    0    0    0  0.00000000000E+00  0.00000000000E+00  0.45593999997E+02  0.45594000000E+02  0.51100000000E-03 0.  1.
         11   -1    0    0    0    0 -0.00000000000E+00 -0.00000000000E+00 -0.45593999997E+02  0.45594000000E+02  0.51100000000E-03 0. -1.
    9900012    2    1    2    0    0  0.37052924222E+02  0.15623734755E+02 -0.16327986872E+02  0.47787269172E+02  0.19999991463E+02 0.  0.
        -12    1    1    2    0    0 -0.37052924222E+02 -0.15623734755E+02  0.16327986872E+02  0.43400730828E+02  0.00000000000E+00 0.  1.
         11    1    3    3    0    0  0.13208303050E+02  0.62664496017E+01 -0.88641362580E+01  0.17096800050E+02  0.51100000000E-03 0. -1.
        -11    1    3    3    0    0  0.23645612132E+02  0.64957304355E+01 -0.10354493765E+02  0.26618133450E+02  0.51100000000E-03 0.  1.
        -12    1    3    3    0    0  0.19900904067E+00  0.28615547173E+01  0.28906431517E+01  0.40723356724E+01  0.00000000000E+00 0.  1.
</event>
<event>
 7    1  0.3837332E-009  0.4778727E+02  0.7816164E-02  0.1312668E+00
        -11   -1    0    0    0    0  0.00000000000E+00  0.00000000000E+00  0.45593999997E+02  0.45594000000E+02  0.51100000000E-03 0. -1.
         11   -1    0    0    0    0 -0.00000000000E+00 -0.00000000000E+00 -0.45593999997E+02  0.45594000000E+02  0.51100000000E-03 0.  1.
    9900012    2    1    2    0    0  0.12999154450E+02 -0.27615261517E+02  0.30855186123E+02  0.47787271945E+02  0.20000004104E+02 0.  0.
        -12    1    1    2    0    0 -0.12999154450E+02  0.27615261517E+02 -0.30855186123E+02  0.43400728055E+02  0.00000000000E+00 0.  1.
         11    1    3    3    0    0  0.55294410963E+01 -0.14513374762E+02  0.18825218525E+02  0.24404950699E+02  0.51100000000E-03 0. -1.
        -11    1    3    3    0    0  0.26218843439E+01  0.11032737742E+01  0.69941481794E+01  0.75504701543E+01  0.51100000000E-03 0.  1.
         12    1    3    3    0    0  0.48478290102E+01 -0.14205160529E+02  0.50358194179E+01  0.15831851091E+02  0.00000000000E+00 0. -1.
</event>
<event>
 7    1  0.3837332E-009  0.4778727E+02  0.7816164E-02  0.1312668E+00
        -11   -1    0    0    0    0  0.00000000000E+00  0.00000000000E+00  0.45593999997E+02  0.45594000000E+02  0.51100000000E-03 0.  1.
         11   -1    0    0    0    0 -0.00000000000E+00 -0.00000000000E+00 -0.45593999997E+02  0.45594000000E+02  0.51100000000E-03 0. -1.
    9900012    2    1    2    0    0  0.15990583015E+02  0.28015144933E+02 -0.29035773413E+02  0.47787271568E+02  0.20000002388E+02 0.  0.
        -12    1    1    2    0    0 -0.15990583015E+02 -0.28015144933E+02  0.29035773413E+02  0.43400728432E+02  0.00000000000E+00 0.  1.
         11    1    3    3    0    0  0.11181821183E+02  0.67354498397E+01 -0.11985061151E+02  0.17721204829E+02  0.51100000000E-03 0. -1.
        -11    1    3    3    0    0  0.26248335816E+01  0.55523271084E+00 -0.57844948364E+01  0.63763951781E+01  0.51100000000E-03 0.  1.
        -12    1    3    3    0    0  0.21839282497E+01  0.20724462382E+02 -0.11266217425E+02  0.23689671562E+02  0.00000000000E+00 0.  1.
</event>
<event>
 7    1  0.3837332E-009  0.4778727E+02  0.7816164E-02  0.1312668E+00
        -11   -1    0    0    0    0  0.00000000000E+00  0.00000000000E+00  0.45593999997E+02  0.45594000000E+02  0.51100000000E-03 0.  1.
         11   -1    0    0    0    0 -0.00000000000E+00 -0.00000000000E+00 -0.45593999997E+02  0.45594000000E+02  0.51100000000E-03 0. -1.
    9900012    2    1    2    0    0  0.74974691285E+01  0.68411873145E+01 -0.42197268898E+02  0.47787269711E+02  0.19999993919E+02 0.  0.
        -12    1    1    2    0    0 -0.74974691285E+01 -0.68411873145E+01  0.42197268898E+02  0.43400730289E+02  0.00000000000E+00 0.  1.
         11    1    3    3    0    0  0.99217440883E+00  0.56690818019E+01 -0.14635844331E+02  0.15726755484E+02  0.51100000000E-03 0. -1.
        -11    1    3    3    0    0  0.20351118320E+01  0.69016550645E+01 -0.21250503533E+02  0.22435650725E+02  0.51100000000E-03 0.  1.
        -12    1    3    3    0    0  0.44701828877E+01 -0.57295495518E+01 -0.63109210346E+01  0.96248635014E+01  0.00000000000E+00 0.  1.
</event>
<event>
 7    1  0.3837332E-009  0.4778727E+02  0.7816164E-02  0.1312668E+00
        -11   -1    0    0    0    0  0.00000000000E+00  0.00000000000E+00  0.45593999997E+02  0.45594000000E+02  0.51100000000E-03 0. -1.
         11   -1    0    0    0    0 -0.00000000000E+00 -0.00000000000E+00 -0.45593999997E+02  0.45594000000E+02  0.51100000000E-03 0.  1.
    9900012    2    1    2    0    0 -0.28470753743E+02  0.30233076544E+02  0.12609534405E+02  0.47787273118E+02  0.20000009453E+02 0.  0.
        -12    1    1    2    0    0  0.28470753743E+02 -0.30233076544E+02 -0.12609534405E+02  0.43400726882E+02  0.00000000000E+00 0.  1.
         11    1    3    3    0    0 -0.10415067655E+01  0.48699718342E+01 -0.25313898006E+01  0.55865281340E+01  0.51100000000E-03 0. -1.
        -11    1    3    3    0    0 -0.33564404960E+01  0.39544686754E+00 -0.15414343089E+01  0.37145781750E+01  0.51100000000E-03 0.  1.
         12    1    3    3    0    0 -0.24072806481E+02  0.24967657842E+02  0.16682358515E+02  0.38486166809E+02  0.00000000000E+00 0. -1.
</event>
<event>
 7    1  0.3837332E-009  0.4778726E+02  0.7816164E-02  0.1312668E+00
        -11   -1    0    0    0    0  0.00000000000E+00  0.00000000000E+00  0.45593999997E+02  0.45594000000E+02  0.51100000000E-03 0. -1.
         11   -1    0    0    0    0 -0.00000000000E+00 -0.00000000000E+00 -0.45593999997E+02  0.45594000000E+02  0.51100000000E-03 0.  1.
    9900012    2    1    2    0    0 -0.12579260524E+02 -0.41330556433E+02 -0.41438232116E+01  0.47787263126E+02  0.19999963895E+02 0.  0.
        -12    1    1    2    0    0  0.12579260524E+02  0.41330556433E+02  0.41438232116E+01  0.43400736874E+02  0.00000000000E+00 0.  1.
         11    1    3    3    0    0 -0.57766763817E+01 -0.41156706770E+01  0.32246717270E+01  0.77914852979E+01  0.51100000000E-03 0. -1.
        -11    1    3    3    0    0 -0.27093761692E+01 -0.13199531189E+01 -0.15948648393E+01  0.34097785234E+01  0.51100000000E-03 0.  1.
        -12    1    3    3    0    0 -0.40932079731E+01 -0.35894932638E+02 -0.57736300994E+01  0.36585999304E+02  0.00000000000E+00 0.  1.
</event>
<event>
 7    1  0.3837332E-009  0.4778727E+02  0.7816164E-02  0.1312668E+00
        -11   -1    0    0    0    0  0.00000000000E+00  0.00000000000E+00  0.45593999997E+02  0.45594000000E+02  0.51100000000E-03 0.  1.
         11   -1    0    0    0    0 -0.00000000000E+00 -0.00000000000E+00 -0.45593999997E+02  0.45594000000E+02  0.51100000000E-03 0. -1.
    9900012    2    1    2    0    0  0.69797564029E+01 -0.37475500397E+02 -0.20748328133E+02  0.47787271322E+02  0.20000001267E+02 0.  0.
        -12    1    1    2    0    0 -0.69797564029E+01  0.37475500397E+02  0.20748328133E+02  0.43400728678E+02  0.00000000000E+00 0.  1.
         11    1    3    3    0    0  0.39355996704E+01 -0.23176259970E+02 -0.52902301709E+01  0.24095943776E+02  0.51100000000E-03 0. -1.
        -11    1    3    3    0    0  0.22472946672E+01 -0.67254010163E+01 -0.75249790677E+00  0.71307506976E+01  0.51100000000E-03 0.  1.
        -12    1    3    3    0    0  0.79686206522E+00 -0.75738394110E+01 -0.14705600055E+02  0.16560576848E+02  0.00000000000E+00 0.  1.
</event>
<event>
 7    1  0.3837332E-009  0.4778727E+02  0.7816164E-02  0.1312668E+00
        -11   -1    0    0    0    0  0.00000000000E+00  0.00000000000E+00  0.45593999997E+02  0.45594000000E+02  0.51100000000E-03 0.  1.
         11   -1    0    0    0    0 -0.00000000000E+00 -0.00000000000E+00 -0.45593999997E+02  0.45594000000E+02  0.51100000000E-03 0. -1.
    9900012    2    1    2    0    0  0.16349159233E+02  0.76045494312E+01 -0.39477829016E+02  0.47787272317E+02  0.20000005801E+02 0.  0.
        -12    1    1    2    0    0 -0.16349159233E+02 -0.76045494312E+01  0.39477829016E+02  0.43400727683E+02  0.00000000000E+00 0.  1.
         11    1    3    3    0    0  0.94399966744E+01  0.25769428223E+01 -0.83144164890E+01  0.12840704550E+02  0.51100000000E-03 0. -1.
        -11    1    3    3    0    0 -0.14970548153E+01  0.71815910886E-01  0.67684447893E+00  0.16445210107E+01  0.51100000000E-03 0.  1.
        -12    1    3    3    0    0  0.84062173734E+01  0.49557906981E+01 -0.31840257005E+02  0.33302046756E+02  0.00000000000E+00 0.  1.
</event>
<event>
 7    1  0.3837332E-009  0.4778728E+02  0.7816164E-02  0.1312668E+00
        -11   -1    0    0    0    0  0.00000000000E+00  0.00000000000E+00  0.45593999997E+02  0.45594000000E+02  0.51100000000E-03 0.  1.
         11   -1    0    0    0    0 -0.00000000000E+00 -0.00000000000E+00 -0.45593999997E+02  0.45594000000E+02  0.51100000000E-03 0. -1.
    9900012    2    1    2    0    0 -0.31325882310E+02  0.12626069447E+02 -0.27256082271E+02  0.47787279350E+02  0.20000037870E+02 0.  0.
        -12    1    1    2    0    0  0.31325882310E+02 -0.12626069447E+02  0.27256082271E+02  0.43400720650E+02  0.00000000000E+00 0.  1.
         11    1    3    3    0    0 -0.55509466200E+00  0.64141606623E+00 -0.69469368994E+01  0.69985339321E+01  0.51100000000E-03 0. -1.
        -11    1    3    3    0    0 -0.31072975635E+01 -0.25855780735E+01 -0.15656128129E+01  0.43349343551E+01  0.51100000000E-03 0.  1.
         12    1    3    3    0    0 -0.27663490084E+02  0.14570231454E+02 -0.18743532558E+02  0.36453811063E+02  0.00000000000E+00 0. -1.
</event>
<event>
 7    1  0.3837332E-009  0.4778727E+02  0.7816164E-02  0.1312668E+00
        -11   -1    0    0    0    0  0.00000000000E+00  0.00000000000E+00  0.45593999997E+02  0.45594000000E+02  0.51100000000E-03 0.  1.
         11   -1    0    0    0    0 -0.00000000000E+00 -0.00000000000E+00 -0.45593999997E+02  0.45594000000E+02  0.51100000000E-03 0. -1.
    9900012    2    1    2    0    0  0.34744785846E+02 -0.19095776689E+02 -0.17657128731E+02  0.47787273902E+02  0.20000013030E+02 0.  0.
        -12    1    1    2    0    0 -0.34744785846E+02  0.19095776689E+02  0.17657128731E+02  0.43400726098E+02  0.00000000000E+00 0.  1.
         11    1    3    3    0    0  0.15662348784E+02 -0.84743812500E+01 -0.15218587961E+00  0.17808634642E+02  0.51100000000E-03 0.  1.
        -11    1    3    3    0    0  0.58330886025E+00 -0.21987232560E+01  0.10053162884E+01  0.24870251876E+01  0.51100000000E-03 0. -1.
         12    1    3    3    0    0  0.18499128201E+02 -0.84226721826E+01 -0.18510259140E+02  0.27491614072E+02  0.00000000000E+00 0. -1.
</event>
<event>
 7    1  0.3837332E-009  0.4778730E+02  0.7816164E-02  0.1312668E+00
        -11   -1    0    0    0    0  0.00000000000E+00  0.00000000000E+00  0.45593999997E+02  0.45594000000E+02  0.51100000000E-03 0.  1.
         11   -1    0    0    0    0 -0.00000000000E+00 -0.00000000000E+00 -0.45593999997E+02  0.45594000000E+02  0.51100000000E-03 0. -1.
    9900012    2    1    2    0    0 -0.69444324307E+01 -0.55292066609E+01 -0.42483213042E+02  0.47787301175E+02  0.20000137379E+02 0.  0.
        -12    1    1    2    0    0  0.69444324307E+01  0.55292066609E+01  0.42483213042E+02  0.43400698825E+02  0.00000000000E+00 0.  1.
         11    1    3    3    0    0  0.25390944270E+00  0.38244257423E+01 -0.13167862421E+02  0.13714346622E+02  0.51100000000E-03 0. -1.
        -11    1    3    3    0    0 -0.38400087238E+00 -0.53492884139E+01 -0.23894143051E+02  0.24488618083E+02  0.51100000000E-03 0.  1.
        -12    1    3    3    0    0 -0.68143410010E+01 -0.40043439893E+01 -0.54212075698E+01  0.95843364704E+01  0.00000000000E+00 0.  1.
</event>
<event>
 7    1  0.3837332E-009  0.4778726E+02  0.7816164E-02  0.1312668E+00
        -11   -1    0    0    0    0  0.00000000000E+00  0.00000000000E+00  0.45593999997E+02  0.45594000000E+02  0.51100000000E-03 0.  1.
         11   -1    0    0    0    0 -0.00000000000E+00 -0.00000000000E+00 -0.45593999997E+02  0.45594000000E+02  0.51100000000E-03 0. -1.
    9900012    2    1    2    0    0  0.18055261398E+02 -0.16213386414E+02 -0.35982738363E+02  0.47787264715E+02  0.19999971142E+02 0.  0.
        -12    1    1    2    0    0 -0.18055261398E+02  0.16213386414E+02  0.35982738363E+02  0.43400735285E+02  0.00000000000E+00 0.  1.
         11    1    3    3    0    0  0.59608366032E+01 -0.94065002909E+01 -0.90824508632E+01  0.14370272603E+02  0.51100000000E-03 0. -1.
        -11    1    3    3    0    0  0.29589366996E+01 -0.71570262058E+01 -0.21375188979E+02  0.22734929836E+02  0.51100000000E-03 0.  1.
        -12    1    3    3    0    0  0.91354880949E+01  0.35014008309E+00 -0.55250985216E+01  0.10682062277E+02  0.00000000000E+00 0.  1.
</event>
<event>
 7    1  0.3837332E-009  0.4778727E+02  0.7816164E-02  0.1312668E+00
        -11   -1    0    0    0    0  0.00000000000E+00  0.00000000000E+00  0.45593999997E+02  0.45594000000E+02  0.51100000000E-03 0.  1.
         11   -1    0    0    0    0 -0.00000000000E+00 -0.00000000000E+00 -0.45593999997E+02  0.45594000000E+02  0.51100000000E-03 0. -1.
    9900012    2    1    2    0    0 -0.22151885658E+02  0.11289434277E+02 -0.35573384036E+02  0.47787274012E+02  0.20000013531E+02 0.  0.
        -12    1    1    2    0    0  0.22151885658E+02 -0.11289434277E+02  0.35573384036E+02  0.43400725988E+02  0.00000000000E+00 0.  1.
         11    1    3    3    0    0 -0.18717254824E+02  0.84083164008E+01 -0.24277015746E+02  0.31786929808E+02  0.51100000000E-03 0. -1.
        -11    1    3    3    0    0 -0.66036887695E+01  0.41340741962E+01 -0.89334412863E+01  0.11853507848E+02  0.51100000000E-03 0.  1.
        -12    1    3    3    0    0  0.31690579352E+01 -0.12529563205E+01 -0.23629270039E+01  0.41468363560E+01  0.00000000000E+00 0.  1.
</event>
<event>
 7    1  0.3837332E-009  0.4778728E+02  0.7816164E-02  0.1312668E+00
        -11   -1    0    0    0    0  0.00000000000E+00  0.00000000000E+00  0.45593999997E+02  0.45594000000E+02  0.51100000000E-03 0. -1.
         11   -1    0    0    0    0 -0.00000000000E+00 -0.00000000000E+00 -0.45593999997E+02  0.45594000000E+02  0.51100000000E-03 0.  1.
    9900012    2    1    2    0    0 -0.89044105784E+01 -0.40028527090E+02 -0.14214468537E+02  0.47787278525E+02  0.20000034106E+02 0.  0.
        -12    1    1    2    0    0  0.89044105784E+01  0.40028527090E+02  0.14214468537E+02  0.43400721475E+02  0.00000000000E+00 0.  1.
         11    1    3    3    0    0 -0.83666627797E+01 -0.28525440110E+02 -0.11342453175E+02  0.31817495562E+02  0.51100000000E-03 0. -1.
        -11    1    3    3    0    0 -0.50160810017E+01 -0.92969124536E+01 -0.89968872061E+00  0.10602032345E+02  0.51100000000E-03 0.  1.
        -12    1    3    3    0    0  0.44783332030E+01 -0.22061745269E+01 -0.19723266411E+01  0.53677506183E+01  0.00000000000E+00 0.  1.
</event>
<event>
 7    1  0.3837332E-009  0.4778727E+02  0.7816164E-02  0.1312668E+00
        -11   -1    0    0    0    0  0.00000000000E+00  0.00000000000E+00  0.45593999997E+02  0.45594000000E+02  0.51100000000E-03 0.  1.
         11   -1    0    0    0    0 -0.00000000000E+00 -0.00000000000E+00 -0.45593999997E+02  0.45594000000E+02  0.51100000000E-03 0. -1.
    9900012    2    1    2    0    0  0.85236236363E+01 -0.16975938689E+02 -0.39022923501E+02  0.47787271748E+02  0.20000003206E+02 0.  0.
        -12    1    1    2    0    0 -0.85236236363E+01  0.16975938689E+02  0.39022923501E+02  0.43400728252E+02  0.00000000000E+00 0.  1.
         11    1    3    3    0    0  0.31933451681E+01 -0.10729308414E+02 -0.74126343706E+01  0.13426193093E+02  0.51100000000E-03 0. -1.
        -11    1    3    3    0    0  0.71170011971E+01 -0.79327501974E+01 -0.22054039341E+02  0.24494098947E+02  0.51100000000E-03 0.  1.
        -12    1    3    3    0    0 -0.17867227289E+01  0.16861199217E+01 -0.95562497898E+01  0.98669797073E+01  0.00000000000E+00 0.  1.
</event>
<event>
 7    1  0.3837332E-009  0.4778727E+02  0.7816164E-02  0.1312668E+00
        -11   -1    0    0    0    0  0.00000000000E+00  0.00000000000E+00  0.45593999997E+02  0.45594000000E+02  0.51100000000E-03 0.  1.
         11   -1    0    0    0    0 -0.00000000000E+00 -0.00000000000E+00 -0.45593999997E+02  0.45594000000E+02  0.51100000000E-03 0. -1.
    9900012    2    1    2    0    0 -0.78080961446E+01 -0.24756484507E+01 -0.42620750171E+02  0.47787267912E+02  0.19999985717E+02 0.  0.
        -12    1    1    2    0    0  0.78080961446E+01  0.24756484507E+01  0.42620750171E+02  0.43400732088E+02  0.00000000000E+00 0.  1.
         11    1    3    3    0    0 -0.38337955144E+01 -0.45147077267E+01 -0.30732735111E+02  0.31298268028E+02  0.51100000000E-03 0. -1.
        -11    1    3    3    0    0 -0.99516552876E+00  0.23481449718E+01 -0.13034716662E+02  0.13281866509E+02  0.51100000000E-03 0.  1.
        -12    1    3    3    0    0 -0.29791351014E+01 -0.30908569577E+00  0.11467016020E+01  0.32071333748E+01  0.00000000000E+00 0.  1.
</event>
<event>
 7    1  0.3837332E-009  0.4778727E+02  0.7816164E-02  0.1312668E+00
        -11   -1    0    0    0    0  0.00000000000E+00  0.00000000000E+00  0.45593999997E+02  0.45594000000E+02  0.51100000000E-03 0.  1.
         11   -1    0    0    0    0 -0.00000000000E+00 -0.00000000000E+00 -0.45593999997E+02  0.45594000000E+02  0.51100000000E-03 0. -1.
    9900012    2    1    2    0    0  0.30844252247E+02 -0.21587861942E+02 -0.21592116061E+02  0.47787272404E+02  0.20000006199E+02 0.  0.
        -12    1    1    2    0    0 -0.30844252247E+02  0.21587861942E+02  0.21592116061E+02  0.43400727596E+02  0.00000000000E+00 0.  1.
         11    1    3    3    0    0  0.14957596331E+02 -0.78842010557E+01 -0.76012892963E+01  0.18538336320E+02  0.51100000000E-03 0. -1.
        -11    1    3    3    0    0  0.12311252043E+02 -0.29851470791E+01 -0.12595380027E+02  0.17863975712E+02  0.51100000000E-03 0.  1.
         12    1    3    3    0    0  0.35754038731E+01 -0.10718513807E+02 -0.13954467377E+01  0.11384960373E+02  0.00000000000E+00 0. -1.
</event>
<event>
 7    1  0.3837332E-009  0.4778727E+02  0.7816164E-02  0.1312668E+00
        -11   -1    0    0    0    0  0.00000000000E+00  0.00000000000E+00  0.45593999997E+02  0.45594000000E+02  0.51100000000E-03 0. -1.
         11   -1    0    0    0    0 -0.00000000000E+00 -0.00000000000E+00 -0.45593999997E+02  0.45594000000E+02  0.51100000000E-03 0.  1.
    9900012    2    1    2    0    0  0.21898741465E+01 -0.15894201916E+02  0.40326194388E+02  0.47787272389E+02  0.20000006130E+02 0.  0.
        -12    1    1    2    0    0 -0.21898741465E+01  0.15894201916E+02 -0.40326194388E+02  0.43400727611E+02  0.00000000000E+00 0.  1.
         11    1    3    3    0    0 -0.25461800151E+01 -0.12410988746E+02  0.90911432459E+01  0.15593734642E+02  0.51100000000E-03 0. -1.
        -11    1    3    3    0    0  0.29652411146E+01 -0.34757022810E+01  0.11426897527E+02  0.12306386495E+02  0.51100000000E-03 0.  1.
         12    1    3    3    0    0  0.17708130469E+01 -0.75108897247E-02  0.19808153615E+02  0.19887151252E+02  0.00000000000E+00 0. -1.
</event>
<event>
 7    1  0.3837332E-009  0.4778727E+02  0.7816164E-02  0.1312668E+00
        -11   -1    0    0    0    0  0.00000000000E+00  0.00000000000E+00  0.45593999997E+02  0.45594000000E+02  0.51100000000E-03 0.  1.
         11   -1    0    0    0    0 -0.00000000000E+00 -0.00000000000E+00 -0.45593999997E+02  0.45594000000E+02  0.51100000000E-03 0. -1.
    9900012    2    1    2    0    0 -0.73659388920E+01  0.29544296883E+01 -0.42668928554E+02  0.47787272189E+02  0.20000005219E+02 0.  0.
        -12    1    1    2    0    0  0.73659388920E+01 -0.29544296883E+01  0.42668928554E+02  0.43400727811E+02  0.00000000000E+00 0.  1.
         11    1    3    3    0    0  0.27614062493E+01  0.78652458330E-02 -0.33843291669E+01  0.43679641146E+01  0.51100000000E-03 0. -1.
        -11    1    3    3    0    0 -0.94765229626E+01 -0.18861678599E+01 -0.10680828157E+02  0.14402854128E+02  0.51100000000E-03 0.  1.
         12    1    3    3    0    0 -0.65082217872E+00  0.48327323023E+01 -0.28603771230E+02  0.29016453946E+02  0.00000000000E+00 0. -1.
</event>
<event>
 7    1  0.3837332E-009  0.4778727E+02  0.7816164E-02  0.1312668E+00
        -11   -1    0    0    0    0  0.00000000000E+00  0.00000000000E+00  0.45593999997E+02  0.45594000000E+02  0.51100000000E-03 0. -1.
         11   -1    0    0    0    0 -0.00000000000E+00 -0.00000000000E+00 -0.45593999997E+02  0.45594000000E+02  0.51100000000E-03 0.  1.
    9900012    2    1    2    0    0  0.73129858608E+01  0.16242348168E+02  0.39576880070E+02  0.47787273367E+02  0.20000010588E+02 0.  0.
        -12    1    1    2    0    0 -0.73129858608E+01 -0.16242348168E+02 -0.39576880070E+02  0.43400726633E+02  0.00000000000E+00 0.  1.
         11    1    3    3    0    0  0.82236517041E+01  0.41605035412E+01  0.10413644079E+02  0.13906193596E+02  0.51100000000E-03 0. -1.
        -11    1    3    3    0    0 -0.29809785180E-01  0.85605207316E+00 -0.12129915790E+01  0.14849453212E+01  0.51100000000E-03 0.  1.
         12    1    3    3    0    0 -0.88085605815E+00  0.11225792554E+02  0.30376227570E+02  0.32396134449E+02  0.00000000000E+00 0. -1.
</event>
<event>
 7    1  0.3837332E-009  0.4778727E+02  0.7816164E-02  0.1312668E+00
        -11   -1    0    0    0    0  0.00000000000E+00  0.00000000000E+00  0.45593999997E+02  0.45594000000E+02  0.51100000000E-03 0.  1.
         11   -1    0    0    0    0 -0.00000000000E+00 -0.00000000000E+00 -0.45593999997E+02  0.45594000000E+02  0.51100000000E-03 0. -1.
    9900012    2    1    2    0    0 -0.28844444319E+02 -0.33868359500E+01 -0.32251373927E+02  0.47787265605E+02  0.19999975200E+02 0.  0.
        -12    1    1    2    0    0  0.28844444319E+02  0.33868359500E+01  0.32251373927E+02  0.43400734395E+02  0.00000000000E+00 0.  1.
         11    1    3    3    0    0 -0.47140528587E+00 -0.26672079090E+01 -0.25836004676E+01  0.37431554350E+01  0.51100000000E-03 0.  1.
        -11    1    3    3    0    0 -0.79911147454E+01 -0.60121041041E+01 -0.16231600472E+02  0.19064841064E+02  0.51100000000E-03 0. -1.
         12    1    3    3    0    0 -0.20381924288E+02  0.52924760631E+01 -0.13436172988E+02  0.24979269107E+02  0.00000000000E+00 0. -1.
</event>
<event>
 7    1  0.3837332E-009  0.4778727E+02  0.7816164E-02  0.1312668E+00
        -11   -1    0    0    0    0  0.00000000000E+00  0.00000000000E+00  0.45593999997E+02  0.45594000000E+02  0.51100000000E-03 0. -1.
         11   -1    0    0    0    0 -0.00000000000E+00 -0.00000000000E+00 -0.45593999997E+02  0.45594000000E+02  0.51100000000E-03 0.  1.
    9900012    2    1    2    0    0 -0.25815941362E+02 -0.32868953242E+02  0.11695825248E+02  0.47787271390E+02  0.20000001576E+02 0.  0.
        -12    1    1    2    0    0  0.25815941362E+02  0.32868953242E+02 -0.11695825248E+02  0.43400728610E+02  0.00000000000E+00 0.  1.
         11    1    3    3    0    0 -0.15435413730E+02 -0.24317945831E+02  0.12885780448E+02  0.31554046087E+02  0.51100000000E-03 0. -1.
        -11    1    3    3    0    0 -0.99786122752E+01 -0.67385338639E+01  0.23202591900E+01  0.12262305841E+02  0.51100000000E-03 0.  1.
        -12    1    3    3    0    0 -0.40191535628E+00 -0.18124735475E+01 -0.35102143893E+01  0.39709194619E+01  0.00000000000E+00 0.  1.
</event>
<event>
 7    1  0.3837332E-009  0.4778729E+02  0.7816164E-02  0.1312668E+00
        -11   -1    0    0    0    0  0.00000000000E+00  0.00000000000E+00  0.45593999997E+02  0.45594000000E+02  0.51100000000E-03 0.  1.
         11   -1    0    0    0    0 -0.00000000000E+00 -0.00000000000E+00 -0.45593999997E+02  0.45594000000E+02  0.51100000000E-03 0. -1.
    9900012    2    1    2    0    0  0.17788659454E+02 -0.19134021398E+02 -0.34656525965E+02  0.47787286043E+02  0.20000068383E+02 0.  0.
        -12    1    1    2    0    0 -0.17788659454E+02  0.19134021398E+02  0.34656525965E+02  0.43400713957E+02  0.00000000000E+00 0.  1.
         11    1    3    3    0    0 -0.27637352876E+01  0.11476716237E+01 -0.18694734195E+01  0.35285002513E+01  0.51100000000E-03 0. -1.
        -11    1    3    3    0    0  0.19217838476E+01 -0.57952731175E+01 -0.60346192996E+01  0.85845835086E+01  0.51100000000E-03 0.  1.
         12    1    3    3    0    0  0.18630610894E+02 -0.14486419904E+02 -0.26752433246E+02  0.35674202283E+02  0.00000000000E+00 0. -1.
</event>
<event>
 7    1  0.3837332E-009  0.4778727E+02  0.7816164E-02  0.1312668E+00
        -11   -1    0    0    0    0  0.00000000000E+00  0.00000000000E+00  0.45593999997E+02  0.45594000000E+02  0.51100000000E-03 0. -1.
         11   -1    0    0    0    0 -0.00000000000E+00 -0.00000000000E+00 -0.45593999997E+02  0.45594000000E+02  0.51100000000E-03 0.  1.
    9900012    2    1    2    0    0 -0.84456452448E+01  0.13974811139E+02  0.40211925951E+02  0.47787271220E+02  0.20000000801E+02 0.  0.
        -12    1    1    2    0    0  0.84456452448E+01 -0.13974811139E+02 -0.40211925951E+02  0.43400728780E+02  0.00000000000E+00 0.  1.
         11    1    3    3    0    0 -0.83258562747E+01  0.11959727061E+02  0.32330952871E+02  0.35463297477E+02  0.51100000000E-03 0. -1.
        -11    1    3    3    0    0 -0.17848363424E+01 -0.15880719517E+01  0.80038531569E+01  0.83528006627E+01  0.51100000000E-03 0.  1.
        -12    1    3    3    0    0  0.16650473724E+01  0.36031560293E+01 -0.12288007764E+00  0.39711730808E+01  0.00000000000E+00 0.  1.
</event>
<event>
 7    1  0.3837332E-009  0.4778727E+02  0.7816164E-02  0.1312668E+00
        -11   -1    0    0    0    0  0.00000000000E+00  0.00000000000E+00  0.45593999997E+02  0.45594000000E+02  0.51100000000E-03 0.  1.
         11   -1    0    0    0    0 -0.00000000000E+00 -0.00000000000E+00 -0.45593999997E+02  0.45594000000E+02  0.51100000000E-03 0. -1.
    9900012    2    1    2    0    0 -0.26993590405E+02  0.26842539938E+02 -0.20843404896E+02  0.47787269581E+02  0.19999993326E+02 0.  0.
        -12    1    1    2    0    0  0.26993590405E+02 -0.26842539938E+02  0.20843404896E+02  0.43400730419E+02  0.00000000000E+00 0.  1.
         11    1    3    3    0    0  0.46131650078E-01 -0.46700666301E+00 -0.14155178402E+01  0.14912794405E+01  0.51100000000E-03 0. -1.
        -11    1    3    3    0    0 -0.56350036458E+01  0.17855116771E+01 -0.10101301629E+02  0.11703743542E+02  0.51100000000E-03 0.  1.
         12    1    3    3    0    0 -0.21404718409E+02  0.25524034924E+02 -0.93265854265E+01  0.34592246598E+02  0.00000000000E+00 0. -1.
</event>
<event>
 7    1  0.3837332E-009  0.4778728E+02  0.7816164E-02  0.1312668E+00
        -11   -1    0    0    0    0  0.00000000000E+00  0.00000000000E+00  0.45593999997E+02  0.45594000000E+02  0.51100000000E-03 0. -1.
         11   -1    0    0    0    0 -0.00000000000E+00 -0.00000000000E+00 -0.45593999997E+02  0.45594000000E+02  0.51100000000E-03 0.  1.
    9900012    2    1    2    0    0  0.10990130501E+02  0.26863074686E+02  0.32267863800E+02  0.47787276685E+02  0.20000025717E+02 0.  0.
        -12    1    1    2    0    0 -0.10990130501E+02 -0.26863074686E+02 -0.32267863800E+02  0.43400723315E+02  0.00000000000E+00 0.  1.
         11    1    3    3    0    0  0.13442308404E+01  0.11874888782E+02  0.42670037265E+01  0.12689651736E+02  0.51100000000E-03 0. -1.
        -11    1    3    3    0    0  0.24876533547E+01 -0.66909062032E+00  0.45740299683E+00  0.26163560985E+01  0.51100000000E-03 0.  1.
         12    1    3    3    0    0  0.71582463058E+01  0.15657276525E+02  0.27543457077E+02  0.32481268850E+02  0.00000000000E+00 0. -1.
</event>
<event>
 7    1  0.3837332E-009  0.4778727E+02  0.7816164E-02  0.1312668E+00
        -11   -1    0    0    0    0  0.00000000000E+00  0.00000000000E+00  0.45593999997E+02  0.45594000000E+02  0.51100000000E-03 0.  1.
         11   -1    0    0    0    0 -0.00000000000E+00 -0.00000000000E+00 -0.45593999997E+02  0.45594000000E+02  0.51100000000E-03 0. -1.
    9900012    2    1    2    0    0  0.31110177429E+02 -0.73328318677E+00 -0.30252973436E+02  0.47787271370E+02  0.20000001484E+02 0.  0.
        -12    1    1    2    0    0 -0.31110177429E+02  0.73328318677E+00  0.30252973436E+02  0.43400728630E+02  0.00000000000E+00 0.  1.
         11    1    3    3    0    0  0.10754221462E+02 -0.32063693725E+00 -0.19172034486E+02  0.21984608113E+02  0.51100000000E-03 0. -1.
        -11    1    3    3    0    0 -0.10782010130E+01 -0.90657648507E+00  0.42382842459E+00  0.14710639491E+01  0.51100000000E-03 0.  1.
         12    1    3    3    0    0  0.21434156980E+02  0.49393023556E+00 -0.11504767375E+02  0.24331599308E+02  0.00000000000E+00 0. -1.
</event>
<event>
 7    1  0.3837332E-009  0.4778728E+02  0.7816164E-02  0.1312668E+00
        -11   -1    0    0    0    0  0.00000000000E+00  0.00000000000E+00  0.45593999997E+02  0.45594000000E+02  0.51100000000E-03 0.  1.
         11   -1    0    0    0    0 -0.00000000000E+00 -0.00000000000E+00 -0.45593999997E+02  0.45594000000E+02  0.51100000000E-03 0. -1.
    9900012    2    1    2    0    0 -0.27250936073E+02  0.33752459644E+02  0.13343134749E+01  0.47787280636E+02  0.20000043730E+02 0.  0.
        -12    1    1    2    0    0  0.27250936073E+02 -0.33752459644E+02 -0.13343134749E+01  0.43400719364E+02  0.00000000000E+00 0.  1.
         11    1    3    3    0    0 -0.48494690339E+01  0.11202174908E+02 -0.69351354650E+00  0.12226489025E+02  0.51100000000E-03 0.  1.
        -11    1    3    3    0    0 -0.20438968698E+02  0.23562044837E+02 -0.16892528008E+01  0.31237397037E+02  0.51100000000E-03 0. -1.
        -12    1    3    3    0    0 -0.19624983406E+01 -0.10117601005E+01  0.37170798222E+01  0.43233945740E+01  0.00000000000E+00 0.  1.
</event>
<event>
 7    1  0.3837332E-009  0.4778728E+02  0.7816164E-02  0.1312668E+00
        -11   -1    0    0    0    0  0.00000000000E+00  0.00000000000E+00  0.45593999997E+02  0.45594000000E+02  0.51100000000E-03 0.  1.
         11   -1    0    0    0    0 -0.00000000000E+00 -0.00000000000E+00 -0.45593999997E+02  0.45594000000E+02  0.51100000000E-03 0. -1.
    9900012    2    1    2    0    0  0.14854446584E+02 -0.32547372831E+02 -0.24569018351E+02  0.47787277377E+02  0.20000028871E+02 0.  0.
        -12    1    1    2    0    0 -0.14854446584E+02  0.32547372831E+02  0.24569018351E+02  0.43400722623E+02  0.00000000000E+00 0.  1.
         11    1    3    3    0    0  0.96206332059E+01 -0.96155993298E+01 -0.15871520442E+02  0.20902667178E+02  0.51100000000E-03 0. -1.
        -11    1    3    3    0    0  0.29579960217E+01 -0.74868160522E+00 -0.18003429121E+01  0.35428095451E+01  0.51100000000E-03 0.  1.
        -12    1    3    3    0    0  0.22758173562E+01 -0.22183091896E+02 -0.68971549963E+01  0.23341800653E+02  0.00000000000E+00 0.  1.
</event>
<event>
 7    1  0.3837332E-009  0.4778729E+02  0.7816164E-02  0.1312668E+00
        -11   -1    0    0    0    0  0.00000000000E+00  0.00000000000E+00  0.45593999997E+02  0.45594000000E+02  0.51100000000E-03 0. -1.
         11   -1    0    0    0    0 -0.00000000000E+00 -0.00000000000E+00 -0.45593999997E+02  0.45594000000E+02  0.51100000000E-03 0.  1.
    9900012    2    1    2    0    0 -0.29499745559E+02 -0.94608621214E+01  0.30395371350E+02  0.47787291484E+02  0.20000093194E+02 0.  0.
        -12    1    1    2    0    0  0.29499745559E+02  0.94608621214E+01 -0.30395371350E+02  0.43400708516E+02  0.00000000000E+00 0.  1.
         11    1    3    3    0    0 -0.48747889598E+01  0.54722855977E+01  0.63764940349E+01  0.97143786988E+01  0.51100000000E-03 0. -1.
        -11    1    3    3    0    0 -0.40341535128E+01 -0.77490823452E+00  0.13225902778E+01  0.43155674761E+01  0.51100000000E-03 0.  1.
         12    1    3    3    0    0 -0.20590803087E+02 -0.14158239485E+02  0.22696287037E+02  0.33757345310E+02  0.00000000000E+00 0. -1.
</event>
<event>
 7    1  0.3837332E-009  0.4778728E+02  0.7816164E-02  0.1312668E+00
        -11   -1    0    0    0    0  0.00000000000E+00  0.00000000000E+00  0.45593999997E+02  0.45594000000E+02  0.51100000000E-03 0.  1.
         11   -1    0    0    0    0 -0.00000000000E+00 -0.00000000000E+00 -0.45593999997E+02  0.45594000000E+02  0.51100000000E-03 0. -1.
    9900012    2    1    2    0    0 -0.35580723415E+02  0.24771481665E+02  0.20021224238E+01  0.47787277923E+02  0.20000031361E+02 0.  0.
        -12    1    1    2    0    0  0.35580723415E+02 -0.24771481665E+02 -0.20021224238E+01  0.43400722077E+02  0.00000000000E+00 0.  1.
         11    1    3    3    0    0 -0.19156879051E+02  0.14396421601E+02 -0.21484030582E+01  0.24059480581E+02  0.51100000000E-03 0. -1.
        -11    1    3    3    0    0 -0.11889613457E+02  0.13312202145E+02  0.21989108983E+01  0.17983682701E+02  0.51100000000E-03 0.  1.
        -12    1    3    3    0    0 -0.45342309077E+01 -0.29371420800E+01  0.19516145837E+01  0.57441146407E+01  0.00000000000E+00 0.  1.
</event>
<event>
 7    1  0.3837332E-009  0.4778727E+02  0.7816164E-02  0.1312668E+00
        -11   -1    0    0    0    0  0.00000000000E+00  0.00000000000E+00  0.45593999997E+02  0.45594000000E+02  0.51100000000E-03 0.  1.
         11   -1    0    0    0    0 -0.00000000000E+00 -0.00000000000E+00 -0.45593999997E+02  0.45594000000E+02  0.51100000000E-03 0. -1.
    9900012    2    1    2    0    0  0.16786437499E+01  0.20296726894E+02 -0.38325562310E+02  0.47787266207E+02  0.19999977943E+02 0.  0.
        -12    1    1    2    0    0 -0.16786437499E+01 -0.20296726894E+02  0.38325562310E+02  0.43400733793E+02  0.00000000000E+00 0.  1.
         11    1    3    3    0    0  0.24557203470E+01  0.44301620160E+01 -0.21376320974E+02  0.21968249738E+02  0.51100000000E-03 0. -1.
        -11    1    3    3    0    0 -0.16626538228E+01  0.11618283870E+02 -0.17873107317E+02  0.21382163203E+02  0.51100000000E-03 0.  1.
        -12    1    3    3    0    0  0.88557722570E+00  0.42482810084E+01  0.92386598135E+00  0.44368532656E+01  0.00000000000E+00 0.  1.
</event>
<event>
 7    1  0.3837332E-009  0.4778727E+02  0.7816164E-02  0.1312668E+00
        -11   -1    0    0    0    0  0.00000000000E+00  0.00000000000E+00  0.45593999997E+02  0.45594000000E+02  0.51100000000E-03 0. -1.
         11   -1    0    0    0    0 -0.00000000000E+00 -0.00000000000E+00 -0.45593999997E+02  0.45594000000E+02  0.51100000000E-03 0.  1.
    9900012    2    1    2    0    0 -0.71783523888E+00  0.24213585149E+01  0.43327186888E+02  0.47787269728E+02  0.19999994000E+02 0.  0.
        -12    1    1    2    0    0  0.71783523888E+00 -0.24213585149E+01 -0.43327186888E+02  0.43400730272E+02  0.00000000000E+00 0.  1.
         11    1    3    3    0    0  0.13299707950E+01  0.25939168796E+01  0.27655081537E+02  0.27808285854E+02  0.51100000000E-03 0. -1.
        -11    1    3    3    0    0 -0.42850249151E+01  0.71589575697E+00  0.16776982534E+02  0.17330351654E+02  0.51100000000E-03 0.  1.
        -12    1    3    3    0    0  0.22372188812E+01 -0.88845412161E+00 -0.11048771825E+01  0.26486322200E+01  0.00000000000E+00 0.  1.
</event>
<event>
 7    1  0.3837332E-009  0.4778727E+02  0.7816164E-02  0.1312668E+00
        -11   -1    0    0    0    0  0.00000000000E+00  0.00000000000E+00  0.45593999997E+02  0.45594000000E+02  0.51100000000E-03 0. -1.
         11   -1    0    0    0    0 -0.00000000000E+00 -0.00000000000E+00 -0.45593999997E+02  0.45594000000E+02  0.51100000000E-03 0.  1.
    9900012    2    1    2    0    0 -0.26132266372E+02 -0.29308034481E+02  0.18486953553E+02  0.47787266336E+02  0.19999978532E+02 0.  0.
        -12    1    1    2    0    0  0.26132266372E+02  0.29308034481E+02 -0.18486953553E+02  0.43400733664E+02  0.00000000000E+00 0.  1.
         11    1    3    3    0    0 -0.14354895009E+02 -0.25254928906E+02  0.18501062367E+02  0.34440728124E+02  0.51100000000E-03 0. -1.
        -11    1    3    3    0    0 -0.58198637188E+01 -0.40221859030E+01  0.14272944115E+01  0.72170605334E+01  0.51100000000E-03 0.  1.
         12    1    3    3    0    0 -0.59575076442E+01 -0.30919672488E-01 -0.14414032247E+01  0.61294776786E+01  0.00000000000E+00 0. -1.
</event>
<event>
 7    1  0.3837332E-009  0.4778727E+02  0.7816164E-02  0.1312668E+00
        -11   -1    0    0    0    0  0.00000000000E+00  0.00000000000E+00  0.45593999997E+02  0.45594000000E+02  0.51100000000E-03 0.  1.
         11   -1    0    0    0    0 -0.00000000000E+00 -0.00000000000E+00 -0.45593999997E+02  0.45594000000E+02  0.51100000000E-03 0. -1.
    9900012    2    1    2    0    0  0.10485996960E+01  0.37197084122E+02 -0.22336085143E+02  0.47787270421E+02  0.19999997156E+02 0.  0.
        -12    1    1    2    0    0 -0.10485996960E+01 -0.37197084122E+02  0.22336085143E+02  0.43400729579E+02  0.00000000000E+00 0.  1.
         11    1    3    3    0    0  0.14061598730E+01  0.23460557194E+02 -0.12499146975E+02  0.26619611282E+02  0.51100000000E-03 0. -1.
        -11    1    3    3    0    0  0.61772149226E+01  0.68114494702E+01 -0.53928231556E+01  0.10660036113E+02  0.51100000000E-03 0.  1.
         12    1    3    3    0    0 -0.65347750997E+01  0.69250774582E+01 -0.44441150120E+01  0.10507623025E+02  0.00000000000E+00 0. -1.
</event>
<event>
 7    1  0.3837332E-009  0.4778727E+02  0.7816164E-02  0.1312668E+00
        -11   -1    0    0    0    0  0.00000000000E+00  0.00000000000E+00  0.45593999997E+02  0.45594000000E+02  0.51100000000E-03 0. -1.
         11   -1    0    0    0    0 -0.00000000000E+00 -0.00000000000E+00 -0.45593999997E+02  0.45594000000E+02  0.51100000000E-03 0.  1.
    9900012    2    1    2    0    0 -0.83366426058E+01 -0.30194064887E+02  0.30040672903E+02  0.47787271979E+02  0.20000004260E+02 0.  0.
        -12    1    1    2    0    0  0.83366426058E+01  0.30194064887E+02 -0.30040672903E+02  0.43400728021E+02  0.00000000000E+00 0.  1.
         11    1    3    3    0    0 -0.20936716216E+01 -0.61266057546E+01  0.14432713456E+02  0.15818406269E+02  0.51100000000E-03 0.  1.
        -11    1    3    3    0    0  0.26669203753E+01 -0.72721902202E+01  0.89220218078E+01  0.11815231199E+02  0.51100000000E-03 0. -1.
        -12    1    3    3    0    0 -0.89098913595E+01 -0.16795268912E+02  0.66859376386E+01  0.20153634510E+02  0.00000000000E+00 0.  1.
</event>
<event>
 7    1  0.3837332E-009  0.4778727E+02  0.7816164E-02  0.1312668E+00
        -11   -1    0    0    0    0  0.00000000000E+00  0.00000000000E+00  0.45593999997E+02  0.45594000000E+02  0.51100000000E-03 0.  1.
         11   -1    0    0    0    0 -0.00000000000E+00 -0.00000000000E+00 -0.45593999997E+02  0.45594000000E+02  0.51100000000E-03 0. -1.
    9900012    2    1    2    0    0  0.14971202356E+02  0.15908375141E+02 -0.37502134614E+02  0.47787269589E+02  0.19999993364E+02 0.  0.
        -12    1    1    2    0    0 -0.14971202356E+02 -0.15908375141E+02  0.37502134614E+02  0.43400730411E+02  0.00000000000E+00 0.  1.
         11    1    3    3    0    0  0.15507127730E+01  0.26824750824E+01 -0.61844983596E+01  0.69172539995E+01  0.51100000000E-03 0. -1.
        -11    1    3    3    0    0 -0.41001629157E+01  0.40422704891E+01 -0.11544137092E+02  0.12900325116E+02  0.51100000000E-03 0.  1.
        -12    1    3    3    0    0  0.17520652499E+02  0.91836295693E+01 -0.19773499162E+02  0.27969690473E+02  0.00000000000E+00 0.  1.
</event>
<event>
 7    1  0.3837332E-009  0.4778728E+02  0.7816164E-02  0.1312668E+00
        -11   -1    0    0    0    0  0.00000000000E+00  0.00000000000E+00  0.45593999997E+02  0.45594000000E+02  0.51100000000E-03 0. -1.
         11   -1    0    0    0    0 -0.00000000000E+00 -0.00000000000E+00 -0.45593999997E+02  0.45594000000E+02  0.51100000000E-03 0.  1.
    9900012    2    1    2    0    0 -0.31862558077E+02 -0.27590196567E+02 -0.10352838553E+02  0.47787276274E+02  0.20000023843E+02 0.  0.
        -12    1    1    2    0    0  0.31862558077E+02  0.27590196567E+02  0.10352838553E+02  0.43400723726E+02  0.00000000000E+00 0.  1.
         11    1    3    3    0    0 -0.52832870971E+01 -0.92107011182E+01 -0.49365312481E+01  0.11709802674E+02  0.51100000000E-03 0. -1.
        -11    1    3    3    0    0 -0.92641953378E+01 -0.15550940053E+02 -0.21071001419E+01  0.18223526636E+02  0.51100000000E-03 0.  1.
        -12    1    3    3    0    0 -0.17315075642E+02 -0.28285553958E+01 -0.33092071626E+01  0.17853946964E+02  0.00000000000E+00 0.  1.
</event>
<event>
 7    1  0.3837332E-009  0.4778727E+02  0.7816164E-02  0.1312668E+00
        -11   -1    0    0    0    0  0.00000000000E+00  0.00000000000E+00  0.45593999997E+02  0.45594000000E+02  0.51100000000E-03 0. -1.
         11   -1    0    0    0    0 -0.00000000000E+00 -0.00000000000E+00 -0.45593999997E+02  0.45594000000E+02  0.51100000000E-03 0.  1.
    9900012    2    1    2    0    0 -0.12181603484E+02  0.41559796299E+02 -0.28311829446E+01  0.47787265805E+02  0.19999976109E+02 0.  0.
        -12    1    1    2    0    0  0.12181603484E+02 -0.41559796299E+02  0.28311829446E+01  0.43400734195E+02  0.00000000000E+00 0.  1.
         11    1    3    3    0    0 -0.48343813983E+01  0.22597493073E+02 -0.79600676437E+01  0.24441370948E+02  0.51100000000E-03 0. -1.
        -11    1    3    3    0    0 -0.14332121187E+01  0.15839286530E+02  0.22411333911E+01  0.16061126172E+02  0.51100000000E-03 0.  1.
         12    1    3    3    0    0 -0.59140099671E+01  0.31230166960E+01  0.28877513080E+01  0.72847686848E+01  0.00000000000E+00 0. -1.
</event>
<event>
 7    1  0.3837332E-009  0.4778727E+02  0.7816164E-02  0.1312668E+00
        -11   -1    0    0    0    0  0.00000000000E+00  0.00000000000E+00  0.45593999997E+02  0.45594000000E+02  0.51100000000E-03 0.  1.
         11   -1    0    0    0    0 -0.00000000000E+00 -0.00000000000E+00 -0.45593999997E+02  0.45594000000E+02  0.51100000000E-03 0. -1.
    9900012    2    1    2    0    0 -0.31793033692E+02  0.53385470522E+01 -0.29057291963E+02  0.47787270833E+02  0.19999999038E+02 0.  0.
        -12    1    1    2    0    0  0.31793033692E+02 -0.53385470522E+01  0.29057291963E+02  0.43400729167E+02  0.00000000000E+00 0.  1.
         11    1    3    3    0    0 -0.89439454936E+01  0.59674717512E+01 -0.12976965502E+02  0.16852492812E+02  0.51100000000E-03 0. -1.
        -11    1    3    3    0    0 -0.33525979178E+01  0.21308626816E+01  0.17777090397E+01  0.43520958465E+01  0.51100000000E-03 0.  1.
        -12    1    3    3    0    0 -0.19496490280E+02 -0.27597873806E+01 -0.17858035501E+02  0.26582682174E+02  0.00000000000E+00 0.  1.
</event>
<event>
 7    1  0.3837332E-009  0.4778727E+02  0.7816164E-02  0.1312668E+00
        -11   -1    0    0    0    0  0.00000000000E+00  0.00000000000E+00  0.45593999997E+02  0.45594000000E+02  0.51100000000E-03 0.  1.
         11   -1    0    0    0    0 -0.00000000000E+00 -0.00000000000E+00 -0.45593999997E+02  0.45594000000E+02  0.51100000000E-03 0. -1.
    9900012    2    1    2    0    0  0.16677449572E+02  0.29968482975E+02 -0.26596534665E+02  0.47787274750E+02  0.20000016895E+02 0.  0.
        -12    1    1    2    0    0 -0.16677449572E+02 -0.29968482975E+02  0.26596534665E+02  0.43400725250E+02  0.00000000000E+00 0.  1.
         11    1    3    3    0    0 -0.21561829526E+00 -0.14568427775E+00 -0.94668880984E-01  0.27690723390E+00  0.51100000000E-03 0. -1.
        -11    1    3    3    0    0 -0.26324569199E+01  0.85563666664E+01 -0.13412952144E+01  0.90520888793E+01  0.51100000000E-03 0.  1.
         12    1    3    3    0    0  0.19525524787E+02  0.21557800586E+02 -0.25160570570E+02  0.38458278637E+02  0.00000000000E+00 0. -1.
</event>
<event>
 7    1  0.3837332E-009  0.4778727E+02  0.7816164E-02  0.1312668E+00
        -11   -1    0    0    0    0  0.00000000000E+00  0.00000000000E+00  0.45593999997E+02  0.45594000000E+02  0.51100000000E-03 0.  1.
         11   -1    0    0    0    0 -0.00000000000E+00 -0.00000000000E+00 -0.45593999997E+02  0.45594000000E+02  0.51100000000E-03 0. -1.
    9900012    2    1    2    0    0  0.25612349001E+02  0.30416793603E+02 -0.17391070004E+02  0.47787273389E+02  0.20000010691E+02 0.  0.
        -12    1    1    2    0    0 -0.25612349001E+02 -0.30416793603E+02  0.17391070004E+02  0.43400726611E+02  0.00000000000E+00 0.  1.
         11    1    3    3    0    0  0.15211768064E+02  0.92220336625E+01 -0.10939503539E+02  0.20883403229E+02  0.51100000000E-03 0. -1.
        -11    1    3    3    0    0  0.22075483191E+01 -0.42480628915E+00  0.12030544193E+01  0.25497196240E+01  0.51100000000E-03 0.  1.
        -12    1    3    3    0    0  0.81930326185E+01  0.21619566230E+02 -0.76546208844E+01  0.24354150536E+02  0.00000000000E+00 0.  1.
</event>
<event>
 7    1  0.3837332E-009  0.4778727E+02  0.7816164E-02  0.1312668E+00
        -11   -1    0    0    0    0  0.00000000000E+00  0.00000000000E+00  0.45593999997E+02  0.45594000000E+02  0.51100000000E-03 0.  1.
         11   -1    0    0    0    0 -0.00000000000E+00 -0.00000000000E+00 -0.45593999997E+02  0.45594000000E+02  0.51100000000E-03 0. -1.
    9900012    2    1    2    0    0  0.15339651227E+02  0.40039573706E+02 -0.67194508929E+01  0.47787269792E+02  0.19999994290E+02 0.  0.
        -12    1    1    2    0    0 -0.15339651227E+02 -0.40039573706E+02  0.67194508929E+01  0.43400730208E+02  0.00000000000E+00 0.  1.
         11    1    3    3    0    0  0.11889898125E+01  0.27046650010E+02 -0.49756097020E+01  0.27526199624E+02  0.51100000000E-03 0. -1.
        -11    1    3    3    0    0  0.53659602312E+01  0.78774431893E+01  0.13698027860E+01  0.96293302123E+01  0.51100000000E-03 0.  1.
         12    1    3    3    0    0  0.87847011829E+01  0.51154805061E+01 -0.31136439768E+01  0.10631739956E+02  0.00000000000E+00 0. -1.
</event>
<event>
 7    1  0.3837332E-009  0.4778727E+02  0.7816164E-02  0.1312668E+00
        -11   -1    0    0    0    0  0.00000000000E+00  0.00000000000E+00  0.45593999997E+02  0.45594000000E+02  0.51100000000E-03 0.  1.
         11   -1    0    0    0    0 -0.00000000000E+00 -0.00000000000E+00 -0.45593999997E+02  0.45594000000E+02  0.51100000000E-03 0. -1.
    9900012    2    1    2    0    0  0.18687003938E+02 -0.67617238895E+01 -0.38583654140E+02  0.47787269673E+02  0.19999993746E+02 0.  0.
        -12    1    1    2    0    0 -0.18687003938E+02  0.67617238895E+01  0.38583654140E+02  0.43400730327E+02  0.00000000000E+00 0.  1.
         11    1    3    3    0    0  0.12474092771E+02  0.25692271970E+01 -0.11656371858E+02  0.17264846481E+02  0.51100000000E-03 0. -1.
        -11    1    3    3    0    0  0.36670089701E+01  0.10912159344E-02 -0.30831667703E+01  0.47909157342E+01  0.51100000000E-03 0.  1.
        -12    1    3    3    0    0  0.25459021974E+01 -0.93320423024E+01 -0.23844115512E+02  0.25731507458E+02  0.00000000000E+00 0.  1.
</event>
<event>
 7    1  0.3837332E-009  0.4778727E+02  0.7816164E-02  0.1312668E+00
        -11   -1    0    0    0    0  0.00000000000E+00  0.00000000000E+00  0.45593999997E+02  0.45594000000E+02  0.51100000000E-03 0.  1.
         11   -1    0    0    0    0 -0.00000000000E+00 -0.00000000000E+00 -0.45593999997E+02  0.45594000000E+02  0.51100000000E-03 0. -1.
    9900012    2    1    2    0    0 -0.25536194969E+02  0.19311541560E+02 -0.29301707885E+02  0.47787274477E+02  0.20000015651E+02 0.  0.
        -12    1    1    2    0    0  0.25536194969E+02 -0.19311541560E+02  0.29301707885E+02  0.43400725523E+02  0.00000000000E+00 0.  1.
         11    1    3    3    0    0 -0.61595945956E+01  0.48997951666E+01 -0.14868348231E+02  0.16823090609E+02  0.51100000000E-03 0. -1.
        -11    1    3    3    0    0  0.10833266697E+01  0.17789213372E+01  0.10822468905E+01  0.23472146025E+01  0.51100000000E-03 0.  1.
         12    1    3    3    0    0 -0.20459927043E+02  0.12632825057E+02 -0.15515606545E+02  0.28616969266E+02  0.00000000000E+00 0. -1.
</event>
<event>
 7    1  0.3837332E-009  0.4778727E+02  0.7816164E-02  0.1312668E+00
        -11   -1    0    0    0    0  0.00000000000E+00  0.00000000000E+00  0.45593999997E+02  0.45594000000E+02  0.51100000000E-03 0.  1.
         11   -1    0    0    0    0 -0.00000000000E+00 -0.00000000000E+00 -0.45593999997E+02  0.45594000000E+02  0.51100000000E-03 0. -1.
    9900012    2    1    2    0    0  0.92467880391E+01  0.22522658681E+02 -0.35928400166E+02  0.47787272108E+02  0.20000004849E+02 0.  0.
        -12    1    1    2    0    0 -0.92467880391E+01 -0.22522658681E+02  0.35928400166E+02  0.43400727892E+02  0.00000000000E+00 0.  1.
         11    1    3    3    0    0  0.51093535358E+00  0.44686742518E+01 -0.15190534292E+02  0.15842425220E+02  0.51100000000E-03 0. -1.
        -11    1    3    3    0    0 -0.33490908622E+01  0.39975928057E+01 -0.19955628534E+01  0.55838543325E+01  0.51100000000E-03 0.  1.
         12    1    3    3    0    0  0.12084943548E+02  0.14056391623E+02 -0.18742303021E+02  0.26360992556E+02  0.00000000000E+00 0. -1.
</event>
<event>
 7    1  0.3837332E-009  0.4778727E+02  0.7816164E-02  0.1312668E+00
        -11   -1    0    0    0    0  0.00000000000E+00  0.00000000000E+00  0.45593999997E+02  0.45594000000E+02  0.51100000000E-03 0.  1.
         11   -1    0    0    0    0 -0.00000000000E+00 -0.00000000000E+00 -0.45593999997E+02  0.45594000000E+02  0.51100000000E-03 0. -1.
    9900012    2    1    2    0    0 -0.16974605592E+02 -0.19612503727E+02 -0.34797065336E+02  0.47787270819E+02  0.19999998973E+02 0.  0.
        -12    1    1    2    0    0  0.16974605592E+02  0.19612503727E+02  0.34797065336E+02  0.43400729181E+02  0.00000000000E+00 0.  1.
         11    1    3    3    0    0 -0.12599856065E+02 -0.12209711122E+02 -0.11837731026E+02  0.21165190636E+02  0.51100000000E-03 0. -1.
        -11    1    3    3    0    0 -0.78001072965E+01 -0.53549414310E+01 -0.15407688521E+02  0.18080761526E+02  0.51100000000E-03 0.  1.
        -12    1    3    3    0    0  0.34253577688E+01 -0.20478511733E+01 -0.75516457892E+01  0.85413186569E+01  0.00000000000E+00 0.  1.
</event>
<event>
 7    1  0.3837332E-009  0.4778727E+02  0.7816164E-02  0.1312668E+00
        -11   -1    0    0    0    0  0.00000000000E+00  0.00000000000E+00  0.45593999997E+02  0.45594000000E+02  0.51100000000E-03 0. -1.
         11   -1    0    0    0    0 -0.00000000000E+00 -0.00000000000E+00 -0.45593999997E+02  0.45594000000E+02  0.51100000000E-03 0.  1.
    9900012    2    1    2    0    0 -0.30110835187E+02  0.21899154803E+02  0.22302205265E+02  0.47787265715E+02  0.19999975702E+02 0.  0.
        -12    1    1    2    0    0  0.30110835187E+02 -0.21899154803E+02 -0.22302205265E+02  0.43400734285E+02  0.00000000000E+00 0.  1.
         11    1    3    3    0    0 -0.49803886090E+01  0.87673473420E+01  0.53021584752E+00  0.10097117372E+02  0.51100000000E-03 0. -1.
        -11    1    3    3    0    0 -0.12887706847E+01  0.38719478660E+00 -0.15026986521E+01  0.20171646389E+01  0.51100000000E-03 0.  1.
         12    1    3    3    0    0 -0.23841675894E+02  0.12744612674E+02  0.23274688070E+02  0.35672983705E+02  0.00000000000E+00 0. -1.
</event>
<event>
 7    1  0.3837332E-009  0.4778727E+02  0.7816164E-02  0.1312668E+00
        -11   -1    0    0    0    0  0.00000000000E+00  0.00000000000E+00  0.45593999997E+02  0.45594000000E+02  0.51100000000E-03 0.  1.
         11   -1    0    0    0    0 -0.00000000000E+00 -0.00000000000E+00 -0.45593999997E+02  0.45594000000E+02  0.51100000000E-03 0. -1.
    9900012    2    1    2    0    0 -0.25313826001E+02 -0.10148298473E+02 -0.33761600113E+02  0.47787269696E+02  0.19999993851E+02 0.  0.
        -12    1    1    2    0    0  0.25313826001E+02  0.10148298473E+02  0.33761600113E+02  0.43400730304E+02  0.00000000000E+00 0.  1.
         11    1    3    3    0    0 -0.40287277952E+01 -0.23378188783E+01 -0.85195384043E+01  0.97097157342E+01  0.51100000000E-03 0. -1.
        -11    1    3    3    0    0 -0.13684608640E+02 -0.11873412153E+02 -0.10333774213E+02  0.20857452374E+02  0.51100000000E-03 0.  1.
        -12    1    3    3    0    0 -0.76004895662E+01  0.40629325584E+01 -0.14908287496E+02  0.17220101588E+02  0.00000000000E+00 0.  1.
</event>
<event>
 7    1  0.3837332E-009  0.4778727E+02  0.7816164E-02  0.1312668E+00
        -11   -1    0    0    0    0  0.00000000000E+00  0.00000000000E+00  0.45593999997E+02  0.45594000000E+02  0.51100000000E-03 0.  1.
         11   -1    0    0    0    0 -0.00000000000E+00 -0.00000000000E+00 -0.45593999997E+02  0.45594000000E+02  0.51100000000E-03 0. -1.
    9900012    2    1    2    0    0  0.17121936914E+02  0.39551958499E+02 -0.51093022532E+01  0.47787272883E+02  0.20000008382E+02 0.  0.
        -12    1    1    2    0    0 -0.17121936914E+02 -0.39551958499E+02  0.51093022532E+01  0.43400727117E+02  0.00000000000E+00 0.  1.
         11    1    3    3    0    0  0.33365192063E+01  0.96273384057E+01 -0.24462634048E+01  0.10478654976E+02  0.51100000000E-03 0. -1.
        -11    1    3    3    0    0  0.11188922779E+02  0.19977546460E+02  0.62143287013E+01  0.23725771579E+02  0.51100000000E-03 0.  1.
        -12    1    3    3    0    0  0.25964949283E+01  0.99470736330E+01 -0.88773675496E+01  0.13582846328E+02  0.00000000000E+00 0.  1.
</event>
<event>
 7    1  0.3837332E-009  0.4778727E+02  0.7816164E-02  0.1312668E+00
        -11   -1    0    0    0    0  0.00000000000E+00  0.00000000000E+00  0.45593999997E+02  0.45594000000E+02  0.51100000000E-03 0. -1.
         11   -1    0    0    0    0 -0.00000000000E+00 -0.00000000000E+00 -0.45593999997E+02  0.45594000000E+02  0.51100000000E-03 0.  1.
    9900012    2    1    2    0    0 -0.43889258571E+01  0.40520424540E+02  0.14914942142E+02  0.47787274497E+02  0.20000015739E+02 0.  0.
        -12    1    1    2    0    0  0.43889258571E+01 -0.40520424540E+02 -0.14914942142E+02  0.43400725503E+02  0.00000000000E+00 0.  1.
         11    1    3    3    0    0  0.12513002963E+00  0.84192893896E+01  0.82839442090E+01  0.11812020287E+02  0.51100000000E-03 0. -1.
        -11    1    3    3    0    0 -0.90383375046E+00  0.27741998990E+02  0.98635700916E+01  0.29457179746E+02  0.51100000000E-03 0.  1.
         12    1    3    3    0    0 -0.36102221363E+01  0.43591361613E+01 -0.32325721583E+01  0.65180744629E+01  0.00000000000E+00 0. -1.
</event>
<event>
 7    1  0.3837332E-009  0.4778727E+02  0.7816164E-02  0.1312668E+00
        -11   -1    0    0    0    0  0.00000000000E+00  0.00000000000E+00  0.45593999997E+02  0.45594000000E+02  0.51100000000E-03 0. -1.
         11   -1    0    0    0    0 -0.00000000000E+00 -0.00000000000E+00 -0.45593999997E+02  0.45594000000E+02  0.51100000000E-03 0.  1.
    9900012    2    1    2    0    0 -0.17228776648E+01 -0.23431319069E+02  0.36491481840E+02  0.47787271116E+02  0.20000000327E+02 0.  0.
        -12    1    1    2    0    0  0.17228776648E+01  0.23431319069E+02 -0.36491481840E+02  0.43400728884E+02  0.00000000000E+00 0.  1.
         11    1    3    3    0    0 -0.31980936989E+01 -0.28151207430E+00  0.10639027242E+02  0.11112873313E+02  0.51100000000E-03 0. -1.
        -11    1    3    3    0    0 -0.50276463118E+01 -0.12345160441E+02  0.14649564960E+02  0.19806311306E+02  0.51100000000E-03 0.  1.
        -12    1    3    3    0    0  0.65028623458E+01 -0.10804646554E+02  0.11202889637E+02  0.16868086497E+02  0.00000000000E+00 0.  1.
</event>
<event>
 7    1  0.3837332E-009  0.4778727E+02  0.7816164E-02  0.1312668E+00
        -11   -1    0    0    0    0  0.00000000000E+00  0.00000000000E+00  0.45593999997E+02  0.45594000000E+02  0.51100000000E-03 0.  1.
         11   -1    0    0    0    0 -0.00000000000E+00 -0.00000000000E+00 -0.45593999997E+02  0.45594000000E+02  0.51100000000E-03 0. -1.
    9900012    2    1    2    0    0 -0.17497630714E+02 -0.34177075996E+02  0.20233235246E+02  0.47787269445E+02  0.19999992706E+02 0.  0.
        -12    1    1    2    0    0  0.17497630714E+02  0.34177075996E+02 -0.20233235246E+02  0.43400730555E+02  0.00000000000E+00 0.  1.
         11    1    3    3    0    0 -0.55800883275E+01 -0.28014196409E+02  0.16603319878E+02  0.33039413091E+02  0.51100000000E-03 0. -1.
        -11    1    3    3    0    0 -0.27393756908E+01 -0.78932614834E+00 -0.11672392767E+01  0.30805296191E+01  0.51100000000E-03 0.  1.
         12    1    3    3    0    0 -0.91781666953E+01 -0.53735534385E+01  0.47971546444E+01  0.11667326734E+02  0.00000000000E+00 0. -1.
</event>
<event>
 7    1  0.3837332E-009  0.4778727E+02  0.7816164E-02  0.1312668E+00
        -11   -1    0    0    0    0  0.00000000000E+00  0.00000000000E+00  0.45593999997E+02  0.45594000000E+02  0.51100000000E-03 0. -1.
         11   -1    0    0    0    0 -0.00000000000E+00 -0.00000000000E+00 -0.45593999997E+02  0.45594000000E+02  0.51100000000E-03 0.  1.
    9900012    2    1    2    0    0  0.38163475528E+02 -0.20252542076E+02 -0.41239386910E+01  0.47787271950E+02  0.20000004128E+02 0.  0.
        -12    1    1    2    0    0 -0.38163475528E+02  0.20252542076E+02  0.41239386910E+01  0.43400728050E+02  0.00000000000E+00 0.  1.
         11    1    3    3    0    0  0.25215684797E+02 -0.78554067679E+01 -0.22159225240E+01  0.26503744795E+02  0.51100000000E-03 0. -1.
        -11    1    3    3    0    0  0.12790385939E+02 -0.11205585250E+02 -0.51975719579E+01  0.17781278576E+02  0.51100000000E-03 0.  1.
         12    1    3    3    0    0  0.15740479253E+00 -0.11915500582E+01  0.32895557909E+01  0.35022485793E+01  0.00000000000E+00 0. -1.
</event>
<event>
 7    1  0.3837332E-009  0.4778727E+02  0.7816164E-02  0.1312668E+00
        -11   -1    0    0    0    0  0.00000000000E+00  0.00000000000E+00  0.45593999997E+02  0.45594000000E+02  0.51100000000E-03 0. -1.
         11   -1    0    0    0    0 -0.00000000000E+00 -0.00000000000E+00 -0.45593999997E+02  0.45594000000E+02  0.51100000000E-03 0.  1.
    9900012    2    1    2    0    0  0.27735094339E+02  0.33069747416E+02 -0.45585032195E+01  0.47787267244E+02  0.19999982672E+02 0.  0.
        -12    1    1    2    0    0 -0.27735094339E+02 -0.33069747416E+02  0.45585032195E+01  0.43400732756E+02  0.00000000000E+00 0.  1.
         11    1    3    3    0    0  0.76514925628E+01  0.45334152063E+01 -0.55261449256E+00  0.89108122474E+01  0.51100000000E-03 0. -1.
        -11    1    3    3    0    0  0.74624823533E+01  0.45464850898E+00  0.14323452434E+01  0.76122901480E+01  0.51100000000E-03 0.  1.
         12    1    3    3    0    0  0.12621119423E+02  0.28081683701E+02 -0.54382339703E+01  0.31264164849E+02  0.00000000000E+00 0. -1.
</event>
<event>
 7    1  0.3837332E-009  0.4778728E+02  0.7816164E-02  0.1312668E+00
        -11   -1    0    0    0    0  0.00000000000E+00  0.00000000000E+00  0.45593999997E+02  0.45594000000E+02  0.51100000000E-03 0. -1.
         11   -1    0    0    0    0 -0.00000000000E+00 -0.00000000000E+00 -0.45593999997E+02  0.45594000000E+02  0.51100000000E-03 0.  1.
    9900012    2    1    2    0    0 -0.29573329805E+02  0.25577584683E+02  0.18836882715E+02  0.47787276223E+02  0.20000023610E+02 0.  0.
        -12    1    1    2    0    0  0.29573329805E+02 -0.25577584683E+02 -0.18836882715E+02  0.43400723777E+02  0.00000000000E+00 0.  1.
         11    1    3    3    0    0 -0.60250159778E+01 -0.66621926066E-01  0.41287764430E+00  0.60395135752E+01  0.51100000000E-03 0.  1.
        -11    1    3    3    0    0 -0.16833176877E+02  0.14068876974E+02  0.44224380069E+01  0.22379613519E+02  0.51100000000E-03 0. -1.
        -12    1    3    3    0    0 -0.67151369500E+01  0.11575329635E+02  0.14001567064E+02  0.19368149128E+02  0.00000000000E+00 0.  1.
</event>
<event>
 7    1  0.3837332E-009  0.4778725E+02  0.7816164E-02  0.1312668E+00
        -11   -1    0    0    0    0  0.00000000000E+00  0.00000000000E+00  0.45593999997E+02  0.45594000000E+02  0.51100000000E-03 0. -1.
         11   -1    0    0    0    0 -0.00000000000E+00 -0.00000000000E+00 -0.45593999997E+02  0.45594000000E+02  0.51100000000E-03 0.  1.
    9900012    2    1    2    0    0 -0.15835861364E+02 -0.22068842548E+02  0.33849915215E+02  0.47787250276E+02  0.19999905308E+02 0.  0.
        -12    1    1    2    0    0  0.15835861364E+02  0.22068842548E+02 -0.33849915215E+02  0.43400749724E+02  0.00000000000E+00 0.  1.
         11    1    3    3    0    0 -0.51782183440E+01 -0.11883266037E+02  0.86482174402E+01  0.15582606396E+02  0.51100000000E-03 0. -1.
        -11    1    3    3    0    0 -0.39269325137E+01 -0.90149038585E+01  0.53158438790E+01  0.11177991186E+02  0.51100000000E-03 0.  1.
         12    1    3    3    0    0 -0.67307105067E+01 -0.11706726529E+01  0.19885853895E+02  0.21026652694E+02  0.00000000000E+00 0. -1.
</event>
<event>
 7    1  0.3837332E-009  0.4778728E+02  0.7816164E-02  0.1312668E+00
        -11   -1    0    0    0    0  0.00000000000E+00  0.00000000000E+00  0.45593999997E+02  0.45594000000E+02  0.51100000000E-03 0. -1.
         11   -1    0    0    0    0 -0.00000000000E+00 -0.00000000000E+00 -0.45593999997E+02  0.45594000000E+02  0.51100000000E-03 0.  1.
    9900012    2    1    2    0    0 -0.28630583827E+02  0.67985521029E+01  0.31901289674E+02  0.47787275077E+02  0.20000018386E+02 0.  0.
        -12    1    1    2    0    0  0.28630583827E+02 -0.67985521029E+01 -0.31901289674E+02  0.43400724923E+02  0.00000000000E+00 0.  1.
         11    1    3    3    0    0 -0.18230451854E+02  0.75409066782E+01  0.98940462874E+01  0.22070496155E+02  0.51100000000E-03 0. -1.
        -11    1    3    3    0    0 -0.41339926368E+01 -0.23958412873E+01  0.30162049827E+01  0.56504374480E+01  0.51100000000E-03 0.  1.
        -12    1    3    3    0    0 -0.62661393364E+01  0.16534867120E+01  0.18991038404E+02  0.20066341474E+02  0.00000000000E+00 0.  1.
</event>
<event>
 7    1  0.3837332E-009  0.4778727E+02  0.7816164E-02  0.1312668E+00
        -11   -1    0    0    0    0  0.00000000000E+00  0.00000000000E+00  0.45593999997E+02  0.45594000000E+02  0.51100000000E-03 0.  1.
         11   -1    0    0    0    0 -0.00000000000E+00 -0.00000000000E+00 -0.45593999997E+02  0.45594000000E+02  0.51100000000E-03 0. -1.
    9900012    2    1    2    0    0 -0.22382546495E+02 -0.92551629575E+01 -0.36013703654E+02  0.47787270976E+02  0.19999999688E+02 0.  0.
        -12    1    1    2    0    0  0.22382546495E+02  0.92551629575E+01  0.36013703654E+02  0.43400729024E+02  0.00000000000E+00 0.  1.
         11    1    3    3    0    0 -0.20158696200E+01  0.16022444029E+01 -0.55309363998E+01  0.61009978832E+01  0.51100000000E-03 0. -1.
        -11    1    3    3    0    0  0.22823490631E+01 -0.11808416559E+01 -0.96105386191E-01  0.25715249889E+01  0.51100000000E-03 0.  1.
         12    1    3    3    0    0 -0.22649025938E+02 -0.96765657045E+01 -0.30386661868E+02  0.39114748104E+02  0.00000000000E+00 0. -1.
</event>
<event>
 7    1  0.3837332E-009  0.4778727E+02  0.7816164E-02  0.1312668E+00
        -11   -1    0    0    0    0  0.00000000000E+00  0.00000000000E+00  0.45593999997E+02  0.45594000000E+02  0.51100000000E-03 0. -1.
         11   -1    0    0    0    0 -0.00000000000E+00 -0.00000000000E+00 -0.45593999997E+02  0.45594000000E+02  0.51100000000E-03 0.  1.
    9900012    2    1    2    0    0  0.43045947029E+02 -0.51547521898E+01 -0.20244099724E+01  0.47787271187E+02  0.20000000651E+02 0.  0.
        -12    1    1    2    0    0 -0.43045947029E+02  0.51547521898E+01  0.20244099724E+01  0.43400728813E+02  0.00000000000E+00 0.  1.
         11    1    3    3    0    0  0.15433988498E+02  0.10768963974E+01 -0.16215387797E+00  0.15472362487E+02  0.51100000000E-03 0. -1.
        -11    1    3    3    0    0  0.20919102085E+01  0.18577177518E+01  0.40268837443E+01  0.49033658355E+01  0.51100000000E-03 0.  1.
         12    1    3    3    0    0  0.25520048323E+02 -0.80893663390E+01 -0.58891398387E+01  0.27411542864E+02  0.00000000000E+00 0. -1.
</event>
<event>
 7    1  0.3837332E-009  0.4778727E+02  0.7816164E-02  0.1312668E+00
        -11   -1    0    0    0    0  0.00000000000E+00  0.00000000000E+00  0.45593999997E+02  0.45594000000E+02  0.51100000000E-03 0.  1.
         11   -1    0    0    0    0 -0.00000000000E+00 -0.00000000000E+00 -0.45593999997E+02  0.45594000000E+02  0.51100000000E-03 0. -1.
    9900012    2    1    2    0    0 -0.22084968068E+02  0.15955338792E+02 -0.33783203291E+02  0.47787268726E+02  0.19999989428E+02 0.  0.
        -12    1    1    2    0    0  0.22084968068E+02 -0.15955338792E+02  0.33783203291E+02  0.43400731274E+02  0.00000000000E+00 0.  1.
         11    1    3    3    0    0 -0.47999698911E+01  0.54252692076E+01 -0.91248285825E+01  0.11650568821E+02  0.51100000000E-03 0. -1.
        -11    1    3    3    0    0 -0.14671973136E+02  0.28891060739E+00 -0.89021244179E+01  0.17163859836E+02  0.51100000000E-03 0.  1.
        -12    1    3    3    0    0 -0.26130250405E+01  0.10241158977E+02 -0.15756250291E+02  0.18972840069E+02  0.00000000000E+00 0.  1.
</event>
<event>
 7    1  0.3837332E-009  0.4778727E+02  0.7816164E-02  0.1312668E+00
        -11   -1    0    0    0    0  0.00000000000E+00  0.00000000000E+00  0.45593999997E+02  0.45594000000E+02  0.51100000000E-03 0. -1.
         11   -1    0    0    0    0 -0.00000000000E+00 -0.00000000000E+00 -0.45593999997E+02  0.45594000000E+02  0.51100000000E-03 0.  1.
    9900012    2    1    2    0    0  0.15064639761E+02  0.24655324925E+02  0.32385100862E+02  0.47787272170E+02  0.20000005133E+02 0.  0.
        -12    1    1    2    0    0 -0.15064639761E+02 -0.24655324925E+02 -0.32385100862E+02  0.43400727830E+02  0.00000000000E+00 0.  1.
         11    1    3    3    0    0  0.12655493958E+02  0.15794657357E+02  0.31112865093E+02  0.37116614917E+02  0.51100000000E-03 0. -1.
        -11    1    3    3    0    0  0.29073736563E+01  0.20660416448E+01  0.14630708501E+01  0.38551168892E+01  0.51100000000E-03 0.  1.
        -12    1    3    3    0    0 -0.49822785298E+00  0.67946259230E+01 -0.19083508058E+00  0.68155403641E+01  0.00000000000E+00 0.  1.
</event>
<event>
 7    1  0.3837332E-009  0.4778727E+02  0.7816164E-02  0.1312668E+00
        -11   -1    0    0    0    0  0.00000000000E+00  0.00000000000E+00  0.45593999997E+02  0.45594000000E+02  0.51100000000E-03 0.  1.
         11   -1    0    0    0    0 -0.00000000000E+00 -0.00000000000E+00 -0.45593999997E+02  0.45594000000E+02  0.51100000000E-03 0. -1.
    9900012    2    1    2    0    0  0.30402890364E+02  0.92811528955E+00 -0.30958454276E+02  0.47787273835E+02  0.20000012723E+02 0.  0.
        -12    1    1    2    0    0 -0.30402890364E+02 -0.92811528955E+00  0.30958454276E+02  0.43400726165E+02  0.00000000000E+00 0.  1.
         11    1    3    3    0    0 -0.12254731648E+01 -0.10653821202E+01  0.78448567880E+00  0.18033972333E+01  0.51100000000E-03 0. -1.
        -11    1    3    3    0    0  0.28655739358E+01  0.31295572943E+01 -0.61163217313E+01  0.74441275259E+01  0.51100000000E-03 0.  1.
         12    1    3    3    0    0  0.28762789593E+02 -0.11360598845E+01 -0.25626618224E+02  0.38539749076E+02  0.00000000000E+00 0. -1.
</event>
<event>
 7    1  0.3837332E-009  0.4778726E+02  0.7816164E-02  0.1312668E+00
        -11   -1    0    0    0    0  0.00000000000E+00  0.00000000000E+00  0.45593999997E+02  0.45594000000E+02  0.51100000000E-03 0. -1.
         11   -1    0    0    0    0 -0.00000000000E+00 -0.00000000000E+00 -0.45593999997E+02  0.45594000000E+02  0.51100000000E-03 0.  1.
    9900012    2    1    2    0    0 -0.38989553732E+02  0.19060396705E+02 -0.37492023779E+00  0.47787255905E+02  0.19999930974E+02 0.  0.
        -12    1    1    2    0    0  0.38989553732E+02 -0.19060396705E+02  0.37492023779E+00  0.43400744095E+02  0.00000000000E+00 0.  1.
         11    1    3    3    0    0 -0.18451090600E+02  0.15334790148E+02  0.66801104342E-02  0.23991635587E+02  0.51100000000E-03 0.  1.
        -11    1    3    3    0    0 -0.15356737513E+02  0.50622673095E+01 -0.47879730295E+01  0.16863588686E+02  0.51100000000E-03 0. -1.
        -12    1    3    3    0    0 -0.51817256183E+01 -0.13366607527E+01  0.44063726813E+01  0.69320316328E+01  0.00000000000E+00 0.  1.
</event>
<event>
 7    1  0.3837332E-009  0.4778727E+02  0.7816164E-02  0.1312668E+00
        -11   -1    0    0    0    0  0.00000000000E+00  0.00000000000E+00  0.45593999997E+02  0.45594000000E+02  0.51100000000E-03 0.  1.
         11   -1    0    0    0    0 -0.00000000000E+00 -0.00000000000E+00 -0.45593999997E+02  0.45594000000E+02  0.51100000000E-03 0. -1.
    9900012    2    1    2    0    0 -0.80866468050E+01 -0.28999600351E+02 -0.31261041480E+02  0.47787269690E+02  0.19999993823E+02 0.  0.
        -12    1    1    2    0    0  0.80866468050E+01  0.28999600351E+02  0.31261041480E+02  0.43400730310E+02  0.00000000000E+00 0.  1.
         11    1    3    3    0    0  0.44446051391E+01 -0.55286527087E+01 -0.32733808443E+01  0.78125244338E+01  0.51100000000E-03 0. -1.
        -11    1    3    3    0    0 -0.15653803733E+01 -0.40517296730E+01 -0.20498405042E+00  0.43484419943E+01  0.51100000000E-03 0.  1.
         12    1    3    3    0    0 -0.10965871571E+02 -0.19419217969E+02 -0.27782676585E+02  0.35626303262E+02  0.00000000000E+00 0. -1.
</event>
<event>
 7    1  0.3837332E-009  0.4778727E+02  0.7816164E-02  0.1312668E+00
        -11   -1    0    0    0    0  0.00000000000E+00  0.00000000000E+00  0.45593999997E+02  0.45594000000E+02  0.51100000000E-03 0.  1.
         11   -1    0    0    0    0 -0.00000000000E+00 -0.00000000000E+00 -0.45593999997E+02  0.45594000000E+02  0.51100000000E-03 0. -1.
    9900012    2    1    2    0    0 -0.42373867346E+02 -0.70789752161E+01 -0.61617254042E+01  0.47787269776E+02  0.19999994219E+02 0.  0.
        -12    1    1    2    0    0  0.42373867346E+02  0.70789752161E+01  0.61617254042E+01  0.43400730224E+02  0.00000000000E+00 0.  1.
         11    1    3    3    0    0 -0.30471151676E+02  0.37249616796E+01 -0.57073981710E+01  0.31224042309E+02  0.51100000000E-03 0.  1.
        -11    1    3    3    0    0 -0.53606642745E+01 -0.27498027867E+01  0.92594209718E+00  0.60955316305E+01  0.51100000000E-03 0. -1.
        -12    1    3    3    0    0 -0.65420513955E+01 -0.80541341090E+01 -0.13802693304E+01  0.10467695837E+02  0.00000000000E+00 0.  1.
</event>
<event>
 7    1  0.3837332E-009  0.4778727E+02  0.7816164E-02  0.1312668E+00
        -11   -1    0    0    0    0  0.00000000000E+00  0.00000000000E+00  0.45593999997E+02  0.45594000000E+02  0.51100000000E-03 0. -1.
         11   -1    0    0    0    0 -0.00000000000E+00 -0.00000000000E+00 -0.45593999997E+02  0.45594000000E+02  0.51100000000E-03 0.  1.
    9900012    2    1    2    0    0 -0.81953382275E+01  0.12821831477E+02  0.40645547824E+02  0.47787268566E+02  0.19999988701E+02 0.  0.
        -12    1    1    2    0    0  0.81953382275E+01 -0.12821831477E+02 -0.40645547824E+02  0.43400731434E+02  0.00000000000E+00 0.  1.
         11    1    3    3    0    0 -0.81752921403E+01  0.51286711832E+01  0.12971343284E+02  0.16167696698E+02  0.51100000000E-03 0. -1.
        -11    1    3    3    0    0  0.14863132929E+01  0.47894309906E+00  0.22641590857E+02  0.22695377294E+02  0.51100000000E-03 0.  1.
         12    1    3    3    0    0 -0.15063593801E+01  0.72142171948E+01  0.50326136828E+01  0.89241945741E+01  0.00000000000E+00 0. -1.
</event>
<event>
 7    1  0.3837332E-009  0.4778727E+02  0.7816164E-02  0.1312668E+00
        -11   -1    0    0    0    0  0.00000000000E+00  0.00000000000E+00  0.45593999997E+02  0.45594000000E+02  0.51100000000E-03 0. -1.
         11   -1    0    0    0    0 -0.00000000000E+00 -0.00000000000E+00 -0.45593999997E+02  0.45594000000E+02  0.51100000000E-03 0.  1.
    9900012    2    1    2    0    0 -0.77346105428E+01 -0.27654292037E+02  0.32542885190E+02  0.47787269075E+02  0.19999991021E+02 0.  0.
        -12    1    1    2    0    0  0.77346105428E+01  0.27654292037E+02 -0.32542885190E+02  0.43400730925E+02  0.00000000000E+00 0.  1.
         11    1    3    3    0    0 -0.56535869460E+01 -0.15552565522E+02  0.23886751150E+02  0.29058943897E+02  0.51100000000E-03 0. -1.
        -11    1    3    3    0    0 -0.64841027057E+01 -0.62510261047E+01  0.64595647133E+01  0.11083541483E+02  0.51100000000E-03 0.  1.
         12    1    3    3    0    0  0.44030791089E+01 -0.58507004106E+01  0.21965693268E+01  0.76447836948E+01  0.00000000000E+00 0. -1.
</event>
<event>
 7    1  0.3837332E-009  0.4778727E+02  0.7816164E-02  0.1312668E+00
        -11   -1    0    0    0    0  0.00000000000E+00  0.00000000000E+00  0.45593999997E+02  0.45594000000E+02  0.51100000000E-03 0. -1.
         11   -1    0    0    0    0 -0.00000000000E+00 -0.00000000000E+00 -0.45593999997E+02  0.45594000000E+02  0.51100000000E-03 0.  1.
    9900012    2    1    2    0    0  0.44335584038E+01  0.33775275508E+02  0.26892339149E+02  0.47787267510E+02  0.19999983885E+02 0.  0.
        -12    1    1    2    0    0 -0.44335584038E+01 -0.33775275508E+02 -0.26892339149E+02  0.43400732490E+02  0.00000000000E+00 0.  1.
         11    1    3    3    0    0  0.36348939050E+00  0.14377869434E+02  0.11094814152E+01  0.14425193353E+02  0.51100000000E-03 0.  1.
        -11    1    3    3    0    0 -0.15985298659E+01  0.87539256614E+01  0.86428236734E+01  0.12405035813E+02  0.51100000000E-03 0. -1.
         12    1    3    3    0    0  0.56685988792E+01  0.10643480413E+02  0.17140034060E+02  0.20957038344E+02  0.00000000000E+00 0. -1.
</event>
<event>
 7    1  0.3837332E-009  0.4778727E+02  0.7816164E-02  0.1312668E+00
        -11   -1    0    0    0    0  0.00000000000E+00  0.00000000000E+00  0.45593999997E+02  0.45594000000E+02  0.51100000000E-03 0.  1.
         11   -1    0    0    0    0 -0.00000000000E+00 -0.00000000000E+00 -0.45593999997E+02  0.45594000000E+02  0.51100000000E-03 0. -1.
    9900012    2    1    2    0    0  0.12433860999E+01 -0.42161310769E+02 -0.10222578063E+02  0.47787271469E+02  0.20000001936E+02 0.  0.
        -12    1    1    2    0    0 -0.12433860999E+01  0.42161310769E+02  0.10222578063E+02  0.43400728531E+02  0.00000000000E+00 0.  1.
         11    1    3    3    0    0  0.64135724497E+01 -0.28894190640E+02 -0.67141387964E+01  0.30349428732E+02  0.51100000000E-03 0. -1.
        -11    1    3    3    0    0 -0.74460793185E+00 -0.77712191560E+01 -0.61138844678E+01  0.99159402827E+01  0.51100000000E-03 0.  1.
        -12    1    3    3    0    0 -0.44255784180E+01 -0.54959009730E+01  0.26054452009E+01  0.75219024544E+01  0.00000000000E+00 0.  1.
</event>
<event>
 7    1  0.3837332E-009  0.4778727E+02  0.7816164E-02  0.1312668E+00
        -11   -1    0    0    0    0  0.00000000000E+00  0.00000000000E+00  0.45593999997E+02  0.45594000000E+02  0.51100000000E-03 0. -1.
         11   -1    0    0    0    0 -0.00000000000E+00 -0.00000000000E+00 -0.45593999997E+02  0.45594000000E+02  0.51100000000E-03 0.  1.
    9900012    2    1    2    0    0  0.33526139907E+02  0.20313442853E+02  0.18627543784E+02  0.47787269534E+02  0.19999993112E+02 0.  0.
        -12    1    1    2    0    0 -0.33526139907E+02 -0.20313442853E+02 -0.18627543784E+02  0.43400730466E+02  0.00000000000E+00 0.  1.
         11    1    3    3    0    0  0.18035407253E+02  0.85317752720E+01  0.11175848190E+02  0.22868464905E+02  0.51100000000E-03 0. -1.
        -11    1    3    3    0    0  0.16646521085E+02  0.13042795521E+02  0.46761250024E+01  0.21658423870E+02  0.51100000000E-03 0.  1.
         12    1    3    3    0    0 -0.11557884319E+01 -0.12611279398E+01  0.27755705923E+01  0.32603807588E+01  0.00000000000E+00 0. -1.
</event>
<event>
 7    1  0.3837332E-009  0.4778727E+02  0.7816164E-02  0.1312668E+00
        -11   -1    0    0    0    0  0.00000000000E+00  0.00000000000E+00  0.45593999997E+02  0.45594000000E+02  0.51100000000E-03 0.  1.
         11   -1    0    0    0    0 -0.00000000000E+00 -0.00000000000E+00 -0.45593999997E+02  0.45594000000E+02  0.51100000000E-03 0. -1.
    9900012    2    1    2    0    0 -0.21747532972E+02 -0.32950799562E+02 -0.18025346121E+02  0.47787268612E+02  0.19999988912E+02 0.  0.
        -12    1    1    2    0    0  0.21747532972E+02  0.32950799562E+02  0.18025346121E+02  0.43400731388E+02  0.00000000000E+00 0.  1.
         11    1    3    3    0    0 -0.28233800989E+01 -0.13608139267E+02  0.10262906165E+01  0.13935788539E+02  0.51100000000E-03 0. -1.
        -11    1    3    3    0    0 -0.25517605198E+01  0.62704750177E-01 -0.22812662057E+01  0.34233885842E+01  0.51100000000E-03 0.  1.
         12    1    3    3    0    0 -0.16372392353E+02 -0.19405365045E+02 -0.16770370532E+02  0.30428091490E+02  0.00000000000E+00 0. -1.
</event>
<event>
 7    1  0.3837332E-009  0.4778729E+02  0.7816164E-02  0.1312668E+00
        -11   -1    0    0    0    0  0.00000000000E+00  0.00000000000E+00  0.45593999997E+02  0.45594000000E+02  0.51100000000E-03 0.  1.
         11   -1    0    0    0    0 -0.00000000000E+00 -0.00000000000E+00 -0.45593999997E+02  0.45594000000E+02  0.51100000000E-03 0. -1.
    9900012    2    1    2    0    0  0.42794654328E+02  0.71900588023E+01 -0.73636854413E+00  0.47787290061E+02  0.20000086702E+02 0.  0.
        -12    1    1    2    0    0 -0.42794654328E+02 -0.71900588023E+01  0.73636854413E+00  0.43400709939E+02  0.00000000000E+00 0.  1.
         11    1    3    3    0    0  0.16753019002E+02  0.44959277179E+01  0.40392833941E+01  0.17809907982E+02  0.51100000000E-03 0. -1.
        -11    1    3    3    0    0  0.46805322536E+01 -0.43355530110E+01  0.16488478365E+01  0.65896207430E+01  0.51100000000E-03 0.  1.
        -12    1    3    3    0    0  0.21361103072E+02  0.70296840954E+01 -0.64244997747E+01  0.23387761336E+02  0.00000000000E+00 0.  1.
</event>
<event>
 7    1  0.3837332E-009  0.4778727E+02  0.7816164E-02  0.1312668E+00
        -11   -1    0    0    0    0  0.00000000000E+00  0.00000000000E+00  0.45593999997E+02  0.45594000000E+02  0.51100000000E-03 0.  1.
         11   -1    0    0    0    0 -0.00000000000E+00 -0.00000000000E+00 -0.45593999997E+02  0.45594000000E+02  0.51100000000E-03 0. -1.
    9900012    2    1    2    0    0 -0.21427433248E+02  0.32172288942E+02 -0.19734035125E+02  0.47787271738E+02  0.20000003163E+02 0.  0.
        -12    1    1    2    0    0  0.21427433248E+02 -0.32172288942E+02  0.19734035125E+02  0.43400728262E+02  0.00000000000E+00 0.  1.
         11    1    3    3    0    0 -0.92814832829E+01  0.14743877276E+02 -0.91803949613E+01  0.19692828669E+02  0.51100000000E-03 0. -1.
        -11    1    3    3    0    0 -0.12095610056E+02  0.19679098460E+02 -0.11310192216E+02  0.25719470194E+02  0.51100000000E-03 0.  1.
        -12    1    3    3    0    0 -0.50339909795E-01 -0.22506867944E+01  0.75655205274E+00  0.23749728759E+01  0.00000000000E+00 0.  1.
</event>
<event>
 7    1  0.3837332E-009  0.4778727E+02  0.7816164E-02  0.1312668E+00
        -11   -1    0    0    0    0  0.00000000000E+00  0.00000000000E+00  0.45593999997E+02  0.45594000000E+02  0.51100000000E-03 0.  1.
         11   -1    0    0    0    0 -0.00000000000E+00 -0.00000000000E+00 -0.45593999997E+02  0.45594000000E+02  0.51100000000E-03 0. -1.
    9900012    2    1    2    0    0  0.22597986068E+02 -0.71296925559E+01 -0.36360992582E+02  0.47787271068E+02  0.20000000110E+02 0.  0.
        -12    1    1    2    0    0 -0.22597986068E+02  0.71296925559E+01  0.36360992582E+02  0.43400728932E+02  0.00000000000E+00 0.  1.
         11    1    3    3    0    0  0.24693976072E+01 -0.46936111638E+01 -0.10844484009E+02  0.12071898939E+02  0.51100000000E-03 0. -1.
        -11    1    3    3    0    0  0.49916525200E+01  0.13177376954E+01 -0.17368797621E+02  0.18119827774E+02  0.51100000000E-03 0.  1.
         12    1    3    3    0    0  0.15136935941E+02 -0.37538190876E+01 -0.81477109514E+01  0.17595544355E+02  0.00000000000E+00 0. -1.
</event>
<event>
 7    1  0.3837332E-009  0.4778727E+02  0.7816164E-02  0.1312668E+00
        -11   -1    0    0    0    0  0.00000000000E+00  0.00000000000E+00  0.45593999997E+02  0.45594000000E+02  0.51100000000E-03 0.  1.
         11   -1    0    0    0    0 -0.00000000000E+00 -0.00000000000E+00 -0.45593999997E+02  0.45594000000E+02  0.51100000000E-03 0. -1.
    9900012    2    1    2    0    0  0.17460541413E+01 -0.37802773314E+01 -0.43200509820E+02  0.47787271314E+02  0.20000001231E+02 0.  0.
        -12    1    1    2    0    0 -0.17460541413E+01  0.37802773314E+01  0.43200509820E+02  0.43400728686E+02  0.00000000000E+00 0.  1.
         11    1    3    3    0    0 -0.46017977266E+01  0.20907150597E+01 -0.64599080882E+01  0.82023194614E+01  0.51100000000E-03 0. -1.
        -11    1    3    3    0    0  0.14751052344E+01 -0.71858760414E+01 -0.31364780623E+02  0.32211212547E+02  0.51100000000E-03 0.  1.
        -12    1    3    3    0    0  0.48727466335E+01  0.13148836502E+01 -0.53758211081E+01  0.73737393061E+01  0.00000000000E+00 0.  1.
</event>
<event>
 7    1  0.3837332E-009  0.4778725E+02  0.7816164E-02  0.1312668E+00
        -11   -1    0    0    0    0  0.00000000000E+00  0.00000000000E+00  0.45593999997E+02  0.45594000000E+02  0.51100000000E-03 0.  1.
         11   -1    0    0    0    0 -0.00000000000E+00 -0.00000000000E+00 -0.45593999997E+02  0.45594000000E+02  0.51100000000E-03 0. -1.
    9900012    2    1    2    0    0 -0.39368305132E+02  0.13564195723E+02 -0.12238215055E+02  0.47787253897E+02  0.19999921819E+02 0.  0.
        -12    1    1    2    0    0  0.39368305132E+02 -0.13564195723E+02  0.12238215055E+02  0.43400746103E+02  0.00000000000E+00 0.  1.
         11    1    3    3    0    0 -0.28525121500E+01 -0.28470543926E+01  0.39223152521E+00  0.40492456225E+01  0.51100000000E-03 0. -1.
        -11    1    3    3    0    0 -0.43242628671E+01  0.26985773000E+01  0.24266650775E+01  0.56453762007E+01  0.51100000000E-03 0.  1.
         12    1    3    3    0    0 -0.32191530114E+02  0.13712672816E+02 -0.15057111657E+02  0.38092632074E+02  0.00000000000E+00 0. -1.
</event>
<event>
 7    1  0.3837332E-009  0.4778727E+02  0.7816164E-02  0.1312668E+00
        -11   -1    0    0    0    0  0.00000000000E+00  0.00000000000E+00  0.45593999997E+02  0.45594000000E+02  0.51100000000E-03 0.  1.
         11   -1    0    0    0    0 -0.00000000000E+00 -0.00000000000E+00 -0.45593999997E+02  0.45594000000E+02  0.51100000000E-03 0. -1.
    9900012    2    1    2    0    0 -0.15413758683E+02  0.36979015727E+02 -0.16691068689E+02  0.47787270342E+02  0.19999996796E+02 0.  0.
        -12    1    1    2    0    0  0.15413758683E+02 -0.36979015727E+02  0.16691068689E+02  0.43400729658E+02  0.00000000000E+00 0.  1.
         11    1    3    3    0    0 -0.12888067898E+02  0.14987865747E+02 -0.52088270099E+01  0.20441875963E+02  0.51100000000E-03 0. -1.
        -11    1    3    3    0    0 -0.54659715576E+01  0.52647601056E+01 -0.18123335075E+01  0.78025058181E+01  0.51100000000E-03 0.  1.
        -12    1    3    3    0    0  0.29402807726E+01  0.16726389874E+02 -0.96699081717E+01  0.19542888561E+02  0.00000000000E+00 0.  1.
</event>
<event>
 7    1  0.3837332E-009  0.4778727E+02  0.7816164E-02  0.1312668E+00
        -11   -1    0    0    0    0  0.00000000000E+00  0.00000000000E+00  0.45593999997E+02  0.45594000000E+02  0.51100000000E-03 0.  1.
         11   -1    0    0    0    0 -0.00000000000E+00 -0.00000000000E+00 -0.45593999997E+02  0.45594000000E+02  0.51100000000E-03 0. -1.
    9900012    2    1    2    0    0 -0.35133062277E+02  0.23451360670E+02 -0.99662069426E+01  0.47787266561E+02  0.19999979557E+02 0.  0.
        -12    1    1    2    0    0  0.35133062277E+02 -0.23451360670E+02  0.99662069426E+01  0.43400733439E+02  0.00000000000E+00 0.  1.
         11    1    3    3    0    0 -0.14207425270E+02  0.16533314324E+02 -0.50297278076E+01  0.22371847876E+02  0.51100000000E-03 0. -1.
        -11    1    3    3    0    0 -0.19474862974E+01  0.23612006002E+01  0.30556453442E+01  0.43249207950E+01  0.51100000000E-03 0.  1.
         12    1    3    3    0    0 -0.18978150710E+02  0.45568457458E+01 -0.79921244792E+01  0.21090497889E+02  0.00000000000E+00 0. -1.
</event>
<event>
 7    1  0.3856169E-009  0.4778727E+02  0.7816164E-02  0.1312668E+00
        -11   -1    0    0    0    0  0.00000000000E+00  0.00000000000E+00  0.45593999997E+02  0.45594000000E+02  0.51100000000E-03 0.  1.
         11   -1    0    0    0    0 -0.00000000000E+00 -0.00000000000E+00 -0.45593999997E+02  0.45594000000E+02  0.51100000000E-03 0. -1.
    9900012    2    1    2    0    0 -0.11549908679E+02 -0.39029059217E+02 -0.15065041947E+02  0.47787270252E+02  0.19999996386E+02 0.  0.
        -12    1    1    2    0    0  0.11549908679E+02  0.39029059217E+02  0.15065041947E+02  0.43400729748E+02  0.00000000000E+00 0.  1.
         11    1    3    3    0    0 -0.16478278690E+01 -0.12342595148E+02  0.58666318223E+00  0.12465920168E+02  0.51100000000E-03 0. -1.
        -11    1    3    3    0    0  0.23425121594E+01 -0.13341790120E+00 -0.54298978045E+00  0.24083192720E+01  0.51100000000E-03 0.  1.
         12    1    3    3    0    0 -0.12244592969E+02 -0.26553046167E+02 -0.15108715348E+02  0.32913030812E+02  0.00000000000E+00 0. -1.
</event>
<event>
 7    1  0.3837332E-009  0.4778727E+02  0.7816164E-02  0.1312668E+00
        -11   -1    0    0    0    0  0.00000000000E+00  0.00000000000E+00  0.45593999997E+02  0.45594000000E+02  0.51100000000E-03 0. -1.
         11   -1    0    0    0    0 -0.00000000000E+00 -0.00000000000E+00 -0.45593999997E+02  0.45594000000E+02  0.51100000000E-03 0.  1.
    9900012    2    1    2    0    0  0.32389011879E+02 -0.15519168780E+02  0.24366586737E+02  0.47787271442E+02  0.20000001814E+02 0.  0.
        -12    1    1    2    0    0 -0.32389011879E+02  0.15519168780E+02 -0.24366586737E+02  0.43400728558E+02  0.00000000000E+00 0.  1.
         11    1    3    3    0    0  0.14125057846E+02 -0.10426385950E+02  0.15952682315E+02  0.23721611590E+02  0.51100000000E-03 0. -1.
        -11    1    3    3    0    0  0.13758552251E+01 -0.19827866935E+01  0.63215764416E+01  0.67665906955E+01  0.51100000000E-03 0.  1.
        -12    1    3    3    0    0  0.16888098808E+02 -0.31099961365E+01  0.20923279808E+01  0.17299069157E+02  0.00000000000E+00 0.  1.
</event>
<event>
 7    1  0.3837332E-009  0.4778727E+02  0.7816164E-02  0.1312668E+00
        -11   -1    0    0    0    0  0.00000000000E+00  0.00000000000E+00  0.45593999997E+02  0.45594000000E+02  0.51100000000E-03 0.  1.
         11   -1    0    0    0    0 -0.00000000000E+00 -0.00000000000E+00 -0.45593999997E+02  0.45594000000E+02  0.51100000000E-03 0. -1.
    9900012    2    1    2    0    0 -0.23534374564E+02  0.12550476014E+01 -0.36444222363E+02  0.47787271040E+02  0.19999999980E+02 0.  0.
        -12    1    1    2    0    0  0.23534374564E+02 -0.12550476014E+01  0.36444222363E+02  0.43400728960E+02  0.00000000000E+00 0.  1.
         11    1    3    3    0    0 -0.68052737684E+01  0.16354603591E+01 -0.16681934446E+02  0.18090699786E+02  0.51100000000E-03 0. -1.
        -11    1    3    3    0    0 -0.14382206318E+02 -0.45066050672E+01 -0.19880972304E+02  0.24948154397E+02  0.51100000000E-03 0.  1.
         12    1    3    3    0    0 -0.23468944778E+01  0.41261923095E+01  0.11868438639E+00  0.47484168570E+01  0.00000000000E+00 0. -1.
</event>
<event>
 7    1  0.3837332E-009  0.4778728E+02  0.7816164E-02  0.1312668E+00
        -11   -1    0    0    0    0  0.00000000000E+00  0.00000000000E+00  0.45593999997E+02  0.45594000000E+02  0.51100000000E-03 0.  1.
         11   -1    0    0    0    0 -0.00000000000E+00 -0.00000000000E+00 -0.45593999997E+02  0.45594000000E+02  0.51100000000E-03 0. -1.
    9900012    2    1    2    0    0 -0.19122021172E+02  0.74142833319E+01 -0.38249169686E+02  0.47787282579E+02  0.20000052591E+02 0.  0.
        -12    1    1    2    0    0  0.19122021172E+02 -0.74142833319E+01  0.38249169686E+02  0.43400717421E+02  0.00000000000E+00 0.  1.
         11    1    3    3    0    0  0.74265895687E+00  0.16012534995E+01 -0.22199296206E+01  0.28361316749E+01  0.51100000000E-03 0. -1.
        -11    1    3    3    0    0 -0.44574376338E+00 -0.37655965780E+01 -0.12096954873E+02  0.12677331050E+02  0.51100000000E-03 0.  1.
         12    1    3    3    0    0 -0.19418936365E+02  0.95786264104E+01 -0.23932285192E+02  0.32273819854E+02  0.00000000000E+00 0. -1.
</event>
<event>
 7    1  0.3837332E-009  0.4778727E+02  0.7816164E-02  0.1312668E+00
        -11   -1    0    0    0    0  0.00000000000E+00  0.00000000000E+00  0.45593999997E+02  0.45594000000E+02  0.51100000000E-03 0.  1.
         11   -1    0    0    0    0 -0.00000000000E+00 -0.00000000000E+00 -0.45593999997E+02  0.45594000000E+02  0.51100000000E-03 0. -1.
    9900012    2    1    2    0    0 -0.19614249419E+02 -0.19641157301E+02 -0.33363592855E+02  0.47787272258E+02  0.20000005532E+02 0.  0.
        -12    1    1    2    0    0  0.19614249419E+02  0.19641157301E+02  0.33363592855E+02  0.43400727742E+02  0.00000000000E+00 0.  1.
         11    1    3    3    0    0 -0.30114062285E+01 -0.13914255478E+00 -0.22383979416E+01  0.37547774540E+01  0.51100000000E-03 0.  1.
        -11    1    3    3    0    0 -0.65695526911E+01 -0.15788899164E+02 -0.28134294563E+02  0.32923956175E+02  0.51100000000E-03 0. -1.
        -12    1    3    3    0    0 -0.10033290499E+02 -0.37131155823E+01 -0.29909003500E+01  0.11108538629E+02  0.00000000000E+00 0.  1.
</event>
<event>
 7    1  0.3837332E-009  0.4778727E+02  0.7816164E-02  0.1312668E+00
        -11   -1    0    0    0    0  0.00000000000E+00  0.00000000000E+00  0.45593999997E+02  0.45594000000E+02  0.51100000000E-03 0. -1.
         11   -1    0    0    0    0 -0.00000000000E+00 -0.00000000000E+00 -0.45593999997E+02  0.45594000000E+02  0.51100000000E-03 0.  1.
    9900012    2    1    2    0    0  0.15303048957E+02  0.40446665184E+02  0.36752292994E+01  0.47787270256E+02  0.19999996407E+02 0.  0.
        -12    1    1    2    0    0 -0.15303048957E+02 -0.40446665184E+02 -0.36752292994E+01  0.43400729744E+02  0.00000000000E+00 0.  1.
         11    1    3    3    0    0  0.41857012555E+01  0.28243530419E+01  0.65261030510E+01  0.82514899502E+01  0.51100000000E-03 0. -1.
        -11    1    3    3    0    0  0.84808068602E+00  0.78563150746E+01 -0.13155392026E+01  0.80107160139E+01  0.51100000000E-03 0.  1.
         12    1    3    3    0    0  0.10269267015E+02  0.29765997068E+02 -0.15353345489E+01  0.31525064292E+02  0.00000000000E+00 0. -1.
</event>
<event>
 7    1  0.3837332E-009  0.4778727E+02  0.7816164E-02  0.1312668E+00
        -11   -1    0    0    0    0  0.00000000000E+00  0.00000000000E+00  0.45593999997E+02  0.45594000000E+02  0.51100000000E-03 0.  1.
         11   -1    0    0    0    0 -0.00000000000E+00 -0.00000000000E+00 -0.45593999997E+02  0.45594000000E+02  0.51100000000E-03 0. -1.
    9900012    2    1    2    0    0  0.32883971352E+02 -0.26854463473E+02 -0.90058652035E+01  0.47787269726E+02  0.19999993987E+02 0.  0.
        -12    1    1    2    0    0 -0.32883971352E+02  0.26854463473E+02  0.90058652035E+01  0.43400730274E+02  0.00000000000E+00 0.  1.
         11    1    3    3    0    0  0.49413023626E+01 -0.70293958029E+01 -0.79927580548E+01  0.11735120620E+02  0.51100000000E-03 0. -1.
        -11    1    3    3    0    0  0.26568943514E+01 -0.46112496627E+01 -0.36061377284E+01  0.64286033183E+01  0.51100000000E-03 0.  1.
        -12    1    3    3    0    0  0.25285774638E+02 -0.15213818008E+02  0.25930305797E+01  0.29623545787E+02  0.00000000000E+00 0.  1.
</event>
<event>
 7    1  0.3837332E-009  0.4778726E+02  0.7816164E-02  0.1312668E+00
        -11   -1    0    0    0    0  0.00000000000E+00  0.00000000000E+00  0.45593999997E+02  0.45594000000E+02  0.51100000000E-03 0. -1.
         11   -1    0    0    0    0 -0.00000000000E+00 -0.00000000000E+00 -0.45593999997E+02  0.45594000000E+02  0.51100000000E-03 0.  1.
    9900012    2    1    2    0    0  0.37536913822E+02 -0.12813747775E+02 -0.17618510176E+02  0.47787263461E+02  0.19999965422E+02 0.  0.
        -12    1    1    2    0    0 -0.37536913822E+02  0.12813747775E+02  0.17618510176E+02  0.43400736539E+02  0.00000000000E+00 0.  1.
         11    1    3    3    0    0  0.29205241758E+01  0.86883956700E+00 -0.23009613353E+01  0.38182151566E+01  0.51100000000E-03 0. -1.
        -11    1    3    3    0    0  0.29573144060E+02 -0.16846909397E+02 -0.88264249158E+01  0.35160986660E+02  0.51100000000E-03 0.  1.
        -12    1    3    3    0    0  0.50432455869E+01  0.31643220558E+01 -0.64911239251E+01  0.88080616445E+01  0.00000000000E+00 0.  1.
</event>
<event>
 7    1  0.3837332E-009  0.4778733E+02  0.7816164E-02  0.1312667E+00
        -11   -1    0    0    0    0  0.00000000000E+00  0.00000000000E+00  0.45593999997E+02  0.45594000000E+02  0.51100000000E-03 0.  1.
         11   -1    0    0    0    0 -0.00000000000E+00 -0.00000000000E+00 -0.45593999997E+02  0.45594000000E+02  0.51100000000E-03 0. -1.
    9900012    2    1    2    0    0  0.23214541450E+02 -0.31740526441E+02  0.18364148893E+02  0.47787332747E+02  0.20000281323E+02 0.  0.
        -12    1    1    2    0    0 -0.23214541450E+02  0.31740526441E+02 -0.18364148893E+02  0.43400667253E+02  0.00000000000E+00 0.  1.
         11    1    3    3    0    0  0.22443060577E+02 -0.21796451720E+02  0.94447918041E+01  0.32679968913E+02  0.51100000000E-03 0. -1.
        -11    1    3    3    0    0  0.37416599433E+01 -0.70207826848E+01  0.50672927584E+01  0.94323308253E+01  0.51100000000E-03 0.  1.
        -12    1    3    3    0    0 -0.29701790709E+01 -0.29232920361E+01  0.38520643301E+01  0.56750330083E+01  0.00000000000E+00 0.  1.
</event>
<event>
 7    1  0.3837332E-009  0.4778727E+02  0.7816164E-02  0.1312668E+00
        -11   -1    0    0    0    0  0.00000000000E+00  0.00000000000E+00  0.45593999997E+02  0.45594000000E+02  0.51100000000E-03 0.  1.
         11   -1    0    0    0    0 -0.00000000000E+00 -0.00000000000E+00 -0.45593999997E+02  0.45594000000E+02  0.51100000000E-03 0. -1.
    9900012    2    1    2    0    0 -0.34593637343E+01 -0.42790874350E+02  0.63715821221E+01  0.47787272082E+02  0.20000004731E+02 0.  0.
        -12    1    1    2    0    0  0.34593637343E+01  0.42790874350E+02 -0.63715821221E+01  0.43400727918E+02  0.00000000000E+00 0.  1.
         11    1    3    3    0    0 -0.20866768787E+01 -0.72182289529E+01 -0.81128142987E+00  0.75574617056E+01  0.51100000000E-03 0. -1.
        -11    1    3    3    0    0  0.16931271860E+01 -0.34337655586E+02  0.10088471589E+02  0.35829017989E+02  0.51100000000E-03 0.  1.
        -12    1    3    3    0    0 -0.30658140416E+01 -0.12349898110E+01 -0.29056080371E+01  0.44007923873E+01  0.00000000000E+00 0.  1.
</event>
<event>
 7    1  0.3837332E-009  0.4778729E+02  0.7816164E-02  0.1312668E+00
        -11   -1    0    0    0    0  0.00000000000E+00  0.00000000000E+00  0.45593999997E+02  0.45594000000E+02  0.51100000000E-03 0. -1.
         11   -1    0    0    0    0 -0.00000000000E+00 -0.00000000000E+00 -0.45593999997E+02  0.45594000000E+02  0.51100000000E-03 0.  1.
    9900012    2    1    2    0    0 -0.64792889320E+01  0.15837378020E+02  0.39885061540E+02  0.47787287314E+02  0.20000074181E+02 0.  0.
        -12    1    1    2    0    0  0.64792889320E+01 -0.15837378020E+02 -0.39885061540E+02  0.43400712686E+02  0.00000000000E+00 0.  1.
         11    1    3    3    0    0  0.23067953865E+01  0.44132552176E+01  0.15217801618E+02  0.16011858510E+02  0.51100000000E-03 0. -1.
        -11    1    3    3    0    0 -0.66658719816E+00  0.79174960668E+01  0.32146416434E+01  0.85711728262E+01  0.51100000000E-03 0.  1.
         12    1    3    3    0    0 -0.81194971204E+01  0.35066267353E+01  0.21452618278E+02  0.23204255979E+02  0.00000000000E+00 0. -1.
</event>
<event>
 7    1  0.3837332E-009  0.4778727E+02  0.7816164E-02  0.1312668E+00
        -11   -1    0    0    0    0  0.00000000000E+00  0.00000000000E+00  0.45593999997E+02  0.45594000000E+02  0.51100000000E-03 0.  1.
         11   -1    0    0    0    0 -0.00000000000E+00 -0.00000000000E+00 -0.45593999997E+02  0.45594000000E+02  0.51100000000E-03 0. -1.
    9900012    2    1    2    0    0 -0.21192843162E+02 -0.37797615218E+02  0.24139037863E+01  0.47787271332E+02  0.20000001310E+02 0.  0.
        -12    1    1    2    0    0  0.21192843162E+02  0.37797615218E+02 -0.24139037863E+01  0.43400728668E+02  0.00000000000E+00 0.  1.
         11    1    3    3    0    0 -0.14935722154E+01 -0.15982207092E+02 -0.13085876195E+01  0.16105095569E+02  0.51100000000E-03 0. -1.
        -11    1    3    3    0    0 -0.98607171213E+01 -0.16188782560E+02 -0.18628937484E+01  0.19046805409E+02  0.51100000000E-03 0.  1.
        -12    1    3    3    0    0 -0.98385538254E+01 -0.56266255668E+01  0.55853851542E+01  0.12635370353E+02  0.00000000000E+00 0.  1.
</event>
<event>
 7    1  0.3837332E-009  0.4778726E+02  0.7816164E-02  0.1312668E+00
        -11   -1    0    0    0    0  0.00000000000E+00  0.00000000000E+00  0.45593999997E+02  0.45594000000E+02  0.51100000000E-03 0.  1.
         11   -1    0    0    0    0 -0.00000000000E+00 -0.00000000000E+00 -0.45593999997E+02  0.45594000000E+02  0.51100000000E-03 0. -1.
    9900012    2    1    2    0    0  0.24798759810E+02 -0.17283136004E+02 -0.31143838448E+02  0.47787263238E+02  0.19999964407E+02 0.  0.
        -12    1    1    2    0    0 -0.24798759810E+02  0.17283136004E+02  0.31143838448E+02  0.43400736762E+02  0.00000000000E+00 0.  1.
         11    1    3    3    0    0  0.47859064743E+01 -0.22015573723E+00 -0.13145296459E+02  0.13991146793E+02  0.51100000000E-03 0. -1.
        -11    1    3    3    0    0  0.10187742127E+02 -0.16418544386E+01 -0.65843034621E+01  0.12240867126E+02  0.51100000000E-03 0.  1.
        -12    1    3    3    0    0  0.98251112078E+01 -0.15421125828E+02 -0.11414238527E+02  0.21555249319E+02  0.00000000000E+00 0.  1.
</event>
<event>
 7    1  0.3837332E-009  0.4778727E+02  0.7816164E-02  0.1312668E+00
        -11   -1    0    0    0    0  0.00000000000E+00  0.00000000000E+00  0.45593999997E+02  0.45594000000E+02  0.51100000000E-03 0.  1.
         11   -1    0    0    0    0 -0.00000000000E+00 -0.00000000000E+00 -0.45593999997E+02  0.45594000000E+02  0.51100000000E-03 0. -1.
    9900012    2    1    2    0    0  0.30085042511E+02 -0.20648462074E+02 -0.23497972737E+02  0.47787268535E+02  0.19999988561E+02 0.  0.
        -12    1    1    2    0    0 -0.30085042511E+02  0.20648462074E+02  0.23497972737E+02  0.43400731465E+02  0.00000000000E+00 0.  1.
         11    1    3    3    0    0  0.11958329331E+02 -0.65287414548E+01 -0.98322555569E+01  0.16801766424E+02  0.51100000000E-03 0. -1.
        -11    1    3    3    0    0  0.17069558581E+02 -0.39016247711E+01 -0.79534792672E+01  0.19231493409E+02  0.51100000000E-03 0.  1.
         12    1    3    3    0    0  0.10571545985E+01 -0.10218095848E+02 -0.57122379134E+01  0.11754008703E+02  0.00000000000E+00 0. -1.
</event>
<event>
 7    1  0.3837332E-009  0.4778727E+02  0.7816164E-02  0.1312668E+00
        -11   -1    0    0    0    0  0.00000000000E+00  0.00000000000E+00  0.45593999997E+02  0.45594000000E+02  0.51100000000E-03 0.  1.
         11   -1    0    0    0    0 -0.00000000000E+00 -0.00000000000E+00 -0.45593999997E+02  0.45594000000E+02  0.51100000000E-03 0. -1.
    9900012    2    1    2    0    0  0.98363148769E+01  0.41611050162E+02 -0.74425020290E+01  0.47787269334E+02  0.19999992200E+02 0.  0.
        -12    1    1    2    0    0 -0.98363148769E+01 -0.41611050162E+02  0.74425020290E+01  0.43400730666E+02  0.00000000000E+00 0.  1.
         11    1    3    3    0    0  0.79028649795E+01  0.17794459162E+02 -0.36115795660E+01  0.19802564454E+02  0.51100000000E-03 0. -1.
        -11    1    3    3    0    0  0.64608425373E+01  0.15270245606E+02 -0.67201890159E+01  0.17890886726E+02  0.51100000000E-03 0.  1.
         12    1    3    3    0    0 -0.45273926400E+01  0.85463453936E+01  0.28892665529E+01  0.10093818154E+02  0.00000000000E+00 0. -1.
</event>
<event>
 7    1  0.3837332E-009  0.4778727E+02  0.7816164E-02  0.1312668E+00
        -11   -1    0    0    0    0  0.00000000000E+00  0.00000000000E+00  0.45593999997E+02  0.45594000000E+02  0.51100000000E-03 0.  1.
         11   -1    0    0    0    0 -0.00000000000E+00 -0.00000000000E+00 -0.45593999997E+02  0.45594000000E+02  0.51100000000E-03 0. -1.
    9900012    2    1    2    0    0 -0.10494864031E+02  0.30406116096E+02 -0.29136729172E+02  0.47787273578E+02  0.20000011553E+02 0.  0.
        -12    1    1    2    0    0  0.10494864031E+02 -0.30406116096E+02  0.29136729172E+02  0.43400726422E+02  0.00000000000E+00 0.  1.
         11    1    3    3    0    0 -0.73885106044E+01  0.45509026839E+01 -0.90822968081E+01  0.12561405963E+02  0.51100000000E-03 0. -1.
        -11    1    3    3    0    0  0.30301611865E+01  0.13435918951E+01 -0.67700716135E+00  0.33831132045E+01  0.51100000000E-03 0.  1.
         12    1    3    3    0    0 -0.61365146134E+01  0.24511621517E+02 -0.19377425203E+02  0.31842754411E+02  0.00000000000E+00 0. -1.
</event>
<event>
 7    1  0.3837332E-009  0.4778726E+02  0.7816164E-02  0.1312668E+00
        -11   -1    0    0    0    0  0.00000000000E+00  0.00000000000E+00  0.45593999997E+02  0.45594000000E+02  0.51100000000E-03 0. -1.
         11   -1    0    0    0    0 -0.00000000000E+00 -0.00000000000E+00 -0.45593999997E+02  0.45594000000E+02  0.51100000000E-03 0.  1.
    9900012    2    1    2    0    0  0.34567550922E+02  0.25645581982E+02 -0.55688927522E+01  0.47787262467E+02  0.19999960893E+02 0.  0.
        -12    1    1    2    0    0 -0.34567550922E+02 -0.25645581982E+02  0.55688927522E+01  0.43400737533E+02  0.00000000000E+00 0.  1.
         11    1    3    3    0    0  0.56513916942E+01  0.70202774391E+01  0.45286529162E+01  0.10086189612E+02  0.51100000000E-03 0. -1.
        -11    1    3    3    0    0  0.18301968090E+01  0.38298570168E+01 -0.47630430683E+01  0.63799690173E+01  0.51100000000E-03 0.  1.
        -12    1    3    3    0    0  0.27085962418E+02  0.14795447526E+02 -0.53345026000E+01  0.31321103838E+02  0.00000000000E+00 0.  1.
</event>
<event>
 7    1  0.3837332E-009  0.4778728E+02  0.7816164E-02  0.1312668E+00
        -11   -1    0    0    0    0  0.00000000000E+00  0.00000000000E+00  0.45593999997E+02  0.45594000000E+02  0.51100000000E-03 0.  1.
         11   -1    0    0    0    0 -0.00000000000E+00 -0.00000000000E+00 -0.45593999997E+02  0.45594000000E+02  0.51100000000E-03 0. -1.
    9900012    2    1    2    0    0  0.31335730960E+02  0.27438368121E+02 -0.12199616709E+02  0.47787277336E+02  0.20000028686E+02 0.  0.
        -12    1    1    2    0    0 -0.31335730960E+02 -0.27438368121E+02  0.12199616709E+02  0.43400722664E+02  0.00000000000E+00 0.  1.
         11    1    3    3    0    0  0.10581833826E+02  0.17043239473E+02 -0.52484409085E+01  0.20736281033E+02  0.51100000000E-03 0. -1.
        -11    1    3    3    0    0  0.47695073114E+00  0.51785753351E+01 -0.15935872521E+01  0.54391768764E+01  0.51100000000E-03 0.  1.
         12    1    3    3    0    0  0.20276946403E+02  0.52165533130E+01 -0.53575885485E+01  0.21611819427E+02  0.00000000000E+00 0. -1.
</event>
<event>
 7    1  0.3837332E-009  0.4778727E+02  0.7816164E-02  0.1312668E+00
        -11   -1    0    0    0    0  0.00000000000E+00  0.00000000000E+00  0.45593999997E+02  0.45594000000E+02  0.51100000000E-03 0.  1.
         11   -1    0    0    0    0 -0.00000000000E+00 -0.00000000000E+00 -0.45593999997E+02  0.45594000000E+02  0.51100000000E-03 0. -1.
    9900012    2    1    2    0    0  0.17436666178E+02  0.18013306069E+02 -0.35427483269E+02  0.47787273120E+02  0.20000009464E+02 0.  0.
        -12    1    1    2    0    0 -0.17436666178E+02 -0.18013306069E+02  0.35427483269E+02  0.43400726880E+02  0.00000000000E+00 0.  1.
         11    1    3    3    0    0  0.68759026167E+01  0.82813018285E+01 -0.17672024135E+02  0.20691989611E+02  0.51100000000E-03 0. -1.
        -11    1    3    3    0    0  0.78580681184E+01 -0.60491921758E+00 -0.13423334095E+02  0.15566022623E+02  0.51100000000E-03 0.  1.
        -12    1    3    3    0    0  0.27026954428E+01  0.10336923458E+02 -0.43321250391E+01  0.11529260886E+02  0.00000000000E+00 0.  1.
</event>
<event>
 7    1  0.3837332E-009  0.4778731E+02  0.7816164E-02  0.1312668E+00
        -11   -1    0    0    0    0  0.00000000000E+00  0.00000000000E+00  0.45593999997E+02  0.45594000000E+02  0.51100000000E-03 0.  1.
         11   -1    0    0    0    0 -0.00000000000E+00 -0.00000000000E+00 -0.45593999997E+02  0.45594000000E+02  0.51100000000E-03 0. -1.
    9900012    2    1    2    0    0 -0.16266355497E+02  0.27683837848E+02 -0.29199841474E+02  0.47787309438E+02  0.20000175052E+02 0.  0.
        -12    1    1    2    0    0  0.16266355497E+02 -0.27683837848E+02  0.29199841474E+02  0.43400690562E+02  0.00000000000E+00 0.  1.
         11    1    3    3    0    0 -0.12696900308E+02  0.55940846262E+01 -0.10845247850E+02  0.17610350974E+02  0.51100000000E-03 0. -1.
        -11    1    3    3    0    0 -0.29653389590E+01  0.16166455668E+01 -0.17155850004E+01  0.37881407293E+01  0.51100000000E-03 0.  1.
        -12    1    3    3    0    0 -0.60411622999E+00  0.20473107655E+02 -0.16639008624E+02  0.26388817735E+02  0.00000000000E+00 0.  1.
</event>
<event>
 7    1  0.3837332E-009  0.4778728E+02  0.7816164E-02  0.1312668E+00
        -11   -1    0    0    0    0  0.00000000000E+00  0.00000000000E+00  0.45593999997E+02  0.45594000000E+02  0.51100000000E-03 0.  1.
         11   -1    0    0    0    0 -0.00000000000E+00 -0.00000000000E+00 -0.45593999997E+02  0.45594000000E+02  0.51100000000E-03 0. -1.
    9900012    2    1    2    0    0  0.14063602744E+02  0.36887752144E+02 -0.18031406856E+02  0.47787276348E+02  0.20000024179E+02 0.  0.
        -12    1    1    2    0    0 -0.14063602744E+02 -0.36887752144E+02  0.18031406856E+02  0.43400723652E+02  0.00000000000E+00 0.  1.
         11    1    3    3    0    0  0.11886125027E+02  0.23868652918E+02 -0.15930440209E+02  0.31060770850E+02  0.51100000000E-03 0. -1.
        -11    1    3    3    0    0  0.53554918676E+01  0.12182482838E+02 -0.16656323844E+01  0.13411506729E+02  0.51100000000E-03 0.  1.
         12    1    3    3    0    0 -0.31780141500E+01  0.83661638764E+00 -0.43533426250E+00  0.33149987689E+01  0.00000000000E+00 0. -1.
</event>
<event>
 7    1  0.3837332E-009  0.4778727E+02  0.7816164E-02  0.1312668E+00
        -11   -1    0    0    0    0  0.00000000000E+00  0.00000000000E+00  0.45593999997E+02  0.45594000000E+02  0.51100000000E-03 0.  1.
         11   -1    0    0    0    0 -0.00000000000E+00 -0.00000000000E+00 -0.45593999997E+02  0.45594000000E+02  0.51100000000E-03 0. -1.
    9900012    2    1    2    0    0 -0.19534420797E+02 -0.30468218887E+02 -0.23952394334E+02  0.47787272444E+02  0.20000006383E+02 0.  0.
        -12    1    1    2    0    0  0.19534420797E+02  0.30468218887E+02  0.23952394334E+02  0.43400727556E+02  0.00000000000E+00 0.  1.
         11    1    3    3    0    0 -0.86569953208E+01 -0.98440800467E+01 -0.47053925607E+01  0.13928036450E+02  0.51100000000E-03 0. -1.
        -11    1    3    3    0    0 -0.69586309683E+00 -0.77673416303E+01  0.93461320364E+00  0.78542551240E+01  0.51100000000E-03 0.  1.
        -12    1    3    3    0    0 -0.10181562380E+02 -0.12856797210E+02 -0.20181614977E+02  0.26004980870E+02  0.00000000000E+00 0.  1.
</event>
<event>
 7    1  0.3837332E-009  0.4778727E+02  0.7816164E-02  0.1312668E+00
        -11   -1    0    0    0    0  0.00000000000E+00  0.00000000000E+00  0.45593999997E+02  0.45594000000E+02  0.51100000000E-03 0.  1.
         11   -1    0    0    0    0 -0.00000000000E+00 -0.00000000000E+00 -0.45593999997E+02  0.45594000000E+02  0.51100000000E-03 0. -1.
    9900012    2    1    2    0    0  0.25610872232E+02  0.34828608393E+02  0.38307339427E+01  0.47787271185E+02  0.20000000641E+02 0.  0.
        -12    1    1    2    0    0 -0.25610872232E+02 -0.34828608393E+02 -0.38307339427E+01  0.43400728815E+02  0.00000000000E+00 0.  1.
         11    1    3    3    0    0  0.14315151358E+02  0.21908894775E+02 -0.35767396750E+00  0.26173481992E+02  0.51100000000E-03 0. -1.
        -11    1    3    3    0    0  0.84177000286E+01  0.79706326618E+01 -0.34250308310E+01  0.12087989711E+02  0.51100000000E-03 0.  1.
        -12    1    3    3    0    0  0.28780208460E+01  0.49490809568E+01  0.76134387412E+01  0.95257994821E+01  0.00000000000E+00 0.  1.
</event>
<event>
 7    1  0.3837332E-009  0.4778728E+02  0.7816164E-02  0.1312668E+00
        -11   -1    0    0    0    0  0.00000000000E+00  0.00000000000E+00  0.45593999997E+02  0.45594000000E+02  0.51100000000E-03 0.  1.
         11   -1    0    0    0    0 -0.00000000000E+00 -0.00000000000E+00 -0.45593999997E+02  0.45594000000E+02  0.51100000000E-03 0. -1.
    9900012    2    1    2    0    0 -0.18669472749E+02 -0.27780143514E+02 -0.27628549719E+02  0.47787281735E+02  0.20000048741E+02 0.  0.
        -12    1    1    2    0    0  0.18669472749E+02  0.27780143514E+02  0.27628549719E+02  0.43400718265E+02  0.00000000000E+00 0.  1.
         11    1    3    3    0    0 -0.10572158347E+02 -0.16361124521E+02 -0.13475928200E+02  0.23686653812E+02  0.51100000000E-03 0. -1.
        -11    1    3    3    0    0 -0.10279966997E+02 -0.33787689424E+01 -0.56923417069E+01  0.12226878400E+02  0.51100000000E-03 0.  1.
         12    1    3    3    0    0  0.21826525953E+01 -0.80402500504E+01 -0.84602798123E+01  0.11873749523E+02  0.00000000000E+00 0. -1.
</event>
<event>
 7    1  0.3837332E-009  0.4778727E+02  0.7816164E-02  0.1312668E+00
        -11   -1    0    0    0    0  0.00000000000E+00  0.00000000000E+00  0.45593999997E+02  0.45594000000E+02  0.51100000000E-03 0.  1.
         11   -1    0    0    0    0 -0.00000000000E+00 -0.00000000000E+00 -0.45593999997E+02  0.45594000000E+02  0.51100000000E-03 0. -1.
    9900012    2    1    2    0    0  0.37778973512E+02 -0.21295011123E+02  0.17014622657E+01  0.47787270603E+02  0.19999997986E+02 0.  0.
        -12    1    1    2    0    0 -0.37778973512E+02  0.21295011123E+02 -0.17014622657E+01  0.43400729397E+02  0.00000000000E+00 0.  1.
         11    1    3    3    0    0  0.24975225737E+01 -0.10838803662E+01  0.39360658522E+01  0.47859200065E+01  0.51100000000E-03 0.  1.
        -11    1    3    3    0    0  0.19443483912E+02 -0.18595920174E+02  0.14100003710E+00  0.26904965992E+02  0.51100000000E-03 0. -1.
         12    1    3    3    0    0  0.15837967026E+02 -0.16152105831E+01 -0.23756036236E+01  0.16096384604E+02  0.00000000000E+00 0. -1.
</event>
<event>
 7    1  0.3837332E-009  0.4778727E+02  0.7816164E-02  0.1312668E+00
        -11   -1    0    0    0    0  0.00000000000E+00  0.00000000000E+00  0.45593999997E+02  0.45594000000E+02  0.51100000000E-03 0.  1.
         11   -1    0    0    0    0 -0.00000000000E+00 -0.00000000000E+00 -0.45593999997E+02  0.45594000000E+02  0.51100000000E-03 0. -1.
    9900012    2    1    2    0    0 -0.22916221583E+02  0.21674273683E+02 -0.29811001951E+02  0.47787272027E+02  0.20000004479E+02 0.  0.
        -12    1    1    2    0    0  0.22916221583E+02 -0.21674273683E+02  0.29811001951E+02  0.43400727973E+02  0.00000000000E+00 0.  1.
         11    1    3    3    0    0 -0.17483675532E+02  0.14382428700E+02 -0.22864547234E+02  0.32176399517E+02  0.51100000000E-03 0. -1.
        -11    1    3    3    0    0 -0.72177437583E+01  0.48627565104E+01 -0.85467404235E+01  0.12197909574E+02  0.51100000000E-03 0.  1.
        -12    1    3    3    0    0  0.17851977076E+01  0.24290884725E+01  0.16002857064E+01  0.34129629363E+01  0.00000000000E+00 0.  1.
</event>
<event>
 7    1  0.3837332E-009  0.4778727E+02  0.7816164E-02  0.1312668E+00
        -11   -1    0    0    0    0  0.00000000000E+00  0.00000000000E+00  0.45593999997E+02  0.45594000000E+02  0.51100000000E-03 0.  1.
         11   -1    0    0    0    0 -0.00000000000E+00 -0.00000000000E+00 -0.45593999997E+02  0.45594000000E+02  0.51100000000E-03 0. -1.
    9900012    2    1    2    0    0  0.13661855159E+02 -0.83787777674E+00 -0.41185858443E+02  0.47787271190E+02  0.20000000665E+02 0.  0.
        -12    1    1    2    0    0 -0.13661855159E+02  0.83787777674E+00  0.41185858443E+02  0.43400728810E+02  0.00000000000E+00 0.  1.
         11    1    3    3    0    0  0.61933558684E+01 -0.54491439655E+01 -0.24153310491E+02  0.25523190138E+02  0.51100000000E-03 0. -1.
        -11    1    3    3    0    0 -0.25936517822E+01  0.46699448449E+00 -0.69348057251E+01  0.74186686219E+01  0.51100000000E-03 0.  1.
        -12    1    3    3    0    0  0.10062151072E+02  0.41442717042E+01 -0.10097742227E+02  0.14845412431E+02  0.00000000000E+00 0.  1.
</event>
<event>
 7    1  0.3837332E-009  0.4778727E+02  0.7816164E-02  0.1312668E+00
        -11   -1    0    0    0    0  0.00000000000E+00  0.00000000000E+00  0.45593999997E+02  0.45594000000E+02  0.51100000000E-03 0. -1.
         11   -1    0    0    0    0 -0.00000000000E+00 -0.00000000000E+00 -0.45593999997E+02  0.45594000000E+02  0.51100000000E-03 0.  1.
    9900012    2    1    2    0    0  0.40170044171E+02  0.15035808178E+02  0.66268546772E+01  0.47787272136E+02  0.20000004975E+02 0.  0.
        -12    1    1    2    0    0 -0.40170044171E+02 -0.15035808178E+02 -0.66268546772E+01  0.43400727864E+02  0.00000000000E+00 0.  1.
         11    1    3    3    0    0  0.83856659462E+01  0.30083177719E+01  0.55293261863E+01  0.10485362059E+02  0.51100000000E-03 0. -1.
        -11    1    3    3    0    0  0.22496074622E+01 -0.31090229070E+01  0.14774670396E+01  0.41121364623E+01  0.51100000000E-03 0.  1.
        -12    1    3    3    0    0  0.29534770762E+02  0.15136513313E+02 -0.37993854868E+00  0.33189773614E+02  0.00000000000E+00 0.  1.
</event>
<event>
 7    1  0.3837332E-009  0.4778727E+02  0.7816164E-02  0.1312668E+00
        -11   -1    0    0    0    0  0.00000000000E+00  0.00000000000E+00  0.45593999997E+02  0.45594000000E+02  0.51100000000E-03 0. -1.
         11   -1    0    0    0    0 -0.00000000000E+00 -0.00000000000E+00 -0.45593999997E+02  0.45594000000E+02  0.51100000000E-03 0.  1.
    9900012    2    1    2    0    0  0.33408300925E+02  0.17250608664E+02  0.21677764583E+02  0.47787267894E+02  0.19999985637E+02 0.  0.
        -12    1    1    2    0    0 -0.33408300925E+02 -0.17250608664E+02 -0.21677764583E+02  0.43400732106E+02  0.00000000000E+00 0.  1.
         11    1    3    3    0    0  0.30730445778E+02  0.16685191929E+02  0.16722701253E+02  0.38760865120E+02  0.51100000000E-03 0. -1.
        -11    1    3    3    0    0 -0.12268586782E+01  0.49944715617E+00 -0.11666267011E+01  0.17651197690E+01  0.51100000000E-03 0.  1.
        -12    1    3    3    0    0  0.39047138252E+01  0.65969579489E-01  0.61216900311E+01  0.72612830050E+01  0.00000000000E+00 0.  1.
</event>
<event>
 7    1  0.3837332E-009  0.4778727E+02  0.7816164E-02  0.1312668E+00
        -11   -1    0    0    0    0  0.00000000000E+00  0.00000000000E+00  0.45593999997E+02  0.45594000000E+02  0.51100000000E-03 0.  1.
         11   -1    0    0    0    0 -0.00000000000E+00 -0.00000000000E+00 -0.45593999997E+02  0.45594000000E+02  0.51100000000E-03 0. -1.
    9900012    2    1    2    0    0  0.16218354494E+02 -0.29706800515E+02 -0.27167887894E+02  0.47787272449E+02  0.20000006404E+02 0.  0.
        -12    1    1    2    0    0 -0.16218354494E+02  0.29706800515E+02  0.27167887894E+02  0.43400727551E+02  0.00000000000E+00 0.  1.
         11    1    3    3    0    0  0.42281058932E+01 -0.76876382669E+01 -0.26628259688E+01  0.91688223872E+01  0.51100000000E-03 0. -1.
        -11    1    3    3    0    0  0.20364516156E+01 -0.36068809284E+01  0.21986470788E+01  0.46894322100E+01  0.51100000000E-03 0.  1.
         12    1    3    3    0    0  0.99537969852E+01 -0.18412281319E+02 -0.26703709004E+02  0.33929017852E+02  0.00000000000E+00 0. -1.
</event>
<event>
 7    1  0.3837332E-009  0.4778727E+02  0.7816164E-02  0.1312668E+00
        -11   -1    0    0    0    0  0.00000000000E+00  0.00000000000E+00  0.45593999997E+02  0.45594000000E+02  0.51100000000E-03 0. -1.
         11   -1    0    0    0    0 -0.00000000000E+00 -0.00000000000E+00 -0.45593999997E+02  0.45594000000E+02  0.51100000000E-03 0.  1.
    9900012    2    1    2    0    0  0.36148263313E+02  0.15887749867E+02  0.18014048376E+02  0.47787268724E+02  0.19999989422E+02 0.  0.
        -12    1    1    2    0    0 -0.36148263313E+02 -0.15887749867E+02 -0.18014048376E+02  0.43400731276E+02  0.00000000000E+00 0.  1.
         11    1    3    3    0    0  0.98880192088E+01  0.70730701773E+01  0.20574423967E+01  0.12330219588E+02  0.51100000000E-03 0. -1.
        -11    1    3    3    0    0  0.28114068169E+02  0.69485253382E+01  0.15266581603E+02  0.32737613650E+02  0.51100000000E-03 0.  1.
        -12    1    3    3    0    0 -0.18538240650E+01  0.18661543515E+01  0.69002437627E+00  0.27194354869E+01  0.00000000000E+00 0.  1.
</event>
<event>
 7    1  0.3837332E-009  0.4778727E+02  0.7816164E-02  0.1312668E+00
        -11   -1    0    0    0    0  0.00000000000E+00  0.00000000000E+00  0.45593999997E+02  0.45594000000E+02  0.51100000000E-03 0.  1.
         11   -1    0    0    0    0 -0.00000000000E+00 -0.00000000000E+00 -0.45593999997E+02  0.45594000000E+02  0.51100000000E-03 0. -1.
    9900012    2    1    2    0    0  0.25898439780E+02 -0.34700163038E+02 -0.29653241154E+01  0.47787266769E+02  0.19999980505E+02 0.  0.
        -12    1    1    2    0    0 -0.25898439780E+02  0.34700163038E+02  0.29653241154E+01  0.43400733231E+02  0.00000000000E+00 0.  1.
         11    1    3    3    0    0  0.15628929681E+02 -0.11595659307E+02 -0.52312043339E+01  0.20151631616E+02  0.51100000000E-03 0. -1.
        -11    1    3    3    0    0 -0.22186903562E+00 -0.39157963847E+01 -0.32359379459E+01  0.50846810958E+01  0.51100000000E-03 0.  1.
         12    1    3    3    0    0  0.10491379135E+02 -0.19188707346E+02  0.55018181644E+01  0.22550954057E+02  0.00000000000E+00 0. -1.
</event>
<event>
 7    1  0.3837332E-009  0.4778727E+02  0.7816164E-02  0.1312668E+00
        -11   -1    0    0    0    0  0.00000000000E+00  0.00000000000E+00  0.45593999997E+02  0.45594000000E+02  0.51100000000E-03 0.  1.
         11   -1    0    0    0    0 -0.00000000000E+00 -0.00000000000E+00 -0.45593999997E+02  0.45594000000E+02  0.51100000000E-03 0. -1.
    9900012    2    1    2    0    0 -0.93535580096E+00  0.39451799370E+02 -0.18063879616E+02  0.47787272923E+02  0.20000008567E+02 0.  0.
        -12    1    1    2    0    0  0.93535580096E+00 -0.39451799370E+02  0.18063879616E+02  0.43400727077E+02  0.00000000000E+00 0.  1.
         11    1    3    3    0    0  0.23753063316E+01  0.21713174616E+02 -0.27099022296E+01  0.22010170431E+02  0.51100000000E-03 0. -1.
        -11    1    3    3    0    0  0.21029179043E+01  0.11092653715E+02 -0.50343441636E+01  0.12361789983E+02  0.51100000000E-03 0.  1.
        -12    1    3    3    0    0 -0.54135800369E+01  0.66459710389E+01 -0.10319633223E+02  0.13415312509E+02  0.00000000000E+00 0.  1.
</event>
<event>
 7    1  0.3837332E-009  0.4778727E+02  0.7816164E-02  0.1312668E+00
        -11   -1    0    0    0    0  0.00000000000E+00  0.00000000000E+00  0.45593999997E+02  0.45594000000E+02  0.51100000000E-03 0. -1.
         11   -1    0    0    0    0 -0.00000000000E+00 -0.00000000000E+00 -0.45593999997E+02  0.45594000000E+02  0.51100000000E-03 0.  1.
    9900012    2    1    2    0    0 -0.16087579277E+02  0.27992673309E+02  0.29003848776E+02  0.47787271783E+02  0.20000003366E+02 0.  0.
        -12    1    1    2    0    0  0.16087579277E+02 -0.27992673309E+02 -0.29003848776E+02  0.43400728217E+02  0.00000000000E+00 0.  1.
         11    1    3    3    0    0 -0.11976634970E+02  0.14346702846E+02  0.11682071020E+02  0.22039474843E+02  0.51100000000E-03 0. -1.
        -11    1    3    3    0    0 -0.57745673130E+01  0.64163039779E+01  0.22058936488E+01  0.89095763895E+01  0.51100000000E-03 0.  1.
         12    1    3    3    0    0  0.16636230056E+01  0.72296664849E+01  0.15115884107E+02  0.16838220551E+02  0.00000000000E+00 0. -1.
</event>
<event>
 7    1  0.3837332E-009  0.4778727E+02  0.7816164E-02  0.1312668E+00
        -11   -1    0    0    0    0  0.00000000000E+00  0.00000000000E+00  0.45593999997E+02  0.45594000000E+02  0.51100000000E-03 0.  1.
         11   -1    0    0    0    0 -0.00000000000E+00 -0.00000000000E+00 -0.45593999997E+02  0.45594000000E+02  0.51100000000E-03 0. -1.
    9900012    2    1    2    0    0  0.38485822454E+02  0.18518367724E+02  0.77158878371E+01  0.47787269612E+02  0.19999993469E+02 0.  0.
        -12    1    1    2    0    0 -0.38485822454E+02 -0.18518367724E+02 -0.77158878371E+01  0.43400730388E+02  0.00000000000E+00 0.  1.
         11    1    3    3    0    0  0.57178778818E+01 -0.14002271031E+01 -0.32150409776E+01  0.67075518753E+01  0.51100000000E-03 0. -1.
        -11    1    3    3    0    0  0.10061530738E+02  0.13291781422E+01  0.41269099900E+01  0.10955934540E+02  0.51100000000E-03 0.  1.
        -12    1    3    3    0    0  0.22706413834E+02  0.18589416685E+02  0.68040188246E+01  0.30123783196E+02  0.00000000000E+00 0.  1.
</event>
<event>
 7    1  0.3837332E-009  0.4778727E+02  0.7816164E-02  0.1312668E+00
        -11   -1    0    0    0    0  0.00000000000E+00  0.00000000000E+00  0.45593999997E+02  0.45594000000E+02  0.51100000000E-03 0. -1.
         11   -1    0    0    0    0 -0.00000000000E+00 -0.00000000000E+00 -0.45593999997E+02  0.45594000000E+02  0.51100000000E-03 0.  1.
    9900012    2    1    2    0    0  0.44419900629E+01  0.37366530116E+02  0.21624850092E+02  0.47787274313E+02  0.20000014905E+02 0.  0.
        -12    1    1    2    0    0 -0.44419900629E+01 -0.37366530116E+02 -0.21624850092E+02  0.43400725687E+02  0.00000000000E+00 0.  1.
         11    1    3    3    0    0  0.62513171667E+01  0.18501326445E+02  0.11598612654E+02  0.22713561198E+02  0.51100000000E-03 0.  1.
        -11    1    3    3    0    0 -0.87517960053E-01  0.32755068988E+01  0.87429658830E+01  0.93368119575E+01  0.51100000000E-03 0. -1.
        -12    1    3    3    0    0 -0.17218091437E+01  0.15589696772E+02  0.12832715552E+01  0.15736901158E+02  0.00000000000E+00 0.  1.
</event>
<event>
 7    1  0.3837332E-009  0.4778727E+02  0.7816164E-02  0.1312668E+00
        -11   -1    0    0    0    0  0.00000000000E+00  0.00000000000E+00  0.45593999997E+02  0.45594000000E+02  0.51100000000E-03 0. -1.
         11   -1    0    0    0    0 -0.00000000000E+00 -0.00000000000E+00 -0.45593999997E+02  0.45594000000E+02  0.51100000000E-03 0.  1.
    9900012    2    1    2    0    0  0.30394877296E+02 -0.12652407228E+02  0.28278812528E+02  0.47787271751E+02  0.20000003223E+02 0.  0.
        -12    1    1    2    0    0 -0.30394877296E+02  0.12652407228E+02 -0.28278812528E+02  0.43400728249E+02  0.00000000000E+00 0.  1.
         11    1    3    3    0    0  0.47773762004E+01 -0.96895196484E+00  0.73127833944E+01  0.87885716988E+01  0.51100000000E-03 0. -1.
        -11    1    3    3    0    0  0.25830869782E+02 -0.12820491605E+02  0.14217572054E+02  0.32151799235E+02  0.51100000000E-03 0.  1.
        -12    1    3    3    0    0 -0.21336868651E+00  0.11370363418E+01  0.67484570805E+01  0.68469008176E+01  0.00000000000E+00 0.  1.
</event>
<event>
 7    1  0.3837332E-009  0.4778727E+02  0.7816164E-02  0.1312668E+00
        -11   -1    0    0    0    0  0.00000000000E+00  0.00000000000E+00  0.45593999997E+02  0.45594000000E+02  0.51100000000E-03 0.  1.
         11   -1    0    0    0    0 -0.00000000000E+00 -0.00000000000E+00 -0.45593999997E+02  0.45594000000E+02  0.51100000000E-03 0. -1.
    9900012    2    1    2    0    0 -0.11234218828E+02  0.17704154633E+02 -0.37999716599E+02  0.47787271601E+02  0.20000002537E+02 0.  0.
        -12    1    1    2    0    0  0.11234218828E+02 -0.17704154633E+02  0.37999716599E+02  0.43400728399E+02  0.00000000000E+00 0.  1.
         11    1    3    3    0    0 -0.45610867147E+01 -0.13981340161E+01 -0.28475572789E+01  0.55557963843E+01  0.51100000000E-03 0. -1.
        -11    1    3    3    0    0 -0.64813908987E+01  0.61638111679E+01 -0.73919009676E+01  0.11603499311E+02  0.51100000000E-03 0.  1.
         12    1    3    3    0    0 -0.19174121502E+00  0.12938477482E+02 -0.27760258353E+02  0.30627975905E+02  0.00000000000E+00 0. -1.
</event>
<event>
 7    1  0.3837332E-009  0.4778727E+02  0.7816164E-02  0.1312668E+00
        -11   -1    0    0    0    0  0.00000000000E+00  0.00000000000E+00  0.45593999997E+02  0.45594000000E+02  0.51100000000E-03 0.  1.
         11   -1    0    0    0    0 -0.00000000000E+00 -0.00000000000E+00 -0.45593999997E+02  0.45594000000E+02  0.51100000000E-03 0. -1.
    9900012    2    1    2    0    0  0.55442904957E+01 -0.37769433637E+02  0.20648337524E+02  0.47787272853E+02  0.20000008248E+02 0.  0.
        -12    1    1    2    0    0 -0.55442904957E+01  0.37769433637E+02 -0.20648337524E+02  0.43400727147E+02  0.00000000000E+00 0.  1.
         11    1    3    3    0    0 -0.27930632984E+00 -0.57317541710E+01 -0.27476460929E+01  0.63624348496E+01  0.51100000000E-03 0. -1.
        -11    1    3    3    0    0  0.12565647644E+01 -0.15842482723E+01  0.53810075571E+01  0.57483945747E+01  0.51100000000E-03 0.  1.
         12    1    3    3    0    0  0.45670320611E+01 -0.30453431194E+02  0.18014976060E+02  0.35676443429E+02  0.00000000000E+00 0. -1.
</event>
<event>
 7    1  0.3837332E-009  0.4778727E+02  0.7816164E-02  0.1312668E+00
        -11   -1    0    0    0    0  0.00000000000E+00  0.00000000000E+00  0.45593999997E+02  0.45594000000E+02  0.51100000000E-03 0.  1.
         11   -1    0    0    0    0 -0.00000000000E+00 -0.00000000000E+00 -0.45593999997E+02  0.45594000000E+02  0.51100000000E-03 0. -1.
    9900012    2    1    2    0    0  0.29170408145E+02 -0.25038443834E+02 -0.20144165368E+02  0.47787265221E+02  0.19999973448E+02 0.  0.
        -12    1    1    2    0    0 -0.29170408145E+02  0.25038443834E+02  0.20144165368E+02  0.43400734779E+02  0.00000000000E+00 0.  1.
         11    1    3    3    0    0  0.13972764401E+01  0.13764272795E+01 -0.32019668914E+01  0.37549335202E+01  0.51100000000E-03 0. -1.
        -11    1    3    3    0    0  0.19388498847E+01 -0.80750625910E+01 -0.68991553893E+01  0.10796486469E+02  0.51100000000E-03 0.  1.
        -12    1    3    3    0    0  0.25834281820E+02 -0.18339808523E+02 -0.10043043087E+02  0.33235845232E+02  0.00000000000E+00 0.  1.
</event>
<event>
 7    1  0.3837332E-009  0.4778727E+02  0.7816164E-02  0.1312668E+00
        -11   -1    0    0    0    0  0.00000000000E+00  0.00000000000E+00  0.45593999997E+02  0.45594000000E+02  0.51100000000E-03 0. -1.
         11   -1    0    0    0    0 -0.00000000000E+00 -0.00000000000E+00 -0.45593999997E+02  0.45594000000E+02  0.51100000000E-03 0.  1.
    9900012    2    1    2    0    0  0.34066959405E+02  0.82995595281E+01  0.25577003405E+02  0.47787268270E+02  0.19999987352E+02 0.  0.
        -12    1    1    2    0    0 -0.34066959405E+02 -0.82995595281E+01 -0.25577003405E+02  0.43400731730E+02  0.00000000000E+00 0.  1.
         11    1    3    3    0    0  0.78019051059E+01 -0.26891378556E+01  0.73330055183E+01  0.11039662852E+02  0.51100000000E-03 0.  1.
        -11    1    3    3    0    0  0.21794334676E+02  0.36203073579E+01  0.83302455065E+01  0.23611282045E+02  0.51100000000E-03 0. -1.
         12    1    3    3    0    0  0.44707196232E+01  0.73683900258E+01  0.99137523804E+01  0.13136323374E+02  0.00000000000E+00 0. -1.
</event>
<event>
 7    1  0.3837332E-009  0.4778727E+02  0.7816164E-02  0.1312668E+00
        -11   -1    0    0    0    0  0.00000000000E+00  0.00000000000E+00  0.45593999997E+02  0.45594000000E+02  0.51100000000E-03 0. -1.
         11   -1    0    0    0    0 -0.00000000000E+00 -0.00000000000E+00 -0.45593999997E+02  0.45594000000E+02  0.51100000000E-03 0.  1.
    9900012    2    1    2    0    0 -0.37416511243E+02  0.51462290515E+01  0.21380934379E+02  0.47787270260E+02  0.19999996422E+02 0.  0.
        -12    1    1    2    0    0  0.37416511243E+02 -0.51462290515E+01 -0.21380934379E+02  0.43400729740E+02  0.00000000000E+00 0.  1.
         11    1    3    3    0    0 -0.14795205917E+02 -0.16446600827E+01  0.10313350078E+02  0.18109892739E+02  0.51100000000E-03 0. -1.
        -11    1    3    3    0    0 -0.15652492752E+02  0.86797711970E+01  0.13096043859E+02  0.22177586037E+02  0.51100000000E-03 0.  1.
         12    1    3    3    0    0 -0.69688125734E+01 -0.18888820627E+01 -0.20284595577E+01  0.74997914843E+01  0.00000000000E+00 0. -1.
</event>
<event>
 7    1  0.3837332E-009  0.4778726E+02  0.7816164E-02  0.1312668E+00
        -11   -1    0    0    0    0  0.00000000000E+00  0.00000000000E+00  0.45593999997E+02  0.45594000000E+02  0.51100000000E-03 0. -1.
         11   -1    0    0    0    0 -0.00000000000E+00 -0.00000000000E+00 -0.45593999997E+02  0.45594000000E+02  0.51100000000E-03 0.  1.
    9900012    2    1    2    0    0  0.31934487071E+02 -0.28524814220E+02  0.70815180665E+01  0.47787258199E+02  0.19999941431E+02 0.  0.
        -12    1    1    2    0    0 -0.31934487071E+02  0.28524814220E+02 -0.70815180665E+01  0.43400741801E+02  0.00000000000E+00 0.  1.
         11    1    3    3    0    0  0.16588553439E+02 -0.12917344013E+02  0.61555109661E+01  0.21907263569E+02  0.51100000000E-03 0. -1.
        -11    1    3    3    0    0 -0.17000517355E+01  0.90710494018E-01 -0.18813929068E+01  0.25373300590E+01  0.51100000000E-03 0.  1.
        -12    1    3    3    0    0  0.17045985367E+02 -0.15698180701E+02  0.28074000072E+01  0.23342664571E+02  0.00000000000E+00 0.  1.
</event>
<event>
 7    1  0.3837332E-009  0.4778727E+02  0.7816164E-02  0.1312668E+00
        -11   -1    0    0    0    0  0.00000000000E+00  0.00000000000E+00  0.45593999997E+02  0.45594000000E+02  0.51100000000E-03 0.  1.
         11   -1    0    0    0    0 -0.00000000000E+00 -0.00000000000E+00 -0.45593999997E+02  0.45594000000E+02  0.51100000000E-03 0. -1.
    9900012    2    1    2    0    0  0.33663390165E+02 -0.92388328536E+00 -0.27377837676E+02  0.47787269666E+02  0.19999993716E+02 0.  0.
        -12    1    1    2    0    0 -0.33663390165E+02  0.92388328536E+00  0.27377837676E+02  0.43400730334E+02  0.00000000000E+00 0.  1.
         11    1    3    3    0    0  0.11610433197E+02 -0.54224417493E+01 -0.76548974762E+01  0.14926569907E+02  0.51100000000E-03 0. -1.
        -11    1    3    3    0    0  0.84135507957E+00 -0.20082213293E+01 -0.68982175962E+01  0.72336876863E+01  0.51100000000E-03 0.  1.
         12    1    3    3    0    0  0.21211601888E+02  0.65067797932E+01 -0.12824722604E+02  0.25627012073E+02  0.00000000000E+00 0. -1.
</event>
<event>
 7    1  0.3837332E-009  0.4778727E+02  0.7816164E-02  0.1312668E+00
        -11   -1    0    0    0    0  0.00000000000E+00  0.00000000000E+00  0.45593999997E+02  0.45594000000E+02  0.51100000000E-03 0.  1.
         11   -1    0    0    0    0 -0.00000000000E+00 -0.00000000000E+00 -0.45593999997E+02  0.45594000000E+02  0.51100000000E-03 0. -1.
    9900012    2    1    2    0    0 -0.36294652999E+02 -0.46709114667E+01 -0.23334613086E+02  0.47787269383E+02  0.19999992425E+02 0.  0.
        -12    1    1    2    0    0  0.36294652999E+02  0.46709114667E+01  0.23334613086E+02  0.43400730617E+02  0.00000000000E+00 0.  1.
         11    1    3    3    0    0 -0.13101470340E+02  0.89370521924E+00 -0.10908087492E+02  0.17071426627E+02  0.51100000000E-03 0. -1.
        -11    1    3    3    0    0 -0.48167600625E+01 -0.64447076684E+01 -0.88740924222E+01  0.11978520402E+02  0.51100000000E-03 0.  1.
         12    1    3    3    0    0 -0.18376422596E+02  0.88009098248E+00 -0.35524331714E+01  0.18737322354E+02  0.00000000000E+00 0. -1.
</event>
<event>
 7    1  0.3837332E-009  0.4778727E+02  0.7816164E-02  0.1312668E+00
        -11   -1    0    0    0    0  0.00000000000E+00  0.00000000000E+00  0.45593999997E+02  0.45594000000E+02  0.51100000000E-03 0. -1.
         11   -1    0    0    0    0 -0.00000000000E+00 -0.00000000000E+00 -0.45593999997E+02  0.45594000000E+02  0.51100000000E-03 0.  1.
    9900012    2    1    2    0    0  0.33729428689E+02 -0.25769449970E+01  0.27190224840E+02  0.47787270374E+02  0.19999996943E+02 0.  0.
        -12    1    1    2    0    0 -0.33729428689E+02  0.25769449970E+01 -0.27190224840E+02  0.43400729626E+02  0.00000000000E+00 0.  1.
         11    1    3    3    0    0  0.24961182100E+02 -0.18204366686E+01  0.13620842439E+02  0.28493893214E+02  0.51100000000E-03 0. -1.
        -11    1    3    3    0    0  0.20996959284E+01 -0.20663615195E+01 -0.10853692766E+01  0.31395222007E+01  0.51100000000E-03 0.  1.
        -12    1    3    3    0    0  0.66685506610E+01  0.13098531911E+01  0.14654751678E+02  0.16153854959E+02  0.00000000000E+00 0.  1.
</event>
<event>
 7    1  0.3837332E-009  0.4778727E+02  0.7816164E-02  0.1312668E+00
        -11   -1    0    0    0    0  0.00000000000E+00  0.00000000000E+00  0.45593999997E+02  0.45594000000E+02  0.51100000000E-03 0. -1.
         11   -1    0    0    0    0 -0.00000000000E+00 -0.00000000000E+00 -0.45593999997E+02  0.45594000000E+02  0.51100000000E-03 0.  1.
    9900012    2    1    2    0    0 -0.97533935933E+01  0.42077077168E+02  0.42443494682E+01  0.47787267149E+02  0.19999982238E+02 0.  0.
        -12    1    1    2    0    0  0.97533935933E+01 -0.42077077168E+02 -0.42443494682E+01  0.43400732851E+02  0.00000000000E+00 0.  1.
         11    1    3    3    0    0 -0.29712243641E+01  0.11339595334E+02 -0.35511502825E+01  0.12248480116E+02  0.51100000000E-03 0. -1.
        -11    1    3    3    0    0 -0.81900960624E+00  0.36187310933E+01 -0.39238939148E+01  0.54002717688E+01  0.51100000000E-03 0.  1.
         12    1    3    3    0    0 -0.59631596230E+01  0.27118750741E+02  0.11719393666E+02  0.30138515264E+02  0.00000000000E+00 0. -1.
</event>
<event>
 7    1  0.3837332E-009  0.4778726E+02  0.7816164E-02  0.1312668E+00
        -11   -1    0    0    0    0  0.00000000000E+00  0.00000000000E+00  0.45593999997E+02  0.45594000000E+02  0.51100000000E-03 0.  1.
         11   -1    0    0    0    0 -0.00000000000E+00 -0.00000000000E+00 -0.45593999997E+02  0.45594000000E+02  0.51100000000E-03 0. -1.
    9900012    2    1    2    0    0 -0.10203525983E+02 -0.13719920339E+02 -0.39890797824E+02  0.47787263743E+02  0.19999966709E+02 0.  0.
        -12    1    1    2    0    0  0.10203525983E+02  0.13719920339E+02  0.39890797824E+02  0.43400736257E+02  0.00000000000E+00 0.  1.
         11    1    3    3    0    0  0.35795101149E+00 -0.64213669852E+01 -0.28741936843E+02  0.29452691161E+02  0.51100000000E-03 0. -1.
        -11    1    3    3    0    0 -0.33791632494E+01 -0.61055175183E+01 -0.73011846109E+01  0.10099672540E+02  0.51100000000E-03 0.  1.
        -12    1    3    3    0    0 -0.71823137454E+01 -0.11930358358E+01 -0.38476763701E+01  0.82349000414E+01  0.00000000000E+00 0.  1.
</event>
<event>
 7    1  0.3837332E-009  0.4778727E+02  0.7816164E-02  0.1312668E+00
        -11   -1    0    0    0    0  0.00000000000E+00  0.00000000000E+00  0.45593999997E+02  0.45594000000E+02  0.51100000000E-03 0. -1.
         11   -1    0    0    0    0 -0.00000000000E+00 -0.00000000000E+00 -0.45593999997E+02  0.45594000000E+02  0.51100000000E-03 0.  1.
    9900012    2    1    2    0    0 -0.11446705153E+02 -0.31749896127E+02  0.27286270762E+02  0.47787268036E+02  0.19999986281E+02 0.  0.
        -12    1    1    2    0    0  0.11446705153E+02  0.31749896127E+02 -0.27286270762E+02  0.43400731964E+02  0.00000000000E+00 0.  1.
         11    1    3    3    0    0 -0.62008481466E+01 -0.91042270766E+01  0.14537719828E+02  0.18239593374E+02  0.51100000000E-03 0. -1.
        -11    1    3    3    0    0 -0.65861918501E+01 -0.15996923014E+02  0.14466195538E+02  0.22551059456E+02  0.51100000000E-03 0.  1.
        -12    1    3    3    0    0  0.13403348441E+01 -0.66487460361E+01 -0.17176446029E+01  0.69966152052E+01  0.00000000000E+00 0.  1.
</event>
<event>
 7    1  0.3837332E-009  0.4778727E+02  0.7816164E-02  0.1312668E+00
        -11   -1    0    0    0    0  0.00000000000E+00  0.00000000000E+00  0.45593999997E+02  0.45594000000E+02  0.51100000000E-03 0. -1.
         11   -1    0    0    0    0 -0.00000000000E+00 -0.00000000000E+00 -0.45593999997E+02  0.45594000000E+02  0.51100000000E-03 0.  1.
    9900012    2    1    2    0    0  0.22623422660E+02  0.34407519523E+02  0.13708620940E+02  0.47787274883E+02  0.20000017503E+02 0.  0.
        -12    1    1    2    0    0 -0.22623422660E+02 -0.34407519523E+02 -0.13708620940E+02  0.43400725117E+02  0.00000000000E+00 0.  1.
         11    1    3    3    0    0  0.32918643886E+01  0.15855935417E+02  0.19591627625E+01  0.16312123653E+02  0.51100000000E-03 0. -1.
        -11    1    3    3    0    0  0.95283604804E+01  0.71409713280E+01 -0.72948187220E+00  0.11929596348E+02  0.51100000000E-03 0.  1.
        -12    1    3    3    0    0  0.98031977909E+01  0.11410612778E+02  0.12478940049E+02  0.19545554882E+02  0.00000000000E+00 0.  1.
</event>
<event>
 7    1  0.3837332E-009  0.4778727E+02  0.7816164E-02  0.1312668E+00
        -11   -1    0    0    0    0  0.00000000000E+00  0.00000000000E+00  0.45593999997E+02  0.45594000000E+02  0.51100000000E-03 0. -1.
         11   -1    0    0    0    0 -0.00000000000E+00 -0.00000000000E+00 -0.45593999997E+02  0.45594000000E+02  0.51100000000E-03 0.  1.
    9900012    2    1    2    0    0  0.27565875491E+02  0.14378636999E+02  0.30282021036E+02  0.47787268537E+02  0.19999988567E+02 0.  0.
        -12    1    1    2    0    0 -0.27565875491E+02 -0.14378636999E+02 -0.30282021036E+02  0.43400731463E+02  0.00000000000E+00 0.  1.
         11    1    3    3    0    0  0.19395967042E+00 -0.11687309807E+01 -0.13741098769E+01  0.18143127277E+01  0.51100000000E-03 0. -1.
        -11    1    3    3    0    0  0.76214501973E+01  0.35072842756E+01  0.24971726166E+01  0.87534803043E+01  0.51100000000E-03 0.  1.
         12    1    3    3    0    0  0.19750465623E+02  0.12040083704E+02  0.29158958296E+02  0.37219475505E+02  0.00000000000E+00 0. -1.
</event>
<event>
 7    1  0.3837332E-009  0.4778727E+02  0.7816164E-02  0.1312668E+00
        -11   -1    0    0    0    0  0.00000000000E+00  0.00000000000E+00  0.45593999997E+02  0.45594000000E+02  0.51100000000E-03 0.  1.
         11   -1    0    0    0    0 -0.00000000000E+00 -0.00000000000E+00 -0.45593999997E+02  0.45594000000E+02  0.51100000000E-03 0. -1.
    9900012    2    1    2    0    0  0.31557886545E+02 -0.19726196324E+02 -0.22329365746E+02  0.47787267296E+02  0.19999982909E+02 0.  0.
        -12    1    1    2    0    0 -0.31557886545E+02  0.19726196324E+02  0.22329365746E+02  0.43400732704E+02  0.00000000000E+00 0.  1.
         11    1    3    3    0    0  0.29040014613E+02 -0.18397058731E+02 -0.21019475344E+02  0.40293827848E+02  0.51100000000E-03 0. -1.
        -11    1    3    3    0    0  0.26660128870E+01 -0.39267332669E+01 -0.11674915683E+01  0.48877290930E+01  0.51100000000E-03 0.  1.
        -12    1    3    3    0    0 -0.14814095442E+00  0.25975956737E+01 -0.14239883464E+00  0.26057103550E+01  0.00000000000E+00 0.  1.
</event>
<event>
 7    1  0.3837332E-009  0.4778727E+02  0.7816164E-02  0.1312668E+00
        -11   -1    0    0    0    0  0.00000000000E+00  0.00000000000E+00  0.45593999997E+02  0.45594000000E+02  0.51100000000E-03 0.  1.
         11   -1    0    0    0    0 -0.00000000000E+00 -0.00000000000E+00 -0.45593999997E+02  0.45594000000E+02  0.51100000000E-03 0. -1.
    9900012    2    1    2    0    0 -0.77833366906E+01  0.11394121594E+02 -0.41148718159E+02  0.47787270247E+02  0.19999996363E+02 0.  0.
        -12    1    1    2    0    0  0.77833366906E+01 -0.11394121594E+02  0.41148718159E+02  0.43400729753E+02  0.00000000000E+00 0.  1.
         11    1    3    3    0    0 -0.26809482846E+01  0.45438296645E+01 -0.29336482021E+01  0.60365688731E+01  0.51100000000E-03 0. -1.
        -11    1    3    3    0    0 -0.87623034528E+01  0.53896701900E+01 -0.14907923541E+02  0.18112777013E+02  0.51100000000E-03 0.  1.
        -12    1    3    3    0    0  0.36599150468E+01  0.14606217396E+01 -0.23307146416E+02  0.23637924360E+02  0.00000000000E+00 0.  1.
</event>
<event>
 7    1  0.3837332E-009  0.4778727E+02  0.7816164E-02  0.1312668E+00
        -11   -1    0    0    0    0  0.00000000000E+00  0.00000000000E+00  0.45593999997E+02  0.45594000000E+02  0.51100000000E-03 0.  1.
         11   -1    0    0    0    0 -0.00000000000E+00 -0.00000000000E+00 -0.45593999997E+02  0.45594000000E+02  0.51100000000E-03 0. -1.
    9900012    2    1    2    0    0 -0.36656613742E+02 -0.21297756471E+02 -0.92909380786E+01  0.47787270834E+02  0.19999999042E+02 0.  0.
        -12    1    1    2    0    0  0.36656613742E+02  0.21297756471E+02  0.92909380786E+01  0.43400729166E+02  0.00000000000E+00 0.  1.
         11    1    3    3    0    0 -0.23242435090E+02 -0.84251954909E+01 -0.79473525660E+00  0.24735123052E+02  0.51100000000E-03 0. -1.
        -11    1    3    3    0    0 -0.67542069832E+01  0.17504368574E+00 -0.31899526267E+01  0.74716631539E+01  0.51100000000E-03 0.  1.
         12    1    3    3    0    0 -0.66599716685E+01 -0.13047604666E+02 -0.53062501953E+01  0.15580484629E+02  0.00000000000E+00 0. -1.
</event>
<event>
 7    1  0.3837332E-009  0.4778727E+02  0.7816164E-02  0.1312668E+00
        -11   -1    0    0    0    0  0.00000000000E+00  0.00000000000E+00  0.45593999997E+02  0.45594000000E+02  0.51100000000E-03 0.  1.
         11   -1    0    0    0    0 -0.00000000000E+00 -0.00000000000E+00 -0.45593999997E+02  0.45594000000E+02  0.51100000000E-03 0. -1.
    9900012    2    1    2    0    0  0.25111517761E+02  0.19438510774E+02 -0.29583428588E+02  0.47787271061E+02  0.20000000077E+02 0.  0.
        -12    1    1    2    0    0 -0.25111517761E+02 -0.19438510774E+02  0.29583428588E+02  0.43400728939E+02  0.00000000000E+00 0.  1.
         11    1    3    3    0    0 -0.15354509013E+01  0.28306137743E+01 -0.30724066721E+01  0.44508051888E+01  0.51100000000E-03 0. -1.
        -11    1    3    3    0    0  0.59365094061E+01  0.50947381805E+01 -0.15166709052E+02  0.17065390848E+02  0.51100000000E-03 0.  1.
         12    1    3    3    0    0  0.20710459256E+02  0.11513158819E+02 -0.11344312864E+02  0.26271075025E+02  0.00000000000E+00 0. -1.
</event>
<event>
 7    1  0.3837332E-009  0.4778727E+02  0.7816164E-02  0.1312668E+00
        -11   -1    0    0    0    0  0.00000000000E+00  0.00000000000E+00  0.45593999997E+02  0.45594000000E+02  0.51100000000E-03 0. -1.
         11   -1    0    0    0    0 -0.00000000000E+00 -0.00000000000E+00 -0.45593999997E+02  0.45594000000E+02  0.51100000000E-03 0.  1.
    9900012    2    1    2    0    0  0.42137924515E+02  0.10393157178E+02  0.23431369452E-01  0.47787274803E+02  0.20000017138E+02 0.  0.
        -12    1    1    2    0    0 -0.42137924515E+02 -0.10393157178E+02 -0.23431369452E-01  0.43400725197E+02  0.00000000000E+00 0.  1.
         11    1    3    3    0    0  0.16003769030E+02  0.28415414584E+01 -0.20083706974E+01  0.16377684029E+02  0.51100000000E-03 0. -1.
        -11    1    3    3    0    0  0.23021600975E+02  0.57268929346E+01 -0.43116432938E+01  0.24111857711E+02  0.51100000000E-03 0.  1.
        -12    1    3    3    0    0  0.31125545109E+01  0.18247227854E+01  0.63434453607E+01  0.72977330638E+01  0.00000000000E+00 0.  1.
</event>
<event>
 7    1  0.3837332E-009  0.4778727E+02  0.7816164E-02  0.1312668E+00
        -11   -1    0    0    0    0  0.00000000000E+00  0.00000000000E+00  0.45593999997E+02  0.45594000000E+02  0.51100000000E-03 0.  1.
         11   -1    0    0    0    0 -0.00000000000E+00 -0.00000000000E+00 -0.45593999997E+02  0.45594000000E+02  0.51100000000E-03 0. -1.
    9900012    2    1    2    0    0 -0.13030558421E+02  0.26305773465E+02 -0.31966143122E+02  0.47787268710E+02  0.19999989357E+02 0.  0.
        -12    1    1    2    0    0  0.13030558421E+02 -0.26305773465E+02  0.31966143122E+02  0.43400731290E+02  0.00000000000E+00 0.  1.
         11    1    3    3    0    0  0.31990327695E+01  0.78066076409E+01 -0.90833039280E+01  0.12396908648E+02  0.51100000000E-03 0. -1.
        -11    1    3    3    0    0  0.12721125413E+01  0.36944091333E+01 -0.20395516478E+01  0.44075730677E+01  0.51100000000E-03 0.  1.
         12    1    3    3    0    0 -0.17501703732E+02  0.14804756691E+02 -0.20843287547E+02  0.30982786994E+02  0.00000000000E+00 0. -1.
</event>
<event>
 7    1  0.3837332E-009  0.4778727E+02  0.7816164E-02  0.1312668E+00
        -11   -1    0    0    0    0  0.00000000000E+00  0.00000000000E+00  0.45593999997E+02  0.45594000000E+02  0.51100000000E-03 0.  1.
         11   -1    0    0    0    0 -0.00000000000E+00 -0.00000000000E+00 -0.45593999997E+02  0.45594000000E+02  0.51100000000E-03 0. -1.
    9900012    2    1    2    0    0 -0.37314701844E+01 -0.74776547640E+01 -0.42588543244E+02  0.47787271824E+02  0.20000003557E+02 0.  0.
        -12    1    1    2    0    0  0.37314701844E+01  0.74776547640E+01  0.42588543244E+02  0.43400728176E+02  0.00000000000E+00 0.  1.
         11    1    3    3    0    0 -0.37715295326E+01 -0.92032069382E+00 -0.28112711672E+02  0.28379499344E+02  0.51100000000E-03 0. -1.
        -11    1    3    3    0    0 -0.14983127055E+01 -0.31475859988E+01 -0.15202558637E+02  0.15597116014E+02  0.51100000000E-03 0.  1.
        -12    1    3    3    0    0  0.15383720536E+01 -0.34097480714E+01  0.72672706416E+00  0.38106564673E+01  0.00000000000E+00 0.  1.
</event>
<event>
 7    1  0.3837332E-009  0.4778727E+02  0.7816164E-02  0.1312668E+00
        -11   -1    0    0    0    0  0.00000000000E+00  0.00000000000E+00  0.45593999997E+02  0.45594000000E+02  0.51100000000E-03 0.  1.
         11   -1    0    0    0    0 -0.00000000000E+00 -0.00000000000E+00 -0.45593999997E+02  0.45594000000E+02  0.51100000000E-03 0. -1.
    9900012    2    1    2    0    0  0.36185344016E+01 -0.19046700247E+02 -0.38829788981E+02  0.47787273118E+02  0.20000009456E+02 0.  0.
        -12    1    1    2    0    0 -0.36185344016E+01  0.19046700247E+02  0.38829788981E+02  0.43400726882E+02  0.00000000000E+00 0.  1.
         11    1    3    3    0    0  0.21111074862E+01 -0.15799031267E+02 -0.21376912971E+02  0.26665306528E+02  0.51100000000E-03 0. -1.
        -11    1    3    3    0    0 -0.15218228711E+01 -0.15644394968E+01 -0.17520403696E+02  0.17655819486E+02  0.51100000000E-03 0.  1.
        -12    1    3    3    0    0  0.30292497865E+01 -0.16832294840E+01  0.67527685420E-01  0.34661471049E+01  0.00000000000E+00 0.  1.
</event>
<event>
 7    1  0.3837332E-009  0.4778727E+02  0.7816164E-02  0.1312668E+00
        -11   -1    0    0    0    0  0.00000000000E+00  0.00000000000E+00  0.45593999997E+02  0.45594000000E+02  0.51100000000E-03 0.  1.
         11   -1    0    0    0    0 -0.00000000000E+00 -0.00000000000E+00 -0.45593999997E+02  0.45594000000E+02  0.51100000000E-03 0. -1.
    9900012    2    1    2    0    0 -0.17024749085E+02  0.39656599308E+02 -0.45973172109E+01  0.47787271024E+02  0.19999999908E+02 0.  0.
        -12    1    1    2    0    0  0.17024749085E+02 -0.39656599308E+02  0.45973172109E+01  0.43400728976E+02  0.00000000000E+00 0.  1.
         11    1    3    3    0    0 -0.12206838681E+01 -0.30191596461E+00  0.16789522357E+01  0.20976423018E+01  0.51100000000E-03 0. -1.
        -11    1    3    3    0    0 -0.18136490995E+01  0.20466559530E+02  0.11346930946E+01  0.20578068683E+02  0.51100000000E-03 0.  1.
         12    1    3    3    0    0 -0.13990416118E+02  0.19491955742E+02 -0.74109625412E+01  0.25111560039E+02  0.00000000000E+00 0. -1.
</event>
<event>
 7    1  0.3837332E-009  0.4778727E+02  0.7816164E-02  0.1312668E+00
        -11   -1    0    0    0    0  0.00000000000E+00  0.00000000000E+00  0.45593999997E+02  0.45594000000E+02  0.51100000000E-03 0. -1.
         11   -1    0    0    0    0 -0.00000000000E+00 -0.00000000000E+00 -0.45593999997E+02  0.45594000000E+02  0.51100000000E-03 0.  1.
    9900012    2    1    2    0    0 -0.10310034439E+02  0.16896780256E+02  0.38624156109E+02  0.47787269265E+02  0.19999991888E+02 0.  0.
        -12    1    1    2    0    0  0.10310034439E+02 -0.16896780256E+02 -0.38624156109E+02  0.43400730735E+02  0.00000000000E+00 0.  1.
         11    1    3    3    0    0 -0.15758711715E+01 -0.83359939450E+00  0.28733269272E+01  0.33814591217E+01  0.51100000000E-03 0. -1.
        -11    1    3    3    0    0  0.36027547500E+01  0.92965905516E+01  0.76085714561E+01  0.12541802005E+02  0.51100000000E-03 0.  1.
        -12    1    3    3    0    0 -0.12336918017E+02  0.84337890992E+01  0.28142257726E+02  0.31864008138E+02  0.00000000000E+00 0.  1.
</event>
<event>
 7    1  0.3837332E-009  0.4778727E+02  0.7816164E-02  0.1312668E+00
        -11   -1    0    0    0    0  0.00000000000E+00  0.00000000000E+00  0.45593999997E+02  0.45594000000E+02  0.51100000000E-03 0. -1.
         11   -1    0    0    0    0 -0.00000000000E+00 -0.00000000000E+00 -0.45593999997E+02  0.45594000000E+02  0.51100000000E-03 0.  1.
    9900012    2    1    2    0    0  0.39616622260E+01  0.41234231411E+02  0.12948611789E+02  0.47787272415E+02  0.20000006249E+02 0.  0.
        -12    1    1    2    0    0 -0.39616622260E+01 -0.41234231411E+02 -0.12948611789E+02  0.43400727585E+02  0.00000000000E+00 0.  1.
         11    1    3    3    0    0 -0.12519185277E+01  0.14994772495E+02 -0.17499663924E+01  0.15148362447E+02  0.51100000000E-03 0. -1.
        -11    1    3    3    0    0  0.39221399000E+01  0.15233161787E+02  0.21153852615E+01  0.15871586389E+02  0.51100000000E-03 0.  1.
         12    1    3    3    0    0  0.12914408536E+01  0.11006297129E+02  0.12583192920E+02  0.16767323579E+02  0.00000000000E+00 0. -1.
</event>
<event>
 7    1  0.3837332E-009  0.4778727E+02  0.7816164E-02  0.1312668E+00
        -11   -1    0    0    0    0  0.00000000000E+00  0.00000000000E+00  0.45593999997E+02  0.45594000000E+02  0.51100000000E-03 0.  1.
         11   -1    0    0    0    0 -0.00000000000E+00 -0.00000000000E+00 -0.45593999997E+02  0.45594000000E+02  0.51100000000E-03 0. -1.
    9900012    2    1    2    0    0 -0.56599052487E+01 -0.33476340648E+02 -0.27035593445E+02  0.47787271625E+02  0.20000002646E+02 0.  0.
        -12    1    1    2    0    0  0.56599052487E+01  0.33476340648E+02  0.27035593445E+02  0.43400728375E+02  0.00000000000E+00 0.  1.
         11    1    3    3    0    0 -0.48519774174E+01 -0.23079725652E+02 -0.17843112826E+02  0.29573503287E+02  0.51100000000E-03 0. -1.
        -11    1    3    3    0    0  0.43026507768E+01 -0.96353452499E+01 -0.63749450737E+01  0.12328528166E+02  0.51100000000E-03 0.  1.
        -12    1    3    3    0    0 -0.51105786080E+01 -0.76126974534E+00 -0.28175355447E+01  0.58852401718E+01  0.00000000000E+00 0.  1.
</event>
<event>
 7    1  0.3837332E-009  0.4778727E+02  0.7816164E-02  0.1312668E+00
        -11   -1    0    0    0    0  0.00000000000E+00  0.00000000000E+00  0.45593999997E+02  0.45594000000E+02  0.51100000000E-03 0.  1.
         11   -1    0    0    0    0 -0.00000000000E+00 -0.00000000000E+00 -0.45593999997E+02  0.45594000000E+02  0.51100000000E-03 0. -1.
    9900012    2    1    2    0    0  0.11473167718E+02  0.20766272825E+02 -0.36342144846E+02  0.47787272396E+02  0.20000006163E+02 0.  0.
        -12    1    1    2    0    0 -0.11473167718E+02 -0.20766272825E+02  0.36342144846E+02  0.43400727604E+02  0.00000000000E+00 0.  1.
         11    1    3    3    0    0  0.23895601584E+01  0.63147977788E+01 -0.17025655869E+02  0.18315556960E+02  0.51100000000E-03 0. -1.
        -11    1    3    3    0    0  0.18668952609E+01  0.14415521049E+02 -0.15712605479E+02  0.21405104911E+02  0.51100000000E-03 0.  1.
        -12    1    3    3    0    0  0.72167122987E+01  0.35953996278E-01 -0.36038834981E+01  0.80666105249E+01  0.00000000000E+00 0.  1.
</event>
<event>
 7    1  0.3837332E-009  0.4778727E+02  0.7816164E-02  0.1312668E+00
        -11   -1    0    0    0    0  0.00000000000E+00  0.00000000000E+00  0.45593999997E+02  0.45594000000E+02  0.51100000000E-03 0.  1.
         11   -1    0    0    0    0 -0.00000000000E+00 -0.00000000000E+00 -0.45593999997E+02  0.45594000000E+02  0.51100000000E-03 0. -1.
    9900012    2    1    2    0    0  0.34652890295E+02 -0.26099455627E+02 -0.12724484244E+01  0.47787268269E+02  0.19999987344E+02 0.  0.
        -12    1    1    2    0    0 -0.34652890295E+02  0.26099455627E+02  0.12724484244E+01  0.43400731731E+02  0.00000000000E+00 0.  1.
         11    1    3    3    0    0  0.24529832280E+02 -0.21338082462E+02 -0.73445947222E+01  0.33331209200E+02  0.51100000000E-03 0. -1.
        -11    1    3    3    0    0  0.49403625880E+00  0.83197232884E+00 -0.89696266040E+00  0.13193907898E+01  0.51100000000E-03 0.  1.
         12    1    3    3    0    0  0.96290217564E+01 -0.55933454936E+01  0.69691089582E+01  0.13136668279E+02  0.00000000000E+00 0. -1.
</event>
<event>
 7    1  0.3837332E-009  0.4778727E+02  0.7816164E-02  0.1312668E+00
        -11   -1    0    0    0    0  0.00000000000E+00  0.00000000000E+00  0.45593999997E+02  0.45594000000E+02  0.51100000000E-03 0.  1.
         11   -1    0    0    0    0 -0.00000000000E+00 -0.00000000000E+00 -0.45593999997E+02  0.45594000000E+02  0.51100000000E-03 0. -1.
    9900012    2    1    2    0    0 -0.17003907923E+02 -0.19569820639E+02 -0.34806787537E+02  0.47787271629E+02  0.20000002664E+02 0.  0.
        -12    1    1    2    0    0  0.17003907923E+02  0.19569820639E+02  0.34806787537E+02  0.43400728371E+02  0.00000000000E+00 0.  1.
         11    1    3    3    0    0 -0.51837099610E+01 -0.10542792058E+02 -0.94737512203E+01  0.15092159414E+02  0.51100000000E-03 0. -1.
        -11    1    3    3    0    0 -0.46710972558E+01 -0.47521343328E+01 -0.70987675797E+00  0.67011831465E+01  0.51100000000E-03 0.  1.
         12    1    3    3    0    0 -0.71491007067E+01 -0.42748942485E+01 -0.24623159559E+02  0.25993929068E+02  0.00000000000E+00 0. -1.
</event>
<event>
 7    1  0.3837332E-009  0.4778727E+02  0.7816164E-02  0.1312668E+00
        -11   -1    0    0    0    0  0.00000000000E+00  0.00000000000E+00  0.45593999997E+02  0.45594000000E+02  0.51100000000E-03 0.  1.
         11   -1    0    0    0    0 -0.00000000000E+00 -0.00000000000E+00 -0.45593999997E+02  0.45594000000E+02  0.51100000000E-03 0. -1.
    9900012    2    1    2    0    0  0.16322760612E+02 -0.88460468105E+01 -0.39229306729E+02  0.47787267695E+02  0.19999984729E+02 0.  0.
        -12    1    1    2    0    0 -0.16322760612E+02  0.88460468105E+01  0.39229306729E+02  0.43400732305E+02  0.00000000000E+00 0.  1.
         11    1    3    3    0    0  0.55794364735E+01 -0.31771902449E+01 -0.27351971824E+02  0.28095462484E+02  0.51100000000E-03 0.  1.
        -11    1    3    3    0    0  0.55594385848E+01 -0.72850770690E+01 -0.10785770494E+02  0.14153181645E+02  0.51100000000E-03 0. -1.
        -12    1    3    3    0    0  0.51838855535E+01  0.16162205034E+01 -0.10915644107E+01  0.55386235664E+01  0.00000000000E+00 0.  1.
</event>
<event>
 7    1  0.3837332E-009  0.4778723E+02  0.7816164E-02  0.1312668E+00
        -11   -1    0    0    0    0  0.00000000000E+00  0.00000000000E+00  0.45593999997E+02  0.45594000000E+02  0.51100000000E-03 0. -1.
         11   -1    0    0    0    0 -0.00000000000E+00 -0.00000000000E+00 -0.45593999997E+02  0.45594000000E+02  0.51100000000E-03 0.  1.
    9900012    2    1    2    0    0  0.36072445542E+02 -0.19429138525E+02 -0.14314811253E+02  0.47787233043E+02  0.19999826736E+02 0.  0.
        -12    1    1    2    0    0 -0.36072445542E+02  0.19429138525E+02  0.14314811253E+02  0.43400766957E+02  0.00000000000E+00 0.  1.
         11    1    3    3    0    0  0.16409246988E+02 -0.66166481198E+01 -0.61151151507E+01  0.18719990722E+02  0.51100000000E-03 0. -1.
        -11    1    3    3    0    0  0.17548465124E+02 -0.16200855616E+02 -0.67612835576E+01  0.24821992396E+02  0.51100000000E-03 0.  1.
         12    1    3    3    0    0  0.21147334302E+01  0.33883652106E+01 -0.14384125448E+01  0.42452499255E+01  0.00000000000E+00 0. -1.
</event>
<event>
 7    1  0.3837332E-009  0.4778727E+02  0.7816164E-02  0.1312668E+00
        -11   -1    0    0    0    0  0.00000000000E+00  0.00000000000E+00  0.45593999997E+02  0.45594000000E+02  0.51100000000E-03 0. -1.
         11   -1    0    0    0    0 -0.00000000000E+00 -0.00000000000E+00 -0.45593999997E+02  0.45594000000E+02  0.51100000000E-03 0.  1.
    9900012    2    1    2    0    0  0.39035858683E+02 -0.17097066322E+02 -0.82167750673E+01  0.47787270370E+02  0.19999996925E+02 0.  0.
        -12    1    1    2    0    0 -0.39035858683E+02  0.17097066322E+02  0.82167750673E+01  0.43400729630E+02  0.00000000000E+00 0.  1.
         11    1    3    3    0    0  0.71999581575E+01 -0.44824259425E+01  0.37528713493E+00  0.84895453644E+01  0.51100000000E-03 0. -1.
        -11    1    3    3    0    0  0.29829848972E+02 -0.94634060124E+01 -0.12674456005E+02  0.33764149305E+02  0.51100000000E-03 0.  1.
        -12    1    3    3    0    0  0.20060515533E+01 -0.31512343672E+01  0.40823938025E+01  0.55335757002E+01  0.00000000000E+00 0.  1.
</event>
<event>
 7    1  0.3837332E-009  0.4778727E+02  0.7816164E-02  0.1312668E+00
        -11   -1    0    0    0    0  0.00000000000E+00  0.00000000000E+00  0.45593999997E+02  0.45594000000E+02  0.51100000000E-03 0.  1.
         11   -1    0    0    0    0 -0.00000000000E+00 -0.00000000000E+00 -0.45593999997E+02  0.45594000000E+02  0.51100000000E-03 0. -1.
    9900012    2    1    2    0    0 -0.20576304541E+02  0.18204303700E+02 -0.33598255139E+02  0.47787265788E+02  0.19999976034E+02 0.  0.
        -12    1    1    2    0    0  0.20576304541E+02 -0.18204303700E+02  0.33598255139E+02  0.43400734212E+02  0.00000000000E+00 0.  1.
         11    1    3    3    0    0 -0.10787190019E+02  0.52329283632E+01 -0.75603323531E+01  0.14174118431E+02  0.51100000000E-03 0. -1.
        -11    1    3    3    0    0 -0.18946514034E+01 -0.26943635215E+01 -0.19954560424E+01  0.38511224084E+01  0.51100000000E-03 0.  1.
         12    1    3    3    0    0 -0.78944631187E+01  0.15665738858E+02 -0.24042466744E+02  0.29762024948E+02  0.00000000000E+00 0. -1.
</event>
<event>
 7    1  0.3837332E-009  0.4778727E+02  0.7816164E-02  0.1312668E+00
        -11   -1    0    0    0    0  0.00000000000E+00  0.00000000000E+00  0.45593999997E+02  0.45594000000E+02  0.51100000000E-03 0.  1.
         11   -1    0    0    0    0 -0.00000000000E+00 -0.00000000000E+00 -0.45593999997E+02  0.45594000000E+02  0.51100000000E-03 0. -1.
    9900012    2    1    2    0    0  0.33349762315E+02 -0.96659160628E+01 -0.26038173799E+02  0.47787273340E+02  0.20000010468E+02 0.  0.
        -12    1    1    2    0    0 -0.33349762315E+02  0.96659160628E+01  0.26038173799E+02  0.43400726660E+02  0.00000000000E+00 0.  1.
         11    1    3    3    0    0  0.13261287178E+02 -0.15641182423E+00 -0.99568854201E+01  0.16583900923E+02  0.51100000000E-03 0. -1.
        -11    1    3    3    0    0  0.15760650593E+02  0.55466351627E+00 -0.89803053594E+01  0.18148047921E+02  0.51100000000E-03 0.  1.
        -12    1    3    3    0    0  0.43278245441E+01 -0.10064167755E+02 -0.71009830194E+01  0.13055324497E+02  0.00000000000E+00 0.  1.
</event>
<event>
 7    1  0.3837332E-009  0.4778728E+02  0.7816164E-02  0.1312668E+00
        -11   -1    0    0    0    0  0.00000000000E+00  0.00000000000E+00  0.45593999997E+02  0.45594000000E+02  0.51100000000E-03 0. -1.
         11   -1    0    0    0    0 -0.00000000000E+00 -0.00000000000E+00 -0.45593999997E+02  0.45594000000E+02  0.51100000000E-03 0.  1.
    9900012    2    1    2    0    0 -0.12561064045E+02 -0.15883990002E+02  0.38386732478E+02  0.47787277671E+02  0.20000030212E+02 0.  0.
        -12    1    1    2    0    0  0.12561064045E+02  0.15883990002E+02 -0.38386732478E+02  0.43400722329E+02  0.00000000000E+00 0.  1.
         11    1    3    3    0    0 -0.37584680987E+01 -0.77189580871E+01  0.28609183254E+02  0.29869612705E+02  0.51100000000E-03 0. -1.
        -11    1    3    3    0    0  0.47461708707E+00 -0.23145310107E+01  0.57794908383E+01  0.62437832914E+01  0.51100000000E-03 0.  1.
        -12    1    3    3    0    0 -0.92772130329E+01 -0.58505009045E+01  0.39980583858E+01  0.11673881674E+02  0.00000000000E+00 0.  1.
</event>
<event>
 7    1  0.3837332E-009  0.4778728E+02  0.7816164E-02  0.1312668E+00
        -11   -1    0    0    0    0  0.00000000000E+00  0.00000000000E+00  0.45593999997E+02  0.45594000000E+02  0.51100000000E-03 0.  1.
         11   -1    0    0    0    0 -0.00000000000E+00 -0.00000000000E+00 -0.45593999997E+02  0.45594000000E+02  0.51100000000E-03 0. -1.
    9900012    2    1    2    0    0 -0.31350856298E+02  0.42832372409E+01 -0.29705228019E+02  0.47787275541E+02  0.20000020502E+02 0.  0.
        -12    1    1    2    0    0  0.31350856298E+02 -0.42832372409E+01  0.29705228019E+02  0.43400724459E+02  0.00000000000E+00 0.  1.
         11    1    3    3    0    0 -0.21126307888E+02  0.27863900087E+01 -0.18822443599E+02  0.28431834931E+02  0.51100000000E-03 0. -1.
        -11    1    3    3    0    0 -0.80042758969E+01 -0.16765085375E+01 -0.12677898295E+02  0.15086690126E+02  0.51100000000E-03 0.  1.
         12    1    3    3    0    0 -0.22202725139E+01  0.31733557697E+01  0.17951138749E+01  0.42687504847E+01  0.00000000000E+00 0. -1.
</event>
<event>
 7    1  0.3837332E-009  0.4778727E+02  0.7816164E-02  0.1312668E+00
        -11   -1    0    0    0    0  0.00000000000E+00  0.00000000000E+00  0.45593999997E+02  0.45594000000E+02  0.51100000000E-03 0.  1.
         11   -1    0    0    0    0 -0.00000000000E+00 -0.00000000000E+00 -0.45593999997E+02  0.45594000000E+02  0.51100000000E-03 0. -1.
    9900012    2    1    2    0    0 -0.40341477238E+02  0.10195461436E+02  0.12338599436E+02  0.47787271254E+02  0.20000000954E+02 0.  0.
        -12    1    1    2    0    0  0.40341477238E+02 -0.10195461436E+02 -0.12338599436E+02  0.43400728746E+02  0.00000000000E+00 0.  1.
         11    1    3    3    0    0  0.38124066220E+00  0.32287017505E+01 -0.15653035201E+01  0.36083285338E+01  0.51100000000E-03 0. -1.
        -11    1    3    3    0    0 -0.57385713971E+01  0.26504266439E+01  0.42987697478E+01  0.76443040677E+01  0.51100000000E-03 0.  1.
         12    1    3    3    0    0 -0.34984146503E+02  0.43163330418E+01  0.96051332088E+01  0.36534638652E+02  0.00000000000E+00 0. -1.
</event>
<event>
 7    1  0.3837332E-009  0.4778726E+02  0.7816164E-02  0.1312668E+00
        -11   -1    0    0    0    0  0.00000000000E+00  0.00000000000E+00  0.45593999997E+02  0.45594000000E+02  0.51100000000E-03 0.  1.
         11   -1    0    0    0    0 -0.00000000000E+00 -0.00000000000E+00 -0.45593999997E+02  0.45594000000E+02  0.51100000000E-03 0. -1.
    9900012    2    1    2    0    0  0.32411255651E+02 -0.93716947529E+01 -0.27300295569E+02  0.47787259298E+02  0.19999946441E+02 0.  0.
        -12    1    1    2    0    0 -0.32411255651E+02  0.93716947529E+01  0.27300295569E+02  0.43400740702E+02  0.00000000000E+00 0.  1.
         11    1    3    3    0    0  0.21848518239E+02 -0.81944733451E+01 -0.19360570965E+02  0.30320601099E+02  0.51100000000E-03 0. -1.
        -11    1    3    3    0    0  0.34631111432E+01 -0.53490379300E+01 -0.65085668268E+01  0.91086106496E+01  0.51100000000E-03 0.  1.
        -12    1    3    3    0    0  0.70996262690E+01  0.41718165221E+01 -0.14311577764E+01  0.83580475492E+01  0.00000000000E+00 0.  1.
</event>
<event>
 7    1  0.3837332E-009  0.4778728E+02  0.7816164E-02  0.1312668E+00
        -11   -1    0    0    0    0  0.00000000000E+00  0.00000000000E+00  0.45593999997E+02  0.45594000000E+02  0.51100000000E-03 0. -1.
         11   -1    0    0    0    0 -0.00000000000E+00 -0.00000000000E+00 -0.45593999997E+02  0.45594000000E+02  0.51100000000E-03 0.  1.
    9900012    2    1    2    0    0 -0.18389327084E+02  0.35325543173E+02  0.17249955875E+02  0.47787281933E+02  0.20000049644E+02 0.  0.
        -12    1    1    2    0    0  0.18389327084E+02 -0.35325543173E+02 -0.17249955875E+02  0.43400718067E+02  0.00000000000E+00 0.  1.
         11    1    3    3    0    0 -0.10018100065E+02  0.11093991758E+02  0.11808420505E+02  0.19049351094E+02  0.51100000000E-03 0. -1.
        -11    1    3    3    0    0 -0.91867415426E+00  0.13633854282E+02  0.75498720699E+01  0.15611742802E+02  0.51100000000E-03 0.  1.
         12    1    3    3    0    0 -0.74525528646E+01  0.10597697134E+02 -0.21083366998E+01  0.13126188037E+02  0.00000000000E+00 0. -1.
</event>
<event>
 7    1  0.3837332E-009  0.4778728E+02  0.7816164E-02  0.1312668E+00
        -11   -1    0    0    0    0  0.00000000000E+00  0.00000000000E+00  0.45593999997E+02  0.45594000000E+02  0.51100000000E-03 0.  1.
         11   -1    0    0    0    0 -0.00000000000E+00 -0.00000000000E+00 -0.45593999997E+02  0.45594000000E+02  0.51100000000E-03 0. -1.
    9900012    2    1    2    0    0 -0.58077523837E+01  0.18911175286E+02 -0.38629781988E+02  0.47787278867E+02  0.20000035664E+02 0.  0.
        -12    1    1    2    0    0  0.58077523837E+01 -0.18911175286E+02  0.38629781988E+02  0.43400721133E+02  0.00000000000E+00 0.  1.
         11    1    3    3    0    0  0.62749677531E+00  0.12766851287E+02 -0.32778551947E+02  0.35182662093E+02  0.51100000000E-03 0. -1.
        -11    1    3    3    0    0 -0.39007594414E+00 -0.14069105434E+01 -0.45995585261E+00  0.15307240662E+01  0.51100000000E-03 0.  1.
        -12    1    3    3    0    0 -0.60451732148E+01  0.75512345422E+01 -0.53912741888E+01  0.11073892707E+02  0.00000000000E+00 0.  1.
</event>
<event>
 7    1  0.3837332E-009  0.4778726E+02  0.7816164E-02  0.1312668E+00
        -11   -1    0    0    0    0  0.00000000000E+00  0.00000000000E+00  0.45593999997E+02  0.45594000000E+02  0.51100000000E-03 0.  1.
         11   -1    0    0    0    0 -0.00000000000E+00 -0.00000000000E+00 -0.45593999997E+02  0.45594000000E+02  0.51100000000E-03 0. -1.
    9900012    2    1    2    0    0  0.44903440182E+01  0.13510250912E+02 -0.40999193303E+02  0.47787263594E+02  0.19999966030E+02 0.  0.
        -12    1    1    2    0    0 -0.44903440182E+01 -0.13510250912E+02  0.40999193303E+02  0.43400736406E+02  0.00000000000E+00 0.  1.
         11    1    3    3    0    0  0.11999519834E+01  0.76459637457E+00 -0.52176625820E+00  0.15154974984E+01  0.51100000000E-03 0. -1.
        -11    1    3    3    0    0  0.70313033180E+01 -0.16270543125E+01 -0.17290639902E+02  0.18736402018E+02  0.51100000000E-03 0.  1.
        -12    1    3    3    0    0 -0.37409112832E+01  0.14372708849E+02 -0.23186787143E+02  0.27535364078E+02  0.00000000000E+00 0.  1.
</event>
<event>
 7    1  0.3837332E-009  0.4778728E+02  0.7816164E-02  0.1312668E+00
        -11   -1    0    0    0    0  0.00000000000E+00  0.00000000000E+00  0.45593999997E+02  0.45594000000E+02  0.51100000000E-03 0.  1.
         11   -1    0    0    0    0 -0.00000000000E+00 -0.00000000000E+00 -0.45593999997E+02  0.45594000000E+02  0.51100000000E-03 0. -1.
    9900012    2    1    2    0    0 -0.14251411094E+02 -0.30073234624E+01 -0.40883690991E+02  0.47787275333E+02  0.20000019551E+02 0.  0.
        -12    1    1    2    0    0  0.14251411094E+02  0.30073234624E+01  0.40883690991E+02  0.43400724667E+02  0.00000000000E+00 0.  1.
         11    1    3    3    0    0 -0.98470907045E+01 -0.47194473412E+01 -0.25814174733E+02  0.28028735183E+02  0.51100000000E-03 0. -1.
        -11    1    3    3    0    0 -0.78277784466E+01 -0.41825133018E+00 -0.61281320004E+01  0.99500277216E+01  0.51100000000E-03 0.  1.
        -12    1    3    3    0    0  0.34234580572E+01  0.21303752090E+01 -0.89413842581E+01  0.98085124281E+01  0.00000000000E+00 0.  1.
</event>
<event>
 7    1  0.3837332E-009  0.4778729E+02  0.7816164E-02  0.1312668E+00
        -11   -1    0    0    0    0  0.00000000000E+00  0.00000000000E+00  0.45593999997E+02  0.45594000000E+02  0.51100000000E-03 0.  1.
         11   -1    0    0    0    0 -0.00000000000E+00 -0.00000000000E+00 -0.45593999997E+02  0.45594000000E+02  0.51100000000E-03 0. -1.
    9900012    2    1    2    0    0  0.25284583212E+02 -0.57742269727E+00 -0.35270071779E+02  0.47787291153E+02  0.20000091681E+02 0.  0.
        -12    1    1    2    0    0 -0.25284583212E+02  0.57742269727E+00  0.35270071779E+02  0.43400708847E+02  0.00000000000E+00 0.  1.
         11    1    3    3    0    0  0.37819128869E+01  0.42136505228E+01 -0.13021580859E+02  0.14199270549E+02  0.51100000000E-03 0. -1.
        -11    1    3    3    0    0  0.90472007596E+01  0.37870719178E+01 -0.65755707225E+01  0.11808127958E+02  0.51100000000E-03 0.  1.
        -12    1    3    3    0    0  0.12455469565E+02 -0.85781451379E+01 -0.15672920198E+02  0.21779892645E+02  0.00000000000E+00 0.  1.
</event>
<event>
 7    1  0.3837332E-009  0.4778727E+02  0.7816164E-02  0.1312668E+00
        -11   -1    0    0    0    0  0.00000000000E+00  0.00000000000E+00  0.45593999997E+02  0.45594000000E+02  0.51100000000E-03 0.  1.
         11   -1    0    0    0    0 -0.00000000000E+00 -0.00000000000E+00 -0.45593999997E+02  0.45594000000E+02  0.51100000000E-03 0. -1.
    9900012    2    1    2    0    0  0.76482222185E+01 -0.42565861307E+02 -0.36435421105E+01  0.47787271307E+02  0.20000001199E+02 0.  0.
        -12    1    1    2    0    0 -0.76482222185E+01  0.42565861307E+02  0.36435421105E+01  0.43400728693E+02  0.00000000000E+00 0.  1.
         11    1    3    3    0    0 -0.31295046226E+01 -0.15485836763E+02  0.94318553501E+00  0.15827019259E+02  0.51100000000E-03 0. -1.
        -11    1    3    3    0    0 -0.88599098011E+00 -0.59164498166E+00 -0.27617654224E+01  0.29601304550E+01  0.51100000000E-03 0.  1.
         12    1    3    3    0    0  0.11663717821E+02 -0.26488379563E+02 -0.18249622231E+01  0.29000121593E+02  0.00000000000E+00 0. -1.
</event>
<event>
 7    1  0.3837332E-009  0.4778727E+02  0.7816164E-02  0.1312668E+00
        -11   -1    0    0    0    0  0.00000000000E+00  0.00000000000E+00  0.45593999997E+02  0.45594000000E+02  0.51100000000E-03 0.  1.
         11   -1    0    0    0    0 -0.00000000000E+00 -0.00000000000E+00 -0.45593999997E+02  0.45594000000E+02  0.51100000000E-03 0. -1.
    9900012    2    1    2    0    0 -0.57974260977E+01 -0.42623304609E+02 -0.57677475539E+01  0.47787272391E+02  0.20000006138E+02 0.  0.
        -12    1    1    2    0    0  0.57974260977E+01  0.42623304609E+02  0.57677475539E+01  0.43400727609E+02  0.00000000000E+00 0.  1.
         11    1    3    3    0    0 -0.84905927678E+01 -0.19271188233E+02 -0.69121957671E+01  0.22164099622E+02  0.51100000000E-03 0. -1.
        -11    1    3    3    0    0  0.39169124109E+01 -0.23695765267E+02  0.19851551753E+01  0.24099218572E+02  0.51100000000E-03 0.  1.
        -12    1    3    3    0    0 -0.12237457408E+01  0.34364889115E+00 -0.84070696208E+00  0.15239541970E+01  0.00000000000E+00 0.  1.
</event>
<event>
 7    1  0.3837332E-009  0.4778725E+02  0.7816164E-02  0.1312668E+00
        -11   -1    0    0    0    0  0.00000000000E+00  0.00000000000E+00  0.45593999997E+02  0.45594000000E+02  0.51100000000E-03 0.  1.
         11   -1    0    0    0    0 -0.00000000000E+00 -0.00000000000E+00 -0.45593999997E+02  0.45594000000E+02  0.51100000000E-03 0. -1.
    9900012    2    1    2    0    0 -0.82219363648E+01  0.42276491247E+02 -0.53593884745E+01  0.47787251221E+02  0.19999909618E+02 0.  0.
        -12    1    1    2    0    0  0.82219363648E+01 -0.42276491247E+02  0.53593884745E+01  0.43400748779E+02  0.00000000000E+00 0.  1.
         11    1    3    3    0    0 -0.17455211274E+01  0.76219129721E+01 -0.48483904815E+01  0.92003962894E+01  0.51100000000E-03 0. -1.
        -11    1    3    3    0    0 -0.97022108874E+01  0.11134119047E+02 -0.13623139994E+01  0.14830960952E+02  0.51100000000E-03 0.  1.
        -12    1    3    3    0    0  0.32257956500E+01  0.23520459228E+02  0.85131600638E+00  0.23755893980E+02  0.00000000000E+00 0.  1.
</event>
<event>
 7    1  0.3837332E-009  0.4778727E+02  0.7816164E-02  0.1312668E+00
        -11   -1    0    0    0    0  0.00000000000E+00  0.00000000000E+00  0.45593999997E+02  0.45594000000E+02  0.51100000000E-03 0.  1.
         11   -1    0    0    0    0 -0.00000000000E+00 -0.00000000000E+00 -0.45593999997E+02  0.45594000000E+02  0.51100000000E-03 0. -1.
    9900012    2    1    2    0    0  0.32284675263E+01 -0.27051273948E+02 -0.33785039350E+02  0.47787270643E+02  0.19999998171E+02 0.  0.
        -12    1    1    2    0    0 -0.32284675263E+01  0.27051273948E+02  0.33785039350E+02  0.43400729357E+02  0.00000000000E+00 0.  1.
         11    1    3    3    0    0 -0.39259876583E+00 -0.30862047749E+00  0.94309284702E+00  0.10671479604E+01  0.51100000000E-03 0. -1.
        -11    1    3    3    0    0  0.89208610624E+00 -0.60753512513E+01  0.86686503944E-01  0.61411094485E+01  0.51100000000E-03 0.  1.
         12    1    3    3    0    0  0.27289801859E+01 -0.20667302219E+02 -0.34814818701E+02  0.40579013235E+02  0.00000000000E+00 0. -1.
</event>
<event>
 7    1  0.3837332E-009  0.4778727E+02  0.7816164E-02  0.1312668E+00
        -11   -1    0    0    0    0  0.00000000000E+00  0.00000000000E+00  0.45593999997E+02  0.45594000000E+02  0.51100000000E-03 0.  1.
         11   -1    0    0    0    0 -0.00000000000E+00 -0.00000000000E+00 -0.45593999997E+02  0.45594000000E+02  0.51100000000E-03 0. -1.
    9900012    2    1    2    0    0  0.14242570090E+02  0.77348702406E+01 -0.40260949665E+02  0.47787273182E+02  0.20000009747E+02 0.  0.
        -12    1    1    2    0    0 -0.14242570090E+02 -0.77348702406E+01  0.40260949665E+02  0.43400726818E+02  0.00000000000E+00 0.  1.
         11    1    3    3    0    0  0.76632753495E+01  0.77472123481E+01 -0.22359321508E+02  0.24873366214E+02  0.51100000000E-03 0. -1.
        -11    1    3    3    0    0  0.10433553120E+02 -0.20933830389E+00 -0.13407617359E+02  0.16990204730E+02  0.51100000000E-03 0.  1.
        -12    1    3    3    0    0 -0.38542583802E+01  0.19699619643E+00 -0.44940107971E+01  0.59237022382E+01  0.00000000000E+00 0.  1.
</event>
<event>
 7    1  0.3837332E-009  0.4778728E+02  0.7816164E-02  0.1312668E+00
        -11   -1    0    0    0    0  0.00000000000E+00  0.00000000000E+00  0.45593999997E+02  0.45594000000E+02  0.51100000000E-03 0.  1.
         11   -1    0    0    0    0 -0.00000000000E+00 -0.00000000000E+00 -0.45593999997E+02  0.45594000000E+02  0.51100000000E-03 0. -1.
    9900012    2    1    2    0    0  0.11264344618E+01  0.34295626083E+02 -0.26573746784E+02  0.47787276030E+02  0.20000022730E+02 0.  0.
        -12    1    1    2    0    0 -0.11264344618E+01 -0.34295626083E+02  0.26573746784E+02  0.43400723970E+02  0.00000000000E+00 0.  1.
         11    1    3    3    0    0 -0.29156745393E+01  0.32477988287E+02 -0.28093221526E+02  0.43041259010E+02  0.51100000000E-03 0. -1.
        -11    1    3    3    0    0  0.17570266368E+01  0.78764818778E+00  0.26666608444E+00  0.19438732808E+01  0.51100000000E-03 0.  1.
         12    1    3    3    0    0  0.22850823643E+01  0.10299896081E+01  0.12528086570E+01  0.28021437393E+01  0.00000000000E+00 0. -1.
</event>
<event>
 7    1  0.3837332E-009  0.4778727E+02  0.7816164E-02  0.1312668E+00
        -11   -1    0    0    0    0  0.00000000000E+00  0.00000000000E+00  0.45593999997E+02  0.45594000000E+02  0.51100000000E-03 0. -1.
         11   -1    0    0    0    0 -0.00000000000E+00 -0.00000000000E+00 -0.45593999997E+02  0.45594000000E+02  0.51100000000E-03 0.  1.
    9900012    2    1    2    0    0 -0.20328812897E+02  0.29954833288E+02  0.23938896185E+02  0.47787269341E+02  0.19999992235E+02 0.  0.
        -12    1    1    2    0    0  0.20328812897E+02 -0.29954833288E+02 -0.23938896185E+02  0.43400730659E+02  0.00000000000E+00 0.  1.
         11    1    3    3    0    0 -0.76002559713E+01  0.43336452727E+01  0.14987042578E+02  0.17353841583E+02  0.51100000000E-03 0. -1.
        -11    1    3    3    0    0 -0.56683042775E+01  0.76333266142E+01  0.48730626819E+01  0.10683823695E+02  0.51100000000E-03 0.  1.
        -12    1    3    3    0    0 -0.70602526482E+01  0.17987861402E+02  0.40787909247E+01  0.19749604064E+02  0.00000000000E+00 0.  1.
</event>
<event>
 7    1  0.3837332E-009  0.4778727E+02  0.7816164E-02  0.1312668E+00
        -11   -1    0    0    0    0  0.00000000000E+00  0.00000000000E+00  0.45593999997E+02  0.45594000000E+02  0.51100000000E-03 0.  1.
         11   -1    0    0    0    0 -0.00000000000E+00 -0.00000000000E+00 -0.45593999997E+02  0.45594000000E+02  0.51100000000E-03 0. -1.
    9900012    2    1    2    0    0 -0.23728972768E+02 -0.31839102555E+02 -0.17516584478E+02  0.47787270376E+02  0.19999996951E+02 0.  0.
        -12    1    1    2    0    0  0.23728972768E+02  0.31839102555E+02  0.17516584478E+02  0.43400729624E+02  0.00000000000E+00 0.  1.
         11    1    3    3    0    0  0.40204813191E+00  0.12658175333E+01  0.47061854408E+00  0.14090489002E+01  0.51100000000E-03 0. -1.
        -11    1    3    3    0    0 -0.78503268431E+01 -0.58290486365E+01  0.19028099751E+00  0.97796547316E+01  0.51100000000E-03 0.  1.
         12    1    3    3    0    0 -0.16280694057E+02 -0.27275871452E+02 -0.18177484020E+02  0.36598566744E+02  0.00000000000E+00 0. -1.
</event>
<event>
 7    1  0.3837332E-009  0.4778727E+02  0.7816164E-02  0.1312668E+00
        -11   -1    0    0    0    0  0.00000000000E+00  0.00000000000E+00  0.45593999997E+02  0.45594000000E+02  0.51100000000E-03 0. -1.
         11   -1    0    0    0    0 -0.00000000000E+00 -0.00000000000E+00 -0.45593999997E+02  0.45594000000E+02  0.51100000000E-03 0.  1.
    9900012    2    1    2    0    0 -0.35628313828E+01 -0.42994639984E+02 -0.47318511353E+01  0.47787271320E+02  0.20000001255E+02 0.  0.
        -12    1    1    2    0    0  0.35628313828E+01  0.42994639984E+02  0.47318511353E+01  0.43400728680E+02  0.00000000000E+00 0.  1.
         11    1    3    3    0    0 -0.66265023346E+01 -0.18041057216E+02 -0.54458473475E+01  0.19976174114E+02  0.51100000000E-03 0. -1.
        -11    1    3    3    0    0  0.13345597377E+01  0.84275091402E+00  0.11505147422E+01  0.19531930856E+01  0.51100000000E-03 0.  1.
        -12    1    3    3    0    0  0.17291112140E+01 -0.25796333683E+02 -0.43651852997E+00  0.25857904120E+02  0.00000000000E+00 0.  1.
</event>
<event>
 7    1  0.3837332E-009  0.4778726E+02  0.7816164E-02  0.1312668E+00
        -11   -1    0    0    0    0  0.00000000000E+00  0.00000000000E+00  0.45593999997E+02  0.45594000000E+02  0.51100000000E-03 0. -1.
         11   -1    0    0    0    0 -0.00000000000E+00 -0.00000000000E+00 -0.45593999997E+02  0.45594000000E+02  0.51100000000E-03 0.  1.
    9900012    2    1    2    0    0  0.20609726215E+02 -0.20720451739E+02  0.32086225972E+02  0.47787264614E+02  0.19999970681E+02 0.  0.
        -12    1    1    2    0    0 -0.20609726215E+02  0.20720451739E+02 -0.32086225972E+02  0.43400735386E+02  0.00000000000E+00 0.  1.
         11    1    3    3    0    0  0.96559567656E+01  0.67369442528E-01  0.89360767063E+01  0.13156576563E+02  0.51100000000E-03 0. -1.
        -11    1    3    3    0    0 -0.15205435712E+00 -0.21816638541E+01  0.77351987284E+01  0.80384126125E+01  0.51100000000E-03 0.  1.
        -12    1    3    3    0    0  0.11105823806E+02 -0.18606157328E+02  0.15414950537E+02  0.26592275438E+02  0.00000000000E+00 0.  1.
</event>
<event>
 7    1  0.3837332E-009  0.4778727E+02  0.7816164E-02  0.1312668E+00
        -11   -1    0    0    0    0  0.00000000000E+00  0.00000000000E+00  0.45593999997E+02  0.45594000000E+02  0.51100000000E-03 0.  1.
         11   -1    0    0    0    0 -0.00000000000E+00 -0.00000000000E+00 -0.45593999997E+02  0.45594000000E+02  0.51100000000E-03 0. -1.
    9900012    2    1    2    0    0 -0.30459632304E+02 -0.26741385581E+02 -0.15515551364E+02  0.47787271469E+02  0.20000001936E+02 0.  0.
        -12    1    1    2    0    0  0.30459632304E+02  0.26741385581E+02  0.15515551364E+02  0.43400728531E+02  0.00000000000E+00 0.  1.
         11    1    3    3    0    0  0.13367445867E+01 -0.38912450251E+00 -0.59530413122E+00  0.15141635441E+01  0.51100000000E-03 0. -1.
        -11    1    3    3    0    0  0.48095636699E+00 -0.31236061156E+01 -0.38760372400E+01  0.50011897723E+01  0.51100000000E-03 0.  1.
         12    1    3    3    0    0 -0.32277333258E+02 -0.23228654963E+02 -0.11044209993E+02  0.41271918153E+02  0.00000000000E+00 0. -1.
</event>
<event>
 7    1  0.3837332E-009  0.4778727E+02  0.7816164E-02  0.1312668E+00
        -11   -1    0    0    0    0  0.00000000000E+00  0.00000000000E+00  0.45593999997E+02  0.45594000000E+02  0.51100000000E-03 0.  1.
         11   -1    0    0    0    0 -0.00000000000E+00 -0.00000000000E+00 -0.45593999997E+02  0.45594000000E+02  0.51100000000E-03 0. -1.
    9900012    2    1    2    0    0  0.31352137755E+02  0.14820563689E+02 -0.26096312666E+02  0.47787272073E+02  0.20000004688E+02 0.  0.
        -12    1    1    2    0    0 -0.31352137755E+02 -0.14820563689E+02  0.26096312666E+02  0.43400727927E+02  0.00000000000E+00 0.  1.
         11    1    3    3    0    0  0.30111209055E+01 -0.12670715273E+00 -0.28737674552E+01  0.41643058795E+01  0.51100000000E-03 0. -1.
        -11    1    3    3    0    0  0.21734477278E+01 -0.36253735848E+01 -0.39988950337E+00  0.42458356694E+01  0.51100000000E-03 0.  1.
         12    1    3    3    0    0  0.26167569122E+02  0.18572644427E+02 -0.22822655707E+02  0.39377130524E+02  0.00000000000E+00 0. -1.
</event>
<event>
 7    1  0.3837332E-009  0.4778727E+02  0.7816164E-02  0.1312668E+00
        -11   -1    0    0    0    0  0.00000000000E+00  0.00000000000E+00  0.45593999997E+02  0.45594000000E+02  0.51100000000E-03 0.  1.
         11   -1    0    0    0    0 -0.00000000000E+00 -0.00000000000E+00 -0.45593999997E+02  0.45594000000E+02  0.51100000000E-03 0. -1.
    9900012    2    1    2    0    0  0.41160892340E+02  0.68743691242E+01 -0.11922554751E+02  0.47787270503E+02  0.19999997530E+02 0.  0.
        -12    1    1    2    0    0 -0.41160892340E+02 -0.68743691242E+01  0.11922554751E+02  0.43400729497E+02  0.00000000000E+00 0.  1.
         11    1    3    3    0    0  0.63938921239E+01 -0.13615837739E+01  0.30007662473E+01  0.71930775887E+01  0.51100000000E-03 0. -1.
        -11    1    3    3    0    0  0.21197481974E+02  0.56848241349E+01 -0.26231838109E+01  0.22102750079E+02  0.51100000000E-03 0.  1.
        -12    1    3    3    0    0  0.13569518243E+02  0.25511287632E+01 -0.12300137187E+02  0.18491442835E+02  0.00000000000E+00 0.  1.
</event>
<event>
 7    1  0.3914923E-009  0.4778727E+02  0.7816164E-02  0.1312668E+00
        -11   -1    0    0    0    0  0.00000000000E+00  0.00000000000E+00  0.45593999997E+02  0.45594000000E+02  0.51100000000E-03 0.  1.
         11   -1    0    0    0    0 -0.00000000000E+00 -0.00000000000E+00 -0.45593999997E+02  0.45594000000E+02  0.51100000000E-03 0. -1.
    9900012    2    1    2    0    0  0.22007047995E+02  0.16495025134E+02 -0.33574210111E+02  0.47787267285E+02  0.19999982858E+02 0.  0.
        -12    1    1    2    0    0 -0.22007047995E+02 -0.16495025134E+02  0.33574210111E+02  0.43400732715E+02  0.00000000000E+00 0.  1.
         11    1    3    3    0    0  0.73879691550E+01  0.54829665034E+00 -0.25528327186E+01  0.78357943186E+01  0.51100000000E-03 0. -1.
        -11    1    3    3    0    0 -0.22350244600E+01  0.37203917898E+01 -0.48685159688E+01  0.65222003500E+01  0.51100000000E-03 0.  1.
         12    1    3    3    0    0  0.16854103300E+02  0.12226336694E+02 -0.26152861424E+02  0.33429272616E+02  0.00000000000E+00 0. -1.
</event>
<event>
 7    1  0.3837332E-009  0.4778728E+02  0.7816164E-02  0.1312668E+00
        -11   -1    0    0    0    0  0.00000000000E+00  0.00000000000E+00  0.45593999997E+02  0.45594000000E+02  0.51100000000E-03 0.  1.
         11   -1    0    0    0    0 -0.00000000000E+00 -0.00000000000E+00 -0.45593999997E+02  0.45594000000E+02  0.51100000000E-03 0. -1.
    9900012    2    1    2    0    0  0.86760280317E+00  0.39969287980E+02 -0.16891601658E+02  0.47787275089E+02  0.20000018442E+02 0.  0.
        -12    1    1    2    0    0 -0.86760280317E+00 -0.39969287980E+02  0.16891601658E+02  0.43400724911E+02  0.00000000000E+00 0.  1.
         11    1    3    3    0    0  0.28722459618E+01  0.22797143036E+02 -0.12242158102E+02  0.26035167807E+02  0.51100000000E-03 0. -1.
        -11    1    3    3    0    0  0.52028907487E+01  0.84887582878E+01 -0.18796982104E+01  0.10132243337E+02  0.51100000000E-03 0.  1.
         12    1    3    3    0    0 -0.72075339073E+01  0.86833866561E+01 -0.27697453451E+01  0.11619863946E+02  0.00000000000E+00 0. -1.
</event>
<event>
 7    1  0.3837332E-009  0.4778727E+02  0.7816164E-02  0.1312668E+00
        -11   -1    0    0    0    0  0.00000000000E+00  0.00000000000E+00  0.45593999997E+02  0.45594000000E+02  0.51100000000E-03 0. -1.
         11   -1    0    0    0    0 -0.00000000000E+00 -0.00000000000E+00 -0.45593999997E+02  0.45594000000E+02  0.51100000000E-03 0.  1.
    9900012    2    1    2    0    0 -0.37207034009E+02 -0.17021058491E+02  0.14475618329E+02  0.47787270307E+02  0.19999996636E+02 0.  0.
        -12    1    1    2    0    0  0.37207034009E+02  0.17021058491E+02 -0.14475618329E+02  0.43400729693E+02  0.00000000000E+00 0.  1.
         11    1    3    3    0    0 -0.76940271526E+01 -0.24879308751E+01  0.64072705789E+01  0.10317023330E+02  0.51100000000E-03 0. -1.
        -11    1    3    3    0    0 -0.61133426404E+01 -0.89525763268E+01  0.78998100118E+01  0.13413745920E+02  0.51100000000E-03 0.  1.
         12    1    3    3    0    0 -0.23399664216E+02 -0.55805512893E+01  0.16853773857E+00  0.24056501056E+02  0.00000000000E+00 0. -1.
</event>
<event>
 7    1  0.3837332E-009  0.4778727E+02  0.7816164E-02  0.1312668E+00
        -11   -1    0    0    0    0  0.00000000000E+00  0.00000000000E+00  0.45593999997E+02  0.45594000000E+02  0.51100000000E-03 0. -1.
         11   -1    0    0    0    0 -0.00000000000E+00 -0.00000000000E+00 -0.45593999997E+02  0.45594000000E+02  0.51100000000E-03 0.  1.
    9900012    2    1    2    0    0  0.24929765297E+02  0.23493498301E+02  0.26649307193E+02  0.47787271503E+02  0.20000002092E+02 0.  0.
        -12    1    1    2    0    0 -0.24929765297E+02 -0.23493498301E+02 -0.26649307193E+02  0.43400728497E+02  0.00000000000E+00 0.  1.
         11    1    3    3    0    0  0.37079016800E+01 -0.57996964495E+00  0.48487251637E+01  0.61314790738E+01  0.51100000000E-03 0. -1.
        -11    1    3    3    0    0  0.19998674229E+02  0.12113270194E+02  0.12960372856E+02  0.26732930078E+02  0.51100000000E-03 0.  1.
        -12    1    3    3    0    0  0.12231893879E+01  0.11960197752E+02  0.88402091732E+01  0.14922862352E+02  0.00000000000E+00 0.  1.
</event>
<event>
 7    1  0.3837332E-009  0.4778727E+02  0.7816164E-02  0.1312668E+00
        -11   -1    0    0    0    0  0.00000000000E+00  0.00000000000E+00  0.45593999997E+02  0.45594000000E+02  0.51100000000E-03 0.  1.
         11   -1    0    0    0    0 -0.00000000000E+00 -0.00000000000E+00 -0.45593999997E+02  0.45594000000E+02  0.51100000000E-03 0. -1.
    9900012    2    1    2    0    0  0.11397469794E+02 -0.84850940098E+01 -0.41008828908E+02  0.47787272051E+02  0.20000004589E+02 0.  0.
        -12    1    1    2    0    0 -0.11397469794E+02  0.84850940098E+01  0.41008828908E+02  0.43400727949E+02  0.00000000000E+00 0.  1.
         11    1    3    3    0    0  0.12567110566E+02 -0.69341186019E+01 -0.41524485528E+02  0.43935147290E+02  0.51100000000E-03 0. -1.
        -11    1    3    3    0    0 -0.87648201051E+00  0.85859423376E+00 -0.34861074747E+00  0.12755134211E+01  0.51100000000E-03 0.  1.
         12    1    3    3    0    0 -0.29315876127E+00 -0.24095696416E+01  0.86426736681E+00  0.25766113402E+01  0.00000000000E+00 0. -1.
</event>
<event>
 7    1  0.3837332E-009  0.4778727E+02  0.7816164E-02  0.1312668E+00
        -11   -1    0    0    0    0  0.00000000000E+00  0.00000000000E+00  0.45593999997E+02  0.45594000000E+02  0.51100000000E-03 0.  1.
         11   -1    0    0    0    0 -0.00000000000E+00 -0.00000000000E+00 -0.45593999997E+02  0.45594000000E+02  0.51100000000E-03 0. -1.
    9900012    2    1    2    0    0 -0.32377519495E+02  0.28764514008E+02 -0.28146134345E+01  0.47787273237E+02  0.20000009997E+02 0.  0.
        -12    1    1    2    0    0  0.32377519495E+02 -0.28764514008E+02  0.28146134345E+01  0.43400726763E+02  0.00000000000E+00 0.  1.
         11    1    3    3    0    0 -0.94289088187E+01  0.10801956496E+02 -0.19995649712E+01  0.14477045485E+02  0.51100000000E-03 0. -1.
        -11    1    3    3    0    0 -0.11937543571E+02  0.25753562472E+01 -0.61194625629E+01  0.13659620369E+02  0.51100000000E-03 0.  1.
        -12    1    3    3    0    0 -0.11011067105E+02  0.15387201265E+02  0.53044140996E+01  0.19650607383E+02  0.00000000000E+00 0.  1.
</event>
<event>
 7    1  0.3837332E-009  0.4778727E+02  0.7816164E-02  0.1312668E+00
        -11   -1    0    0    0    0  0.00000000000E+00  0.00000000000E+00  0.45593999997E+02  0.45594000000E+02  0.51100000000E-03 0.  1.
         11   -1    0    0    0    0 -0.00000000000E+00 -0.00000000000E+00 -0.45593999997E+02  0.45594000000E+02  0.51100000000E-03 0. -1.
    9900012    2    1    2    0    0 -0.16924016976E+01 -0.35925856896E+02 -0.24291813011E+02  0.47787267327E+02  0.19999983051E+02 0.  0.
        -12    1    1    2    0    0  0.16924016976E+01  0.35925856896E+02  0.24291813011E+02  0.43400732673E+02  0.00000000000E+00 0.  1.
         11    1    3    3    0    0  0.27043795212E+00 -0.39229669847E+01  0.13174158967E+01  0.41470943509E+01  0.51100000000E-03 0. -1.
        -11    1    3    3    0    0  0.45316059034E+01 -0.57617131325E+01 -0.10082576158E+02  0.12465597961E+02  0.51100000000E-03 0.  1.
        -12    1    3    3    0    0 -0.64944455532E+01 -0.26241176779E+02 -0.15526652750E+02  0.31174575015E+02  0.00000000000E+00 0.  1.
</event>
<event>
 7    1  0.3837332E-009  0.4778727E+02  0.7816164E-02  0.1312668E+00
        -11   -1    0    0    0    0  0.00000000000E+00  0.00000000000E+00  0.45593999997E+02  0.45594000000E+02  0.51100000000E-03 0. -1.
         11   -1    0    0    0    0 -0.00000000000E+00 -0.00000000000E+00 -0.45593999997E+02  0.45594000000E+02  0.51100000000E-03 0.  1.
    9900012    2    1    2    0    0  0.22568443016E+02  0.19338646669E+02  0.31627603185E+02  0.47787272375E+02  0.20000006067E+02 0.  0.
        -12    1    1    2    0    0 -0.22568443016E+02 -0.19338646669E+02 -0.31627603185E+02  0.43400727625E+02  0.00000000000E+00 0.  1.
         11    1    3    3    0    0  0.10135625135E+02  0.53998272298E+01  0.16657632707E+02  0.20232789196E+02  0.51100000000E-03 0. -1.
        -11    1    3    3    0    0  0.27273565085E+01  0.43261445600E+01  0.12720927881E+02  0.13710434227E+02  0.51100000000E-03 0.  1.
        -12    1    3    3    0    0  0.97054613727E+01  0.96126748791E+01  0.22490425970E+01  0.13844048952E+02  0.00000000000E+00 0.  1.
</event>
<event>
 7    1  0.3837332E-009  0.4778727E+02  0.7816164E-02  0.1312668E+00
        -11   -1    0    0    0    0  0.00000000000E+00  0.00000000000E+00  0.45593999997E+02  0.45594000000E+02  0.51100000000E-03 0.  1.
         11   -1    0    0    0    0 -0.00000000000E+00 -0.00000000000E+00 -0.45593999997E+02  0.45594000000E+02  0.51100000000E-03 0. -1.
    9900012    2    1    2    0    0 -0.96187007802E+01 -0.37475505142E+02  0.19664447131E+02  0.47787269922E+02  0.19999994882E+02 0.  0.
        -12    1    1    2    0    0  0.96187007802E+01  0.37475505142E+02 -0.19664447131E+02  0.43400730078E+02  0.00000000000E+00 0.  1.
         11    1    3    3    0    0 -0.32456196452E+01 -0.53740455613E+01  0.11727872848E+01  0.63866926380E+01  0.51100000000E-03 0. -1.
        -11    1    3    3    0    0  0.53856403542E+01 -0.96063412976E+01  0.21755383573E+01  0.11225857765E+02  0.51100000000E-03 0.  1.
        -12    1    3    3    0    0 -0.11758721489E+02 -0.22495118283E+02  0.16316121489E+02  0.30174719519E+02  0.00000000000E+00 0.  1.
</event>
<event>
 7    1  0.3837332E-009  0.4778727E+02  0.7816164E-02  0.1312668E+00
        -11   -1    0    0    0    0  0.00000000000E+00  0.00000000000E+00  0.45593999997E+02  0.45594000000E+02  0.51100000000E-03 0.  1.
         11   -1    0    0    0    0 -0.00000000000E+00 -0.00000000000E+00 -0.45593999997E+02  0.45594000000E+02  0.51100000000E-03 0. -1.
    9900012    2    1    2    0    0 -0.51027226389E+01  0.20044149530E+02 -0.38155176299E+02  0.47787272044E+02  0.20000004556E+02 0.  0.
        -12    1    1    2    0    0  0.51027226389E+01 -0.20044149530E+02  0.38155176299E+02  0.43400727956E+02  0.00000000000E+00 0.  1.
         11    1    3    3    0    0 -0.77618198641E+01  0.78085954314E+01 -0.13162097258E+02  0.17159860568E+02  0.51100000000E-03 0. -1.
        -11    1    3    3    0    0 -0.10397148292E+01 -0.88621696225E-01 -0.12986709220E+02  0.13028563902E+02  0.51100000000E-03 0.  1.
         12    1    3    3    0    0  0.36988120544E+01  0.12324175795E+02 -0.12006369821E+02  0.17598847574E+02  0.00000000000E+00 0. -1.
</event>
<event>
 7    1  0.3837332E-009  0.4778727E+02  0.7816164E-02  0.1312668E+00
        -11   -1    0    0    0    0  0.00000000000E+00  0.00000000000E+00  0.45593999997E+02  0.45594000000E+02  0.51100000000E-03 0. -1.
         11   -1    0    0    0    0 -0.00000000000E+00 -0.00000000000E+00 -0.45593999997E+02  0.45594000000E+02  0.51100000000E-03 0.  1.
    9900012    2    1    2    0    0 -0.16452727809E+02  0.34926979479E+02  0.19825158480E+02  0.47787273547E+02  0.20000011409E+02 0.  0.
        -12    1    1    2    0    0  0.16452727809E+02 -0.34926979479E+02 -0.19825158480E+02  0.43400726453E+02  0.00000000000E+00 0.  1.
         11    1    3    3    0    0 -0.38317799683E+00  0.10768220455E+01 -0.27328177604E+00  0.11751826603E+01  0.51100000000E-03 0.  1.
        -11    1    3    3    0    0 -0.15683230426E+02  0.34193505192E+02  0.22715227530E+02  0.43944750266E+02  0.51100000000E-03 0. -1.
         12    1    3    3    0    0 -0.38631938624E+00 -0.34334775853E+00 -0.26167872734E+01  0.26673406205E+01  0.00000000000E+00 0. -1.
</event>
<event>
 7    1  0.3837332E-009  0.4778726E+02  0.7816164E-02  0.1312668E+00
        -11   -1    0    0    0    0  0.00000000000E+00  0.00000000000E+00  0.45593999997E+02  0.45594000000E+02  0.51100000000E-03 0.  1.
         11   -1    0    0    0    0 -0.00000000000E+00 -0.00000000000E+00 -0.45593999997E+02  0.45594000000E+02  0.51100000000E-03 0. -1.
    9900012    2    1    2    0    0 -0.59819651200E+01 -0.15778903797E+02 -0.39985829124E+02  0.47787259886E+02  0.19999949123E+02 0.  0.
        -12    1    1    2    0    0  0.59819651200E+01  0.15778903797E+02  0.39985829124E+02  0.43400740114E+02  0.00000000000E+00 0.  1.
         11    1    3    3    0    0  0.20561045241E+01 -0.63650471666E+01 -0.15352357084E+02  0.16746231204E+02  0.51100000000E-03 0. -1.
        -11    1    3    3    0    0  0.26089826691E+01  0.19929348576E+01 -0.41779418710E+01  0.53135466925E+01  0.51100000000E-03 0.  1.
        -12    1    3    3    0    0 -0.10647052313E+02 -0.11406791488E+02 -0.20455530168E+02  0.25727481989E+02  0.00000000000E+00 0.  1.
</event>
<event>
 7    1  0.3837332E-009  0.4778726E+02  0.7816164E-02  0.1312668E+00
        -11   -1    0    0    0    0  0.00000000000E+00  0.00000000000E+00  0.45593999997E+02  0.45594000000E+02  0.51100000000E-03 0.  1.
         11   -1    0    0    0    0 -0.00000000000E+00 -0.00000000000E+00 -0.45593999997E+02  0.45594000000E+02  0.51100000000E-03 0. -1.
    9900012    2    1    2    0    0 -0.12322345190E+02  0.39954363014E+02  0.11637568050E+02  0.47787259166E+02  0.19999945839E+02 0.  0.
        -12    1    1    2    0    0  0.12322345190E+02 -0.39954363014E+02 -0.11637568050E+02  0.43400740834E+02  0.00000000000E+00 0.  1.
         11    1    3    3    0    0 -0.43786420987E+01  0.78898914703E+01  0.31235423747E+01  0.95487910894E+01  0.51100000000E-03 0. -1.
        -11    1    3    3    0    0 -0.46288294084E+01  0.57836385251E+00 -0.17101288552E+01  0.49684109533E+01  0.51100000000E-03 0.  1.
         12    1    3    3    0    0 -0.33148736831E+01  0.31486107691E+02  0.10224154530E+02  0.33270057123E+02  0.00000000000E+00 0. -1.
</event>
<event>
 7    1  0.3837332E-009  0.4778727E+02  0.7816164E-02  0.1312668E+00
        -11   -1    0    0    0    0  0.00000000000E+00  0.00000000000E+00  0.45593999997E+02  0.45594000000E+02  0.51100000000E-03 0. -1.
         11   -1    0    0    0    0 -0.00000000000E+00 -0.00000000000E+00 -0.45593999997E+02  0.45594000000E+02  0.51100000000E-03 0.  1.
    9900012    2    1    2    0    0  0.18016181919E+02  0.38552067366E+02  0.85310364009E+01  0.47787270845E+02  0.19999999090E+02 0.  0.
        -12    1    1    2    0    0 -0.18016181919E+02 -0.38552067366E+02 -0.85310364009E+01  0.43400729155E+02  0.00000000000E+00 0.  1.
         11    1    3    3    0    0  0.99008685817E+01  0.91749823966E+01 -0.65507272555E+00  0.13514311717E+02  0.51100000000E-03 0. -1.
        -11    1    3    3    0    0  0.67620517192E+01  0.19280953944E+02 -0.18282418879E+00  0.20433158184E+02  0.51100000000E-03 0.  1.
         12    1    3    3    0    0  0.13532616186E+01  0.10096131025E+02  0.93689333153E+01  0.13839800943E+02  0.00000000000E+00 0. -1.
</event>
<event>
 7    1  0.3837332E-009  0.4778727E+02  0.7816164E-02  0.1312668E+00
        -11   -1    0    0    0    0  0.00000000000E+00  0.00000000000E+00  0.45593999997E+02  0.45594000000E+02  0.51100000000E-03 0.  1.
         11   -1    0    0    0    0 -0.00000000000E+00 -0.00000000000E+00 -0.45593999997E+02  0.45594000000E+02  0.51100000000E-03 0. -1.
    9900012    2    1    2    0    0 -0.34294203855E+01 -0.43226905605E+02 -0.18157534159E+01  0.47787271287E+02  0.20000001107E+02 0.  0.
        -12    1    1    2    0    0  0.34294203855E+01  0.43226905605E+02  0.18157534159E+01  0.43400728713E+02  0.00000000000E+00 0.  1.
         11    1    3    3    0    0  0.38185806238E+01 -0.11235150975E+02 -0.23816609705E+01  0.12102994863E+02  0.51100000000E-03 0. -1.
        -11    1    3    3    0    0 -0.50262914429E+01 -0.15251490286E+02 -0.65713252647E+01  0.17350904231E+02  0.51100000000E-03 0.  1.
        -12    1    3    3    0    0 -0.22217095664E+01 -0.16740264343E+02  0.71372328193E+01  0.18333372194E+02  0.00000000000E+00 0.  1.
</event>
<event>
 7    1  0.3837332E-009  0.4778727E+02  0.7816164E-02  0.1312668E+00
        -11   -1    0    0    0    0  0.00000000000E+00  0.00000000000E+00  0.45593999997E+02  0.45594000000E+02  0.51100000000E-03 0.  1.
         11   -1    0    0    0    0 -0.00000000000E+00 -0.00000000000E+00 -0.45593999997E+02  0.45594000000E+02  0.51100000000E-03 0. -1.
    9900012    2    1    2    0    0  0.60864767501E+01 -0.17545852053E+02 -0.39226540170E+02  0.47787267550E+02  0.19999984067E+02 0.  0.
        -12    1    1    2    0    0 -0.60864767501E+01  0.17545852053E+02  0.39226540170E+02  0.43400732450E+02  0.00000000000E+00 0.  1.
         11    1    3    3    0    0 -0.44359949413E+01 -0.60688787066E+01 -0.10736076638E+02  0.13106207755E+02  0.51100000000E-03 0. -1.
        -11    1    3    3    0    0  0.70402847233E+01 -0.90596664807E+00 -0.49853779735E+01  0.86741211861E+01  0.51100000000E-03 0.  1.
         12    1    3    3    0    0  0.34821869682E+01 -0.10571006698E+02 -0.23505085558E+02  0.26006938609E+02  0.00000000000E+00 0. -1.
</event>
<event>
 7    1  0.3837332E-009  0.4778727E+02  0.7816164E-02  0.1312668E+00
        -11   -1    0    0    0    0  0.00000000000E+00  0.00000000000E+00  0.45593999997E+02  0.45594000000E+02  0.51100000000E-03 0.  1.
         11   -1    0    0    0    0 -0.00000000000E+00 -0.00000000000E+00 -0.45593999997E+02  0.45594000000E+02  0.51100000000E-03 0. -1.
    9900012    2    1    2    0    0 -0.29502060681E+02  0.59244595272E+00 -0.31826103381E+02  0.47787269211E+02  0.19999991641E+02 0.  0.
        -12    1    1    2    0    0  0.29502060681E+02 -0.59244595272E+00  0.31826103381E+02  0.43400730789E+02  0.00000000000E+00 0.  1.
         11    1    3    3    0    0 -0.76073954290E+01 -0.91599704192E+00 -0.10973513340E+02  0.13383927341E+02  0.51100000000E-03 0. -1.
        -11    1    3    3    0    0 -0.17954720083E+02 -0.53269477355E+01 -0.18105585142E+02  0.26049194978E+02  0.51100000000E-03 0.  1.
        -12    1    3    3    0    0 -0.39399451687E+01  0.68353907301E+01 -0.27470048990E+01  0.83541468912E+01  0.00000000000E+00 0.  1.
</event>
<event>
 7    1  0.3837332E-009  0.4778727E+02  0.7816164E-02  0.1312668E+00
        -11   -1    0    0    0    0  0.00000000000E+00  0.00000000000E+00  0.45593999997E+02  0.45594000000E+02  0.51100000000E-03 0.  1.
         11   -1    0    0    0    0 -0.00000000000E+00 -0.00000000000E+00 -0.45593999997E+02  0.45594000000E+02  0.51100000000E-03 0. -1.
    9900012    2    1    2    0    0 -0.16711416295E+02 -0.28612186101E+02 -0.28030239102E+02  0.47787274981E+02  0.20000017948E+02 0.  0.
        -12    1    1    2    0    0  0.16711416295E+02  0.28612186101E+02  0.28030239102E+02  0.43400725019E+02  0.00000000000E+00 0.  1.
         11    1    3    3    0    0 -0.63084128022E+01 -0.12180419732E+02 -0.17863631487E+02  0.22522611463E+02  0.51100000000E-03 0. -1.
        -11    1    3    3    0    0 -0.38321432421E+01 -0.11387866431E+02 -0.11778628192E+02  0.16825721560E+02  0.51100000000E-03 0.  1.
        -12    1    3    3    0    0 -0.65708602510E+01 -0.50438999379E+01  0.16120205777E+01  0.84389419577E+01  0.00000000000E+00 0.  1.
</event>
<event>
 7    1  0.3837332E-009  0.4778727E+02  0.7816164E-02  0.1312668E+00
        -11   -1    0    0    0    0  0.00000000000E+00  0.00000000000E+00  0.45593999997E+02  0.45594000000E+02  0.51100000000E-03 0.  1.
         11   -1    0    0    0    0 -0.00000000000E+00 -0.00000000000E+00 -0.45593999997E+02  0.45594000000E+02  0.51100000000E-03 0. -1.
    9900012    2    1    2    0    0  0.34162751443E+02 -0.15297855285E+02 -0.21966003190E+02  0.47787271220E+02  0.20000000802E+02 0.  0.
        -12    1    1    2    0    0 -0.34162751443E+02  0.15297855285E+02  0.21966003190E+02  0.43400728780E+02  0.00000000000E+00 0.  1.
         11    1    3    3    0    0  0.10914617527E+02 -0.58432389192E+01 -0.56510839658E+00  0.12393210423E+02  0.51100000000E-03 0. -1.
        -11    1    3    3    0    0  0.10534909714E+02 -0.10393223548E+02 -0.77084209726E+01  0.16686017276E+02  0.51100000000E-03 0.  1.
        -12    1    3    3    0    0  0.12713224202E+02  0.93860718126E+00 -0.13692473821E+02  0.18708043521E+02  0.00000000000E+00 0.  1.
</event>
<event>
 7    1  0.3837332E-009  0.4778726E+02  0.7816164E-02  0.1312668E+00
        -11   -1    0    0    0    0  0.00000000000E+00  0.00000000000E+00  0.45593999997E+02  0.45594000000E+02  0.51100000000E-03 0.  1.
         11   -1    0    0    0    0 -0.00000000000E+00 -0.00000000000E+00 -0.45593999997E+02  0.45594000000E+02  0.51100000000E-03 0. -1.
    9900012    2    1    2    0    0  0.53299864711E+01  0.41941239938E+02 -0.98054824197E+01  0.47787264421E+02  0.19999969801E+02 0.  0.
        -12    1    1    2    0    0 -0.53299864711E+01 -0.41941239938E+02  0.98054824197E+01  0.43400735579E+02  0.00000000000E+00 0.  1.
         11    1    3    3    0    0 -0.12765214160E+01  0.17607955975E+02 -0.44842982431E+01  0.18214789363E+02  0.51100000000E-03 0. -1.
        -11    1    3    3    0    0  0.49986232880E+01  0.18284500339E+02  0.29673310078E+01  0.19186303473E+02  0.51100000000E-03 0.  1.
        -12    1    3    3    0    0  0.16078845991E+01  0.60487836244E+01 -0.82885151843E+01  0.10386171584E+02  0.00000000000E+00 0.  1.
</event>
<event>
 7    1  0.3837332E-009  0.4778727E+02  0.7816164E-02  0.1312668E+00
        -11   -1    0    0    0    0  0.00000000000E+00  0.00000000000E+00  0.45593999997E+02  0.45594000000E+02  0.51100000000E-03 0. -1.
         11   -1    0    0    0    0 -0.00000000000E+00 -0.00000000000E+00 -0.45593999997E+02  0.45594000000E+02  0.51100000000E-03 0.  1.
    9900012    2    1    2    0    0 -0.71121721883E+01 -0.28028242870E+02  0.32364459798E+02  0.47787266715E+02  0.19999980260E+02 0.  0.
        -12    1    1    2    0    0  0.71121721883E+01  0.28028242870E+02 -0.32364459798E+02  0.43400733285E+02  0.00000000000E+00 0.  1.
         11    1    3    3    0    0 -0.55166440149E+01 -0.16815307231E+02  0.22405594119E+02  0.28551682376E+02  0.51100000000E-03 0. -1.
        -11    1    3    3    0    0 -0.21590863867E+01 -0.13616544981E+02  0.72729484793E+01  0.15587422208E+02  0.51100000000E-03 0.  1.
        -12    1    3    3    0    0  0.56355821327E+00  0.24036093412E+01  0.26859172005E+01  0.36481621308E+01  0.00000000000E+00 0.  1.
</event>
<event>
 7    1  0.3837332E-009  0.4778728E+02  0.7816164E-02  0.1312668E+00
        -11   -1    0    0    0    0  0.00000000000E+00  0.00000000000E+00  0.45593999997E+02  0.45594000000E+02  0.51100000000E-03 0.  1.
         11   -1    0    0    0    0 -0.00000000000E+00 -0.00000000000E+00 -0.45593999997E+02  0.45594000000E+02  0.51100000000E-03 0. -1.
    9900012    2    1    2    0    0  0.27332665938E+02 -0.33517381690E+02 -0.36239532750E+01  0.47787279500E+02  0.20000038550E+02 0.  0.
        -12    1    1    2    0    0 -0.27332665938E+02  0.33517381690E+02  0.36239532750E+01  0.43400720500E+02  0.00000000000E+00 0.  1.
         11    1    3    3    0    0  0.35545726644E+01 -0.86163722976E+01 -0.24614828695E+01  0.96403193192E+01  0.51100000000E-03 0. -1.
        -11    1    3    3    0    0  0.13190839351E+02 -0.16573826711E+02  0.71053577807E+01  0.22342248859E+02  0.51100000000E-03 0.  1.
        -12    1    3    3    0    0  0.10587253923E+02 -0.83271826808E+01 -0.82678281862E+01  0.15804711321E+02  0.00000000000E+00 0.  1.
</event>
<event>
 7    1  0.3837332E-009  0.4778727E+02  0.7816164E-02  0.1312668E+00
        -11   -1    0    0    0    0  0.00000000000E+00  0.00000000000E+00  0.45593999997E+02  0.45594000000E+02  0.51100000000E-03 0.  1.
         11   -1    0    0    0    0 -0.00000000000E+00 -0.00000000000E+00 -0.45593999997E+02  0.45594000000E+02  0.51100000000E-03 0. -1.
    9900012    2    1    2    0    0 -0.58177390474E+01 -0.33154471164E+02 -0.27396322256E+02  0.47787268221E+02  0.19999987127E+02 0.  0.
        -12    1    1    2    0    0  0.58177390474E+01  0.33154471164E+02  0.27396322256E+02  0.43400731779E+02  0.00000000000E+00 0.  1.
         11    1    3    3    0    0 -0.64310759042E+00 -0.31001645969E+02 -0.27814960369E+02  0.41655583789E+02  0.51100000000E-03 0. -1.
        -11    1    3    3    0    0 -0.20140888438E+01 -0.11885078597E+01 -0.99006857965E+00  0.25395552478E+01  0.51100000000E-03 0.  1.
         12    1    3    3    0    0 -0.31605426132E+01 -0.96431733530E+00  0.14087066927E+01  0.35921291846E+01  0.00000000000E+00 0. -1.
</event>
<event>
 7    1  0.3837332E-009  0.4778727E+02  0.7816164E-02  0.1312668E+00
        -11   -1    0    0    0    0  0.00000000000E+00  0.00000000000E+00  0.45593999997E+02  0.45594000000E+02  0.51100000000E-03 0. -1.
         11   -1    0    0    0    0 -0.00000000000E+00 -0.00000000000E+00 -0.45593999997E+02  0.45594000000E+02  0.51100000000E-03 0.  1.
    9900012    2    1    2    0    0  0.35790560044E+02  0.24401533279E+02  0.26878000520E+01  0.47787270931E+02  0.19999999481E+02 0.  0.
        -12    1    1    2    0    0 -0.35790560044E+02 -0.24401533279E+02 -0.26878000520E+01  0.43400729069E+02  0.00000000000E+00 0.  1.
         11    1    3    3    0    0  0.62315626787E+01 -0.22716001722E+01  0.43545205061E+00  0.66469661884E+01  0.51100000000E-03 0. -1.
        -11    1    3    3    0    0  0.14998658314E+01  0.28659393828E+01  0.28886206183E+01  0.43367424867E+01  0.51100000000E-03 0.  1.
         12    1    3    3    0    0  0.28059131534E+02  0.23807194069E+02 -0.63627261691E+00  0.36803562256E+02  0.00000000000E+00 0. -1.
</event>
<event>
 7    1  0.3837332E-009  0.4778727E+02  0.7816164E-02  0.1312668E+00
        -11   -1    0    0    0    0  0.00000000000E+00  0.00000000000E+00  0.45593999997E+02  0.45594000000E+02  0.51100000000E-03 0.  1.
         11   -1    0    0    0    0 -0.00000000000E+00 -0.00000000000E+00 -0.45593999997E+02  0.45594000000E+02  0.51100000000E-03 0. -1.
    9900012    2    1    2    0    0  0.12981899931E+02  0.15318044776E+01 -0.41385350249E+02  0.47787269983E+02  0.19999995162E+02 0.  0.
        -12    1    1    2    0    0 -0.12981899931E+02 -0.15318044776E+01  0.41385350249E+02  0.43400730017E+02  0.00000000000E+00 0.  1.
         11    1    3    3    0    0  0.12924059964E+02 -0.45628821990E+01 -0.37648104592E+02  0.40065334137E+02  0.51100000000E-03 0. -1.
        -11    1    3    3    0    0 -0.91790508568E+00  0.57141954742E+00 -0.22560655928E+00  0.11045218994E+01  0.51100000000E-03 0.  1.
         12    1    3    3    0    0  0.97574505316E+00  0.55232671292E+01 -0.35116390974E+01  0.66174139465E+01  0.00000000000E+00 0. -1.
</event>
<event>
 7    1  0.3837332E-009  0.4778728E+02  0.7816164E-02  0.1312668E+00
        -11   -1    0    0    0    0  0.00000000000E+00  0.00000000000E+00  0.45593999997E+02  0.45594000000E+02  0.51100000000E-03 0.  1.
         11   -1    0    0    0    0 -0.00000000000E+00 -0.00000000000E+00 -0.45593999997E+02  0.45594000000E+02  0.51100000000E-03 0. -1.
    9900012    2    1    2    0    0  0.26332596056E+02  0.28369548667E+02  0.19631239131E+02  0.47787280462E+02  0.20000042938E+02 0.  0.
        -12    1    1    2    0    0 -0.26332596056E+02 -0.28369548667E+02 -0.19631239131E+02  0.43400719538E+02  0.00000000000E+00 0.  1.
         11    1    3    3    0    0  0.69291631489E+01  0.23326233695E+01  0.91893999435E+01  0.11743062007E+02  0.51100000000E-03 0. -1.
        -11    1    3    3    0    0 -0.15913299585E+01  0.24446016221E+01  0.93112984204E+00  0.30619293217E+01  0.51100000000E-03 0.  1.
         12    1    3    3    0    0  0.20994762866E+02  0.23592323675E+02  0.95107093450E+01  0.32982289133E+02  0.00000000000E+00 0. -1.
</event>
<event>
 7    1  0.3837332E-009  0.4778727E+02  0.7816164E-02  0.1312668E+00
        -11   -1    0    0    0    0  0.00000000000E+00  0.00000000000E+00  0.45593999997E+02  0.45594000000E+02  0.51100000000E-03 0.  1.
         11   -1    0    0    0    0 -0.00000000000E+00 -0.00000000000E+00 -0.45593999997E+02  0.45594000000E+02  0.51100000000E-03 0. -1.
    9900012    2    1    2    0    0 -0.89276387936E+00 -0.25102857572E+02 -0.35393118011E+02  0.47787270880E+02  0.19999999251E+02 0.  0.
        -12    1    1    2    0    0  0.89276387936E+00  0.25102857572E+02  0.35393118011E+02  0.43400729120E+02  0.00000000000E+00 0.  1.
         11    1    3    3    0    0  0.37505514040E+01 -0.17892911821E+02 -0.27470910119E+02  0.32998088313E+02  0.51100000000E-03 0. -1.
        -11    1    3    3    0    0  0.18204411185E+01 -0.22660450271E+01 -0.56279383464E+01  0.63342447239E+01  0.51100000000E-03 0.  1.
        -12    1    3    3    0    0 -0.64637564019E+01 -0.49439007233E+01 -0.22942695455E+01  0.84549378432E+01  0.00000000000E+00 0.  1.
</event>
<event>
 7    1  0.3837332E-009  0.4778727E+02  0.7816164E-02  0.1312668E+00
        -11   -1    0    0    0    0  0.00000000000E+00  0.00000000000E+00  0.45593999997E+02  0.45594000000E+02  0.51100000000E-03 0.  1.
         11   -1    0    0    0    0 -0.00000000000E+00 -0.00000000000E+00 -0.45593999997E+02  0.45594000000E+02  0.51100000000E-03 0. -1.
    9900012    2    1    2    0    0  0.33107276400E+02  0.81163170886E+01 -0.26863668070E+02  0.47787274017E+02  0.20000013552E+02 0.  0.
        -12    1    1    2    0    0 -0.33107276400E+02 -0.81163170886E+01  0.26863668070E+02  0.43400725983E+02  0.00000000000E+00 0.  1.
         11    1    3    3    0    0  0.36005499737E+01  0.11998384240E+01  0.13027960615E+01  0.40125864721E+01  0.51100000000E-03 0. -1.
        -11    1    3    3    0    0 -0.93416371688E-01 -0.15115115419E+01  0.61749088475E+00  0.16354476493E+01  0.51100000000E-03 0.  1.
        -12    1    3    3    0    0  0.29600142798E+02  0.84279902065E+01 -0.28783955016E+02  0.42139239895E+02  0.00000000000E+00 0.  1.
</event>
<event>
 7    1  0.3837332E-009  0.4778727E+02  0.7816164E-02  0.1312668E+00
        -11   -1    0    0    0    0  0.00000000000E+00  0.00000000000E+00  0.45593999997E+02  0.45594000000E+02  0.51100000000E-03 0.  1.
         11   -1    0    0    0    0 -0.00000000000E+00 -0.00000000000E+00 -0.45593999997E+02  0.45594000000E+02  0.51100000000E-03 0. -1.
    9900012    2    1    2    0    0  0.15390602604E+02 -0.45282596257E+01 -0.40326756599E+02  0.47787273260E+02  0.20000010101E+02 0.  0.
        -12    1    1    2    0    0 -0.15390602604E+02  0.45282596257E+01  0.40326756599E+02  0.43400726740E+02  0.00000000000E+00 0.  1.
         11    1    3    3    0    0  0.16769123891E+02  0.27689094027E+00 -0.33750331545E+02  0.37687730952E+02  0.51100000000E-03 0. -1.
        -11    1    3    3    0    0  0.19767539966E+01 -0.16566999063E+01 -0.77117754628E+00  0.26920115177E+01  0.51100000000E-03 0.  1.
         12    1    3    3    0    0 -0.33552752827E+01 -0.31484506597E+01 -0.58052475081E+01  0.74075307904E+01  0.00000000000E+00 0. -1.
</event>
<event>
 7    1  0.3837332E-009  0.4778727E+02  0.7816164E-02  0.1312668E+00
        -11   -1    0    0    0    0  0.00000000000E+00  0.00000000000E+00  0.45593999997E+02  0.45594000000E+02  0.51100000000E-03 0.  1.
         11   -1    0    0    0    0 -0.00000000000E+00 -0.00000000000E+00 -0.45593999997E+02  0.45594000000E+02  0.51100000000E-03 0. -1.
    9900012    2    1    2    0    0  0.82334910555E+01  0.35621617560E+01 -0.42463445500E+02  0.47787267575E+02  0.19999984180E+02 0.  0.
        -12    1    1    2    0    0 -0.82334910555E+01 -0.35621617560E+01  0.42463445500E+02  0.43400732425E+02  0.00000000000E+00 0.  1.
         11    1    3    3    0    0  0.34462364349E+01  0.65241983859E+01 -0.18802165278E+02  0.20198097176E+02  0.51100000000E-03 0. -1.
        -11    1    3    3    0    0  0.14168307207E+01  0.40301137568E+01 -0.16445139936E+02  0.16990934464E+02  0.51100000000E-03 0.  1.
        -12    1    3    3    0    0  0.33704238999E+01 -0.69921503867E+01 -0.72161402863E+01  0.10598235935E+02  0.00000000000E+00 0.  1.
</event>
<event>
 7    1  0.3837332E-009  0.4778727E+02  0.7816164E-02  0.1312668E+00
        -11   -1    0    0    0    0  0.00000000000E+00  0.00000000000E+00  0.45593999997E+02  0.45594000000E+02  0.51100000000E-03 0.  1.
         11   -1    0    0    0    0 -0.00000000000E+00 -0.00000000000E+00 -0.45593999997E+02  0.45594000000E+02  0.51100000000E-03 0. -1.
    9900012    2    1    2    0    0  0.83127183201E+01  0.32769533086E+01 -0.42470971238E+02  0.47787272970E+02  0.20000008779E+02 0.  0.
        -12    1    1    2    0    0 -0.83127183201E+01 -0.32769533086E+01  0.42470971238E+02  0.43400727030E+02  0.00000000000E+00 0.  1.
         11    1    3    3    0    0 -0.10058966552E+01 -0.78114329128E+00 -0.11103626268E+02  0.11176427403E+02  0.51100000000E-03 0. -1.
        -11    1    3    3    0    0  0.27618744401E+00 -0.55527071686E+01 -0.74646534575E+01  0.93075178166E+01  0.51100000000E-03 0.  1.
         12    1    3    3    0    0  0.90424275313E+01  0.96108037685E+01 -0.23902691512E+02  0.27303327750E+02  0.00000000000E+00 0. -1.
</event>
<event>
 7    1  0.3837332E-009  0.4778727E+02  0.7816164E-02  0.1312668E+00
        -11   -1    0    0    0    0  0.00000000000E+00  0.00000000000E+00  0.45593999997E+02  0.45594000000E+02  0.51100000000E-03 0. -1.
         11   -1    0    0    0    0 -0.00000000000E+00 -0.00000000000E+00 -0.45593999997E+02  0.45594000000E+02  0.51100000000E-03 0.  1.
    9900012    2    1    2    0    0  0.88709696266E+01  0.16463873913E+02  0.39164656265E+02  0.47787267901E+02  0.19999985670E+02 0.  0.
        -12    1    1    2    0    0 -0.88709696266E+01 -0.16463873913E+02 -0.39164656265E+02  0.43400732099E+02  0.00000000000E+00 0.  1.
         11    1    3    3    0    0  0.12305701431E+01  0.18551982805E+02  0.30149091900E+02  0.35421153447E+02  0.51100000000E-03 0. -1.
        -11    1    3    3    0    0  0.15469449703E+01  0.42165477133E+00  0.68368762023E+00  0.17430606732E+01  0.51100000000E-03 0.  1.
        -12    1    3    3    0    0  0.60934545132E+01 -0.25097636633E+01  0.83318767449E+01  0.10623053781E+02  0.00000000000E+00 0.  1.
</event>
<event>
 7    1  0.3837332E-009  0.4778727E+02  0.7816164E-02  0.1312668E+00
        -11   -1    0    0    0    0  0.00000000000E+00  0.00000000000E+00  0.45593999997E+02  0.45594000000E+02  0.51100000000E-03 0. -1.
         11   -1    0    0    0    0 -0.00000000000E+00 -0.00000000000E+00 -0.45593999997E+02  0.45594000000E+02  0.51100000000E-03 0.  1.
    9900012    2    1    2    0    0  0.41117370248E+02  0.13283911410E+02  0.40648245988E+01  0.47787271463E+02  0.20000001911E+02 0.  0.
        -12    1    1    2    0    0 -0.41117370248E+02 -0.13283911410E+02 -0.40648245988E+01  0.43400728537E+02  0.00000000000E+00 0.  1.
         11    1    3    3    0    0  0.12857017381E+02  0.12151118474E+01 -0.32745894809E+01  0.13323000010E+02  0.51100000000E-03 0. -1.
        -11    1    3    3    0    0  0.18190521981E+02  0.12365693477E+02 -0.76013538486E-02  0.21995579627E+02  0.51100000000E-03 0.  1.
         12    1    3    3    0    0  0.10069830887E+02 -0.29689391394E+00  0.73470154335E+01  0.12468691826E+02  0.00000000000E+00 0. -1.
</event>
<event>
 7    1  0.3837332E-009  0.4778727E+02  0.7816164E-02  0.1312668E+00
        -11   -1    0    0    0    0  0.00000000000E+00  0.00000000000E+00  0.45593999997E+02  0.45594000000E+02  0.51100000000E-03 0.  1.
         11   -1    0    0    0    0 -0.00000000000E+00 -0.00000000000E+00 -0.45593999997E+02  0.45594000000E+02  0.51100000000E-03 0. -1.
    9900012    2    1    2    0    0  0.15137151303E+01  0.28407607176E+02 -0.32777122079E+02  0.47787271772E+02  0.20000003318E+02 0.  0.
        -12    1    1    2    0    0 -0.15137151303E+01 -0.28407607176E+02  0.32777122079E+02  0.43400728228E+02  0.00000000000E+00 0.  1.
         11    1    3    3    0    0 -0.99211994588E+00  0.20401965209E+02 -0.19108713856E+02  0.27970831805E+02  0.51100000000E-03 0. -1.
        -11    1    3    3    0    0  0.59557148460E+01  0.86784792025E+01 -0.83213431144E+01  0.13417574001E+02  0.51100000000E-03 0.  1.
        -12    1    3    3    0    0 -0.34498797698E+01 -0.67283723573E+00 -0.53470651082E+01  0.63988659654E+01  0.00000000000E+00 0.  1.
</event>
<event>
 7    1  0.3837332E-009  0.4778727E+02  0.7816164E-02  0.1312668E+00
        -11   -1    0    0    0    0  0.00000000000E+00  0.00000000000E+00  0.45593999997E+02  0.45594000000E+02  0.51100000000E-03 0.  1.
         11   -1    0    0    0    0 -0.00000000000E+00 -0.00000000000E+00 -0.45593999997E+02  0.45594000000E+02  0.51100000000E-03 0. -1.
    9900012    2    1    2    0    0  0.15612193015E+02 -0.22850722212E+02 -0.33432434696E+02  0.47787265375E+02  0.19999974149E+02 0.  0.
        -12    1    1    2    0    0 -0.15612193015E+02  0.22850722212E+02  0.33432434696E+02  0.43400734625E+02  0.00000000000E+00 0.  1.
         11    1    3    3    0    0  0.15916750604E+02 -0.14754767045E+02 -0.19871682440E+02  0.29426686249E+02  0.51100000000E-03 0. -1.
        -11    1    3    3    0    0  0.73681364539E+00 -0.80292428615E+00  0.13465511232E+01  0.17322765212E+01  0.51100000000E-03 0.  1.
        -12    1    3    3    0    0 -0.10413712339E+01 -0.72930308803E+01 -0.14907303379E+02  0.16628302604E+02  0.00000000000E+00 0.  1.
</event>
<event>
 7    1  0.3837332E-009  0.4778728E+02  0.7816164E-02  0.1312668E+00
        -11   -1    0    0    0    0  0.00000000000E+00  0.00000000000E+00  0.45593999997E+02  0.45594000000E+02  0.51100000000E-03 0.  1.
         11   -1    0    0    0    0 -0.00000000000E+00 -0.00000000000E+00 -0.45593999997E+02  0.45594000000E+02  0.51100000000E-03 0. -1.
    9900012    2    1    2    0    0  0.39146857640E+01 -0.38905689188E+02 -0.18832019014E+02  0.47787281620E+02  0.20000048216E+02 0.  0.
        -12    1    1    2    0    0 -0.39146857640E+01  0.38905689188E+02  0.18832019014E+02  0.43400718380E+02  0.00000000000E+00 0.  1.
         11    1    3    3    0    0  0.63936336734E+00  0.12696617481E+01 -0.72444640814E+00  0.15955091129E+01  0.51100000000E-03 0. -1.
        -11    1    3    3    0    0 -0.42285483662E+00 -0.27727130973E+01 -0.61352798936E+01  0.67459916815E+01  0.51100000000E-03 0.  1.
         12    1    3    3    0    0  0.36981772332E+01 -0.37402637838E+02 -0.11972292712E+02  0.39445780825E+02  0.00000000000E+00 0. -1.
</event>
<event>
 7    1  0.3837332E-009  0.4778727E+02  0.7816164E-02  0.1312668E+00
        -11   -1    0    0    0    0  0.00000000000E+00  0.00000000000E+00  0.45593999997E+02  0.45594000000E+02  0.51100000000E-03 0.  1.
         11   -1    0    0    0    0 -0.00000000000E+00 -0.00000000000E+00 -0.45593999997E+02  0.45594000000E+02  0.51100000000E-03 0. -1.
    9900012    2    1    2    0    0 -0.32686258809E+02 -0.15933783167E+02 -0.23692745463E+02  0.47787272488E+02  0.20000006583E+02 0.  0.
        -12    1    1    2    0    0  0.32686258809E+02  0.15933783167E+02  0.23692745463E+02  0.43400727512E+02  0.00000000000E+00 0.  1.
         11    1    3    3    0    0 -0.77139515672E+01 -0.52430268327E+01 -0.62542575394E+01  0.11229876080E+02  0.51100000000E-03 0. -1.
        -11    1    3    3    0    0 -0.22340093308E+02 -0.12458111744E+02 -0.83115682506E+01  0.26895473304E+02  0.51100000000E-03 0.  1.
         12    1    3    3    0    0 -0.26322139345E+01  0.17673554097E+01 -0.91269196733E+01  0.96619231038E+01  0.00000000000E+00 0. -1.
</event>
<event>
 7    1  0.3837332E-009  0.4778724E+02  0.7816164E-02  0.1312668E+00
        -11   -1    0    0    0    0  0.00000000000E+00  0.00000000000E+00  0.45593999997E+02  0.45594000000E+02  0.51100000000E-03 0.  1.
         11   -1    0    0    0    0 -0.00000000000E+00 -0.00000000000E+00 -0.45593999997E+02  0.45594000000E+02  0.51100000000E-03 0. -1.
    9900012    2    1    2    0    0  0.21077916524E+02 -0.37237799756E+02  0.72590291326E+01  0.47787241946E+02  0.19999867328E+02 0.  0.
        -12    1    1    2    0    0 -0.21077916524E+02  0.37237799756E+02 -0.72590291326E+01  0.43400758054E+02  0.00000000000E+00 0.  1.
         11    1    3    3    0    0  0.13817993543E+02 -0.66385334933E+01  0.63468082399E+00  0.15343073111E+02  0.51100000000E-03 0. -1.
        -11    1    3    3    0    0 -0.47307950002E+00 -0.45920345544E+01  0.65297988825E+00  0.46622921999E+01  0.51100000000E-03 0.  1.
         12    1    3    3    0    0  0.77330024815E+01 -0.26007231709E+02  0.59713684204E+01  0.27781876635E+02  0.00000000000E+00 0. -1.
</event>
<event>
 7    1  0.3837332E-009  0.4778727E+02  0.7816164E-02  0.1312668E+00
        -11   -1    0    0    0    0  0.00000000000E+00  0.00000000000E+00  0.45593999997E+02  0.45594000000E+02  0.51100000000E-03 0.  1.
         11   -1    0    0    0    0 -0.00000000000E+00 -0.00000000000E+00 -0.45593999997E+02  0.45594000000E+02  0.51100000000E-03 0. -1.
    9900012    2    1    2    0    0  0.32232763628E+02  0.16994089153E+02 -0.23576959158E+02  0.47787272812E+02  0.20000008061E+02 0.  0.
        -12    1    1    2    0    0 -0.32232763628E+02 -0.16994089153E+02  0.23576959158E+02  0.43400727188E+02  0.00000000000E+00 0.  1.
         11    1    3    3    0    0 -0.45658030460E+00  0.60354491993E+00  0.30036603477E+00  0.81421868124E+00  0.51100000000E-03 0. -1.
        -11    1    3    3    0    0  0.11357865233E+02  0.57017855644E+01 -0.18615813716E+02  0.22540185932E+02  0.51100000000E-03 0.  1.
         12    1    3    3    0    0  0.21331478700E+02  0.10688758669E+02 -0.52615114769E+01  0.24432868199E+02  0.00000000000E+00 0. -1.
</event>
<event>
 7    1  0.3837332E-009  0.4778727E+02  0.7816164E-02  0.1312668E+00
        -11   -1    0    0    0    0  0.00000000000E+00  0.00000000000E+00  0.45593999997E+02  0.45594000000E+02  0.51100000000E-03 0.  1.
         11   -1    0    0    0    0 -0.00000000000E+00 -0.00000000000E+00 -0.45593999997E+02  0.45594000000E+02  0.51100000000E-03 0. -1.
    9900012    2    1    2    0    0  0.66399352516E+01 -0.23113168073E+02 -0.36129161304E+02  0.47787267575E+02  0.19999984179E+02 0.  0.
        -12    1    1    2    0    0 -0.66399352516E+01  0.23113168073E+02  0.36129161304E+02  0.43400732425E+02  0.00000000000E+00 0.  1.
         11    1    3    3    0    0  0.41109635992E+01 -0.10237714967E+02 -0.17527851164E+02  0.20710779709E+02  0.51100000000E-03 0. -1.
        -11    1    3    3    0    0  0.83639852901E+01 -0.96960726592E+01 -0.10238163847E+02  0.16394818515E+02  0.51100000000E-03 0.  1.
        -12    1    3    3    0    0 -0.58350136378E+01 -0.31793804469E+01 -0.83631462931E+01  0.10681669350E+02  0.00000000000E+00 0.  1.
</event>
<event>
 7    1  0.3837332E-009  0.4778727E+02  0.7816164E-02  0.1312668E+00
        -11   -1    0    0    0    0  0.00000000000E+00  0.00000000000E+00  0.45593999997E+02  0.45594000000E+02  0.51100000000E-03 0.  1.
         11   -1    0    0    0    0 -0.00000000000E+00 -0.00000000000E+00 -0.45593999997E+02  0.45594000000E+02  0.51100000000E-03 0. -1.
    9900012    2    1    2    0    0  0.23506573791E+02 -0.32715288724E+02 -0.16148502252E+02  0.47787271289E+02  0.20000001115E+02 0.  0.
        -12    1    1    2    0    0 -0.23506573791E+02  0.32715288724E+02  0.16148502252E+02  0.43400728711E+02  0.00000000000E+00 0.  1.
         11    1    3    3    0    0  0.79377838546E+01 -0.22791553766E+02 -0.14829631228E+02  0.28326335771E+02  0.51100000000E-03 0. -1.
        -11    1    3    3    0    0  0.70212479704E+01 -0.76624500714E+01 -0.20356740096E+01  0.10590327336E+02  0.51100000000E-03 0.  1.
         12    1    3    3    0    0  0.85475419659E+01 -0.22612848868E+01  0.71680298568E+00  0.88706081820E+01  0.00000000000E+00 0. -1.
</event>
<event>
 7    1  0.3837332E-009  0.4778727E+02  0.7816164E-02  0.1312668E+00
        -11   -1    0    0    0    0  0.00000000000E+00  0.00000000000E+00  0.45593999997E+02  0.45594000000E+02  0.51100000000E-03 0.  1.
         11   -1    0    0    0    0 -0.00000000000E+00 -0.00000000000E+00 -0.45593999997E+02  0.45594000000E+02  0.51100000000E-03 0. -1.
    9900012    2    1    2    0    0  0.41487584611E+01 -0.28500447119E+02 -0.32467457612E+02  0.47787268595E+02  0.19999988830E+02 0.  0.
        -12    1    1    2    0    0 -0.41487584611E+01  0.28500447119E+02  0.32467457612E+02  0.43400731405E+02  0.00000000000E+00 0.  1.
         11    1    3    3    0    0 -0.12288124882E+01 -0.12843503149E+02 -0.59692592524E+01  0.14216103881E+02  0.51100000000E-03 0.  1.
        -11    1    3    3    0    0 -0.89825368582E+00 -0.11772990177E+02 -0.99088209931E+01  0.15414113375E+02  0.51100000000E-03 0. -1.
        -12    1    3    3    0    0  0.62758246352E+01 -0.38839537923E+01 -0.16589377366E+02  0.18157051339E+02  0.00000000000E+00 0.  1.
</event>
<event>
 7    1  0.3837332E-009  0.4778728E+02  0.7816164E-02  0.1312668E+00
        -11   -1    0    0    0    0  0.00000000000E+00  0.00000000000E+00  0.45593999997E+02  0.45594000000E+02  0.51100000000E-03 0.  1.
         11   -1    0    0    0    0 -0.00000000000E+00 -0.00000000000E+00 -0.45593999997E+02  0.45594000000E+02  0.51100000000E-03 0. -1.
    9900012    2    1    2    0    0  0.26087587488E+02 -0.31244505139E+02 -0.15061247341E+02  0.47787280031E+02  0.20000040975E+02 0.  0.
        -12    1    1    2    0    0 -0.26087587488E+02  0.31244505139E+02  0.15061247341E+02  0.43400719969E+02  0.00000000000E+00 0.  1.
         11    1    3    3    0    0  0.99945968688E+01 -0.32223984839E+01 -0.33488590801E+01  0.11022280887E+02  0.51100000000E-03 0. -1.
        -11    1    3    3    0    0  0.45207841797E+01 -0.75364430369E+00 -0.41727459324E+01  0.61981673270E+01  0.51100000000E-03 0.  1.
        -12    1    3    3    0    0  0.11572206440E+02 -0.27268462351E+02 -0.75396423282E+01  0.30566831817E+02  0.00000000000E+00 0.  1.
</event>
<event>
 7    1  0.3837332E-009  0.4778727E+02  0.7816164E-02  0.1312668E+00
        -11   -1    0    0    0    0  0.00000000000E+00  0.00000000000E+00  0.45593999997E+02  0.45594000000E+02  0.51100000000E-03 0.  1.
         11   -1    0    0    0    0 -0.00000000000E+00 -0.00000000000E+00 -0.45593999997E+02  0.45594000000E+02  0.51100000000E-03 0. -1.
    9900012    2    1    2    0    0  0.68394303712E+01 -0.22164280088E+02 -0.36682282367E+02  0.47787274669E+02  0.20000016527E+02 0.  0.
        -12    1    1    2    0    0 -0.68394303712E+01  0.22164280088E+02  0.36682282367E+02  0.43400725331E+02  0.00000000000E+00 0.  1.
         11    1    3    3    0    0  0.81951302588E+01 -0.67731718978E+01 -0.10215631902E+02  0.14744326127E+02  0.51100000000E-03 0.  1.
        -11    1    3    3    0    0  0.44083481192E+01 -0.69359486629E+01 -0.17903792533E+02  0.19699916353E+02  0.51100000000E-03 0. -1.
        -12    1    3    3    0    0 -0.57640480067E+01 -0.84551595271E+01 -0.85628579317E+01  0.13343032190E+02  0.00000000000E+00 0.  1.
</event>
<event>
 7    1  0.3837332E-009  0.4778727E+02  0.7816164E-02  0.1312668E+00
        -11   -1    0    0    0    0  0.00000000000E+00  0.00000000000E+00  0.45593999997E+02  0.45594000000E+02  0.51100000000E-03 0.  1.
         11   -1    0    0    0    0 -0.00000000000E+00 -0.00000000000E+00 -0.45593999997E+02  0.45594000000E+02  0.51100000000E-03 0. -1.
    9900012    2    1    2    0    0 -0.37298284378E+02 -0.38043468018E+01 -0.21862951096E+02  0.47787266104E+02  0.19999977472E+02 0.  0.
        -12    1    1    2    0    0  0.37298284378E+02  0.38043468018E+01  0.21862951096E+02  0.43400733896E+02  0.00000000000E+00 0.  1.
         11    1    3    3    0    0 -0.20695939155E+02 -0.81144026422E+01 -0.17201818254E+02  0.28108147916E+02  0.51100000000E-03 0. -1.
        -11    1    3    3    0    0 -0.93009481003E+01 -0.17321949044E+01 -0.97798327222E+00  0.95112873100E+01  0.51100000000E-03 0.  1.
        -12    1    3    3    0    0 -0.73013971221E+01  0.60422507448E+01 -0.36831495696E+01  0.10167830877E+02  0.00000000000E+00 0.  1.
</event>
<event>
 7    1  0.3837332E-009  0.4778727E+02  0.7816164E-02  0.1312668E+00
        -11   -1    0    0    0    0  0.00000000000E+00  0.00000000000E+00  0.45593999997E+02  0.45594000000E+02  0.51100000000E-03 0. -1.
         11   -1    0    0    0    0 -0.00000000000E+00 -0.00000000000E+00 -0.45593999997E+02  0.45594000000E+02  0.51100000000E-03 0.  1.
    9900012    2    1    2    0    0 -0.12932671210E+02  0.41424229642E+02 -0.63480712243E+00  0.47787265374E+02  0.19999974144E+02 0.  0.
        -12    1    1    2    0    0  0.12932671210E+02 -0.41424229642E+02  0.63480712243E+00  0.43400734626E+02  0.00000000000E+00 0.  1.
         11    1    3    3    0    0 -0.76254016990E+01  0.19220530313E+02  0.75192916788E+01  0.22002619939E+02  0.51100000000E-03 0. -1.
        -11    1    3    3    0    0 -0.36391790088E+01  0.19386214461E+01 -0.11921594750E+01  0.42922163791E+01  0.51100000000E-03 0.  1.
        -12    1    3    3    0    0 -0.16680905018E+01  0.20265077883E+02 -0.69619393262E+01  0.21492429055E+02  0.00000000000E+00 0.  1.
</event>
<event>
 7    1  0.3837332E-009  0.4778727E+02  0.7816164E-02  0.1312668E+00
        -11   -1    0    0    0    0  0.00000000000E+00  0.00000000000E+00  0.45593999997E+02  0.45594000000E+02  0.51100000000E-03 0. -1.
         11   -1    0    0    0    0 -0.00000000000E+00 -0.00000000000E+00 -0.45593999997E+02  0.45594000000E+02  0.51100000000E-03 0.  1.
    9900012    2    1    2    0    0  0.43008154355E+02 -0.25385570100E+01 -0.52419102913E+01  0.47787271478E+02  0.20000001978E+02 0.  0.
        -12    1    1    2    0    0 -0.43008154355E+02  0.25385570100E+01  0.52419102913E+01  0.43400728522E+02  0.00000000000E+00 0.  1.
         11    1    3    3    0    0  0.17889279932E+02 -0.22354547789E+01  0.26162132832E+01  0.18217249155E+02  0.51100000000E-03 0. -1.
        -11    1    3    3    0    0  0.25358771393E+02 -0.30730865743E+01 -0.80509318977E+01  0.26782991849E+02  0.51100000000E-03 0.  1.
        -12    1    3    3    0    0 -0.23989697090E+00  0.27699843432E+01  0.19280832323E+00  0.27870304748E+01  0.00000000000E+00 0.  1.
</event>
<event>
 7    1  0.3837332E-009  0.4778725E+02  0.7816164E-02  0.1312668E+00
        -11   -1    0    0    0    0  0.00000000000E+00  0.00000000000E+00  0.45593999997E+02  0.45594000000E+02  0.51100000000E-03 0.  1.
         11   -1    0    0    0    0 -0.00000000000E+00 -0.00000000000E+00 -0.45593999997E+02  0.45594000000E+02  0.51100000000E-03 0. -1.
    9900012    2    1    2    0    0  0.21841240898E+02  0.20659326988E+01 -0.37447521362E+02  0.47787254176E+02  0.19999923092E+02 0.  0.
        -12    1    1    2    0    0 -0.21841240898E+02 -0.20659326988E+01  0.37447521362E+02  0.43400745824E+02  0.00000000000E+00 0.  1.
         11    1    3    3    0    0  0.74258664715E+01 -0.50190207338E+00 -0.13506779563E+02  0.15421689044E+02  0.51100000000E-03 0. -1.
        -11    1    3    3    0    0 -0.63292818453E+00  0.12936887278E+01 -0.14465620573E+02  0.14537138902E+02  0.51100000000E-03 0.  1.
         12    1    3    3    0    0  0.15048302611E+02  0.12741460444E+01 -0.94751212252E+01  0.17828426230E+02  0.00000000000E+00 0. -1.
</event>
<event>
 7    1  0.3837332E-009  0.4778727E+02  0.7816164E-02  0.1312668E+00
        -11   -1    0    0    0    0  0.00000000000E+00  0.00000000000E+00  0.45593999997E+02  0.45594000000E+02  0.51100000000E-03 0. -1.
         11   -1    0    0    0    0 -0.00000000000E+00 -0.00000000000E+00 -0.45593999997E+02  0.45594000000E+02  0.51100000000E-03 0.  1.
    9900012    2    1    2    0    0  0.35416010607E+02  0.14499115364E+02  0.20472058141E+02  0.47787270534E+02  0.19999997674E+02 0.  0.
        -12    1    1    2    0    0 -0.35416010607E+02 -0.14499115364E+02 -0.20472058141E+02  0.43400729466E+02  0.00000000000E+00 0.  1.
         11    1    3    3    0    0  0.17451240043E+02  0.17384292277E+01  0.87488124781E+01  0.19598715143E+02  0.51100000000E-03 0. -1.
        -11    1    3    3    0    0  0.15634798478E+02  0.37748277329E+01  0.54403184984E+01  0.16979202381E+02  0.51100000000E-03 0.  1.
        -12    1    3    3    0    0  0.23299720854E+01  0.89858584030E+01  0.62829271646E+01  0.11209353010E+02  0.00000000000E+00 0.  1.
</event>
<event>
 7    1  0.3837332E-009  0.4778727E+02  0.7816164E-02  0.1312668E+00
        -11   -1    0    0    0    0  0.00000000000E+00  0.00000000000E+00  0.45593999997E+02  0.45594000000E+02  0.51100000000E-03 0.  1.
         11   -1    0    0    0    0 -0.00000000000E+00 -0.00000000000E+00 -0.45593999997E+02  0.45594000000E+02  0.51100000000E-03 0. -1.
    9900012    2    1    2    0    0 -0.11739479285E+02 -0.92240677627E+01 -0.40751989668E+02  0.47787268879E+02  0.19999990127E+02 0.  0.
        -12    1    1    2    0    0  0.11739479285E+02  0.92240677627E+01  0.40751989668E+02  0.43400731121E+02  0.00000000000E+00 0.  1.
         11    1    3    3    0    0  0.41980396934E+00 -0.44525626648E+01 -0.11837881997E+02  0.12654524886E+02  0.51100000000E-03 0. -1.
        -11    1    3    3    0    0  0.18203595363E+01 -0.26473923520E+01 -0.31411165054E+00  0.32281668943E+01  0.51100000000E-03 0.  1.
         12    1    3    3    0    0 -0.13979642790E+02 -0.21241127459E+01 -0.28599996020E+02  0.31904577099E+02  0.00000000000E+00 0. -1.
</event>
<event>
 7    1  0.3837332E-009  0.4778726E+02  0.7816164E-02  0.1312668E+00
        -11   -1    0    0    0    0  0.00000000000E+00  0.00000000000E+00  0.45593999997E+02  0.45594000000E+02  0.51100000000E-03 0.  1.
         11   -1    0    0    0    0 -0.00000000000E+00 -0.00000000000E+00 -0.45593999997E+02  0.45594000000E+02  0.51100000000E-03 0. -1.
    9900012    2    1    2    0    0 -0.16329456680E+02 -0.13187646913E+02 -0.37987616825E+02  0.47787260161E+02  0.19999950379E+02 0.  0.
        -12    1    1    2    0    0  0.16329456680E+02  0.13187646913E+02  0.37987616825E+02  0.43400739839E+02  0.00000000000E+00 0.  1.
         11    1    3    3    0    0 -0.13117270400E+02 -0.86178393786E+01 -0.11654408922E+02  0.19548789883E+02  0.51100000000E-03 0. -1.
        -11    1    3    3    0    0 -0.16011499937E+01 -0.12566015022E+01 -0.43730697176E+00  0.20818180244E+01  0.51100000000E-03 0.  1.
        -12    1    3    3    0    0 -0.16110362859E+01 -0.33132060318E+01 -0.25895900931E+02  0.26156652254E+02  0.00000000000E+00 0.  1.
</event>
<event>
 7    1  0.3837332E-009  0.4778726E+02  0.7816164E-02  0.1312668E+00
        -11   -1    0    0    0    0  0.00000000000E+00  0.00000000000E+00  0.45593999997E+02  0.45594000000E+02  0.51100000000E-03 0. -1.
         11   -1    0    0    0    0 -0.00000000000E+00 -0.00000000000E+00 -0.45593999997E+02  0.45594000000E+02  0.51100000000E-03 0.  1.
    9900012    2    1    2    0    0  0.28412282368E+02 -0.26808578730E+02 -0.18912083509E+02  0.47787255934E+02  0.19999931103E+02 0.  0.
        -12    1    1    2    0    0 -0.28412282368E+02  0.26808578730E+02  0.18912083509E+02  0.43400744066E+02  0.00000000000E+00 0.  1.
         11    1    3    3    0    0  0.19821119854E+02 -0.69341193621E+01 -0.11166540472E+02  0.23783406610E+02  0.51100000000E-03 0. -1.
        -11    1    3    3    0    0  0.55378364764E+00 -0.24246566370E+01  0.12577175441E+01  0.27870216751E+01  0.51100000000E-03 0.  1.
        -12    1    3    3    0    0  0.80373788665E+01 -0.17449802731E+02 -0.90032605802E+01  0.21216827649E+02  0.00000000000E+00 0.  1.
</event>
<event>
 7    1  0.3837332E-009  0.4778728E+02  0.7816164E-02  0.1312668E+00
        -11   -1    0    0    0    0  0.00000000000E+00  0.00000000000E+00  0.45593999997E+02  0.45594000000E+02  0.51100000000E-03 0. -1.
         11   -1    0    0    0    0 -0.00000000000E+00 -0.00000000000E+00 -0.45593999997E+02  0.45594000000E+02  0.51100000000E-03 0.  1.
    9900012    2    1    2    0    0  0.77301885392E+01 -0.42148866355E+02 -0.68803600913E+01  0.47787284512E+02  0.20000061403E+02 0.  0.
        -12    1    1    2    0    0 -0.77301885392E+01  0.42148866355E+02  0.68803600913E+01  0.43400715488E+02  0.00000000000E+00 0.  1.
         11    1    3    3    0    0 -0.30153278871E+01 -0.28399082581E+01 -0.86275409773E-01  0.41430332956E+01  0.51100000000E-03 0. -1.
        -11    1    3    3    0    0 -0.23577237567E+01 -0.31335834463E+01  0.16478467394E+01  0.42536579159E+01  0.51100000000E-03 0.  1.
         12    1    3    3    0    0  0.13103240183E+02 -0.36175374651E+02 -0.84419314209E+01  0.39390593300E+02  0.00000000000E+00 0. -1.
</event>
<event>
 7    1  0.3837332E-009  0.4778726E+02  0.7816164E-02  0.1312668E+00
        -11   -1    0    0    0    0  0.00000000000E+00  0.00000000000E+00  0.45593999997E+02  0.45594000000E+02  0.51100000000E-03 0.  1.
         11   -1    0    0    0    0 -0.00000000000E+00 -0.00000000000E+00 -0.45593999997E+02  0.45594000000E+02  0.51100000000E-03 0. -1.
    9900012    2    1    2    0    0  0.19143268658E+02 -0.96433845522E+01 -0.37738105050E+02  0.47787260683E+02  0.19999952757E+02 0.  0.
        -12    1    1    2    0    0 -0.19143268658E+02  0.96433845522E+01  0.37738105050E+02  0.43400739317E+02  0.00000000000E+00 0.  1.
         11    1    3    3    0    0  0.68881330918E+00 -0.41332791736E+00 -0.43676071188E+01  0.44408665762E+01  0.51100000000E-03 0. -1.
        -11    1    3    3    0    0  0.77944392612E+01  0.26323264562E+01 -0.24979875891E+01  0.85978118277E+01  0.51100000000E-03 0.  1.
         12    1    3    3    0    0  0.10660016088E+02 -0.11862383091E+02 -0.30872510342E+02  0.34748582279E+02  0.00000000000E+00 0. -1.
</event>
<event>
 7    1  0.3837332E-009  0.4778727E+02  0.7816164E-02  0.1312668E+00
        -11   -1    0    0    0    0  0.00000000000E+00  0.00000000000E+00  0.45593999997E+02  0.45594000000E+02  0.51100000000E-03 0.  1.
         11   -1    0    0    0    0 -0.00000000000E+00 -0.00000000000E+00 -0.45593999997E+02  0.45594000000E+02  0.51100000000E-03 0. -1.
    9900012    2    1    2    0    0  0.21023492617E+02 -0.28143350879E+02 -0.25487014115E+02  0.47787270409E+02  0.19999997104E+02 0.  0.
        -12    1    1    2    0    0 -0.21023492617E+02  0.28143350879E+02  0.25487014115E+02  0.43400729591E+02  0.00000000000E+00 0.  1.
         11    1    3    3    0    0  0.58980689211E+01 -0.10724557492E+02 -0.76780715926E+01  0.14448395553E+02  0.51100000000E-03 0. -1.
        -11    1    3    3    0    0  0.88021531969E+01 -0.19558010440E+02 -0.12628565973E+02  0.24889241693E+02  0.51100000000E-03 0.  1.
         12    1    3    3    0    0  0.63232704988E+01  0.21392170531E+01 -0.51803765499E+01  0.84496331637E+01  0.00000000000E+00 0. -1.
</event>
<event>
 7    1  0.3837332E-009  0.4778728E+02  0.7816164E-02  0.1312668E+00
        -11   -1    0    0    0    0  0.00000000000E+00  0.00000000000E+00  0.45593999997E+02  0.45594000000E+02  0.51100000000E-03 0.  1.
         11   -1    0    0    0    0 -0.00000000000E+00 -0.00000000000E+00 -0.45593999997E+02  0.45594000000E+02  0.51100000000E-03 0. -1.
    9900012    2    1    2    0    0 -0.36906426956E+02  0.19256569404E+02 -0.12276924887E+02  0.47787277649E+02  0.20000030114E+02 0.  0.
        -12    1    1    2    0    0  0.36906426956E+02 -0.19256569404E+02  0.12276924887E+02  0.43400722351E+02  0.00000000000E+00 0.  1.
         11    1    3    3    0    0 -0.14022948792E+02  0.32606206946E+01 -0.43824256199E+01  0.15049265587E+02  0.51100000000E-03 0.  1.
        -11    1    3    3    0    0 -0.20038133352E+02  0.12258559779E+02  0.71189536311E-01  0.23490511792E+02  0.51100000000E-03 0. -1.
         12    1    3    3    0    0 -0.28453448124E+01  0.37373889305E+01 -0.79656888034E+01  0.92475002694E+01  0.00000000000E+00 0. -1.
</event>
<event>
 7    1  0.3837332E-009  0.4778727E+02  0.7816164E-02  0.1312668E+00
        -11   -1    0    0    0    0  0.00000000000E+00  0.00000000000E+00  0.45593999997E+02  0.45594000000E+02  0.51100000000E-03 0.  1.
         11   -1    0    0    0    0 -0.00000000000E+00 -0.00000000000E+00 -0.45593999997E+02  0.45594000000E+02  0.51100000000E-03 0. -1.
    9900012    2    1    2    0    0 -0.38204413983E+02 -0.64640038705E+01  0.19551536535E+02  0.47787272187E+02  0.20000005208E+02 0.  0.
        -12    1    1    2    0    0  0.38204413983E+02  0.64640038705E+01 -0.19551536535E+02  0.43400727813E+02  0.00000000000E+00 0.  1.
         11    1    3    3    0    0 -0.21195567196E+02 -0.40825323321E+00  0.70131085182E+01  0.22329407310E+02  0.51100000000E-03 0. -1.
        -11    1    3    3    0    0 -0.18723017757E+02 -0.70919498626E+01  0.10530276037E+02  0.22621535325E+02  0.51100000000E-03 0.  1.
        -12    1    3    3    0    0  0.17141709703E+01  0.10361992254E+01  0.20081519796E+01  0.28363295512E+01  0.00000000000E+00 0.  1.
</event>
<event>
 7    1  0.3837332E-009  0.4778729E+02  0.7816164E-02  0.1312668E+00
        -11   -1    0    0    0    0  0.00000000000E+00  0.00000000000E+00  0.45593999997E+02  0.45594000000E+02  0.51100000000E-03 0. -1.
         11   -1    0    0    0    0 -0.00000000000E+00 -0.00000000000E+00 -0.45593999997E+02  0.45594000000E+02  0.51100000000E-03 0.  1.
    9900012    2    1    2    0    0 -0.26642507100E+02 -0.24684113488E+02  0.23759059612E+02  0.47787290825E+02  0.20000090187E+02 0.  0.
        -12    1    1    2    0    0  0.26642507100E+02  0.24684113488E+02 -0.23759059612E+02  0.43400709175E+02  0.00000000000E+00 0.  1.
         11    1    3    3    0    0 -0.10269854823E+02 -0.47662576170E+00  0.89223414439E+01  0.13612687733E+02  0.51100000000E-03 0. -1.
        -11    1    3    3    0    0 -0.56430822519E+01 -0.60918160381E+01 -0.19249043565E+00  0.83061214037E+01  0.51100000000E-03 0.  1.
         12    1    3    3    0    0 -0.10729570025E+02 -0.18115671688E+02  0.15029208603E+02  0.25868481689E+02  0.00000000000E+00 0. -1.
</event>
<event>
 7    1  0.3837332E-009  0.4778729E+02  0.7816164E-02  0.1312668E+00
        -11   -1    0    0    0    0  0.00000000000E+00  0.00000000000E+00  0.45593999997E+02  0.45594000000E+02  0.51100000000E-03 0.  1.
         11   -1    0    0    0    0 -0.00000000000E+00 -0.00000000000E+00 -0.45593999997E+02  0.45594000000E+02  0.51100000000E-03 0. -1.
    9900012    2    1    2    0    0  0.22760373453E+02 -0.52427677802E+01 -0.36580059417E+02  0.47787286173E+02  0.20000068977E+02 0.  0.
        -12    1    1    2    0    0 -0.22760373453E+02  0.52427677802E+01  0.36580059417E+02  0.43400713827E+02  0.00000000000E+00 0.  1.
         11    1    3    3    0    0  0.12581517839E+02  0.21221071837E+01 -0.87252966879E+01  0.15457319709E+02  0.51100000000E-03 0.  1.
        -11    1    3    3    0    0  0.99410386763E+01 -0.10165271410E+01 -0.15593244383E+02  0.18520444056E+02  0.51100000000E-03 0. -1.
        -12    1    3    3    0    0  0.23781693831E+00 -0.63483478229E+01 -0.12261518347E+02  0.13809522408E+02  0.00000000000E+00 0.  1.
</event>
<event>
 7    1  0.3837332E-009  0.4778727E+02  0.7816164E-02  0.1312668E+00
        -11   -1    0    0    0    0  0.00000000000E+00  0.00000000000E+00  0.45593999997E+02  0.45594000000E+02  0.51100000000E-03 0.  1.
         11   -1    0    0    0    0 -0.00000000000E+00 -0.00000000000E+00 -0.45593999997E+02  0.45594000000E+02  0.51100000000E-03 0. -1.
    9900012    2    1    2    0    0  0.35979970887E+02 -0.85022078865E+01 -0.22732743357E+02  0.47787268848E+02  0.19999989987E+02 0.  0.
        -12    1    1    2    0    0 -0.35979970887E+02  0.85022078865E+01  0.22732743357E+02  0.43400731152E+02  0.00000000000E+00 0.  1.
         11    1    3    3    0    0  0.36389237712E+02 -0.65679869840E+01 -0.22606715928E+02  0.43340266261E+02  0.51100000000E-03 0. -1.
        -11    1    3    3    0    0  0.91091993014E+00  0.48978930555E+00 -0.11095311600E+01  0.15168151961E+01  0.51100000000E-03 0.  1.
         12    1    3    3    0    0 -0.13201867555E+01 -0.24240102080E+01  0.98350373044E+00  0.29301873909E+01  0.00000000000E+00 0. -1.
</event>
<event>
 7    1  0.3837332E-009  0.4778728E+02  0.7816164E-02  0.1312668E+00
        -11   -1    0    0    0    0  0.00000000000E+00  0.00000000000E+00  0.45593999997E+02  0.45594000000E+02  0.51100000000E-03 0.  1.
         11   -1    0    0    0    0 -0.00000000000E+00 -0.00000000000E+00 -0.45593999997E+02  0.45594000000E+02  0.51100000000E-03 0. -1.
    9900012    2    1    2    0    0 -0.22880741242E+02 -0.36861945187E+02  0.11362363881E+01  0.47787281620E+02  0.20000048219E+02 0.  0.
        -12    1    1    2    0    0  0.22880741242E+02  0.36861945187E+02 -0.11362363881E+01  0.43400718380E+02  0.00000000000E+00 0.  1.
         11    1    3    3    0    0 -0.58612977290E+01 -0.12076042454E+02  0.40445441364E+01  0.14019413324E+02  0.51100000000E-03 0. -1.
        -11    1    3    3    0    0 -0.49634751511E+01 -0.52645616514E+01  0.57525871481E+01  0.92435898932E+01  0.51100000000E-03 0.  1.
         12    1    3    3    0    0 -0.12055968362E+02 -0.19521341081E+02 -0.86608948965E+01  0.24524278402E+02  0.00000000000E+00 0. -1.
</event>
<event>
 7    1  0.3837332E-009  0.4778727E+02  0.7816164E-02  0.1312668E+00
        -11   -1    0    0    0    0  0.00000000000E+00  0.00000000000E+00  0.45593999997E+02  0.45594000000E+02  0.51100000000E-03 0.  1.
         11   -1    0    0    0    0 -0.00000000000E+00 -0.00000000000E+00 -0.45593999997E+02  0.45594000000E+02  0.51100000000E-03 0. -1.
    9900012    2    1    2    0    0  0.15835127816E+02 -0.12108091846E+02 -0.38552124224E+02  0.47787269093E+02  0.19999991103E+02 0.  0.
        -12    1    1    2    0    0 -0.15835127816E+02  0.12108091846E+02  0.38552124224E+02  0.43400730907E+02  0.00000000000E+00 0.  1.
         11    1    3    3    0    0  0.17044649473E+01 -0.61549823418E-01 -0.22788620787E+00  0.17207328445E+01  0.51100000000E-03 0. -1.
        -11    1    3    3    0    0  0.72202230114E+01 -0.29126661074E+01 -0.20842826687E+01  0.80597443317E+01  0.51100000000E-03 0.  1.
         12    1    3    3    0    0  0.69104398576E+01 -0.91338759154E+01 -0.36239955347E+02  0.38006791917E+02  0.00000000000E+00 0. -1.
</event>
<event>
 7    1  0.3837332E-009  0.4778726E+02  0.7816164E-02  0.1312668E+00
        -11   -1    0    0    0    0  0.00000000000E+00  0.00000000000E+00  0.45593999997E+02  0.45594000000E+02  0.51100000000E-03 0.  1.
         11   -1    0    0    0    0 -0.00000000000E+00 -0.00000000000E+00 -0.45593999997E+02  0.45594000000E+02  0.51100000000E-03 0. -1.
    9900012    2    1    2    0    0  0.30211239888E+02 -0.28937769043E+02 -0.11554679411E+02  0.47787261423E+02  0.19999956131E+02 0.  0.
        -12    1    1    2    0    0 -0.30211239888E+02  0.28937769043E+02  0.11554679411E+02  0.43400738577E+02  0.00000000000E+00 0.  1.
         11    1    3    3    0    0  0.19612332331E+02 -0.21288992931E+02 -0.89689093466E+01  0.30303566368E+02  0.51100000000E-03 0. -1.
        -11    1    3    3    0    0  0.34887788724E+01 -0.26219854003E+01 -0.65863555504E+01  0.79010420299E+01  0.51100000000E-03 0.  1.
        -12    1    3    3    0    0  0.71101286848E+01 -0.50267907113E+01  0.40005854860E+01  0.95826530252E+01  0.00000000000E+00 0.  1.
</event>
<event>
 7    1  0.3837332E-009  0.4778727E+02  0.7816164E-02  0.1312668E+00
        -11   -1    0    0    0    0  0.00000000000E+00  0.00000000000E+00  0.45593999997E+02  0.45594000000E+02  0.51100000000E-03 0.  1.
         11   -1    0    0    0    0 -0.00000000000E+00 -0.00000000000E+00 -0.45593999997E+02  0.45594000000E+02  0.51100000000E-03 0. -1.
    9900012    2    1    2    0    0  0.88148329238E+01 -0.40035589727E+02 -0.14250377388E+02  0.47787274430E+02  0.20000015438E+02 0.  0.
        -12    1    1    2    0    0 -0.88148329238E+01  0.40035589727E+02  0.14250377388E+02  0.43400725570E+02  0.00000000000E+00 0.  1.
         11    1    3    3    0    0  0.97552854039E+01 -0.21707612828E+02 -0.31220100350E+01  0.24002770568E+02  0.51100000000E-03 0. -1.
        -11    1    3    3    0    0 -0.28519325158E+01 -0.82755060983E+01 -0.11875084058E+00  0.87539489535E+01  0.51100000000E-03 0.  1.
         12    1    3    3    0    0  0.19114800357E+01 -0.10052470800E+02 -0.11009616513E+02  0.15030554909E+02  0.00000000000E+00 0. -1.
</event>
<event>
 7    1  0.3837332E-009  0.4778727E+02  0.7816164E-02  0.1312668E+00
        -11   -1    0    0    0    0  0.00000000000E+00  0.00000000000E+00  0.45593999997E+02  0.45594000000E+02  0.51100000000E-03 0. -1.
         11   -1    0    0    0    0 -0.00000000000E+00 -0.00000000000E+00 -0.45593999997E+02  0.45594000000E+02  0.51100000000E-03 0.  1.
    9900012    2    1    2    0    0 -0.24631455600E+02  0.73657915374E+01  0.34966559214E+02  0.47787265522E+02  0.19999974821E+02 0.  0.
        -12    1    1    2    0    0  0.24631455600E+02 -0.73657915374E+01 -0.34966559214E+02  0.43400734478E+02  0.00000000000E+00 0.  1.
         11    1    3    3    0    0 -0.14809750678E+02 -0.38878310759E+01  0.15862460727E+02  0.22046804898E+02  0.51100000000E-03 0. -1.
        -11    1    3    3    0    0 -0.55751149910E+01  0.51929394896E+00  0.76320833589E+01  0.94657419164E+01  0.51100000000E-03 0.  1.
        -12    1    3    3    0    0 -0.42465899306E+01  0.10734328664E+02  0.11472015128E+02  0.16274718707E+02  0.00000000000E+00 0.  1.
</event>
<event>
 7    1  0.3837332E-009  0.4778727E+02  0.7816164E-02  0.1312668E+00
        -11   -1    0    0    0    0  0.00000000000E+00  0.00000000000E+00  0.45593999997E+02  0.45594000000E+02  0.51100000000E-03 0.  1.
         11   -1    0    0    0    0 -0.00000000000E+00 -0.00000000000E+00 -0.45593999997E+02  0.45594000000E+02  0.51100000000E-03 0. -1.
    9900012    2    1    2    0    0  0.42011438361E+02  0.93659297402E+01  0.55625616403E+01  0.47787266307E+02  0.19999978402E+02 0.  0.
        -12    1    1    2    0    0 -0.42011438361E+02 -0.93659297402E+01 -0.55625616403E+01  0.43400733693E+02  0.00000000000E+00 0.  1.
         11    1    3    3    0    0  0.22962453438E+02  0.94030592407E+01  0.85729350392E+01  0.26252371444E+02  0.51100000000E-03 0. -1.
        -11    1    3    3    0    0  0.55724516681E+01 -0.36322447960E+00  0.34732202128E+01  0.65762761897E+01  0.51100000000E-03 0.  1.
        -12    1    3    3    0    0  0.13476533255E+02  0.32609497913E+00 -0.64835936117E+01  0.14958618674E+02  0.00000000000E+00 0.  1.
</event>
<event>
 7    1  0.3837332E-009  0.4778728E+02  0.7816164E-02  0.1312668E+00
        -11   -1    0    0    0    0  0.00000000000E+00  0.00000000000E+00  0.45593999997E+02  0.45594000000E+02  0.51100000000E-03 0. -1.
         11   -1    0    0    0    0 -0.00000000000E+00 -0.00000000000E+00 -0.45593999997E+02  0.45594000000E+02  0.51100000000E-03 0.  1.
    9900012    2    1    2    0    0  0.40688295458E+02  0.14493883905E+02  0.42441336002E+01  0.47787277333E+02  0.20000028674E+02 0.  0.
        -12    1    1    2    0    0 -0.40688295458E+02 -0.14493883905E+02 -0.42441336002E+01  0.43400722667E+02  0.00000000000E+00 0.  1.
         11    1    3    3    0    0  0.14477960901E+02  0.57737244623E+01 -0.22891720065E+01  0.15753969492E+02  0.51100000000E-03 0. -1.
        -11    1    3    3    0    0  0.43368488396E+01 -0.19453714129E+00 -0.42434358486E+01  0.60706548757E+01  0.51100000000E-03 0.  1.
         12    1    3    3    0    0  0.21873485718E+02  0.89146965840E+01  0.10776741455E+02  0.25962652966E+02  0.00000000000E+00 0. -1.
</event>
<event>
 7    1  0.3837332E-009  0.4778729E+02  0.7816164E-02  0.1312668E+00
        -11   -1    0    0    0    0  0.00000000000E+00  0.00000000000E+00  0.45593999997E+02  0.45594000000E+02  0.51100000000E-03 0. -1.
         11   -1    0    0    0    0 -0.00000000000E+00 -0.00000000000E+00 -0.45593999997E+02  0.45594000000E+02  0.51100000000E-03 0.  1.
    9900012    2    1    2    0    0 -0.15383370792E+02 -0.29895993810E+02  0.27444542810E+02  0.47787291793E+02  0.20000094601E+02 0.  0.
        -12    1    1    2    0    0  0.15383370792E+02  0.29895993810E+02 -0.27444542810E+02  0.43400708207E+02  0.00000000000E+00 0.  1.
         11    1    3    3    0    0 -0.12954693422E+02 -0.12315492635E+02  0.11794249231E+02  0.21414942346E+02  0.51100000000E-03 0. -1.
        -11    1    3    3    0    0 -0.18149522091E+01  0.13482498652E+01  0.20958829662E+01  0.30829458136E+01  0.51100000000E-03 0.  1.
         12    1    3    3    0    0 -0.61372516047E+00 -0.18928751041E+02  0.13554410613E+02  0.23289403633E+02  0.00000000000E+00 0. -1.
</event>
<event>
 7    1  0.3837332E-009  0.4778727E+02  0.7816164E-02  0.1312668E+00
        -11   -1    0    0    0    0  0.00000000000E+00  0.00000000000E+00  0.45593999997E+02  0.45594000000E+02  0.51100000000E-03 0. -1.
         11   -1    0    0    0    0 -0.00000000000E+00 -0.00000000000E+00 -0.45593999997E+02  0.45594000000E+02  0.51100000000E-03 0.  1.
    9900012    2    1    2    0    0 -0.35077347633E+02  0.78549752860E+01  0.24320824346E+02  0.47787269009E+02  0.19999990719E+02 0.  0.
        -12    1    1    2    0    0  0.35077347633E+02 -0.78549752860E+01 -0.24320824346E+02  0.43400730991E+02  0.00000000000E+00 0.  1.
         11    1    3    3    0    0 -0.20150292633E+01  0.31950438763E+01  0.56740254264E+01  0.68163929687E+01  0.51100000000E-03 0. -1.
        -11    1    3    3    0    0 -0.42352096942E+01 -0.39044143031E-02 -0.24983158914E+01  0.49171738786E+01  0.51100000000E-03 0.  1.
         12    1    3    3    0    0 -0.28827108675E+02  0.46638358240E+01  0.21145114811E+02  0.36053702161E+02  0.00000000000E+00 0. -1.
</event>
<event>
 7    1  0.3837332E-009  0.4778727E+02  0.7816164E-02  0.1312668E+00
        -11   -1    0    0    0    0  0.00000000000E+00  0.00000000000E+00  0.45593999997E+02  0.45594000000E+02  0.51100000000E-03 0.  1.
         11   -1    0    0    0    0 -0.00000000000E+00 -0.00000000000E+00 -0.45593999997E+02  0.45594000000E+02  0.51100000000E-03 0. -1.
    9900012    2    1    2    0    0 -0.15472481453E+02 -0.24052138014E+02 -0.32645376093E+02  0.47787267223E+02  0.19999982577E+02 0.  0.
        -12    1    1    2    0    0  0.15472481453E+02  0.24052138014E+02  0.32645376093E+02  0.43400732777E+02  0.00000000000E+00 0.  1.
         11    1    3    3    0    0 -0.92753792768E+01 -0.87125590292E+01 -0.20196517085E+02  0.23871335283E+02  0.51100000000E-03 0.  1.
        -11    1    3    3    0    0 -0.51819028808E+01 -0.12786072476E+02 -0.14847924726E+02  0.20268118702E+02  0.51100000000E-03 0. -1.
        -12    1    3    3    0    0 -0.10151992951E+01 -0.25535065090E+01  0.23990657176E+01  0.36478132378E+01  0.00000000000E+00 0.  1.
</event>
<event>
 7    1  0.3837332E-009  0.4778727E+02  0.7816164E-02  0.1312668E+00
        -11   -1    0    0    0    0  0.00000000000E+00  0.00000000000E+00  0.45593999997E+02  0.45594000000E+02  0.51100000000E-03 0. -1.
         11   -1    0    0    0    0 -0.00000000000E+00 -0.00000000000E+00 -0.45593999997E+02  0.45594000000E+02  0.51100000000E-03 0.  1.
    9900012    2    1    2    0    0  0.51552203858E+01  0.43067068529E+02 -0.15081419335E+01  0.47787272114E+02  0.20000004879E+02 0.  0.
        -12    1    1    2    0    0 -0.51552203858E+01 -0.43067068529E+02  0.15081419335E+01  0.43400727886E+02  0.00000000000E+00 0.  1.
         11    1    3    3    0    0  0.16564932479E+01  0.30860361761E+01  0.26768475617E+01  0.44082992514E+01  0.51100000000E-03 0. -1.
        -11    1    3    3    0    0 -0.26441571410E+01  0.12398966587E+01  0.21752894670E+01  0.36415374826E+01  0.51100000000E-03 0.  1.
         12    1    3    3    0    0  0.61428842789E+01  0.38741135694E+02 -0.63602789622E+01  0.39737435380E+02  0.00000000000E+00 0. -1.
</event>
<event>
 7    1  0.3837332E-009  0.4778727E+02  0.7816164E-02  0.1312668E+00
        -11   -1    0    0    0    0  0.00000000000E+00  0.00000000000E+00  0.45593999997E+02  0.45594000000E+02  0.51100000000E-03 0. -1.
         11   -1    0    0    0    0 -0.00000000000E+00 -0.00000000000E+00 -0.45593999997E+02  0.45594000000E+02  0.51100000000E-03 0.  1.
    9900012    2    1    2    0    0  0.85466487988E+01 -0.41004583677E+02  0.11366729786E+02  0.47787266893E+02  0.19999981073E+02 0.  0.
        -12    1    1    2    0    0 -0.85466487988E+01  0.41004583677E+02 -0.11366729786E+02  0.43400733107E+02  0.00000000000E+00 0.  1.
         11    1    3    3    0    0  0.25798500343E+01 -0.10479755027E+02  0.84895041625E+01  0.13731444673E+02  0.51100000000E-03 0. -1.
        -11    1    3    3    0    0  0.23046009700E+00  0.66260687463E+00 -0.18650132665E+01  0.19925949092E+01  0.51100000000E-03 0.  1.
         12    1    3    3    0    0  0.57363386675E+01 -0.31187435525E+02  0.47422388899E+01  0.32063227311E+02  0.00000000000E+00 0. -1.
</event>
<event>
 7    1  0.3837332E-009  0.4778727E+02  0.7816164E-02  0.1312668E+00
        -11   -1    0    0    0    0  0.00000000000E+00  0.00000000000E+00  0.45593999997E+02  0.45594000000E+02  0.51100000000E-03 0.  1.
         11   -1    0    0    0    0 -0.00000000000E+00 -0.00000000000E+00 -0.45593999997E+02  0.45594000000E+02  0.51100000000E-03 0. -1.
    9900012    2    1    2    0    0 -0.29208478255E+02  0.15739709151E+02 -0.27977663923E+02  0.47787270459E+02  0.19999997332E+02 0.  0.
        -12    1    1    2    0    0  0.29208478255E+02 -0.15739709151E+02  0.27977663923E+02  0.43400729541E+02  0.00000000000E+00 0.  1.
         11    1    3    3    0    0 -0.17438453933E+02  0.47190029558E+01 -0.24581493752E+02  0.30506040383E+02  0.51100000000E-03 0. -1.
        -11    1    3    3    0    0 -0.18687727917E+01  0.17448942672E+00  0.75012854867E+00  0.20212499617E+01  0.51100000000E-03 0.  1.
         12    1    3    3    0    0 -0.99012515295E+01  0.10846216768E+02 -0.41462987190E+01  0.15259980115E+02  0.00000000000E+00 0. -1.
</event>
<event>
 7    1  0.3837332E-009  0.4778727E+02  0.7816164E-02  0.1312668E+00
        -11   -1    0    0    0    0  0.00000000000E+00  0.00000000000E+00  0.45593999997E+02  0.45594000000E+02  0.51100000000E-03 0. -1.
         11   -1    0    0    0    0 -0.00000000000E+00 -0.00000000000E+00 -0.45593999997E+02  0.45594000000E+02  0.51100000000E-03 0.  1.
    9900012    2    1    2    0    0  0.22066078350E+02 -0.37208446720E+02 -0.34989700752E+01  0.47787272902E+02  0.20000008468E+02 0.  0.
        -12    1    1    2    0    0 -0.22066078350E+02  0.37208446720E+02  0.34989700752E+01  0.43400727098E+02  0.00000000000E+00 0.  1.
         11    1    3    3    0    0  0.13946905435E+02 -0.14189511115E+02 -0.56923650144E+01  0.20694477926E+02  0.51100000000E-03 0. -1.
        -11    1    3    3    0    0  0.94356270413E+01 -0.11463608925E+02  0.38675033891E+01  0.15342847518E+02  0.51100000000E-03 0.  1.
        -12    1    3    3    0    0 -0.13164541266E+01 -0.11555326680E+02 -0.16741084500E+01  0.11749947458E+02  0.00000000000E+00 0.  1.
</event>
<event>
 7    1  0.3837332E-009  0.4778727E+02  0.7816164E-02  0.1312668E+00
        -11   -1    0    0    0    0  0.00000000000E+00  0.00000000000E+00  0.45593999997E+02  0.45594000000E+02  0.51100000000E-03 0. -1.
         11   -1    0    0    0    0 -0.00000000000E+00 -0.00000000000E+00 -0.45593999997E+02  0.45594000000E+02  0.51100000000E-03 0.  1.
    9900012    2    1    2    0    0  0.32849514687E+02 -0.18490273349E+02 -0.21509120890E+02  0.47787272989E+02  0.20000008864E+02 0.  0.
        -12    1    1    2    0    0 -0.32849514687E+02  0.18490273349E+02  0.21509120890E+02  0.43400727011E+02  0.00000000000E+00 0.  1.
         11    1    3    3    0    0  0.28825942066E+02 -0.11841956368E+02 -0.21496399158E+02  0.37858447454E+02  0.51100000000E-03 0. -1.
        -11    1    3    3    0    0 -0.13818877852E+01 -0.54843709525E+00 -0.88785009754E+00  0.17316683156E+01  0.51100000000E-03 0.  1.
         12    1    3    3    0    0  0.54054604063E+01 -0.60998798853E+01  0.87512836540E+00  0.81971572192E+01  0.00000000000E+00 0. -1.
</event>
<event>
 7    1  0.3837332E-009  0.4778727E+02  0.7816164E-02  0.1312668E+00
        -11   -1    0    0    0    0  0.00000000000E+00  0.00000000000E+00  0.45593999997E+02  0.45594000000E+02  0.51100000000E-03 0. -1.
         11   -1    0    0    0    0 -0.00000000000E+00 -0.00000000000E+00 -0.45593999997E+02  0.45594000000E+02  0.51100000000E-03 0.  1.
    9900012    2    1    2    0    0  0.23897318842E+02  0.22423485679E+02  0.28455731812E+02  0.47787271541E+02  0.20000002265E+02 0.  0.
        -12    1    1    2    0    0 -0.23897318842E+02 -0.22423485679E+02 -0.28455731812E+02  0.43400728459E+02  0.00000000000E+00 0.  1.
         11    1    3    3    0    0  0.14913575200E+01  0.92333320919E+01  0.71088206040E+01  0.11747931708E+02  0.51100000000E-03 0. -1.
        -11    1    3    3    0    0  0.60719211898E+01  0.10813230859E+02  0.74886531260E+01  0.14487032631E+02  0.51100000000E-03 0.  1.
        -12    1    3    3    0    0  0.16334040132E+02  0.23769227279E+01  0.13858258082E+02  0.21552307203E+02  0.00000000000E+00 0.  1.
</event>
<event>
 7    1  0.3837332E-009  0.4778728E+02  0.7816164E-02  0.1312668E+00
        -11   -1    0    0    0    0  0.00000000000E+00  0.00000000000E+00  0.45593999997E+02  0.45594000000E+02  0.51100000000E-03 0.  1.
         11   -1    0    0    0    0 -0.00000000000E+00 -0.00000000000E+00 -0.45593999997E+02  0.45594000000E+02  0.51100000000E-03 0. -1.
    9900012    2    1    2    0    0 -0.35541731953E+02  0.95516740239E+01  0.23003775203E+02  0.47787275807E+02  0.20000021714E+02 0.  0.
        -12    1    1    2    0    0  0.35541731953E+02 -0.95516740239E+01 -0.23003775203E+02  0.43400724193E+02  0.00000000000E+00 0.  1.
         11    1    3    3    0    0 -0.10002374814E+02  0.42884437678E+01  0.98589625012E+01  0.14684597159E+02  0.51100000000E-03 0. -1.
        -11    1    3    3    0    0 -0.23955017364E+02  0.43080956122E+00  0.14280425941E+02  0.27891916734E+02  0.51100000000E-03 0.  1.
         12    1    3    3    0    0 -0.15843397758E+01  0.48324206949E+01 -0.11356132390E+01  0.52107619142E+01  0.00000000000E+00 0. -1.
</event>
<event>
 7    1  0.3837332E-009  0.4778727E+02  0.7816164E-02  0.1312668E+00
        -11   -1    0    0    0    0  0.00000000000E+00  0.00000000000E+00  0.45593999997E+02  0.45594000000E+02  0.51100000000E-03 0.  1.
         11   -1    0    0    0    0 -0.00000000000E+00 -0.00000000000E+00 -0.45593999997E+02  0.45594000000E+02  0.51100000000E-03 0. -1.
    9900012    2    1    2    0    0 -0.11268292838E+02 -0.39902012186E+02  0.12824904408E+02  0.47787272206E+02  0.20000005297E+02 0.  0.
        -12    1    1    2    0    0  0.11268292838E+02  0.39902012186E+02 -0.12824904408E+02  0.43400727794E+02  0.00000000000E+00 0.  1.
         11    1    3    3    0    0  0.54802981918E-01  0.10060390070E+01 -0.10356148179E+01  0.14448585268E+01  0.51100000000E-03 0. -1.
        -11    1    3    3    0    0  0.72625105344E+00 -0.10010239713E+02 -0.82876310683E+00  0.10070709422E+02  0.51100000000E-03 0.  1.
         12    1    3    3    0    0 -0.12049346874E+02 -0.30897811480E+02  0.14689282332E+02  0.36271704258E+02  0.00000000000E+00 0. -1.
</event>
<event>
 7    1  0.3837332E-009  0.4778727E+02  0.7816164E-02  0.1312668E+00
        -11   -1    0    0    0    0  0.00000000000E+00  0.00000000000E+00  0.45593999997E+02  0.45594000000E+02  0.51100000000E-03 0.  1.
         11   -1    0    0    0    0 -0.00000000000E+00 -0.00000000000E+00 -0.45593999997E+02  0.45594000000E+02  0.51100000000E-03 0. -1.
    9900012    2    1    2    0    0 -0.20766445847E+02 -0.30267624924E+02 -0.23157043375E+02  0.47787273629E+02  0.20000011786E+02 0.  0.
        -12    1    1    2    0    0  0.20766445847E+02  0.30267624924E+02  0.23157043375E+02  0.43400726371E+02  0.00000000000E+00 0.  1.
         11    1    3    3    0    0 -0.16235792885E+02 -0.20145263801E+02 -0.16813497486E+02  0.30856544236E+02  0.51100000000E-03 0. -1.
        -11    1    3    3    0    0 -0.77663612833E+01 -0.60140687186E+01 -0.17647713365E+01  0.99799703539E+01  0.51100000000E-03 0.  1.
         12    1    3    3    0    0  0.32357083217E+01 -0.41082924046E+01 -0.45787745522E+01  0.69507590395E+01  0.00000000000E+00 0. -1.
</event>
<event>
 7    1  0.3837332E-009  0.4778726E+02  0.7816164E-02  0.1312668E+00
        -11   -1    0    0    0    0  0.00000000000E+00  0.00000000000E+00  0.45593999997E+02  0.45594000000E+02  0.51100000000E-03 0.  1.
         11   -1    0    0    0    0 -0.00000000000E+00 -0.00000000000E+00 -0.45593999997E+02  0.45594000000E+02  0.51100000000E-03 0. -1.
    9900012    2    1    2    0    0  0.28042442479E+02 -0.17506116180E+02 -0.28120831022E+02  0.47787264739E+02  0.19999971249E+02 0.  0.
        -12    1    1    2    0    0 -0.28042442479E+02  0.17506116180E+02  0.28120831022E+02  0.43400735261E+02  0.00000000000E+00 0.  1.
         11    1    3    3    0    0  0.50249872946E+01 -0.36162477971E+01 -0.41911075747E+01  0.74761707047E+01  0.51100000000E-03 0. -1.
        -11    1    3    3    0    0 -0.39259386062E+00 -0.69861968708E+01 -0.10012433911E+02  0.12215150827E+02  0.51100000000E-03 0.  1.
         12    1    3    3    0    0  0.23410049045E+02 -0.69036715118E+01 -0.13917289536E+02  0.28095943207E+02  0.00000000000E+00 0. -1.
</event>
<event>
 7    1  0.3837332E-009  0.4778727E+02  0.7816164E-02  0.1312668E+00
        -11   -1    0    0    0    0  0.00000000000E+00  0.00000000000E+00  0.45593999997E+02  0.45594000000E+02  0.51100000000E-03 0. -1.
         11   -1    0    0    0    0 -0.00000000000E+00 -0.00000000000E+00 -0.45593999997E+02  0.45594000000E+02  0.51100000000E-03 0.  1.
    9900012    2    1    2    0    0 -0.37983653502E+02 -0.11484481824E+02  0.17577597937E+02  0.47787271834E+02  0.20000003598E+02 0.  0.
        -12    1    1    2    0    0  0.37983653502E+02  0.11484481824E+02 -0.17577597937E+02  0.43400728166E+02  0.00000000000E+00 0.  1.
         11    1    3    3    0    0 -0.10127378719E+02  0.37529659121E+01  0.45641162882E+01  0.11725174225E+02  0.51100000000E-03 0. -1.
        -11    1    3    3    0    0 -0.99724491756E+01 -0.36839379416E+01 -0.83418335517E+00  0.10663817489E+02  0.51100000000E-03 0.  1.
        -12    1    3    3    0    0 -0.17883825607E+02 -0.11553509794E+02  0.13847665004E+02  0.25398280119E+02  0.00000000000E+00 0.  1.
</event>
<event>
 7    1  0.3837332E-009  0.4778727E+02  0.7816164E-02  0.1312668E+00
        -11   -1    0    0    0    0  0.00000000000E+00  0.00000000000E+00  0.45593999997E+02  0.45594000000E+02  0.51100000000E-03 0.  1.
         11   -1    0    0    0    0 -0.00000000000E+00 -0.00000000000E+00 -0.45593999997E+02  0.45594000000E+02  0.51100000000E-03 0. -1.
    9900012    2    1    2    0    0 -0.20266503967E+02  0.27470002184E+02 -0.26800950382E+02  0.47787272536E+02  0.20000006801E+02 0.  0.
        -12    1    1    2    0    0  0.20266503967E+02 -0.27470002184E+02  0.26800950382E+02  0.43400727464E+02  0.00000000000E+00 0.  1.
         11    1    3    3    0    0 -0.72429160014E+01  0.53028961533E+01 -0.94903471566E+01  0.13063201339E+02  0.51100000000E-03 0. -1.
        -11    1    3    3    0    0 -0.93902322589E+01  0.93090867327E+01 -0.47557024804E+00  0.13231089335E+02  0.51100000000E-03 0.  1.
        -12    1    3    3    0    0 -0.36333557066E+01  0.12858019298E+02 -0.16835032977E+02  0.21492981861E+02  0.00000000000E+00 0.  1.
</event>
<event>
 7    1  0.3837332E-009  0.4778728E+02  0.7816164E-02  0.1312668E+00
        -11   -1    0    0    0    0  0.00000000000E+00  0.00000000000E+00  0.45593999997E+02  0.45594000000E+02  0.51100000000E-03 0. -1.
         11   -1    0    0    0    0 -0.00000000000E+00 -0.00000000000E+00 -0.45593999997E+02  0.45594000000E+02  0.51100000000E-03 0.  1.
    9900012    2    1    2    0    0 -0.39793578918E+02  0.16072880913E+02 -0.64619016278E+01  0.47787278846E+02  0.20000035573E+02 0.  0.
        -12    1    1    2    0    0  0.39793578918E+02 -0.16072880913E+02  0.64619016278E+01  0.43400721154E+02  0.00000000000E+00 0.  1.
         11    1    3    3    0    0 -0.26704258227E+01  0.97562999669E+00 -0.25051646582E+01  0.37893110444E+01  0.51100000000E-03 0. -1.
        -11    1    3    3    0    0 -0.82213595914E+01  0.10624892206E+02  0.33656967949E+01  0.13849440534E+02  0.51100000000E-03 0.  1.
         12    1    3    3    0    0 -0.28901793504E+02  0.44723587103E+01 -0.73224337645E+01  0.30148527268E+02  0.00000000000E+00 0. -1.
</event>
<event>
 7    1  0.3837332E-009  0.4778727E+02  0.7816164E-02  0.1312668E+00
        -11   -1    0    0    0    0  0.00000000000E+00  0.00000000000E+00  0.45593999997E+02  0.45594000000E+02  0.51100000000E-03 0. -1.
         11   -1    0    0    0    0 -0.00000000000E+00 -0.00000000000E+00 -0.45593999997E+02  0.45594000000E+02  0.51100000000E-03 0.  1.
    9900012    2    1    2    0    0  0.43349271735E+02 -0.15306329910E+01 -0.14563375498E+01  0.47787272859E+02  0.20000008276E+02 0.  0.
        -12    1    1    2    0    0 -0.43349271735E+02  0.15306329910E+01  0.14563375498E+01  0.43400727141E+02  0.00000000000E+00 0.  1.
         11    1    3    3    0    0  0.94843078884E+01  0.87417562098E+00  0.18602577852E+01  0.97044751753E+01  0.51100000000E-03 0. -1.
        -11    1    3    3    0    0  0.14079108117E+02  0.61249003509E+01 -0.57599616416E+01  0.16398562378E+02  0.51100000000E-03 0.  1.
        -12    1    3    3    0    0  0.19785855729E+02 -0.85297089629E+01  0.24433663066E+01  0.21684235306E+02  0.00000000000E+00 0.  1.
</event>
<event>
 7    1  0.3837332E-009  0.4778727E+02  0.7816164E-02  0.1312668E+00
        -11   -1    0    0    0    0  0.00000000000E+00  0.00000000000E+00  0.45593999997E+02  0.45594000000E+02  0.51100000000E-03 0. -1.
         11   -1    0    0    0    0 -0.00000000000E+00 -0.00000000000E+00 -0.45593999997E+02  0.45594000000E+02  0.51100000000E-03 0.  1.
    9900012    2    1    2    0    0 -0.24940539576E+02  0.33135302760E+02 -0.12792359044E+02  0.47787271282E+02  0.20000001083E+02 0.  0.
        -12    1    1    2    0    0  0.24940539576E+02 -0.33135302760E+02  0.12792359044E+02  0.43400728718E+02  0.00000000000E+00 0.  1.
         11    1    3    3    0    0 -0.10773093555E+02  0.68044513637E+01 -0.59045793360E+01  0.14043651965E+02  0.51100000000E-03 0. -1.
        -11    1    3    3    0    0 -0.76001031589E+01  0.43028226293E+01  0.22321513881E+01  0.90143413895E+01  0.51100000000E-03 0.  1.
         12    1    3    3    0    0 -0.65673428618E+01  0.22028028767E+02 -0.91199310963E+01  0.24729277928E+02  0.00000000000E+00 0. -1.
</event>
<event>
 7    1  0.3837332E-009  0.4778728E+02  0.7816164E-02  0.1312668E+00
        -11   -1    0    0    0    0  0.00000000000E+00  0.00000000000E+00  0.45593999997E+02  0.45594000000E+02  0.51100000000E-03 0.  1.
         11   -1    0    0    0    0 -0.00000000000E+00 -0.00000000000E+00 -0.45593999997E+02  0.45594000000E+02  0.51100000000E-03 0. -1.
    9900012    2    1    2    0    0 -0.42144392910E+02  0.83399247515E+01 -0.61577940086E+01  0.47787278512E+02  0.20000034048E+02 0.  0.
        -12    1    1    2    0    0  0.42144392910E+02 -0.83399247515E+01  0.61577940086E+01  0.43400721488E+02  0.00000000000E+00 0.  1.
         11    1    3    3    0    0 -0.15284815743E+02  0.85785183337E+01  0.18618208962E+01  0.17626200567E+02  0.51100000000E-03 0. -1.
        -11    1    3    3    0    0 -0.75198734550E+00  0.93674912769E+00 -0.34206943688E+01  0.36254839845E+01  0.51100000000E-03 0.  1.
         12    1    3    3    0    0 -0.26107589821E+02 -0.11753427098E+01 -0.45989205360E+01  0.26535593961E+02  0.00000000000E+00 0. -1.
</event>
<event>
 7    1  0.3837332E-009  0.4778727E+02  0.7816164E-02  0.1312668E+00
        -11   -1    0    0    0    0  0.00000000000E+00  0.00000000000E+00  0.45593999997E+02  0.45594000000E+02  0.51100000000E-03 0. -1.
         11   -1    0    0    0    0 -0.00000000000E+00 -0.00000000000E+00 -0.45593999997E+02  0.45594000000E+02  0.51100000000E-03 0.  1.
    9900012    2    1    2    0    0 -0.27013934357E+02 -0.33554120099E+02  0.52907032919E+01  0.47787272283E+02  0.20000005646E+02 0.  0.
        -12    1    1    2    0    0  0.27013934357E+02  0.33554120099E+02 -0.52907032919E+01  0.43400727717E+02  0.00000000000E+00 0.  1.
         11    1    3    3    0    0  0.24115859943E+01 -0.23391319413E+01  0.23956349743E+01  0.41263000906E+01  0.51100000000E-03 0. -1.
        -11    1    3    3    0    0 -0.47832423345E+01 -0.45787375317E+01 -0.22884790379E+01  0.70058105300E+01  0.51100000000E-03 0.  1.
         12    1    3    3    0    0 -0.24642278017E+02 -0.26636250626E+02  0.51835473554E+01  0.36655161662E+02  0.00000000000E+00 0. -1.
</event>
<event>
 7    1  0.3837332E-009  0.4778727E+02  0.7816164E-02  0.1312668E+00
        -11   -1    0    0    0    0  0.00000000000E+00  0.00000000000E+00  0.45593999997E+02  0.45594000000E+02  0.51100000000E-03 0. -1.
         11   -1    0    0    0    0 -0.00000000000E+00 -0.00000000000E+00 -0.45593999997E+02  0.45594000000E+02  0.51100000000E-03 0.  1.
    9900012    2    1    2    0    0  0.11263432773E+02  0.30902873644E+02  0.28315551365E+02  0.47787274587E+02  0.20000016150E+02 0.  0.
        -12    1    1    2    0    0 -0.11263432773E+02 -0.30902873644E+02 -0.28315551365E+02  0.43400725413E+02  0.00000000000E+00 0.  1.
         11    1    3    3    0    0  0.60129084577E+01  0.15066230725E+02  0.10873805494E+02  0.19529107060E+02  0.51100000000E-03 0. -1.
        -11    1    3    3    0    0 -0.14240535035E+01  0.81100424421E+01  0.21982112419E+00  0.82370527728E+01  0.51100000000E-03 0.  1.
        -12    1    3    3    0    0  0.66745778189E+01  0.77266004770E+01  0.17221924747E+02  0.20021114754E+02  0.00000000000E+00 0.  1.
</event>
<event>
 7    1  0.3837332E-009  0.4778727E+02  0.7816164E-02  0.1312668E+00
        -11   -1    0    0    0    0  0.00000000000E+00  0.00000000000E+00  0.45593999997E+02  0.45594000000E+02  0.51100000000E-03 0. -1.
         11   -1    0    0    0    0 -0.00000000000E+00 -0.00000000000E+00 -0.45593999997E+02  0.45594000000E+02  0.51100000000E-03 0.  1.
    9900012    2    1    2    0    0  0.18728751738E+02 -0.38472164404E+02 -0.72628952267E+01  0.47787271634E+02  0.20000002689E+02 0.  0.
        -12    1    1    2    0    0 -0.18728751738E+02  0.38472164404E+02  0.72628952267E+01  0.43400728366E+02  0.00000000000E+00 0.  1.
         11    1    3    3    0    0  0.49273256512E+01 -0.13423370561E+02 -0.45062860735E+01  0.14992399065E+02  0.51100000000E-03 0. -1.
        -11    1    3    3    0    0 -0.24965708736E+01  0.32469100819E+00 -0.35493671921E+00  0.25424930115E+01  0.51100000000E-03 0.  1.
         12    1    3    3    0    0  0.16297996960E+02 -0.25373484852E+02 -0.24016724340E+01  0.30252379558E+02  0.00000000000E+00 0. -1.
</event>
<event>
 7    1  0.3837332E-009  0.4778726E+02  0.7816164E-02  0.1312668E+00
        -11   -1    0    0    0    0  0.00000000000E+00  0.00000000000E+00  0.45593999997E+02  0.45594000000E+02  0.51100000000E-03 0.  1.
         11   -1    0    0    0    0 -0.00000000000E+00 -0.00000000000E+00 -0.45593999997E+02  0.45594000000E+02  0.51100000000E-03 0. -1.
    9900012    2    1    2    0    0  0.22682764417E+02 -0.23277329555E+02 -0.28762514696E+02  0.47787261246E+02  0.19999955323E+02 0.  0.
        -12    1    1    2    0    0 -0.22682764417E+02  0.23277329555E+02  0.28762514696E+02  0.43400738754E+02  0.00000000000E+00 0.  1.
         11    1    3    3    0    0  0.43268815764E+01 -0.11718086485E+02 -0.70062323567E+01  0.14322106938E+02  0.51100000000E-03 0. -1.
        -11    1    3    3    0    0  0.29070845997E+01 -0.90506841984E+01 -0.59143702964E+01  0.11195793924E+02  0.51100000000E-03 0.  1.
        -12    1    3    3    0    0  0.15448798241E+02 -0.25085588710E+01 -0.15841912043E+02  0.22269360383E+02  0.00000000000E+00 0.  1.
</event>
<event>
 7    1  0.3837332E-009  0.4778727E+02  0.7816164E-02  0.1312668E+00
        -11   -1    0    0    0    0  0.00000000000E+00  0.00000000000E+00  0.45593999997E+02  0.45594000000E+02  0.51100000000E-03 0.  1.
         11   -1    0    0    0    0 -0.00000000000E+00 -0.00000000000E+00 -0.45593999997E+02  0.45594000000E+02  0.51100000000E-03 0. -1.
    9900012    2    1    2    0    0 -0.40550684775E+01 -0.10503747679E+01 -0.43198106213E+02  0.47787271344E+02  0.20000001365E+02 0.  0.
        -12    1    1    2    0    0  0.40550684775E+01  0.10503747679E+01  0.43198106213E+02  0.43400728656E+02  0.00000000000E+00 0.  1.
         11    1    3    3    0    0 -0.59149776599E+00  0.19656356128E+01 -0.26207613685E+01  0.33289613067E+01  0.51100000000E-03 0. -1.
        -11    1    3    3    0    0  0.55843762434E+01  0.38303632866E+01 -0.13623997263E+02  0.15214146135E+02  0.51100000000E-03 0.  1.
         12    1    3    3    0    0 -0.90479469549E+01 -0.68463736673E+01 -0.26953347581E+02  0.29244163902E+02  0.00000000000E+00 0. -1.
</event>
<event>
 7    1  0.3837332E-009  0.4778726E+02  0.7816164E-02  0.1312668E+00
        -11   -1    0    0    0    0  0.00000000000E+00  0.00000000000E+00  0.45593999997E+02  0.45594000000E+02  0.51100000000E-03 0. -1.
         11   -1    0    0    0    0 -0.00000000000E+00 -0.00000000000E+00 -0.45593999997E+02  0.45594000000E+02  0.51100000000E-03 0.  1.
    9900012    2    1    2    0    0  0.41553169286E+02 -0.99986710360E+01 -0.75488136575E+01  0.47787263972E+02  0.19999967753E+02 0.  0.
        -12    1    1    2    0    0 -0.41553169286E+02  0.99986710360E+01  0.75488136575E+01  0.43400736028E+02  0.00000000000E+00 0.  1.
         11    1    3    3    0    0  0.28193987349E+02 -0.58556734800E+01  0.15149540315E+01  0.28835480238E+02  0.51100000000E-03 0. -1.
        -11    1    3    3    0    0  0.91036096326E+01  0.16271949723E+01 -0.35451302692E+01  0.99041113033E+01  0.51100000000E-03 0.  1.
         12    1    3    3    0    0  0.42555723037E+01 -0.57701925283E+01 -0.55186374199E+01  0.90476724309E+01  0.00000000000E+00 0. -1.
</event>
<event>
 7    1  0.3837332E-009  0.4778727E+02  0.7816164E-02  0.1312668E+00
        -11   -1    0    0    0    0  0.00000000000E+00  0.00000000000E+00  0.45593999997E+02  0.45594000000E+02  0.51100000000E-03 0.  1.
         11   -1    0    0    0    0 -0.00000000000E+00 -0.00000000000E+00 -0.45593999997E+02  0.45594000000E+02  0.51100000000E-03 0. -1.
    9900012    2    1    2    0    0  0.24584797326E+02 -0.14343282684E+02 -0.32764022010E+02  0.47787272403E+02  0.20000006192E+02 0.  0.
        -12    1    1    2    0    0 -0.24584797326E+02  0.14343282684E+02  0.32764022010E+02  0.43400727597E+02  0.00000000000E+00 0.  1.
         11    1    3    3    0    0  0.14853168989E+02 -0.13914825283E+02 -0.14059752284E+02  0.24736928391E+02  0.51100000000E-03 0. -1.
        -11    1    3    3    0    0  0.47643604632E+01 -0.46776469982E+01 -0.72050605136E+01  0.98230549896E+01  0.51100000000E-03 0.  1.
        -12    1    3    3    0    0  0.49672678741E+01  0.42491895974E+01 -0.11499209212E+02  0.13227289022E+02  0.00000000000E+00 0.  1.
</event>
<event>
 7    1  0.3837332E-009  0.4778727E+02  0.7816164E-02  0.1312668E+00
        -11   -1    0    0    0    0  0.00000000000E+00  0.00000000000E+00  0.45593999997E+02  0.45594000000E+02  0.51100000000E-03 0.  1.
         11   -1    0    0    0    0 -0.00000000000E+00 -0.00000000000E+00 -0.45593999997E+02  0.45594000000E+02  0.51100000000E-03 0. -1.
    9900012    2    1    2    0    0  0.19871770985E+02 -0.35478921184E+02 -0.15165158378E+02  0.47787272368E+02  0.20000006033E+02 0.  0.
        -12    1    1    2    0    0 -0.19871770985E+02  0.35478921184E+02  0.15165158378E+02  0.43400727632E+02  0.00000000000E+00 0.  1.
         11    1    3    3    0    0 -0.21080617754E+01 -0.34688959734E+01 -0.20156890718E+01  0.45321260374E+01  0.51100000000E-03 0. -1.
        -11    1    3    3    0    0  0.30240301052E+01 -0.58257270456E+01  0.28866823418E+01  0.71705501108E+01  0.51100000000E-03 0.  1.
         12    1    3    3    0    0  0.18955802655E+02 -0.26184298165E+02 -0.16036151648E+02  0.36084596219E+02  0.00000000000E+00 0. -1.
</event>
<event>
 7    1  0.3837332E-009  0.4778727E+02  0.7816164E-02  0.1312668E+00
        -11   -1    0    0    0    0  0.00000000000E+00  0.00000000000E+00  0.45593999997E+02  0.45594000000E+02  0.51100000000E-03 0.  1.
         11   -1    0    0    0    0 -0.00000000000E+00 -0.00000000000E+00 -0.45593999997E+02  0.45594000000E+02  0.51100000000E-03 0. -1.
    9900012    2    1    2    0    0 -0.17272077578E+02 -0.50801004055E+01 -0.39490393485E+02  0.47787271186E+02  0.20000000647E+02 0.  0.
        -12    1    1    2    0    0  0.17272077578E+02  0.50801004055E+01  0.39490393485E+02  0.43400728814E+02  0.00000000000E+00 0.  1.
         11    1    3    3    0    0 -0.86435838606E+01 -0.14834304535E+01 -0.49866140032E+01  0.10088529494E+02  0.51100000000E-03 0. -1.
        -11    1    3    3    0    0  0.25914071141E+01 -0.17946438000E+01 -0.13003666158E+02  0.13380264235E+02  0.51100000000E-03 0.  1.
         12    1    3    3    0    0 -0.11219900831E+02 -0.18020261519E+01 -0.21500113324E+02  0.24318477457E+02  0.00000000000E+00 0. -1.
</event>
<event>
 7    1  0.3837332E-009  0.4778727E+02  0.7816164E-02  0.1312668E+00
        -11   -1    0    0    0    0  0.00000000000E+00  0.00000000000E+00  0.45593999997E+02  0.45594000000E+02  0.51100000000E-03 0.  1.
         11   -1    0    0    0    0 -0.00000000000E+00 -0.00000000000E+00 -0.45593999997E+02  0.45594000000E+02  0.51100000000E-03 0. -1.
    9900012    2    1    2    0    0  0.54962449886E+01  0.38931787875E+01 -0.42874908080E+02  0.47787270825E+02  0.19999998999E+02 0.  0.
        -12    1    1    2    0    0 -0.54962449886E+01 -0.38931787875E+01  0.42874908080E+02  0.43400729175E+02  0.00000000000E+00 0.  1.
         11    1    3    3    0    0  0.59880201857E+01  0.71015972831E+01 -0.28630583439E+02  0.30099823555E+02  0.51100000000E-03 0. -1.
        -11    1    3    3    0    0  0.25559261247E+01 -0.36700924739E+01 -0.13880918001E+02  0.14583628558E+02  0.51100000000E-03 0.  1.
        -12    1    3    3    0    0 -0.30477013218E+01  0.46167397826E+00 -0.36340664043E+00  0.31038187117E+01  0.00000000000E+00 0.  1.
</event>
<event>
 7    1  0.3837332E-009  0.4778727E+02  0.7816164E-02  0.1312668E+00
        -11   -1    0    0    0    0  0.00000000000E+00  0.00000000000E+00  0.45593999997E+02  0.45594000000E+02  0.51100000000E-03 0. -1.
         11   -1    0    0    0    0 -0.00000000000E+00 -0.00000000000E+00 -0.45593999997E+02  0.45594000000E+02  0.51100000000E-03 0.  1.
    9900012    2    1    2    0    0 -0.27943300786E+01 -0.43302842274E+02  0.82389668808E+00  0.47787271488E+02  0.20000002022E+02 0.  0.
        -12    1    1    2    0    0  0.27943300786E+01  0.43302842274E+02 -0.82389668808E+00  0.43400728512E+02  0.00000000000E+00 0.  1.
         11    1    3    3    0    0 -0.27610512611E+01 -0.14378221686E+02 -0.15447611296E+01  0.14722192436E+02  0.51100000000E-03 0. -1.
        -11    1    3    3    0    0 -0.65441965168E+00 -0.89205459871E+01 -0.66176790117E+01  0.11126458626E+02  0.51100000000E-03 0.  1.
        -12    1    3    3    0    0  0.62114083418E+00 -0.20004074601E+02  0.89863368294E+01  0.21938620426E+02  0.00000000000E+00 0.  1.
</event>
<event>
 7    1  0.3837332E-009  0.4778727E+02  0.7816164E-02  0.1312668E+00
        -11   -1    0    0    0    0  0.00000000000E+00  0.00000000000E+00  0.45593999997E+02  0.45594000000E+02  0.51100000000E-03 0.  1.
         11   -1    0    0    0    0 -0.00000000000E+00 -0.00000000000E+00 -0.45593999997E+02  0.45594000000E+02  0.51100000000E-03 0. -1.
    9900012    2    1    2    0    0  0.22075557391E+02  0.12779639964E+02 -0.35113729228E+02  0.47787269453E+02  0.19999992744E+02 0.  0.
        -12    1    1    2    0    0 -0.22075557391E+02 -0.12779639964E+02  0.35113729228E+02  0.43400730547E+02  0.00000000000E+00 0.  1.
         11    1    3    3    0    0  0.40798674478E+01  0.66206110597E+01 -0.11858965500E+02  0.14181427015E+02  0.51100000000E-03 0. -1.
        -11    1    3    3    0    0  0.73738901157E+01 -0.37545222761E-01 -0.84420768160E-01  0.73744689442E+01  0.51100000000E-03 0.  1.
         12    1    3    3    0    0  0.10621799828E+02  0.61965741267E+01 -0.23170342959E+02  0.26231373493E+02  0.00000000000E+00 0. -1.
</event>
<event>
 7    1  0.3837332E-009  0.4778727E+02  0.7816164E-02  0.1312668E+00
        -11   -1    0    0    0    0  0.00000000000E+00  0.00000000000E+00  0.45593999997E+02  0.45594000000E+02  0.51100000000E-03 0.  1.
         11   -1    0    0    0    0 -0.00000000000E+00 -0.00000000000E+00 -0.45593999997E+02  0.45594000000E+02  0.51100000000E-03 0. -1.
    9900012    2    1    2    0    0 -0.14187542645E+02 -0.76971662310E+01 -0.40287603033E+02  0.47787266222E+02  0.19999978013E+02 0.  0.
        -12    1    1    2    0    0  0.14187542645E+02  0.76971662310E+01  0.40287603033E+02  0.43400733778E+02  0.00000000000E+00 0.  1.
         11    1    3    3    0    0 -0.15655665085E+01 -0.14477410880E+01 -0.17655367931E+01  0.27684062526E+01  0.51100000000E-03 0. -1.
        -11    1    3    3    0    0 -0.27837245862E+01 -0.93031930947E+01 -0.73209788093E+01  0.12161219319E+02  0.51100000000E-03 0.  1.
         12    1    3    3    0    0 -0.98382515504E+01  0.30537679518E+01 -0.31201087431E+02  0.32857640651E+02  0.00000000000E+00 0. -1.
</event>
<event>
 7    1  0.3837332E-009  0.4778727E+02  0.7816164E-02  0.1312668E+00
        -11   -1    0    0    0    0  0.00000000000E+00  0.00000000000E+00  0.45593999997E+02  0.45594000000E+02  0.51100000000E-03 0.  1.
         11   -1    0    0    0    0 -0.00000000000E+00 -0.00000000000E+00 -0.45593999997E+02  0.45594000000E+02  0.51100000000E-03 0. -1.
    9900012    2    1    2    0    0 -0.72023014602E+01  0.29671195990E+02 -0.30844288924E+02  0.47787272160E+02  0.20000005086E+02 0.  0.
        -12    1    1    2    0    0  0.72023014602E+01 -0.29671195990E+02  0.30844288924E+02  0.43400727840E+02  0.00000000000E+00 0.  1.
         11    1    3    3    0    0 -0.63107085012E+01  0.58215531425E+01 -0.74667479506E+01  0.11378393911E+02  0.51100000000E-03 0. -1.
        -11    1    3    3    0    0 -0.23954200155E+01  0.26954624636E+01 -0.11606126210E+02  0.12153424242E+02  0.51100000000E-03 0.  1.
         12    1    3    3    0    0  0.15038270565E+01  0.21154180384E+02 -0.11771414763E+02  0.24255454006E+02  0.00000000000E+00 0. -1.
</event>
<event>
 7    1  0.3837332E-009  0.4778727E+02  0.7816164E-02  0.1312668E+00
        -11   -1    0    0    0    0  0.00000000000E+00  0.00000000000E+00  0.45593999997E+02  0.45594000000E+02  0.51100000000E-03 0.  1.
         11   -1    0    0    0    0 -0.00000000000E+00 -0.00000000000E+00 -0.45593999997E+02  0.45594000000E+02  0.51100000000E-03 0. -1.
    9900012    2    1    2    0    0  0.56785285055E+01  0.37235705804E+02 -0.21561075970E+02  0.47787268789E+02  0.19999989715E+02 0.  0.
        -12    1    1    2    0    0 -0.56785285055E+01 -0.37235705804E+02  0.21561075970E+02  0.43400731211E+02  0.00000000000E+00 0.  1.
         11    1    3    3    0    0  0.22484537947E+01  0.21005561706E+02 -0.89981670836E+01  0.22962059536E+02  0.51100000000E-03 0. -1.
        -11    1    3    3    0    0  0.86595569635E+01  0.10304475074E+02 -0.71006511029E+01  0.15218060970E+02  0.51100000000E-03 0.  1.
        -12    1    3    3    0    0 -0.52294822527E+01  0.59256690243E+01 -0.54622577834E+01  0.96071482819E+01  0.00000000000E+00 0.  1.
</event>
<event>
 7    1  0.3837332E-009  0.4778727E+02  0.7816164E-02  0.1312668E+00
        -11   -1    0    0    0    0  0.00000000000E+00  0.00000000000E+00  0.45593999997E+02  0.45594000000E+02  0.51100000000E-03 0.  1.
         11   -1    0    0    0    0 -0.00000000000E+00 -0.00000000000E+00 -0.45593999997E+02  0.45594000000E+02  0.51100000000E-03 0. -1.
    9900012    2    1    2    0    0 -0.15029580206E+02 -0.34786675919E+01 -0.40566414374E+02  0.47787269770E+02  0.19999994187E+02 0.  0.
        -12    1    1    2    0    0  0.15029580206E+02  0.34786675919E+01  0.40566414374E+02  0.43400730230E+02  0.00000000000E+00 0.  1.
         11    1    3    3    0    0 -0.36547007243E+01  0.46324082291E+01 -0.39844608848E+01  0.71198295057E+01  0.51100000000E-03 0. -1.
        -11    1    3    3    0    0 -0.79862934713E+01 -0.22744530213E+01 -0.88900932151E+01  0.12165022712E+02  0.51100000000E-03 0.  1.
        -12    1    3    3    0    0 -0.33885860102E+01 -0.58366227997E+01 -0.27691860274E+02  0.28502417552E+02  0.00000000000E+00 0.  1.
</event>
<event>
 7    1  0.3837332E-009  0.4778726E+02  0.7816164E-02  0.1312668E+00
        -11   -1    0    0    0    0  0.00000000000E+00  0.00000000000E+00  0.45593999997E+02  0.45594000000E+02  0.51100000000E-03 0.  1.
         11   -1    0    0    0    0 -0.00000000000E+00 -0.00000000000E+00 -0.45593999997E+02  0.45594000000E+02  0.51100000000E-03 0. -1.
    9900012    2    1    2    0    0 -0.29094059432E+02 -0.28397546052E+02 -0.15190091879E+02  0.47787264899E+02  0.19999971981E+02 0.  0.
        -12    1    1    2    0    0  0.29094059432E+02  0.28397546052E+02  0.15190091879E+02  0.43400735101E+02  0.00000000000E+00 0.  1.
         11    1    3    3    0    0 -0.11378732876E+02 -0.11943475108E+02 -0.10392884911E+01  0.16528831790E+02  0.51100000000E-03 0. -1.
        -11    1    3    3    0    0 -0.63130760542E-01 -0.65161632421E+01  0.54529035082E-01  0.65166972131E+01  0.51100000000E-03 0.  1.
        -12    1    3    3    0    0 -0.17652195795E+02 -0.99379077022E+01 -0.14205332423E+02  0.24741735896E+02  0.00000000000E+00 0.  1.
</event>
<event>
 7    1  0.3837332E-009  0.4778727E+02  0.7816164E-02  0.1312668E+00
        -11   -1    0    0    0    0  0.00000000000E+00  0.00000000000E+00  0.45593999997E+02  0.45594000000E+02  0.51100000000E-03 0.  1.
         11   -1    0    0    0    0 -0.00000000000E+00 -0.00000000000E+00 -0.45593999997E+02  0.45594000000E+02  0.51100000000E-03 0. -1.
    9900012    2    1    2    0    0  0.34578040396E+02 -0.11419683582E+02 -0.23612985166E+02  0.47787272826E+02  0.20000008123E+02 0.  0.
        -12    1    1    2    0    0 -0.34578040396E+02  0.11419683582E+02  0.23612985166E+02  0.43400727174E+02  0.00000000000E+00 0.  1.
         11    1    3    3    0    0 -0.39935675143E-01 -0.25408331434E+01 -0.32767368485E+00  0.25621862199E+01  0.51100000000E-03 0. -1.
        -11    1    3    3    0    0 -0.55858792311E+00 -0.10947501156E+01  0.11576770569E+01  0.16884059680E+01  0.51100000000E-03 0.  1.
         12    1    3    3    0    0  0.35176563995E+02 -0.77841003226E+01 -0.24442988538E+02  0.43536680638E+02  0.00000000000E+00 0. -1.
</event>
<event>
 7    1  0.3837332E-009  0.4778727E+02  0.7816164E-02  0.1312668E+00
        -11   -1    0    0    0    0  0.00000000000E+00  0.00000000000E+00  0.45593999997E+02  0.45594000000E+02  0.51100000000E-03 0.  1.
         11   -1    0    0    0    0 -0.00000000000E+00 -0.00000000000E+00 -0.45593999997E+02  0.45594000000E+02  0.51100000000E-03 0. -1.
    9900012    2    1    2    0    0  0.14242840060E+02  0.28421457691E+02 -0.29546325240E+02  0.47787273215E+02  0.20000009896E+02 0.  0.
        -12    1    1    2    0    0 -0.14242840060E+02 -0.28421457691E+02  0.29546325240E+02  0.43400726785E+02  0.00000000000E+00 0.  1.
         11    1    3    3    0    0  0.74803526878E+01  0.11937021449E+02 -0.66383913131E+01  0.15572937966E+02  0.51100000000E-03 0. -1.
        -11    1    3    3    0    0  0.96654808553E+01  0.52905435795E+01 -0.12411042157E+02  0.16596546003E+02  0.51100000000E-03 0.  1.
         12    1    3    3    0    0 -0.29029934829E+01  0.11193892663E+02 -0.10496891770E+02  0.15617789246E+02  0.00000000000E+00 0. -1.
</event>
<event>
 7    1  0.3837332E-009  0.4778727E+02  0.7816164E-02  0.1312668E+00
        -11   -1    0    0    0    0  0.00000000000E+00  0.00000000000E+00  0.45593999997E+02  0.45594000000E+02  0.51100000000E-03 0. -1.
         11   -1    0    0    0    0 -0.00000000000E+00 -0.00000000000E+00 -0.45593999997E+02  0.45594000000E+02  0.51100000000E-03 0.  1.
    9900012    2    1    2    0    0  0.81317137119E+00 -0.22827009788E+02  0.36903788669E+02  0.47787271415E+02  0.20000001692E+02 0.  0.
        -12    1    1    2    0    0 -0.81317137119E+00  0.22827009788E+02 -0.36903788669E+02  0.43400728585E+02  0.00000000000E+00 0.  1.
         11    1    3    3    0    0 -0.12063020804E+01 -0.67952544851E+01  0.17490719614E+02  0.18803082755E+02  0.51100000000E-03 0. -1.
        -11    1    3    3    0    0  0.14961301050E+01 -0.37816809251E+01  0.15633213839E+02  0.16153541132E+02  0.51100000000E-03 0.  1.
        -12    1    3    3    0    0  0.52334334664E+00 -0.12250074378E+02  0.37798552153E+01  0.12830647528E+02  0.00000000000E+00 0.  1.
</event>
<event>
 7    1  0.3837332E-009  0.4778727E+02  0.7816164E-02  0.1312668E+00
        -11   -1    0    0    0    0  0.00000000000E+00  0.00000000000E+00  0.45593999997E+02  0.45594000000E+02  0.51100000000E-03 0. -1.
         11   -1    0    0    0    0 -0.00000000000E+00 -0.00000000000E+00 -0.45593999997E+02  0.45594000000E+02  0.51100000000E-03 0.  1.
    9900012    2    1    2    0    0  0.56756364557E-02  0.42215096358E+02 -0.10075154167E+02  0.47787272768E+02  0.20000007859E+02 0.  0.
        -12    1    1    2    0    0 -0.56756364557E-02 -0.42215096358E+02  0.10075154167E+02  0.43400727232E+02  0.00000000000E+00 0.  1.
         11    1    3    3    0    0 -0.63229433996E+00  0.11131770448E+02  0.28079270907E+01  0.11497850418E+02  0.51100000000E-03 0. -1.
        -11    1    3    3    0    0 -0.60304790822E+01  0.99052286077E+01 -0.59186668127E+01  0.13019633206E+02  0.51100000000E-03 0.  1.
        -12    1    3    3    0    0  0.66684490586E+01  0.21178097303E+02 -0.69644144446E+01  0.23269789144E+02  0.00000000000E+00 0.  1.
</event>
<event>
 7    1  0.3837332E-009  0.4778727E+02  0.7816164E-02  0.1312668E+00
        -11   -1    0    0    0    0  0.00000000000E+00  0.00000000000E+00  0.45593999997E+02  0.45594000000E+02  0.51100000000E-03 0. -1.
         11   -1    0    0    0    0 -0.00000000000E+00 -0.00000000000E+00 -0.45593999997E+02  0.45594000000E+02  0.51100000000E-03 0.  1.
    9900012    2    1    2    0    0  0.10334071800E+02 -0.98274386135E+01  0.40990872314E+02  0.47787271864E+02  0.20000003735E+02 0.  0.
        -12    1    1    2    0    0 -0.10334071800E+02  0.98274386135E+01 -0.40990872314E+02  0.43400728136E+02  0.00000000000E+00 0.  1.
         11    1    3    3    0    0  0.65885388081E-01 -0.45432859415E+01  0.30716539641E+02  0.31050790582E+02  0.51100000000E-03 0. -1.
        -11    1    3    3    0    0 -0.56007570032E+00  0.54807006576E+00  0.13142905684E+00  0.79456871646E+00  0.51100000000E-03 0.  1.
         12    1    3    3    0    0  0.10828262113E+02 -0.58322227377E+01  0.10142903617E+02  0.15941912565E+02  0.00000000000E+00 0. -1.
</event>
<event>
 7    1  0.3837332E-009  0.4778727E+02  0.7816164E-02  0.1312668E+00
        -11   -1    0    0    0    0  0.00000000000E+00  0.00000000000E+00  0.45593999997E+02  0.45594000000E+02  0.51100000000E-03 0.  1.
         11   -1    0    0    0    0 -0.00000000000E+00 -0.00000000000E+00 -0.45593999997E+02  0.45594000000E+02  0.51100000000E-03 0. -1.
    9900012    2    1    2    0    0 -0.17310910544E+02 -0.25942177972E+02 -0.30182100998E+02  0.47787269102E+02  0.19999991144E+02 0.  0.
        -12    1    1    2    0    0  0.17310910544E+02  0.25942177972E+02  0.30182100998E+02  0.43400730898E+02  0.00000000000E+00 0.  1.
         11    1    3    3    0    0 -0.13327123759E+02 -0.80788497786E+01 -0.20482487057E+02  0.25737372005E+02  0.51100000000E-03 0. -1.
        -11    1    3    3    0    0 -0.14179286808E+01 -0.57148440236E+01 -0.73422217881E+01  0.94115984299E+01  0.51100000000E-03 0.  1.
        -12    1    3    3    0    0 -0.25658581048E+01 -0.12148484170E+02 -0.23573921530E+01  0.12638298667E+02  0.00000000000E+00 0.  1.
</event>
<event>
 7    1  0.3837332E-009  0.4778727E+02  0.7816164E-02  0.1312668E+00
        -11   -1    0    0    0    0  0.00000000000E+00  0.00000000000E+00  0.45593999997E+02  0.45594000000E+02  0.51100000000E-03 0.  1.
         11   -1    0    0    0    0 -0.00000000000E+00 -0.00000000000E+00 -0.45593999997E+02  0.45594000000E+02  0.51100000000E-03 0. -1.
    9900012    2    1    2    0    0 -0.38195230038E+02 -0.18777749650E+01 -0.20523686623E+02  0.47787270178E+02  0.19999996048E+02 0.  0.
        -12    1    1    2    0    0  0.38195230038E+02  0.18777749650E+01  0.20523686623E+02  0.43400729822E+02  0.00000000000E+00 0.  1.
         11    1    3    3    0    0 -0.39952717645E+02 -0.93456625366E+00 -0.20782301947E+02  0.45044390725E+02  0.51100000000E-03 0. -1.
        -11    1    3    3    0    0  0.51031445902E+00 -0.12565329461E+01 -0.21372902996E+00  0.13729443729E+01  0.51100000000E-03 0.  1.
         12    1    3    3    0    0  0.12471731472E+01  0.31332423477E+00  0.47234435378E+00  0.13699350801E+01  0.00000000000E+00 0. -1.
</event>
<event>
 7    1  0.3837332E-009  0.4778728E+02  0.7816164E-02  0.1312668E+00
        -11   -1    0    0    0    0  0.00000000000E+00  0.00000000000E+00  0.45593999997E+02  0.45594000000E+02  0.51100000000E-03 0. -1.
         11   -1    0    0    0    0 -0.00000000000E+00 -0.00000000000E+00 -0.45593999997E+02  0.45594000000E+02  0.51100000000E-03 0.  1.
    9900012    2    1    2    0    0 -0.74711584059E+01 -0.42732824098E+02  0.13078202522E+01  0.47787275845E+02  0.20000021889E+02 0.  0.
        -12    1    1    2    0    0  0.74711584059E+01  0.42732824098E+02 -0.13078202522E+01  0.43400724155E+02  0.00000000000E+00 0.  1.
         11    1    3    3    0    0 -0.77117251348E+01 -0.35774721114E+02  0.32326206131E+01  0.36738960405E+02  0.51100000000E-03 0. -1.
        -11    1    3    3    0    0 -0.31077620033E+01 -0.56827791079E+01 -0.32265186036E+01  0.72361996669E+01  0.51100000000E-03 0.  1.
         12    1    3    3    0    0  0.33483287323E+01 -0.12753238765E+01  0.13017182428E+01  0.38121157738E+01  0.00000000000E+00 0. -1.
</event>
<event>
 7    1  0.3837332E-009  0.4778727E+02  0.7816164E-02  0.1312668E+00
        -11   -1    0    0    0    0  0.00000000000E+00  0.00000000000E+00  0.45593999997E+02  0.45594000000E+02  0.51100000000E-03 0.  1.
         11   -1    0    0    0    0 -0.00000000000E+00 -0.00000000000E+00 -0.45593999997E+02  0.45594000000E+02  0.51100000000E-03 0. -1.
    9900012    2    1    2    0    0  0.66483825663E-02 -0.49478718818E+01 -0.43117765049E+02  0.47787272550E+02  0.20000006866E+02 0.  0.
        -12    1    1    2    0    0 -0.66483825663E-02  0.49478718818E+01  0.43117765049E+02  0.43400727450E+02  0.00000000000E+00 0.  1.
         11    1    3    3    0    0 -0.42149796520E+00 -0.21644317313E+01  0.62390870628E+00  0.22916560800E+01  0.51100000000E-03 0.  1.
        -11    1    3    3    0    0 -0.33069847068E+01 -0.71916554133E+00 -0.29744485401E+01  0.45056288469E+01  0.51100000000E-03 0. -1.
         12    1    3    3    0    0  0.37351310546E+01 -0.20642746093E+01 -0.40767225215E+02  0.40989987624E+02  0.00000000000E+00 0. -1.
</event>
<event>
 7    1  0.3837332E-009  0.4778727E+02  0.7816164E-02  0.1312668E+00
        -11   -1    0    0    0    0  0.00000000000E+00  0.00000000000E+00  0.45593999997E+02  0.45594000000E+02  0.51100000000E-03 0.  1.
         11   -1    0    0    0    0 -0.00000000000E+00 -0.00000000000E+00 -0.45593999997E+02  0.45594000000E+02  0.51100000000E-03 0. -1.
    9900012    2    1    2    0    0  0.71761071323E+01  0.10054516425E+01 -0.42791537504E+02  0.47787272718E+02  0.20000007632E+02 0.  0.
        -12    1    1    2    0    0 -0.71761071323E+01 -0.10054516425E+01  0.42791537504E+02  0.43400727282E+02  0.00000000000E+00 0.  1.
         11    1    3    3    0    0  0.22895634920E+00  0.30957520084E+01 -0.29168461185E+02  0.29333176263E+02  0.51100000000E-03 0. -1.
        -11    1    3    3    0    0 -0.22306065035E+01 -0.23439060385E+01 -0.29893306243E+01  0.44051786267E+01  0.51100000000E-03 0.  1.
        -12    1    3    3    0    0  0.91777572866E+01  0.25360567258E+00 -0.10633745695E+02  0.14048917829E+02  0.00000000000E+00 0.  1.
</event>
<event>
 7    1  0.3837332E-009  0.4778727E+02  0.7816164E-02  0.1312668E+00
        -11   -1    0    0    0    0  0.00000000000E+00  0.00000000000E+00  0.45593999997E+02  0.45594000000E+02  0.51100000000E-03 0.  1.
         11   -1    0    0    0    0 -0.00000000000E+00 -0.00000000000E+00 -0.45593999997E+02  0.45594000000E+02  0.51100000000E-03 0. -1.
    9900012    2    1    2    0    0 -0.28362589664E+01  0.51917317745E+01 -0.42995636286E+02  0.47787272087E+02  0.20000004754E+02 0.  0.
        -12    1    1    2    0    0  0.28362589664E+01 -0.51917317745E+01  0.42995636286E+02  0.43400727913E+02  0.00000000000E+00 0.  1.
         11    1    3    3    0    0  0.39130942726E+01 -0.37357740134E+01 -0.17477411821E+02  0.18295579752E+02  0.51100000000E-03 0. -1.
        -11    1    3    3    0    0 -0.53068306560E+01 -0.27248096642E+00 -0.72737470971E+01  0.90080016975E+01  0.51100000000E-03 0.  1.
        -12    1    3    3    0    0 -0.14425225830E+01  0.91999867543E+01 -0.18244477368E+02  0.20483690637E+02  0.00000000000E+00 0.  1.
</event>
<event>
 7    1  0.3837332E-009  0.4778733E+02  0.7816164E-02  0.1312667E+00
        -11   -1    0    0    0    0  0.00000000000E+00  0.00000000000E+00  0.45593999997E+02  0.45594000000E+02  0.51100000000E-03 0.  1.
         11   -1    0    0    0    0 -0.00000000000E+00 -0.00000000000E+00 -0.45593999997E+02  0.45594000000E+02  0.51100000000E-03 0. -1.
    9900012    2    1    2    0    0 -0.12148358180E+02 -0.41529744524E+02  0.33639101478E+01  0.47787329750E+02  0.20000267659E+02 0.  0.
        -12    1    1    2    0    0  0.12148358180E+02  0.41529744524E+02 -0.33639101478E+01  0.43400670250E+02  0.00000000000E+00 0.  1.
         11    1    3    3    0    0 -0.38504194851E+01 -0.19397086420E+02  0.47418749467E+01  0.20336127215E+02  0.51100000000E-03 0.  1.
        -11    1    3    3    0    0  0.18818276739E+01 -0.14672244844E+02 -0.53025059842E+00  0.14801932648E+02  0.51100000000E-03 0. -1.
        -12    1    3    3    0    0 -0.10179766368E+02 -0.74604132600E+01 -0.84771420052E+00  0.12649269888E+02  0.00000000000E+00 0.  1.
</event>
<event>
 7    1  0.3837332E-009  0.4778727E+02  0.7816164E-02  0.1312668E+00
        -11   -1    0    0    0    0  0.00000000000E+00  0.00000000000E+00  0.45593999997E+02  0.45594000000E+02  0.51100000000E-03 0.  1.
         11   -1    0    0    0    0 -0.00000000000E+00 -0.00000000000E+00 -0.45593999997E+02  0.45594000000E+02  0.51100000000E-03 0. -1.
    9900012    2    1    2    0    0 -0.25757563013E+02  0.23169384624E+02 -0.26140981518E+02  0.47787270157E+02  0.19999995953E+02 0.  0.
        -12    1    1    2    0    0  0.25757563013E+02 -0.23169384624E+02  0.26140981518E+02  0.43400729843E+02  0.00000000000E+00 0.  1.
         11    1    3    3    0    0 -0.10517723229E+02  0.14211494576E+02 -0.93703441017E+01  0.20009808316E+02  0.51100000000E-03 0. -1.
        -11    1    3    3    0    0 -0.15315511305E+02  0.11731613991E+02 -0.15386092480E+02  0.24676456298E+02  0.51100000000E-03 0.  1.
        -12    1    3    3    0    0  0.75671520990E-01 -0.27737239437E+01 -0.13845449364E+01  0.31010055427E+01  0.00000000000E+00 0.  1.
</event>
<event>
 7    1  0.3837332E-009  0.4778727E+02  0.7816164E-02  0.1312668E+00
        -11   -1    0    0    0    0  0.00000000000E+00  0.00000000000E+00  0.45593999997E+02  0.45594000000E+02  0.51100000000E-03 0.  1.
         11   -1    0    0    0    0 -0.00000000000E+00 -0.00000000000E+00 -0.45593999997E+02  0.45594000000E+02  0.51100000000E-03 0. -1.
    9900012    2    1    2    0    0 -0.36603023524E+02  0.23258499019E+01 -0.23204146737E+02  0.47787270344E+02  0.19999996808E+02 0.  0.
        -12    1    1    2    0    0  0.36603023524E+02 -0.23258499019E+01  0.23204146737E+02  0.43400729656E+02  0.00000000000E+00 0.  1.
         11    1    3    3    0    0 -0.28343583631E+02  0.24710486849E+01 -0.15744669676E+02  0.32517063799E+02  0.51100000000E-03 0. -1.
        -11    1    3    3    0    0 -0.88986190298E+01 -0.19060990186E+01 -0.17578178536E+01  0.92686869607E+01  0.51100000000E-03 0.  1.
         12    1    3    3    0    0  0.63917913676E+00  0.17609002357E+01 -0.57016592073E+01  0.60015195847E+01  0.00000000000E+00 0. -1.
</event>
<event>
 7    1  0.3837332E-009  0.4778730E+02  0.7816164E-02  0.1312668E+00
        -11   -1    0    0    0    0  0.00000000000E+00  0.00000000000E+00  0.45593999997E+02  0.45594000000E+02  0.51100000000E-03 0.  1.
         11   -1    0    0    0    0 -0.00000000000E+00 -0.00000000000E+00 -0.45593999997E+02  0.45594000000E+02  0.51100000000E-03 0. -1.
    9900012    2    1    2    0    0  0.39193573691E+02  0.13208360173E+02  0.13153844249E+02  0.47787301669E+02  0.20000139628E+02 0.  0.
        -12    1    1    2    0    0 -0.39193573691E+02 -0.13208360173E+02 -0.13153844249E+02  0.43400698331E+02  0.00000000000E+00 0.  1.
         11    1    3    3    0    0  0.29895193475E+02  0.64836726952E+01  0.34698595124E+01  0.30786369221E+02  0.51100000000E-03 0. -1.
        -11    1    3    3    0    0  0.10043408964E+02  0.56614027718E+01  0.58003581556E+01  0.12906033471E+02  0.51100000000E-03 0.  1.
        -12    1    3    3    0    0 -0.74502874874E+00  0.10632847063E+01  0.38836265812E+01  0.40948989762E+01  0.00000000000E+00 0.  1.
</event>
<event>
 7    1  0.3837332E-009  0.4778727E+02  0.7816164E-02  0.1312668E+00
        -11   -1    0    0    0    0  0.00000000000E+00  0.00000000000E+00  0.45593999997E+02  0.45594000000E+02  0.51100000000E-03 0.  1.
         11   -1    0    0    0    0 -0.00000000000E+00 -0.00000000000E+00 -0.45593999997E+02  0.45594000000E+02  0.51100000000E-03 0. -1.
    9900012    2    1    2    0    0 -0.25589825323E+02 -0.14512299977E+02 -0.31908894134E+02  0.47787268030E+02  0.19999986258E+02 0.  0.
        -12    1    1    2    0    0  0.25589825323E+02  0.14512299977E+02  0.31908894134E+02  0.43400731970E+02  0.00000000000E+00 0.  1.
         11    1    3    3    0    0 -0.79460791961E+01 -0.18600087435E+01 -0.10221894033E+02  0.13080020069E+02  0.51100000000E-03 0. -1.
        -11    1    3    3    0    0 -0.95927902626E+01  0.17423634750E+01 -0.12417619408E+02  0.15787803126E+02  0.51100000000E-03 0.  1.
         12    1    3    3    0    0 -0.80509558640E+01 -0.14394654708E+02 -0.92693806926E+01  0.18919444836E+02  0.00000000000E+00 0. -1.
</event>
<event>
 7    1  0.3837332E-009  0.4778727E+02  0.7816164E-02  0.1312668E+00
        -11   -1    0    0    0    0  0.00000000000E+00  0.00000000000E+00  0.45593999997E+02  0.45594000000E+02  0.51100000000E-03 0.  1.
         11   -1    0    0    0    0 -0.00000000000E+00 -0.00000000000E+00 -0.45593999997E+02  0.45594000000E+02  0.51100000000E-03 0. -1.
    9900012    2    1    2    0    0 -0.18363738910E+02 -0.87271463511E+01 -0.38343619707E+02  0.47787272328E+02  0.20000005853E+02 0.  0.
        -12    1    1    2    0    0  0.18363738910E+02  0.87271463511E+01  0.38343619707E+02  0.43400727672E+02  0.00000000000E+00 0.  1.
         11    1    3    3    0    0 -0.21777585817E+02 -0.10778723518E+02 -0.31373850954E+02  0.39683279207E+02  0.51100000000E-03 0. -1.
        -11    1    3    3    0    0  0.43291313905E+00  0.52214706310E+00 -0.59434464519E+00  0.90182989519E+00  0.51100000000E-03 0.  1.
         12    1    3    3    0    0  0.29809337679E+01  0.15294301041E+01 -0.63754241080E+01  0.72021632257E+01  0.00000000000E+00 0. -1.
</event>
<event>
 7    1  0.3837332E-009  0.4778727E+02  0.7816164E-02  0.1312668E+00
        -11   -1    0    0    0    0  0.00000000000E+00  0.00000000000E+00  0.45593999997E+02  0.45594000000E+02  0.51100000000E-03 0. -1.
         11   -1    0    0    0    0 -0.00000000000E+00 -0.00000000000E+00 -0.45593999997E+02  0.45594000000E+02  0.51100000000E-03 0.  1.
    9900012    2    1    2    0    0  0.32083139146E+02 -0.54240259564E+01  0.28720645907E+02  0.47787269864E+02  0.19999994617E+02 0.  0.
        -12    1    1    2    0    0 -0.32083139146E+02  0.54240259564E+01 -0.28720645907E+02  0.43400730136E+02  0.00000000000E+00 0.  1.
         11    1    3    3    0    0  0.52882955735E+01  0.31962822535E+01  0.63229960771E+01  0.88409597877E+01  0.51100000000E-03 0. -1.
        -11    1    3    3    0    0  0.35808478334E+01  0.39044783956E+01  0.54105344962E+01  0.75724042776E+01  0.51100000000E-03 0.  1.
         12    1    3    3    0    0  0.23213995739E+02 -0.12524786605E+02  0.16987115334E+02  0.31373905798E+02  0.00000000000E+00 0. -1.
</event>
<event>
 7    1  0.3837332E-009  0.4778727E+02  0.7816164E-02  0.1312668E+00
        -11   -1    0    0    0    0  0.00000000000E+00  0.00000000000E+00  0.45593999997E+02  0.45594000000E+02  0.51100000000E-03 0.  1.
         11   -1    0    0    0    0 -0.00000000000E+00 -0.00000000000E+00 -0.45593999997E+02  0.45594000000E+02  0.51100000000E-03 0. -1.
    9900012    2    1    2    0    0 -0.11659999421E+02  0.16886265530E+02 -0.38242934019E+02  0.47787267835E+02  0.19999985369E+02 0.  0.
        -12    1    1    2    0    0  0.11659999421E+02 -0.16886265530E+02  0.38242934019E+02  0.43400732165E+02  0.00000000000E+00 0.  1.
         11    1    3    3    0    0  0.83397658586E+00  0.22621846121E+01 -0.15759843201E+02  0.15943200875E+02  0.51100000000E-03 0. -1.
        -11    1    3    3    0    0 -0.43301891959E+01 -0.13318031895E+01 -0.34032042187E+01  0.56662189707E+01  0.51100000000E-03 0.  1.
         12    1    3    3    0    0 -0.81637868109E+01  0.15955884107E+02 -0.19079886600E+02  0.26177847990E+02  0.00000000000E+00 0. -1.
</event>
<event>
 7    1  0.3837332E-009  0.4778727E+02  0.7816164E-02  0.1312668E+00
        -11   -1    0    0    0    0  0.00000000000E+00  0.00000000000E+00  0.45593999997E+02  0.45594000000E+02  0.51100000000E-03 0.  1.
         11   -1    0    0    0    0 -0.00000000000E+00 -0.00000000000E+00 -0.45593999997E+02  0.45594000000E+02  0.51100000000E-03 0. -1.
    9900012    2    1    2    0    0  0.24368536347E+00  0.14715730131E+02 -0.40829053863E+02  0.47787265730E+02  0.19999975770E+02 0.  0.
        -12    1    1    2    0    0 -0.24368536347E+00 -0.14715730131E+02  0.40829053863E+02  0.43400734270E+02  0.00000000000E+00 0.  1.
         11    1    3    3    0    0 -0.11617791111E+01  0.71004439387E+01 -0.18835479002E+02  0.20162869447E+02  0.51100000000E-03 0. -1.
        -11    1    3    3    0    0  0.50657120961E+01  0.10412122295E+02 -0.12304275459E+02  0.16895825655E+02  0.51100000000E-03 0.  1.
        -12    1    3    3    0    0 -0.36602476216E+01 -0.27968361028E+01 -0.96892994015E+01  0.10728570628E+02  0.00000000000E+00 0.  1.
</event>
<event>
 7    1  0.3837332E-009  0.4778727E+02  0.7816164E-02  0.1312668E+00
        -11   -1    0    0    0    0  0.00000000000E+00  0.00000000000E+00  0.45593999997E+02  0.45594000000E+02  0.51100000000E-03 0. -1.
         11   -1    0    0    0    0 -0.00000000000E+00 -0.00000000000E+00 -0.45593999997E+02  0.45594000000E+02  0.51100000000E-03 0.  1.
    9900012    2    1    2    0    0 -0.22794603435E+02  0.32036468216E+02  0.18376452218E+02  0.47787271462E+02  0.20000001905E+02 0.  0.
        -12    1    1    2    0    0  0.22794603435E+02 -0.32036468216E+02 -0.18376452218E+02  0.43400728538E+02  0.00000000000E+00 0.  1.
         11    1    3    3    0    0  0.36197827974E+00  0.14220014649E+01  0.13909992564E+01  0.20218792332E+01  0.51100000000E-03 0.  1.
        -11    1    3    3    0    0 -0.12711982679E+02  0.39070243068E+01  0.21280604905E+01  0.13468035650E+02  0.51100000000E-03 0. -1.
         12    1    3    3    0    0 -0.10444599035E+02  0.26707442444E+02  0.14857392471E+02  0.32297356579E+02  0.00000000000E+00 0. -1.
</event>
<event>
 7    1  0.3837332E-009  0.4778727E+02  0.7816164E-02  0.1312668E+00
        -11   -1    0    0    0    0  0.00000000000E+00  0.00000000000E+00  0.45593999997E+02  0.45594000000E+02  0.51100000000E-03 0. -1.
         11   -1    0    0    0    0 -0.00000000000E+00 -0.00000000000E+00 -0.45593999997E+02  0.45594000000E+02  0.51100000000E-03 0.  1.
    9900012    2    1    2    0    0 -0.12987583116E+01 -0.45273933741E+01  0.43144399697E+02  0.47787270869E+02  0.19999999199E+02 0.  0.
        -12    1    1    2    0    0  0.12987583116E+01  0.45273933741E+01 -0.43144399697E+02  0.43400729131E+02  0.00000000000E+00 0.  1.
         11    1    3    3    0    0 -0.24962314198E+01 -0.23456472051E+01  0.13081570033E+01  0.36666752131E+01  0.51100000000E-03 0. -1.
        -11    1    3    3    0    0  0.86462595629E+00  0.48424117017E+00 -0.87676607045E+00  0.13231729133E+01  0.51100000000E-03 0.  1.
         12    1    3    3    0    0  0.33284715186E+00 -0.26659873392E+01  0.42713008764E+02  0.42797422742E+02  0.00000000000E+00 0. -1.
</event>
<event>
 7    1  0.3837332E-009  0.4778727E+02  0.7816164E-02  0.1312668E+00
        -11   -1    0    0    0    0  0.00000000000E+00  0.00000000000E+00  0.45593999997E+02  0.45594000000E+02  0.51100000000E-03 0.  1.
         11   -1    0    0    0    0 -0.00000000000E+00 -0.00000000000E+00 -0.45593999997E+02  0.45594000000E+02  0.51100000000E-03 0. -1.
    9900012    2    1    2    0    0  0.60651507381E+01 -0.65664034232E+01 -0.42470220744E+02  0.47787270082E+02  0.19999995611E+02 0.  0.
        -12    1    1    2    0    0 -0.60651507381E+01  0.65664034232E+01  0.42470220744E+02  0.43400729918E+02  0.00000000000E+00 0.  1.
         11    1    3    3    0    0  0.36491785908E+01  0.66232644739E+01 -0.16882667325E+02  0.18498880856E+02  0.51100000000E-03 0. -1.
        -11    1    3    3    0    0 -0.13066052676E+01 -0.26218256120E+01 -0.69516508552E+01  0.75436487683E+01  0.51100000000E-03 0.  1.
         12    1    3    3    0    0  0.37225774149E+01 -0.10567842285E+02 -0.18635902564E+02  0.21744740457E+02  0.00000000000E+00 0. -1.
</event>
<event>
 7    1  0.3837332E-009  0.4778727E+02  0.7816164E-02  0.1312668E+00
        -11   -1    0    0    0    0  0.00000000000E+00  0.00000000000E+00  0.45593999997E+02  0.45594000000E+02  0.51100000000E-03 0.  1.
         11   -1    0    0    0    0 -0.00000000000E+00 -0.00000000000E+00 -0.45593999997E+02  0.45594000000E+02  0.51100000000E-03 0. -1.
    9900012    2    1    2    0    0  0.12417060155E+02 -0.27754569611E+02 -0.30969720102E+02  0.47787273273E+02  0.20000010163E+02 0.  0.
        -12    1    1    2    0    0 -0.12417060155E+02  0.27754569611E+02  0.30969720102E+02  0.43400726727E+02  0.00000000000E+00 0.  1.
         11    1    3    3    0    0  0.54941434624E+01 -0.13747135095E+02 -0.29332053377E+01  0.15092151256E+02  0.51100000000E-03 0. -1.
        -11    1    3    3    0    0 -0.73048545316E+00 -0.10161851893E+00 -0.26853909829E+01  0.27848268012E+01  0.51100000000E-03 0.  1.
         12    1    3    3    0    0  0.76534021455E+01 -0.13905815997E+02 -0.25351123782E+02  0.29910295216E+02  0.00000000000E+00 0. -1.
</event>
<event>
 7    1  0.3837332E-009  0.4778727E+02  0.7816164E-02  0.1312668E+00
        -11   -1    0    0    0    0  0.00000000000E+00  0.00000000000E+00  0.45593999997E+02  0.45594000000E+02  0.51100000000E-03 0. -1.
         11   -1    0    0    0    0 -0.00000000000E+00 -0.00000000000E+00 -0.45593999997E+02  0.45594000000E+02  0.51100000000E-03 0.  1.
    9900012    2    1    2    0    0  0.14128117460E+02  0.40541619693E+02 -0.63558280122E+01  0.47787272126E+02  0.20000004930E+02 0.  0.
        -12    1    1    2    0    0 -0.14128117460E+02 -0.40541619693E+02  0.63558280122E+01  0.43400727874E+02  0.00000000000E+00 0.  1.
         11    1    3    3    0    0  0.12327333791E+02  0.29612665672E+02  0.40037550075E+01  0.32324962197E+02  0.51100000000E-03 0. -1.
        -11    1    3    3    0    0  0.78638224671E+00  0.40511760867E+01 -0.19888537599E+01  0.45810440145E+01  0.51100000000E-03 0.  1.
        -12    1    3    3    0    0  0.10144014228E+01  0.68777779341E+01 -0.83707292599E+01  0.10881265914E+02  0.00000000000E+00 0.  1.
</event>
<event>
 7    1  0.3837332E-009  0.4778727E+02  0.7816164E-02  0.1312668E+00
        -11   -1    0    0    0    0  0.00000000000E+00  0.00000000000E+00  0.45593999997E+02  0.45594000000E+02  0.51100000000E-03 0. -1.
         11   -1    0    0    0    0 -0.00000000000E+00 -0.00000000000E+00 -0.45593999997E+02  0.45594000000E+02  0.51100000000E-03 0.  1.
    9900012    2    1    2    0    0  0.25674515528E+02  0.28092217253E+02  0.20863123733E+02  0.47787270171E+02  0.19999996017E+02 0.  0.
        -12    1    1    2    0    0 -0.25674515528E+02 -0.28092217253E+02 -0.20863123733E+02  0.43400729829E+02  0.00000000000E+00 0.  1.
         11    1    3    3    0    0  0.17000087544E+02  0.18404790146E+02  0.14268838532E+02  0.28832950424E+02  0.51100000000E-03 0. -1.
        -11    1    3    3    0    0  0.10669651585E+02  0.51207123836E+01  0.16767161769E+01  0.11953013748E+02  0.51100000000E-03 0.  1.
         12    1    3    3    0    0 -0.19952236012E+01  0.45667147237E+01  0.49175690239E+01  0.70013059990E+01  0.00000000000E+00 0. -1.
</event>
<event>
 7    1  0.3837332E-009  0.4778727E+02  0.7816164E-02  0.1312668E+00
        -11   -1    0    0    0    0  0.00000000000E+00  0.00000000000E+00  0.45593999997E+02  0.45594000000E+02  0.51100000000E-03 0.  1.
         11   -1    0    0    0    0 -0.00000000000E+00 -0.00000000000E+00 -0.45593999997E+02  0.45594000000E+02  0.51100000000E-03 0. -1.
    9900012    2    1    2    0    0  0.19170481386E+02  0.35063213395E+02  0.16931836594E+02  0.47787269815E+02  0.19999994393E+02 0.  0.
        -12    1    1    2    0    0 -0.19170481386E+02 -0.35063213395E+02 -0.16931836594E+02  0.43400730185E+02  0.00000000000E+00 0.  1.
         11    1    3    3    0    0 -0.43708457663E+00  0.82031181853E+00  0.14845906413E+01  0.17515604586E+01  0.51100000000E-03 0. -1.
        -11    1    3    3    0    0  0.14790075543E+01 -0.22073313274E+01  0.97549011378E+00  0.28304339169E+01  0.51100000000E-03 0.  1.
         12    1    3    3    0    0  0.18128558408E+02  0.36450232904E+02  0.14471755839E+02  0.43205275439E+02  0.00000000000E+00 0. -1.
</event>
<event>
 7    1  0.3837332E-009  0.4778726E+02  0.7816164E-02  0.1312668E+00
        -11   -1    0    0    0    0  0.00000000000E+00  0.00000000000E+00  0.45593999997E+02  0.45594000000E+02  0.51100000000E-03 0.  1.
         11   -1    0    0    0    0 -0.00000000000E+00 -0.00000000000E+00 -0.45593999997E+02  0.45594000000E+02  0.51100000000E-03 0. -1.
    9900012    2    1    2    0    0  0.50744117107E+01 -0.30575283480E+02 -0.30381346137E+02  0.47787264900E+02  0.19999971987E+02 0.  0.
        -12    1    1    2    0    0 -0.50744117107E+01  0.30575283480E+02  0.30381346137E+02  0.43400735100E+02  0.00000000000E+00 0.  1.
         11    1    3    3    0    0 -0.66496166759E+00 -0.14905744094E+02 -0.12197380458E+02  0.19271727253E+02  0.51100000000E-03 0. -1.
        -11    1    3    3    0    0  0.29825756236E+01 -0.16090118031E+02 -0.19479262435E+02  0.25440702051E+02  0.51100000000E-03 0.  1.
        -12    1    3    3    0    0  0.27567977547E+01  0.42057864487E+00  0.12952967559E+01  0.30748355961E+01  0.00000000000E+00 0.  1.
</event>
<event>
 7    1  0.3837332E-009  0.4778727E+02  0.7816164E-02  0.1312668E+00
        -11   -1    0    0    0    0  0.00000000000E+00  0.00000000000E+00  0.45593999997E+02  0.45594000000E+02  0.51100000000E-03 0. -1.
         11   -1    0    0    0    0 -0.00000000000E+00 -0.00000000000E+00 -0.45593999997E+02  0.45594000000E+02  0.51100000000E-03 0.  1.
    9900012    2    1    2    0    0 -0.23236037802E+02  0.34976263244E+02 -0.10971358642E+02  0.47787272429E+02  0.20000006313E+02 0.  0.
        -12    1    1    2    0    0  0.23236037802E+02 -0.34976263244E+02  0.10971358642E+02  0.43400727571E+02  0.00000000000E+00 0.  1.
         11    1    3    3    0    0 -0.15457886045E+01  0.29524362385E+01  0.19083602642E+01  0.38403360936E+01  0.51100000000E-03 0. -1.
        -11    1    3    3    0    0 -0.79902502085E+01  0.24755245578E+02 -0.11288987286E+02  0.28356789596E+02  0.51100000000E-03 0.  1.
        -12    1    3    3    0    0 -0.13699998989E+02  0.72685814279E+01 -0.15907316197E+01  0.15590146739E+02  0.00000000000E+00 0.  1.
</event>
<event>
 7    1  0.3837332E-009  0.4778727E+02  0.7816164E-02  0.1312668E+00
        -11   -1    0    0    0    0  0.00000000000E+00  0.00000000000E+00  0.45593999997E+02  0.45594000000E+02  0.51100000000E-03 0.  1.
         11   -1    0    0    0    0 -0.00000000000E+00 -0.00000000000E+00 -0.45593999997E+02  0.45594000000E+02  0.51100000000E-03 0. -1.
    9900012    2    1    2    0    0 -0.10009725761E+02  0.33724686130E+02 -0.25417984987E+02  0.47787273909E+02  0.20000013062E+02 0.  0.
        -12    1    1    2    0    0  0.10009725761E+02 -0.33724686130E+02  0.25417984987E+02  0.43400726091E+02  0.00000000000E+00 0.  1.
         11    1    3    3    0    0 -0.52381548791E+01  0.20078010815E+01 -0.76252833203E+00  0.56613586212E+01  0.51100000000E-03 0. -1.
        -11    1    3    3    0    0 -0.95174023260E+00  0.56217469847E+01  0.44280500160E+00  0.57189094381E+01  0.51100000000E-03 0.  1.
         12    1    3    3    0    0 -0.38198306492E+01  0.26095138064E+02 -0.25098261657E+02  0.36407005850E+02  0.00000000000E+00 0. -1.
</event>
<event>
 7    1  0.3837332E-009  0.4778727E+02  0.7816164E-02  0.1312668E+00
        -11   -1    0    0    0    0  0.00000000000E+00  0.00000000000E+00  0.45593999997E+02  0.45594000000E+02  0.51100000000E-03 0.  1.
         11   -1    0    0    0    0 -0.00000000000E+00 -0.00000000000E+00 -0.45593999997E+02  0.45594000000E+02  0.51100000000E-03 0. -1.
    9900012    2    1    2    0    0 -0.14645218401E+02  0.40792932335E+02 -0.22533667693E+01  0.47787269450E+02  0.19999992729E+02 0.  0.
        -12    1    1    2    0    0  0.14645218401E+02 -0.40792932335E+02  0.22533667693E+01  0.43400730550E+02  0.00000000000E+00 0.  1.
         11    1    3    3    0    0  0.35332300457E+00  0.19045747909E+02  0.97027043594E-01  0.19049272035E+02  0.51100000000E-03 0.  1.
        -11    1    3    3    0    0 -0.21561416495E+01  0.41225789710E+01  0.38802859978E+01  0.60581535034E+01  0.51100000000E-03 0. -1.
         12    1    3    3    0    0 -0.12842399756E+02  0.17624605455E+02 -0.62306798107E+01  0.22679843911E+02  0.00000000000E+00 0. -1.
</event>
<event>
 7    1  0.3837332E-009  0.4778727E+02  0.7816164E-02  0.1312668E+00
        -11   -1    0    0    0    0  0.00000000000E+00  0.00000000000E+00  0.45593999997E+02  0.45594000000E+02  0.51100000000E-03 0. -1.
         11   -1    0    0    0    0 -0.00000000000E+00 -0.00000000000E+00 -0.45593999997E+02  0.45594000000E+02  0.51100000000E-03 0.  1.
    9900012    2    1    2    0    0 -0.22759553438E+02  0.36637500508E+02 -0.48290267669E+01  0.47787271715E+02  0.20000003058E+02 0.  0.
        -12    1    1    2    0    0  0.22759553438E+02 -0.36637500508E+02  0.48290267669E+01  0.43400728285E+02  0.00000000000E+00 0.  1.
         11    1    3    3    0    0 -0.32798574094E+01  0.31575239617E+01 -0.32865896153E+01  0.56150773597E+01  0.51100000000E-03 0. -1.
        -11    1    3    3    0    0 -0.30966896098E+01  0.37764890527E+01  0.56789215991E+01  0.74900939176E+01  0.51100000000E-03 0.  1.
         12    1    3    3    0    0 -0.16383006418E+02  0.29703487493E+02 -0.72213587507E+01  0.34682100438E+02  0.00000000000E+00 0. -1.
</event>
<event>
 7    1  0.3837332E-009  0.4778727E+02  0.7816164E-02  0.1312668E+00
        -11   -1    0    0    0    0  0.00000000000E+00  0.00000000000E+00  0.45593999997E+02  0.45594000000E+02  0.51100000000E-03 0. -1.
         11   -1    0    0    0    0 -0.00000000000E+00 -0.00000000000E+00 -0.45593999997E+02  0.45594000000E+02  0.51100000000E-03 0.  1.
    9900012    2    1    2    0    0 -0.29323126778E+02 -0.13209495480E+02 -0.29142526103E+02  0.47787270023E+02  0.19999995343E+02 0.  0.
        -12    1    1    2    0    0  0.29323126778E+02  0.13209495480E+02  0.29142526103E+02  0.43400729977E+02  0.00000000000E+00 0.  1.
         11    1    3    3    0    0 -0.24777842448E+02 -0.10950208691E+02 -0.13082800853E+02  0.30083354619E+02  0.51100000000E-03 0. -1.
        -11    1    3    3    0    0 -0.79788968628E-01 -0.56160740592E+00  0.31340038723E+00  0.64806575417E+00  0.51100000000E-03 0.  1.
        -12    1    3    3    0    0 -0.44654953612E+01 -0.16976793826E+01 -0.16373125638E+02  0.17055849649E+02  0.00000000000E+00 0.  1.
</event>
<event>
 7    1  0.3837332E-009  0.4778727E+02  0.7816164E-02  0.1312668E+00
        -11   -1    0    0    0    0  0.00000000000E+00  0.00000000000E+00  0.45593999997E+02  0.45594000000E+02  0.51100000000E-03 0.  1.
         11   -1    0    0    0    0 -0.00000000000E+00 -0.00000000000E+00 -0.45593999997E+02  0.45594000000E+02  0.51100000000E-03 0. -1.
    9900012    2    1    2    0    0  0.23534370401E+02 -0.18933589964E+02 -0.31165298177E+02  0.47787271555E+02  0.20000002328E+02 0.  0.
        -12    1    1    2    0    0 -0.23534370401E+02  0.18933589964E+02  0.31165298177E+02  0.43400728445E+02  0.00000000000E+00 0.  1.
         11    1    3    3    0    0  0.10138134273E+02 -0.16033771026E+01 -0.71138763032E+01  0.12488387445E+02  0.51100000000E-03 0. -1.
        -11    1    3    3    0    0 -0.16868526768E+01  0.17673752979E+00  0.30652169334E+00  0.17235614052E+01  0.51100000000E-03 0.  1.
         12    1    3    3    0    0  0.15083088805E+02 -0.17506950392E+02 -0.24357943567E+02  0.33575322705E+02  0.00000000000E+00 0. -1.
</event>
<event>
 7    1  0.3837332E-009  0.4778727E+02  0.7816164E-02  0.1312668E+00
        -11   -1    0    0    0    0  0.00000000000E+00  0.00000000000E+00  0.45593999997E+02  0.45594000000E+02  0.51100000000E-03 0. -1.
         11   -1    0    0    0    0 -0.00000000000E+00 -0.00000000000E+00 -0.45593999997E+02  0.45594000000E+02  0.51100000000E-03 0.  1.
    9900012    2    1    2    0    0 -0.43376428095E+02  0.14180794595E+01  0.31292987773E+00  0.47787269721E+02  0.19999993965E+02 0.  0.
        -12    1    1    2    0    0  0.43376428095E+02 -0.14180794595E+01 -0.31292987773E+00  0.43400730279E+02  0.00000000000E+00 0.  1.
         11    1    3    3    0    0 -0.14088287467E+02  0.23144714445E+01 -0.47220893000E+01  0.15037777410E+02  0.51100000000E-03 0. -1.
        -11    1    3    3    0    0 -0.22798865513E+02  0.52674279710E+01  0.40168207691E+01  0.23741712564E+02  0.51100000000E-03 0.  1.
        -12    1    3    3    0    0 -0.64892751154E+01 -0.61638199560E+01  0.10181984086E+01  0.90077797471E+01  0.00000000000E+00 0.  1.
</event>
<event>
 7    1  0.3837332E-009  0.4778725E+02  0.7816164E-02  0.1312668E+00
        -11   -1    0    0    0    0  0.00000000000E+00  0.00000000000E+00  0.45593999997E+02  0.45594000000E+02  0.51100000000E-03 0. -1.
         11   -1    0    0    0    0 -0.00000000000E+00 -0.00000000000E+00 -0.45593999997E+02  0.45594000000E+02  0.51100000000E-03 0.  1.
    9900012    2    1    2    0    0 -0.37681542884E+02 -0.55604489375E+01  0.20804025390E+02  0.47787254166E+02  0.19999923043E+02 0.  0.
        -12    1    1    2    0    0  0.37681542884E+02  0.55604489375E+01 -0.20804025390E+02  0.43400745834E+02  0.00000000000E+00 0.  1.
         11    1    3    3    0    0 -0.19870905655E+02  0.28550297385E+01  0.51263766369E+01  0.20719165621E+02  0.51100000000E-03 0. -1.
        -11    1    3    3    0    0 -0.96927118989E+01 -0.54416489716E+01  0.26409192185E+01  0.11425176675E+02  0.51100000000E-03 0.  1.
        -12    1    3    3    0    0 -0.81179253307E+01 -0.29738297044E+01  0.13036729535E+02  0.15642911869E+02  0.00000000000E+00 0.  1.
</event>
<event>
 7    1  0.3837332E-009  0.4778728E+02  0.7816164E-02  0.1312668E+00
        -11   -1    0    0    0    0  0.00000000000E+00  0.00000000000E+00  0.45593999997E+02  0.45594000000E+02  0.51100000000E-03 0.  1.
         11   -1    0    0    0    0 -0.00000000000E+00 -0.00000000000E+00 -0.45593999997E+02  0.45594000000E+02  0.51100000000E-03 0. -1.
    9900012    2    1    2    0    0  0.37362713996E+02  0.24787907516E+01 -0.21943245674E+02  0.47787276141E+02  0.20000023237E+02 0.  0.
        -12    1    1    2    0    0 -0.37362713996E+02 -0.24787907516E+01  0.21943245674E+02  0.43400723859E+02  0.00000000000E+00 0.  1.
         11    1    3    3    0    0  0.77466826239E+01 -0.19981710024E-02 -0.56060611005E+00  0.77669411701E+01  0.51100000000E-03 0. -1.
        -11    1    3    3    0    0 -0.15911213508E+01  0.77260961746E+00  0.53417906582E+00  0.18476851218E+01  0.51100000000E-03 0.  1.
         12    1    3    3    0    0  0.31207152723E+02  0.17081793052E+01 -0.21916818630E+02  0.38172649849E+02  0.00000000000E+00 0. -1.
</event>
<event>
 7    1  0.3837332E-009  0.4778729E+02  0.7816164E-02  0.1312668E+00
        -11   -1    0    0    0    0  0.00000000000E+00  0.00000000000E+00  0.45593999997E+02  0.45594000000E+02  0.51100000000E-03 0.  1.
         11   -1    0    0    0    0 -0.00000000000E+00 -0.00000000000E+00 -0.45593999997E+02  0.45594000000E+02  0.51100000000E-03 0. -1.
    9900012    2    1    2    0    0 -0.24153424632E+02 -0.28554672122E+02 -0.22019634035E+02  0.47787291429E+02  0.20000092940E+02 0.  0.
        -12    1    1    2    0    0  0.24153424632E+02  0.28554672122E+02  0.22019634035E+02  0.43400708571E+02  0.00000000000E+00 0.  1.
         11    1    3    3    0    0 -0.42640464893E+00 -0.58863705414E+01  0.22630523597E+01  0.63208057492E+01  0.51100000000E-03 0.  1.
        -11    1    3    3    0    0 -0.18280278561E+01 -0.30787677669E+01 -0.56023079980E+01  0.66487857516E+01  0.51100000000E-03 0. -1.
         12    1    3    3    0    0 -0.21898992127E+02 -0.19589533814E+02 -0.18680378397E+02  0.34817699928E+02  0.00000000000E+00 0. -1.
</event>
<event>
 7    1  0.3837332E-009  0.4778727E+02  0.7816164E-02  0.1312668E+00
        -11   -1    0    0    0    0  0.00000000000E+00  0.00000000000E+00  0.45593999997E+02  0.45594000000E+02  0.51100000000E-03 0. -1.
         11   -1    0    0    0    0 -0.00000000000E+00 -0.00000000000E+00 -0.45593999997E+02  0.45594000000E+02  0.51100000000E-03 0.  1.
    9900012    2    1    2    0    0 -0.28118509723E+02 -0.43068875097E+00  0.33057332981E+02  0.47787270217E+02  0.19999996227E+02 0.  0.
        -12    1    1    2    0    0  0.28118509723E+02  0.43068875097E+00 -0.33057332981E+02  0.43400729783E+02  0.00000000000E+00 0.  1.
         11    1    3    3    0    0 -0.14461211161E+02 -0.54221629006E+01  0.53237922765E+01  0.16336133056E+02  0.51100000000E-03 0. -1.
        -11    1    3    3    0    0 -0.83308484461E+00  0.11979386124E+01  0.28104407821E+01  0.31666488483E+01  0.51100000000E-03 0.  1.
        -12    1    3    3    0    0 -0.12824213718E+02  0.37935355372E+01  0.24923099923E+02  0.28284488313E+02  0.00000000000E+00 0.  1.
</event>
<event>
 7    1  0.3837332E-009  0.4778727E+02  0.7816164E-02  0.1312668E+00
        -11   -1    0    0    0    0  0.00000000000E+00  0.00000000000E+00  0.45593999997E+02  0.45594000000E+02  0.51100000000E-03 0. -1.
         11   -1    0    0    0    0 -0.00000000000E+00 -0.00000000000E+00 -0.45593999997E+02  0.45594000000E+02  0.51100000000E-03 0.  1.
    9900012    2    1    2    0    0 -0.73940814850E+01  0.19086670892E+02  0.38270743114E+02  0.47787271605E+02  0.20000002555E+02 0.  0.
        -12    1    1    2    0    0  0.73940814850E+01 -0.19086670892E+02 -0.38270743114E+02  0.43400728395E+02  0.00000000000E+00 0.  1.
         11    1    3    3    0    0 -0.18027997514E+01 -0.11609488318E+01  0.55380332652E+01  0.59386616204E+01  0.51100000000E-03 0. -1.
        -11    1    3    3    0    0 -0.71220345739E+01  0.82767809529E+01  0.25596667492E+02  0.27828364421E+02  0.51100000000E-03 0.  1.
        -12    1    3    3    0    0  0.15307528403E+01  0.11970838771E+02  0.71360423568E+01  0.14020245563E+02  0.00000000000E+00 0.  1.
</event>
<event>
 7    1  0.3837332E-009  0.4778727E+02  0.7816164E-02  0.1312668E+00
        -11   -1    0    0    0    0  0.00000000000E+00  0.00000000000E+00  0.45593999997E+02  0.45594000000E+02  0.51100000000E-03 0. -1.
         11   -1    0    0    0    0 -0.00000000000E+00 -0.00000000000E+00 -0.45593999997E+02  0.45594000000E+02  0.51100000000E-03 0.  1.
    9900012    2    1    2    0    0 -0.22685759374E+02 -0.36913497853E+02  0.25244955639E+01  0.47787273278E+02  0.20000010185E+02 0.  0.
        -12    1    1    2    0    0  0.22685759374E+02  0.36913497853E+02 -0.25244955639E+01  0.43400726722E+02  0.00000000000E+00 0.  1.
         11    1    3    3    0    0 -0.17068917712E+02 -0.26357982898E+02 -0.54885940433E+01  0.31878141087E+02  0.51100000000E-03 0. -1.
        -11    1    3    3    0    0 -0.13876521084E+01  0.72900962565E+00  0.28536260558E+00  0.15932562525E+01  0.51100000000E-03 0.  1.
         12    1    3    3    0    0 -0.42291895539E+01 -0.11284524580E+02  0.77277270016E+01  0.14315875939E+02  0.00000000000E+00 0. -1.
</event>
<event>
 7    1  0.3837332E-009  0.4778727E+02  0.7816164E-02  0.1312668E+00
        -11   -1    0    0    0    0  0.00000000000E+00  0.00000000000E+00  0.45593999997E+02  0.45594000000E+02  0.51100000000E-03 0.  1.
         11   -1    0    0    0    0 -0.00000000000E+00 -0.00000000000E+00 -0.45593999997E+02  0.45594000000E+02  0.51100000000E-03 0. -1.
    9900012    2    1    2    0    0 -0.25879620461E+02  0.41081108527E+01 -0.34597567436E+02  0.47787274171E+02  0.20000014256E+02 0.  0.
        -12    1    1    2    0    0  0.25879620461E+02 -0.41081108527E+01  0.34597567436E+02  0.43400725829E+02  0.00000000000E+00 0.  1.
         11    1    3    3    0    0 -0.18631314200E+02  0.10815038372E+01 -0.24355802827E+02  0.30683882593E+02  0.51100000000E-03 0.  1.
        -11    1    3    3    0    0 -0.71984101046E+01  0.66479792083E+01 -0.89120810256E+01  0.13245298187E+02  0.51100000000E-03 0. -1.
        -12    1    3    3    0    0 -0.49896156607E-01 -0.36213721929E+01 -0.13296835831E+01  0.38580933914E+01  0.00000000000E+00 0.  1.
</event>
<event>
 7    1  0.3837332E-009  0.4778727E+02  0.7816164E-02  0.1312668E+00
        -11   -1    0    0    0    0  0.00000000000E+00  0.00000000000E+00  0.45593999997E+02  0.45594000000E+02  0.51100000000E-03 0.  1.
         11   -1    0    0    0    0 -0.00000000000E+00 -0.00000000000E+00 -0.45593999997E+02  0.45594000000E+02  0.51100000000E-03 0. -1.
    9900012    2    1    2    0    0 -0.21362956103E+02  0.37751496379E+02  0.14394763388E+01  0.47787268849E+02  0.19999989989E+02 0.  0.
        -12    1    1    2    0    0  0.21362956103E+02 -0.37751496379E+02 -0.14394763388E+01  0.43400731151E+02  0.00000000000E+00 0.  1.
         11    1    3    3    0    0 -0.69146210434E+01  0.63694948151E+01 -0.25585414760E+01  0.97431300473E+01  0.51100000000E-03 0. -1.
        -11    1    3    3    0    0  0.26774428668E+01  0.56166897160E+01 -0.19890904991E+01  0.65324103473E+01  0.51100000000E-03 0.  1.
         12    1    3    3    0    0 -0.17125777926E+02  0.25765311848E+02  0.59871083139E+01  0.31511728454E+02  0.00000000000E+00 0. -1.
</event>
<event>
 7    1  0.3837332E-009  0.4778727E+02  0.7816164E-02  0.1312668E+00
        -11   -1    0    0    0    0  0.00000000000E+00  0.00000000000E+00  0.45593999997E+02  0.45594000000E+02  0.51100000000E-03 0. -1.
         11   -1    0    0    0    0 -0.00000000000E+00 -0.00000000000E+00 -0.45593999997E+02  0.45594000000E+02  0.51100000000E-03 0.  1.
    9900012    2    1    2    0    0 -0.29546553487E+02 -0.20034580644E+02  0.24682788035E+02  0.47787271093E+02  0.20000000219E+02 0.  0.
        -12    1    1    2    0    0  0.29546553487E+02  0.20034580644E+02 -0.24682788035E+02  0.43400728907E+02  0.00000000000E+00 0.  1.
         11    1    3    3    0    0 -0.17857668784E+02 -0.13310633612E+02  0.95253143612E+01  0.24223973983E+02  0.51100000000E-03 0. -1.
        -11    1    3    3    0    0 -0.25198921673E+01 -0.83007088574E+01  0.63345914300E+01  0.10741446500E+02  0.51100000000E-03 0.  1.
        -12    1    3    3    0    0 -0.91689925354E+01  0.15767618263E+01  0.88228822438E+01  0.12821850610E+02  0.00000000000E+00 0.  1.
</event>
<event>
 7    1  0.3837332E-009  0.4778727E+02  0.7816164E-02  0.1312668E+00
        -11   -1    0    0    0    0  0.00000000000E+00  0.00000000000E+00  0.45593999997E+02  0.45594000000E+02  0.51100000000E-03 0.  1.
         11   -1    0    0    0    0 -0.00000000000E+00 -0.00000000000E+00 -0.45593999997E+02  0.45594000000E+02  0.51100000000E-03 0. -1.
    9900012    2    1    2    0    0  0.17550418284E+02 -0.34100807856E+02 -0.20316034375E+02  0.47787268081E+02  0.19999986488E+02 0.  0.
        -12    1    1    2    0    0 -0.17550418284E+02  0.34100807856E+02  0.20316034375E+02  0.43400731919E+02  0.00000000000E+00 0.  1.
         11    1    3    3    0    0  0.12655491375E+01 -0.14213173460E+02 -0.54531515603E+01  0.15275888734E+02  0.51100000000E-03 0. -1.
        -11    1    3    3    0    0  0.25047133479E+01 -0.11131519946E+01  0.23027546100E+01  0.35798568928E+01  0.51100000000E-03 0.  1.
        -12    1    3    3    0    0  0.13780155798E+02 -0.18774482402E+02 -0.17165637425E+02  0.28931522454E+02  0.00000000000E+00 0.  1.
</event>
<event>
 7    1  0.3837332E-009  0.4778727E+02  0.7816164E-02  0.1312668E+00
        -11   -1    0    0    0    0  0.00000000000E+00  0.00000000000E+00  0.45593999997E+02  0.45594000000E+02  0.51100000000E-03 0. -1.
         11   -1    0    0    0    0 -0.00000000000E+00 -0.00000000000E+00 -0.45593999997E+02  0.45594000000E+02  0.51100000000E-03 0.  1.
    9900012    2    1    2    0    0  0.16963257690E+01 -0.24202467265E+02  0.35985918673E+02  0.47787270910E+02  0.19999999386E+02 0.  0.
        -12    1    1    2    0    0 -0.16963257690E+01  0.24202467265E+02 -0.35985918673E+02  0.43400729090E+02  0.00000000000E+00 0.  1.
         11    1    3    3    0    0 -0.51028479265E+00 -0.70398727293E+00 -0.57930503563E+00  0.10447886080E+01  0.51100000000E-03 0. -1.
        -11    1    3    3    0    0 -0.50781844218E+00  0.10182473676E+01 -0.11882718634E+01  0.16452044111E+01  0.51100000000E-03 0.  1.
         12    1    3    3    0    0  0.27144290039E+01 -0.24516727360E+02  0.37753495572E+02  0.45097277891E+02  0.00000000000E+00 0. -1.
</event>
<event>
 7    1  0.3837332E-009  0.4778728E+02  0.7816164E-02  0.1312668E+00
        -11   -1    0    0    0    0  0.00000000000E+00  0.00000000000E+00  0.45593999997E+02  0.45594000000E+02  0.51100000000E-03 0. -1.
         11   -1    0    0    0    0 -0.00000000000E+00 -0.00000000000E+00 -0.45593999997E+02  0.45594000000E+02  0.51100000000E-03 0.  1.
    9900012    2    1    2    0    0 -0.33834307152E+02  0.12584001989E+02 -0.24093676678E+02  0.47787277628E+02  0.20000030019E+02 0.  0.
        -12    1    1    2    0    0  0.33834307152E+02 -0.12584001989E+02  0.24093676678E+02  0.43400722372E+02  0.00000000000E+00 0.  1.
         11    1    3    3    0    0 -0.25887960544E+02  0.95608946329E+01 -0.13820417029E+02  0.30864237143E+02  0.51100000000E-03 0. -1.
        -11    1    3    3    0    0 -0.10094425395E+02  0.37081777787E+01 -0.99394402374E+01  0.14643786361E+02  0.51100000000E-03 0.  1.
        -12    1    3    3    0    0  0.21480787876E+01 -0.68507042248E+00 -0.33381941155E+00  0.22792541238E+01  0.00000000000E+00 0.  1.
</event>
<event>
 7    1  0.3837332E-009  0.4778729E+02  0.7816164E-02  0.1312668E+00
        -11   -1    0    0    0    0  0.00000000000E+00  0.00000000000E+00  0.45593999997E+02  0.45594000000E+02  0.51100000000E-03 0.  1.
         11   -1    0    0    0    0 -0.00000000000E+00 -0.00000000000E+00 -0.45593999997E+02  0.45594000000E+02  0.51100000000E-03 0. -1.
    9900012    2    1    2    0    0 -0.37054181457E+02 -0.21394257950E+02 -0.72729128518E+01  0.47787286895E+02  0.20000072267E+02 0.  0.
        -12    1    1    2    0    0  0.37054181457E+02  0.21394257950E+02  0.72729128518E+01  0.43400713105E+02  0.00000000000E+00 0.  1.
         11    1    3    3    0    0 -0.79394563940E+01  0.22018832786E+01 -0.34101754488E+01  0.89169812525E+01  0.51100000000E-03 0.  1.
        -11    1    3    3    0    0 -0.16810686877E+02 -0.95710960206E+01 -0.55831000248E+01  0.20133953374E+02  0.51100000000E-03 0. -1.
         12    1    3    3    0    0 -0.12304038186E+02 -0.14025045208E+02  0.17203626219E+01  0.18736352268E+02  0.00000000000E+00 0. -1.
</event>
<event>
 7    1  0.3837332E-009  0.4778727E+02  0.7816164E-02  0.1312668E+00
        -11   -1    0    0    0    0  0.00000000000E+00  0.00000000000E+00  0.45593999997E+02  0.45594000000E+02  0.51100000000E-03 0.  1.
         11   -1    0    0    0    0 -0.00000000000E+00 -0.00000000000E+00 -0.45593999997E+02  0.45594000000E+02  0.51100000000E-03 0. -1.
    9900012    2    1    2    0    0  0.20177987728E+02 -0.12760092556E+02 -0.36244335998E+02  0.47787273708E+02  0.20000012143E+02 0.  0.
        -12    1    1    2    0    0 -0.20177987728E+02  0.12760092556E+02  0.36244335998E+02  0.43400726292E+02  0.00000000000E+00 0.  1.
         11    1    3    3    0    0  0.64694282296E+01 -0.55055156949E+01 -0.10581543589E+02  0.13569571462E+02  0.51100000000E-03 0. -1.
        -11    1    3    3    0    0  0.57194808059E+01  0.29731502636E+01 -0.12450148729E+01  0.65652224238E+01  0.51100000000E-03 0.  1.
        -12    1    3    3    0    0  0.79890786927E+01 -0.10227727125E+02 -0.24417777536E+02  0.27652479821E+02  0.00000000000E+00 0.  1.
</event>
<event>
 7    1  0.3837332E-009  0.4778726E+02  0.7816164E-02  0.1312668E+00
        -11   -1    0    0    0    0  0.00000000000E+00  0.00000000000E+00  0.45593999997E+02  0.45594000000E+02  0.51100000000E-03 0. -1.
         11   -1    0    0    0    0 -0.00000000000E+00 -0.00000000000E+00 -0.45593999997E+02  0.45594000000E+02  0.51100000000E-03 0.  1.
    9900012    2    1    2    0    0  0.23740481583E+01  0.43289134357E+02 -0.20096463289E+01  0.47787263412E+02  0.19999965200E+02 0.  0.
        -12    1    1    2    0    0 -0.23740481583E+01 -0.43289134357E+02  0.20096463289E+01  0.43400736588E+02  0.00000000000E+00 0.  1.
         11    1    3    3    0    0 -0.12180959997E+00  0.29683588513E+02 -0.50380928921E+01  0.30108348424E+02  0.51100000000E-03 0. -1.
        -11    1    3    3    0    0 -0.37158253810E+01  0.40242571557E+01 -0.10049208400E+01  0.55688302248E+01  0.51100000000E-03 0.  1.
        -12    1    3    3    0    0  0.62116831392E+01  0.95812886883E+01  0.40333674032E+01  0.12110084763E+02  0.00000000000E+00 0.  1.
</event>
<event>
 7    1  0.3837332E-009  0.4778727E+02  0.7816164E-02  0.1312668E+00
        -11   -1    0    0    0    0  0.00000000000E+00  0.00000000000E+00  0.45593999997E+02  0.45594000000E+02  0.51100000000E-03 0.  1.
         11   -1    0    0    0    0 -0.00000000000E+00 -0.00000000000E+00 -0.45593999997E+02  0.45594000000E+02  0.51100000000E-03 0. -1.
    9900012    2    1    2    0    0  0.42218452516E+01 -0.84216602531E+01 -0.42365965047E+02  0.47787270362E+02  0.19999996888E+02 0.  0.
        -12    1    1    2    0    0 -0.42218452516E+01  0.84216602531E+01  0.42365965047E+02  0.43400729638E+02  0.00000000000E+00 0.  1.
         11    1    3    3    0    0  0.81239881447E+01 -0.57492849119E+01 -0.38012932436E+02  0.39294229768E+02  0.51100000000E-03 0. -1.
        -11    1    3    3    0    0 -0.67965819631E+00 -0.21028710475E+01 -0.47085254551E+01  0.52013665636E+01  0.51100000000E-03 0.  1.
        -12    1    3    3    0    0 -0.32224846968E+01 -0.56950429375E+00  0.35549284425E+00  0.32916740307E+01  0.00000000000E+00 0.  1.
</event>
<event>
 7    1  0.3837332E-009  0.4778727E+02  0.7816164E-02  0.1312668E+00
        -11   -1    0    0    0    0  0.00000000000E+00  0.00000000000E+00  0.45593999997E+02  0.45594000000E+02  0.51100000000E-03 0.  1.
         11   -1    0    0    0    0 -0.00000000000E+00 -0.00000000000E+00 -0.45593999997E+02  0.45594000000E+02  0.51100000000E-03 0. -1.
    9900012    2    1    2    0    0 -0.10044727544E+02 -0.41913339470E+02 -0.50989409687E+01  0.47787265260E+02  0.19999973625E+02 0.  0.
        -12    1    1    2    0    0  0.10044727544E+02  0.41913339470E+02  0.50989409687E+01  0.43400734740E+02  0.00000000000E+00 0.  1.
         11    1    3    3    0    0 -0.12280367278E+02 -0.24616646854E+02 -0.36364135660E+01  0.27749058123E+02  0.51100000000E-03 0. -1.
        -11    1    3    3    0    0 -0.74298751453E+00 -0.11386711609E+02 -0.50859662181E+01  0.12493049441E+02  0.51100000000E-03 0.  1.
        -12    1    3    3    0    0  0.29786272491E+01 -0.59099810076E+01  0.36234388154E+01  0.75451576954E+01  0.00000000000E+00 0.  1.
</event>
<event>
 7    1  0.3837332E-009  0.4778728E+02  0.7816164E-02  0.1312668E+00
        -11   -1    0    0    0    0  0.00000000000E+00  0.00000000000E+00  0.45593999997E+02  0.45594000000E+02  0.51100000000E-03 0. -1.
         11   -1    0    0    0    0 -0.00000000000E+00 -0.00000000000E+00 -0.45593999997E+02  0.45594000000E+02  0.51100000000E-03 0.  1.
    9900012    2    1    2    0    0 -0.28749563892E+02  0.47730373189E+00  0.32509340284E+02  0.47787280553E+02  0.20000043351E+02 0.  0.
        -12    1    1    2    0    0  0.28749563892E+02 -0.47730373189E+00 -0.32509340284E+02  0.43400719447E+02  0.00000000000E+00 0.  1.
         11    1    3    3    0    0  0.17596167420E+01 -0.44646702708E-01  0.49223198143E+01  0.52275689400E+01  0.51100000000E-03 0. -1.
        -11    1    3    3    0    0 -0.41673955006E+01 -0.38347232196E+01  0.39975319051E+01  0.69319945919E+01  0.51100000000E-03 0.  1.
         12    1    3    3    0    0 -0.26341785133E+02  0.43566736542E+01  0.23589488565E+02  0.35627717021E+02  0.00000000000E+00 0. -1.
</event>
<event>
 7    1  0.3837332E-009  0.4778727E+02  0.7816164E-02  0.1312668E+00
        -11   -1    0    0    0    0  0.00000000000E+00  0.00000000000E+00  0.45593999997E+02  0.45594000000E+02  0.51100000000E-03 0. -1.
         11   -1    0    0    0    0 -0.00000000000E+00 -0.00000000000E+00 -0.45593999997E+02  0.45594000000E+02  0.51100000000E-03 0.  1.
    9900012    2    1    2    0    0 -0.17642398502E+02 -0.39590183166E+02 -0.22330075134E+01  0.47787272464E+02  0.20000006474E+02 0.  0.
        -12    1    1    2    0    0  0.17642398502E+02  0.39590183166E+02  0.22330075134E+01  0.43400727536E+02  0.00000000000E+00 0.  1.
         11    1    3    3    0    0 -0.24774852383E+00 -0.84203013001E+01  0.48457937065E+01  0.97182596293E+01  0.51100000000E-03 0. -1.
        -11    1    3    3    0    0 -0.15586588621E+01  0.56242274450E+00 -0.13660663228E+01  0.21475274740E+01  0.51100000000E-03 0.  1.
         12    1    3    3    0    0 -0.15835991116E+02 -0.31732304611E+02 -0.57127348971E+01  0.35921485361E+02  0.00000000000E+00 0. -1.
</event>
<event>
 7    1  0.3837332E-009  0.4778727E+02  0.7816164E-02  0.1312668E+00
        -11   -1    0    0    0    0  0.00000000000E+00  0.00000000000E+00  0.45593999997E+02  0.45594000000E+02  0.51100000000E-03 0.  1.
         11   -1    0    0    0    0 -0.00000000000E+00 -0.00000000000E+00 -0.45593999997E+02  0.45594000000E+02  0.51100000000E-03 0. -1.
    9900012    2    1    2    0    0  0.30106589914E+02  0.16626234351E+02  0.26472341777E+02  0.47787270697E+02  0.19999998414E+02 0.  0.
        -12    1    1    2    0    0 -0.30106589914E+02 -0.16626234351E+02 -0.26472341777E+02  0.43400729303E+02  0.00000000000E+00 0.  1.
         11    1    3    3    0    0  0.17062179813E+00 -0.16049300544E+01  0.39419967063E+00  0.16614168409E+01  0.51100000000E-03 0. -1.
        -11    1    3    3    0    0  0.38400220105E+01 -0.24442134545E+01  0.47910724494E+01  0.66086552284E+01  0.51100000000E-03 0.  1.
         12    1    3    3    0    0  0.26095946105E+02  0.20675377860E+02  0.21287069657E+02  0.39517198627E+02  0.00000000000E+00 0. -1.
</event>
<event>
 7    1  0.3837332E-009  0.4778727E+02  0.7816164E-02  0.1312668E+00
        -11   -1    0    0    0    0  0.00000000000E+00  0.00000000000E+00  0.45593999997E+02  0.45594000000E+02  0.51100000000E-03 0.  1.
         11   -1    0    0    0    0 -0.00000000000E+00 -0.00000000000E+00 -0.45593999997E+02  0.45594000000E+02  0.51100000000E-03 0. -1.
    9900012    2    1    2    0    0 -0.27637591290E+02  0.33456491117E+02 -0.67076599435E+00  0.47787272158E+02  0.20000005078E+02 0.  0.
        -12    1    1    2    0    0  0.27637591290E+02 -0.33456491117E+02  0.67076599435E+00  0.43400727842E+02  0.00000000000E+00 0.  1.
         11    1    3    3    0    0 -0.57125787633E+01  0.13564697514E+02  0.56207700597E+00  0.14729239818E+02  0.51100000000E-03 0. -1.
        -11    1    3    3    0    0 -0.10831845907E+02  0.16830641013E+02  0.40091793789E+01  0.20412566772E+02  0.51100000000E-03 0.  1.
        -12    1    3    3    0    0 -0.11093166620E+02  0.30611525898E+01 -0.52420223792E+01  0.12645465569E+02  0.00000000000E+00 0.  1.
</event>
<event>
 7    1  0.3837332E-009  0.4778727E+02  0.7816164E-02  0.1312668E+00
        -11   -1    0    0    0    0  0.00000000000E+00  0.00000000000E+00  0.45593999997E+02  0.45594000000E+02  0.51100000000E-03 0.  1.
         11   -1    0    0    0    0 -0.00000000000E+00 -0.00000000000E+00 -0.45593999997E+02  0.45594000000E+02  0.51100000000E-03 0. -1.
    9900012    2    1    2    0    0  0.15439459753E+02  0.35880456609E+02 -0.18916633233E+02  0.47787273084E+02  0.20000009300E+02 0.  0.
        -12    1    1    2    0    0 -0.15439459753E+02 -0.35880456609E+02  0.18916633233E+02  0.43400726916E+02  0.00000000000E+00 0.  1.
         11    1    3    3    0    0  0.67536065124E+01  0.67598950614E+01 -0.56934617499E+01  0.11123079121E+02  0.51100000000E-03 0. -1.
        -11    1    3    3    0    0  0.82964062993E+01  0.12949435110E+02  0.59379125729E+00  0.15390608028E+02  0.51100000000E-03 0.  1.
         12    1    3    3    0    0  0.38944694100E+00  0.16171126437E+02 -0.13816962741E+02  0.21273585935E+02  0.00000000000E+00 0. -1.
</event>
<event>
 7    1  0.3837332E-009  0.4778731E+02  0.7816164E-02  0.1312668E+00
        -11   -1    0    0    0    0  0.00000000000E+00  0.00000000000E+00  0.45593999997E+02  0.45594000000E+02  0.51100000000E-03 0.  1.
         11   -1    0    0    0    0 -0.00000000000E+00 -0.00000000000E+00 -0.45593999997E+02  0.45594000000E+02  0.51100000000E-03 0. -1.
    9900012    2    1    2    0    0  0.36300356901E+02  0.33848088479E+01 -0.23546697396E+02  0.47787311061E+02  0.20000182452E+02 0.  0.
        -12    1    1    2    0    0 -0.36300356901E+02 -0.33848088479E+01  0.23546697396E+02  0.43400688939E+02  0.00000000000E+00 0.  1.
         11    1    3    3    0    0  0.24738333868E+02  0.42740924577E+01 -0.18367349989E+02  0.31106471590E+02  0.51100000000E-03 0. -1.
        -11    1    3    3    0    0  0.80647411499E+01  0.21600301516E+00  0.22670838760E+01  0.83801179394E+01  0.51100000000E-03 0.  1.
         12    1    3    3    0    0  0.34972818833E+01 -0.11052866250E+01 -0.74464312831E+01  0.83007215318E+01  0.00000000000E+00 0. -1.
</event>
<event>
 7    1  0.3837332E-009  0.4778726E+02  0.7816164E-02  0.1312668E+00
        -11   -1    0    0    0    0  0.00000000000E+00  0.00000000000E+00  0.45593999997E+02  0.45594000000E+02  0.51100000000E-03 0.  1.
         11   -1    0    0    0    0 -0.00000000000E+00 -0.00000000000E+00 -0.45593999997E+02  0.45594000000E+02  0.51100000000E-03 0. -1.
    9900012    2    1    2    0    0 -0.77855334631E+01 -0.19947420191E+02 -0.37750625865E+02  0.47787264329E+02  0.19999969381E+02 0.  0.
        -12    1    1    2    0    0  0.77855334631E+01  0.19947420191E+02  0.37750625865E+02  0.43400735671E+02  0.00000000000E+00 0.  1.
         11    1    3    3    0    0 -0.17820819756E+01  0.13225994799E+00 -0.90911704046E+00  0.20049446167E+01  0.51100000000E-03 0. -1.
        -11    1    3    3    0    0 -0.27478193014E+01 -0.18203978386E+02 -0.37675980542E+02  0.41933457407E+02  0.51100000000E-03 0.  1.
        -12    1    3    3    0    0 -0.32556321861E+01 -0.18757017530E+01  0.83447171773E+00  0.38488623053E+01  0.00000000000E+00 0.  1.
</event>
<event>
 7    1  0.3837332E-009  0.4778727E+02  0.7816164E-02  0.1312668E+00
        -11   -1    0    0    0    0  0.00000000000E+00  0.00000000000E+00  0.45593999997E+02  0.45594000000E+02  0.51100000000E-03 0.  1.
         11   -1    0    0    0    0 -0.00000000000E+00 -0.00000000000E+00 -0.45593999997E+02  0.45594000000E+02  0.51100000000E-03 0. -1.
    9900012    2    1    2    0    0  0.32893211009E+02 -0.10986265033E+02 -0.26095250149E+02  0.47787269243E+02  0.19999991789E+02 0.  0.
        -12    1    1    2    0    0 -0.32893211009E+02  0.10986265033E+02  0.26095250149E+02  0.43400730757E+02  0.00000000000E+00 0.  1.
         11    1    3    3    0    0  0.35285368374E+01 -0.17910304048E+01 -0.60488707151E+01  0.72282224172E+01  0.51100000000E-03 0. -1.
        -11    1    3    3    0    0  0.28415839970E+02 -0.80667322620E+01 -0.11200082294E+02  0.31590726079E+02  0.51100000000E-03 0.  1.
        -12    1    3    3    0    0  0.94883420196E+00 -0.11285023666E+01 -0.88462971398E+01  0.89683207469E+01  0.00000000000E+00 0.  1.
</event>
<event>
 7    1  0.3837332E-009  0.4778727E+02  0.7816164E-02  0.1312668E+00
        -11   -1    0    0    0    0  0.00000000000E+00  0.00000000000E+00  0.45593999997E+02  0.45594000000E+02  0.51100000000E-03 0. -1.
         11   -1    0    0    0    0 -0.00000000000E+00 -0.00000000000E+00 -0.45593999997E+02  0.45594000000E+02  0.51100000000E-03 0.  1.
    9900012    2    1    2    0    0 -0.29935433382E+02  0.25705268679E+02 -0.18075744583E+02  0.47787267843E+02  0.19999985402E+02 0.  0.
        -12    1    1    2    0    0  0.29935433382E+02 -0.25705268679E+02  0.18075744583E+02  0.43400732157E+02  0.00000000000E+00 0.  1.
         11    1    3    3    0    0 -0.40296006090E+01  0.29386635595E+00 -0.29055755966E+01  0.49765860097E+01  0.51100000000E-03 0. -1.
        -11    1    3    3    0    0 -0.22483747096E+01  0.29356328718E+01 -0.88240626559E+01  0.95675080982E+01  0.51100000000E-03 0.  1.
         12    1    3    3    0    0 -0.23657458063E+02  0.22475769451E+02 -0.63461063301E+01  0.33243173735E+02  0.00000000000E+00 0. -1.
</event>
<event>
 7    1  0.3837332E-009  0.4778727E+02  0.7816164E-02  0.1312668E+00
        -11   -1    0    0    0    0  0.00000000000E+00  0.00000000000E+00  0.45593999997E+02  0.45594000000E+02  0.51100000000E-03 0.  1.
         11   -1    0    0    0    0 -0.00000000000E+00 -0.00000000000E+00 -0.45593999997E+02  0.45594000000E+02  0.51100000000E-03 0. -1.
    9900012    2    1    2    0    0 -0.37699142815E+02  0.14263407207E+00 -0.21502960418E+02  0.47787273967E+02  0.20000013324E+02 0.  0.
        -12    1    1    2    0    0  0.37699142815E+02 -0.14263407207E+00  0.21502960418E+02  0.43400726033E+02  0.00000000000E+00 0.  1.
         11    1    3    3    0    0 -0.21869857606E+02  0.21934484096E+01 -0.16220727081E+02  0.27316915546E+02  0.51100000000E-03 0. -1.
        -11    1    3    3    0    0 -0.15479449079E+02 -0.46653216411E+01 -0.66708251906E+01  0.17489381887E+02  0.51100000000E-03 0.  1.
        -12    1    3    3    0    0 -0.34983613080E+00  0.26145073035E+01  0.13885918545E+01  0.29809765341E+01  0.00000000000E+00 0.  1.
</event>
<event>
 7    1  0.3837332E-009  0.4778727E+02  0.7816164E-02  0.1312668E+00
        -11   -1    0    0    0    0  0.00000000000E+00  0.00000000000E+00  0.45593999997E+02  0.45594000000E+02  0.51100000000E-03 0. -1.
         11   -1    0    0    0    0 -0.00000000000E+00 -0.00000000000E+00 -0.45593999997E+02  0.45594000000E+02  0.51100000000E-03 0.  1.
    9900012    2    1    2    0    0  0.22420991818E+02  0.26425855689E+02  0.26126545728E+02  0.47787272878E+02  0.20000008362E+02 0.  0.
        -12    1    1    2    0    0 -0.22420991818E+02 -0.26425855689E+02 -0.26126545728E+02  0.43400727122E+02  0.00000000000E+00 0.  1.
         11    1    3    3    0    0  0.13995030024E+02  0.20285588765E+02  0.20787748730E+02  0.32241223216E+02  0.51100000000E-03 0. -1.
        -11    1    3    3    0    0  0.10233339495E+02  0.63779380640E+01  0.61671348683E+01  0.13543739658E+02  0.51100000000E-03 0.  1.
         12    1    3    3    0    0 -0.18073777016E+01 -0.23767114023E+00 -0.82833787012E+00  0.20023100046E+01  0.00000000000E+00 0. -1.
</event>
<event>
 7    1  0.3837332E-009  0.4778727E+02  0.7816164E-02  0.1312668E+00
        -11   -1    0    0    0    0  0.00000000000E+00  0.00000000000E+00  0.45593999997E+02  0.45594000000E+02  0.51100000000E-03 0.  1.
         11   -1    0    0    0    0 -0.00000000000E+00 -0.00000000000E+00 -0.45593999997E+02  0.45594000000E+02  0.51100000000E-03 0. -1.
    9900012    2    1    2    0    0 -0.40441398056E+02  0.13518700905E+02  0.80846423083E+01  0.47787269682E+02  0.19999993788E+02 0.  0.
        -12    1    1    2    0    0  0.40441398056E+02 -0.13518700905E+02 -0.80846423083E+01  0.43400730318E+02  0.00000000000E+00 0.  1.
         11    1    3    3    0    0 -0.12162947654E+02  0.35654826947E+01 -0.20391683801E+01  0.12837763451E+02  0.51100000000E-03 0. -1.
        -11    1    3    3    0    0 -0.18129559754E+02 -0.14477656055E+01  0.54689204533E+01  0.18991736448E+02  0.51100000000E-03 0.  1.
        -12    1    3    3    0    0 -0.10148890648E+02  0.11400983816E+02  0.46548902352E+01  0.15957769784E+02  0.00000000000E+00 0.  1.
</event>
<event>
 7    1  0.3837332E-009  0.4778727E+02  0.7816164E-02  0.1312668E+00
        -11   -1    0    0    0    0  0.00000000000E+00  0.00000000000E+00  0.45593999997E+02  0.45594000000E+02  0.51100000000E-03 0.  1.
         11   -1    0    0    0    0 -0.00000000000E+00 -0.00000000000E+00 -0.45593999997E+02  0.45594000000E+02  0.51100000000E-03 0. -1.
    9900012    2    1    2    0    0 -0.32022299812E+02  0.25632675469E+02 -0.14183152631E+02  0.47787267800E+02  0.19999985208E+02 0.  0.
        -12    1    1    2    0    0  0.32022299812E+02 -0.25632675469E+02  0.14183152631E+02  0.43400732200E+02  0.00000000000E+00 0.  1.
         11    1    3    3    0    0 -0.15272761232E+01  0.13197168172E+01 -0.17843685044E+01  0.26941039428E+01  0.51100000000E-03 0. -1.
        -11    1    3    3    0    0  0.22161732508E+01  0.39603798481E+00  0.92918698433E+00  0.24354996769E+01  0.51100000000E-03 0.  1.
        -12    1    3    3    0    0 -0.32711196940E+02  0.23916920667E+02 -0.13327971111E+02  0.42657664180E+02  0.00000000000E+00 0.  1.
</event>
<event>
 7    1  0.3837332E-009  0.4778727E+02  0.7816164E-02  0.1312668E+00
        -11   -1    0    0    0    0  0.00000000000E+00  0.00000000000E+00  0.45593999997E+02  0.45594000000E+02  0.51100000000E-03 0.  1.
         11   -1    0    0    0    0 -0.00000000000E+00 -0.00000000000E+00 -0.45593999997E+02  0.45594000000E+02  0.51100000000E-03 0. -1.
    9900012    2    1    2    0    0 -0.28684168353E+02 -0.30710576305E+02 -0.10849067934E+02  0.47787270903E+02  0.19999999357E+02 0.  0.
        -12    1    1    2    0    0  0.28684168353E+02  0.30710576305E+02  0.10849067934E+02  0.43400729097E+02  0.00000000000E+00 0.  1.
         11    1    3    3    0    0 -0.82682875891E+01 -0.15357363783E+02 -0.40022503076E+00  0.17446299961E+02  0.51100000000E-03 0. -1.
        -11    1    3    3    0    0 -0.71915583566E+01 -0.64875229612E+01  0.22880472301E+01  0.99519659443E+01  0.51100000000E-03 0.  1.
         12    1    3    3    0    0 -0.13224322407E+02 -0.88656895609E+01 -0.12736890134E+02  0.20389004998E+02  0.00000000000E+00 0. -1.
</event>
<event>
 7    1  0.3837332E-009  0.4778727E+02  0.7816164E-02  0.1312668E+00
        -11   -1    0    0    0    0  0.00000000000E+00  0.00000000000E+00  0.45593999997E+02  0.45594000000E+02  0.51100000000E-03 0. -1.
         11   -1    0    0    0    0 -0.00000000000E+00 -0.00000000000E+00 -0.45593999997E+02  0.45594000000E+02  0.51100000000E-03 0.  1.
    9900012    2    1    2    0    0 -0.36547508734E+02  0.18424140101E+02  0.14437935025E+02  0.47787270733E+02  0.19999998578E+02 0.  0.
        -12    1    1    2    0    0  0.36547508734E+02 -0.18424140101E+02 -0.14437935025E+02  0.43400729267E+02  0.00000000000E+00 0.  1.
         11    1    3    3    0    0 -0.34106705071E+01 -0.22767914278E+00  0.83387989545E+00  0.35185035230E+01  0.51100000000E-03 0. -1.
        -11    1    3    3    0    0 -0.92474439048E+01  0.12982692085E+02 -0.51134430805E+00  0.15947632608E+02  0.51100000000E-03 0.  1.
        -12    1    3    3    0    0 -0.23889394322E+02  0.56691271592E+01  0.14115399438E+02  0.28321134602E+02  0.00000000000E+00 0.  1.
</event>
<event>
 7    1  0.3837332E-009  0.4778728E+02  0.7816164E-02  0.1312668E+00
        -11   -1    0    0    0    0  0.00000000000E+00  0.00000000000E+00  0.45593999997E+02  0.45594000000E+02  0.51100000000E-03 0.  1.
         11   -1    0    0    0    0 -0.00000000000E+00 -0.00000000000E+00 -0.45593999997E+02  0.45594000000E+02  0.51100000000E-03 0. -1.
    9900012    2    1    2    0    0  0.13406745544E+01  0.16413543277E+02 -0.40154959730E+02  0.47787278783E+02  0.20000035285E+02 0.  0.
        -12    1    1    2    0    0 -0.13406745544E+01 -0.16413543277E+02  0.40154959730E+02  0.43400721217E+02  0.00000000000E+00 0.  1.
         11    1    3    3    0    0 -0.27202205512E+01  0.12448734965E+02 -0.27272665663E+02  0.30102639331E+02  0.51100000000E-03 0. -1.
        -11    1    3    3    0    0 -0.56524217539E+00  0.66076109677E+01 -0.57180847826E+01  0.87565127339E+01  0.51100000000E-03 0.  1.
        -12    1    3    3    0    0  0.46261372810E+01 -0.26428026557E+01 -0.71642092853E+01  0.89281267185E+01  0.00000000000E+00 0.  1.
</event>
<event>
 7    1  0.6520817E-009  0.4778729E+02  0.7816164E-02  0.1312668E+00
        -11   -1    0    0    0    0  0.00000000000E+00  0.00000000000E+00  0.45593999997E+02  0.45594000000E+02  0.51100000000E-03 0.  1.
         11   -1    0    0    0    0 -0.00000000000E+00 -0.00000000000E+00 -0.45593999997E+02  0.45594000000E+02  0.51100000000E-03 0. -1.
    9900012    2    1    2    0    0 -0.51629510357E+01 -0.99278235884E+01 -0.41933329302E+02  0.47787287437E+02  0.20000074740E+02 0.  0.
        -12    1    1    2    0    0  0.51629510357E+01  0.99278235884E+01  0.41933329302E+02  0.43400712563E+02  0.00000000000E+00 0.  1.
         11    1    3    3    0    0 -0.47879617213E+01 -0.17257652955E+01 -0.14363366596E+02  0.15238410138E+02  0.51100000000E-03 0. -1.
        -11    1    3    3    0    0  0.12553136921E+00  0.35969306369E+01 -0.14444140951E+01  0.38781439466E+01  0.51100000000E-03 0.  1.
        -12    1    3    3    0    0 -0.50052068363E+00 -0.11798988930E+02 -0.26125548611E+02  0.28670733352E+02  0.00000000000E+00 0.  1.
</event>
<event>
 7    1  0.3837332E-009  0.4778728E+02  0.7816164E-02  0.1312668E+00
        -11   -1    0    0    0    0  0.00000000000E+00  0.00000000000E+00  0.45593999997E+02  0.45594000000E+02  0.51100000000E-03 0.  1.
         11   -1    0    0    0    0 -0.00000000000E+00 -0.00000000000E+00 -0.45593999997E+02  0.45594000000E+02  0.51100000000E-03 0. -1.
    9900012    2    1    2    0    0  0.14020029614E+02  0.81788788105E+00 -0.41065711721E+02  0.47787275926E+02  0.20000022258E+02 0.  0.
        -12    1    1    2    0    0 -0.14020029614E+02 -0.81788788105E+00  0.41065711721E+02  0.43400724074E+02  0.00000000000E+00 0.  1.
         11    1    3    3    0    0  0.18913850283E+00  0.38366941957E+01 -0.11409364799E+01  0.40072100066E+01  0.51100000000E-03 0.  1.
        -11    1    3    3    0    0 -0.45679817229E+00 -0.36076333914E+01 -0.71518379696E+01  0.80232455940E+01  0.51100000000E-03 0. -1.
        -12    1    3    3    0    0  0.14287689283E+02  0.58882707674E+00 -0.32772937272E+02  0.35756820326E+02  0.00000000000E+00 0.  1.
</event>
<event>
 7    1  0.3837332E-009  0.4778726E+02  0.7816164E-02  0.1312668E+00
        -11   -1    0    0    0    0  0.00000000000E+00  0.00000000000E+00  0.45593999997E+02  0.45594000000E+02  0.51100000000E-03 0.  1.
         11   -1    0    0    0    0 -0.00000000000E+00 -0.00000000000E+00 -0.45593999997E+02  0.45594000000E+02  0.51100000000E-03 0. -1.
    9900012    2    1    2    0    0 -0.42705372790E+01  0.39976649215E+02 -0.16347904355E+02  0.47787263279E+02  0.19999964596E+02 0.  0.
        -12    1    1    2    0    0  0.42705372790E+01 -0.39976649215E+02  0.16347904355E+02  0.43400736721E+02  0.00000000000E+00 0.  1.
         11    1    3    3    0    0  0.42936518926E+01  0.31588426932E+02 -0.12667546778E+02  0.34303511544E+02  0.51100000000E-03 0. -1.
        -11    1    3    3    0    0 -0.29000207113E+01  0.46247026827E+01 -0.38521154297E+01  0.66810769023E+01  0.51100000000E-03 0.  1.
         12    1    3    3    0    0 -0.56641684603E+01  0.37635195998E+01  0.17175785271E+00  0.68026748331E+01  0.00000000000E+00 0. -1.
</event>
<event>
 7    1  0.3837332E-009  0.4778726E+02  0.7816164E-02  0.1312668E+00
        -11   -1    0    0    0    0  0.00000000000E+00  0.00000000000E+00  0.45593999997E+02  0.45594000000E+02  0.51100000000E-03 0. -1.
         11   -1    0    0    0    0 -0.00000000000E+00 -0.00000000000E+00 -0.45593999997E+02  0.45594000000E+02  0.51100000000E-03 0.  1.
    9900012    2    1    2    0    0 -0.16626554335E+02  0.11589650830E+02  0.38377880875E+02  0.47787262035E+02  0.19999958923E+02 0.  0.
        -12    1    1    2    0    0  0.16626554335E+02 -0.11589650830E+02 -0.38377880875E+02  0.43400737965E+02  0.00000000000E+00 0.  1.
         11    1    3    3    0    0 -0.30604538429E+01  0.51887757027E+01  0.75756664229E+01  0.96788683755E+01  0.51100000000E-03 0.  1.
        -11    1    3    3    0    0 -0.46084302680E+01  0.10195512306E+02  0.94536631177E+01  0.14647793257E+02  0.51100000000E-03 0. -1.
        -12    1    3    3    0    0 -0.89576702242E+01 -0.37946371780E+01  0.21348551334E+02  0.23460600402E+02  0.00000000000E+00 0.  1.
</event>
<event>
 7    1  0.3837332E-009  0.4778728E+02  0.7816164E-02  0.1312668E+00
        -11   -1    0    0    0    0  0.00000000000E+00  0.00000000000E+00  0.45593999997E+02  0.45594000000E+02  0.51100000000E-03 0.  1.
         11   -1    0    0    0    0 -0.00000000000E+00 -0.00000000000E+00 -0.45593999997E+02  0.45594000000E+02  0.51100000000E-03 0. -1.
    9900012    2    1    2    0    0 -0.36100683860E+02 -0.53202079507E+00 -0.24084847234E+02  0.47787282407E+02  0.20000051807E+02 0.  0.
        -12    1    1    2    0    0  0.36100683860E+02  0.53202079507E+00  0.24084847234E+02  0.43400717593E+02  0.00000000000E+00 0.  1.
         11    1    3    3    0    0 -0.64672719929E+01 -0.24869725473E+01 -0.43934232051E+01  0.82044382624E+01  0.51100000000E-03 0.  1.
        -11    1    3    3    0    0 -0.24825869364E+02  0.77460115766E+00 -0.22817776085E+02  0.33727951351E+02  0.51100000000E-03 0. -1.
         12    1    3    3    0    0 -0.48075425033E+01  0.11803505945E+01  0.31263520559E+01  0.58548927936E+01  0.00000000000E+00 0. -1.
</event>
<event>
 7    1  0.3837332E-009  0.4778727E+02  0.7816164E-02  0.1312668E+00
        -11   -1    0    0    0    0  0.00000000000E+00  0.00000000000E+00  0.45593999997E+02  0.45594000000E+02  0.51100000000E-03 0.  1.
         11   -1    0    0    0    0 -0.00000000000E+00 -0.00000000000E+00 -0.45593999997E+02  0.45594000000E+02  0.51100000000E-03 0. -1.
    9900012    2    1    2    0    0 -0.12635740183E+01  0.14298492186E+02 -0.40958267741E+02  0.47787271959E+02  0.20000004170E+02 0.  0.
        -12    1    1    2    0    0  0.12635740183E+01 -0.14298492186E+02  0.40958267741E+02  0.43400728041E+02  0.00000000000E+00 0.  1.
         11    1    3    3    0    0 -0.43555844010E+01  0.12375965618E+02 -0.18407253731E+02  0.22604482534E+02  0.51100000000E-03 0. -1.
        -11    1    3    3    0    0 -0.21611680467E+01  0.46443895265E+01 -0.12662993007E+02  0.13659882633E+02  0.51100000000E-03 0.  1.
        -12    1    3    3    0    0  0.52531784294E+01 -0.27218629578E+01 -0.98880210034E+01  0.11522906792E+02  0.00000000000E+00 0.  1.
</event>
<event>
 7    1  0.3837332E-009  0.4778727E+02  0.7816164E-02  0.1312668E+00
        -11   -1    0    0    0    0  0.00000000000E+00  0.00000000000E+00  0.45593999997E+02  0.45594000000E+02  0.51100000000E-03 0.  1.
         11   -1    0    0    0    0 -0.00000000000E+00 -0.00000000000E+00 -0.45593999997E+02  0.45594000000E+02  0.51100000000E-03 0. -1.
    9900012    2    1    2    0    0 -0.33016630369E+02 -0.24666205354E+02 -0.13605273374E+02  0.47787273842E+02  0.20000012754E+02 0.  0.
        -12    1    1    2    0    0  0.33016630369E+02  0.24666205354E+02  0.13605273374E+02  0.43400726158E+02  0.00000000000E+00 0.  1.
         11    1    3    3    0    0 -0.26830998618E+01 -0.16990564388E+01  0.11477105619E+01  0.33768413415E+01  0.51100000000E-03 0.  1.
        -11    1    3    3    0    0 -0.26700637738E+02 -0.16548720218E+02 -0.18161859329E+02  0.36285497531E+02  0.51100000000E-03 0. -1.
         12    1    3    3    0    0 -0.36328927689E+01 -0.64184286972E+01  0.34088753938E+01  0.81249349697E+01  0.00000000000E+00 0. -1.
</event>
<event>
 7    1  0.3837332E-009  0.4778729E+02  0.7816164E-02  0.1312668E+00
        -11   -1    0    0    0    0  0.00000000000E+00  0.00000000000E+00  0.45593999997E+02  0.45594000000E+02  0.51100000000E-03 0.  1.
         11   -1    0    0    0    0 -0.00000000000E+00 -0.00000000000E+00 -0.45593999997E+02  0.45594000000E+02  0.51100000000E-03 0. -1.
    9900012    2    1    2    0    0 -0.32250883834E+02  0.22975151750E+02 -0.17766393863E+02  0.47787287369E+02  0.20000074428E+02 0.  0.
        -12    1    1    2    0    0  0.32250883834E+02 -0.22975151750E+02  0.17766393863E+02  0.43400712631E+02  0.00000000000E+00 0.  1.
         11    1    3    3    0    0 -0.31065892734E+01  0.21541718984E+01  0.45351676709E+00  0.38074967105E+01  0.51100000000E-03 0. -1.
        -11    1    3    3    0    0 -0.29362604394E+02  0.13511890364E+02 -0.12344438615E+02  0.34599405818E+02  0.51100000000E-03 0.  1.
         12    1    3    3    0    0  0.21830983396E+00  0.73090894883E+01 -0.58754720156E+01  0.93803848395E+01  0.00000000000E+00 0. -1.
</event>
<event>
 7    1  0.3837332E-009  0.4778727E+02  0.7816164E-02  0.1312668E+00
        -11   -1    0    0    0    0  0.00000000000E+00  0.00000000000E+00  0.45593999997E+02  0.45594000000E+02  0.51100000000E-03 0.  1.
         11   -1    0    0    0    0 -0.00000000000E+00 -0.00000000000E+00 -0.45593999997E+02  0.45594000000E+02  0.51100000000E-03 0. -1.
    9900012    2    1    2    0    0  0.12881374068E+02  0.33262000145E+01 -0.41311377225E+02  0.47787270829E+02  0.19999999016E+02 0.  0.
        -12    1    1    2    0    0 -0.12881374068E+02 -0.33262000145E+01  0.41311377225E+02  0.43400729171E+02  0.00000000000E+00 0.  1.
         11    1    3    3    0    0  0.38911705462E+01  0.86909591630E+01 -0.26744369266E+02  0.28388999050E+02  0.51100000000E-03 0. -1.
        -11    1    3    3    0    0  0.20337739386E+01  0.78729410449E+00 -0.70059961081E-01  0.21819663379E+01  0.51100000000E-03 0.  1.
         12    1    3    3    0    0  0.69564295828E+01 -0.61520532530E+01 -0.14496947998E+02  0.17216305440E+02  0.00000000000E+00 0. -1.
</event>
<event>
 7    1  0.3837332E-009  0.4778727E+02  0.7816164E-02  0.1312668E+00
        -11   -1    0    0    0    0  0.00000000000E+00  0.00000000000E+00  0.45593999997E+02  0.45594000000E+02  0.51100000000E-03 0.  1.
         11   -1    0    0    0    0 -0.00000000000E+00 -0.00000000000E+00 -0.45593999997E+02  0.45594000000E+02  0.51100000000E-03 0. -1.
    9900012    2    1    2    0    0 -0.62163774097E+01 -0.23868060058E+02 -0.35711284218E+02  0.47787268906E+02  0.19999990249E+02 0.  0.
        -12    1    1    2    0    0  0.62163774097E+01  0.23868060058E+02  0.35711284218E+02  0.43400731094E+02  0.00000000000E+00 0.  1.
         11    1    3    3    0    0 -0.85879904634E+00  0.36024163178E+01 -0.42337758946E+01  0.56249264631E+01  0.51100000000E-03 0.  1.
        -11    1    3    3    0    0 -0.13048475077E+01 -0.38826352763E+01 -0.40401745342E+01  0.57533028979E+01  0.51100000000E-03 0. -1.
        -12    1    3    3    0    0 -0.40527308556E+01 -0.23587841099E+02 -0.27437333789E+02  0.36409039545E+02  0.00000000000E+00 0.  1.
</event>
<event>
 7    1  0.3837332E-009  0.4778725E+02  0.7816164E-02  0.1312668E+00
        -11   -1    0    0    0    0  0.00000000000E+00  0.00000000000E+00  0.45593999997E+02  0.45594000000E+02  0.51100000000E-03 0.  1.
         11   -1    0    0    0    0 -0.00000000000E+00 -0.00000000000E+00 -0.45593999997E+02  0.45594000000E+02  0.51100000000E-03 0. -1.
    9900012    2    1    2    0    0  0.17446255791E+02 -0.33835113387E+02 -0.20843182803E+02  0.47787251062E+02  0.19999908892E+02 0.  0.
        -12    1    1    2    0    0 -0.17446255791E+02  0.33835113387E+02  0.20843182803E+02  0.43400748938E+02  0.00000000000E+00 0.  1.
         11    1    3    3    0    0  0.24172652001E+01 -0.66567642443E+00  0.87015209857E+00  0.26539519750E+01  0.51100000000E-03 0. -1.
        -11    1    3    3    0    0  0.72746410925E+01 -0.66924262514E+01  0.22114384030E+00  0.98872583163E+01  0.51100000000E-03 0.  1.
         12    1    3    3    0    0  0.77543494985E+01 -0.26477010711E+02 -0.21934478742E+02  0.35246040771E+02  0.00000000000E+00 0. -1.
</event>
<event>
 7    1  0.3837332E-009  0.4778727E+02  0.7816164E-02  0.1312668E+00
        -11   -1    0    0    0    0  0.00000000000E+00  0.00000000000E+00  0.45593999997E+02  0.45594000000E+02  0.51100000000E-03 0.  1.
         11   -1    0    0    0    0 -0.00000000000E+00 -0.00000000000E+00 -0.45593999997E+02  0.45594000000E+02  0.51100000000E-03 0. -1.
    9900012    2    1    2    0    0  0.21637905488E+01 -0.18396553500E+02 -0.39249306256E+02  0.47787271760E+02  0.20000003261E+02 0.  0.
        -12    1    1    2    0    0 -0.21637905488E+01  0.18396553500E+02  0.39249306256E+02  0.43400728240E+02  0.00000000000E+00 0.  1.
         11    1    3    3    0    0  0.27915773808E+01 -0.11689400883E+01 -0.37727940970E+00  0.30498631472E+01  0.51100000000E-03 0.  1.
        -11    1    3    3    0    0 -0.58280603097E+01 -0.90500300926E+01 -0.11746183133E+02  0.15932424489E+02  0.51100000000E-03 0. -1.
         12    1    3    3    0    0  0.52002734778E+01 -0.81775833189E+01 -0.27125843714E+02  0.28804984124E+02  0.00000000000E+00 0. -1.
</event>
<event>
 7    1  0.3837332E-009  0.4778727E+02  0.7816164E-02  0.1312668E+00
        -11   -1    0    0    0    0  0.00000000000E+00  0.00000000000E+00  0.45593999997E+02  0.45594000000E+02  0.51100000000E-03 0.  1.
         11   -1    0    0    0    0 -0.00000000000E+00 -0.00000000000E+00 -0.45593999997E+02  0.45594000000E+02  0.51100000000E-03 0. -1.
    9900012    2    1    2    0    0 -0.40578569602E+02  0.54562719836E+01 -0.14395565522E+02  0.47787268190E+02  0.19999986986E+02 0.  0.
        -12    1    1    2    0    0  0.40578569602E+02 -0.54562719836E+01  0.14395565522E+02  0.43400731810E+02  0.00000000000E+00 0.  1.
         11    1    3    3    0    0 -0.76220982279E+01  0.51526255985E+01 -0.17836400641E+01  0.93716222765E+01  0.51100000000E-03 0. -1.
        -11    1    3    3    0    0 -0.53454880249E+01  0.59056865763E+01 -0.42438736017E+01  0.90256212844E+01  0.51100000000E-03 0.  1.
         12    1    3    3    0    0 -0.27610983350E+02 -0.56020401911E+01 -0.83680518564E+01  0.29390024629E+02  0.00000000000E+00 0. -1.
</event>
<event>
 7    1  0.3837332E-009  0.4778727E+02  0.7816164E-02  0.1312668E+00
        -11   -1    0    0    0    0  0.00000000000E+00  0.00000000000E+00  0.45593999997E+02  0.45594000000E+02  0.51100000000E-03 0.  1.
         11   -1    0    0    0    0 -0.00000000000E+00 -0.00000000000E+00 -0.45593999997E+02  0.45594000000E+02  0.51100000000E-03 0. -1.
    9900012    2    1    2    0    0 -0.13220701574E+02 -0.38539410219E+02  0.14951609683E+02  0.47787265879E+02  0.19999976449E+02 0.  0.
        -12    1    1    2    0    0  0.13220701574E+02  0.38539410219E+02 -0.14951609683E+02  0.43400734121E+02  0.00000000000E+00 0.  1.
         11    1    3    3    0    0  0.23377027809E+00 -0.13053295835E+02  0.43267135505E+01  0.13753677003E+02  0.51100000000E-03 0. -1.
        -11    1    3    3    0    0  0.23224386323E+01 -0.25007123922E+00  0.19231957777E+01  0.30257129880E+01  0.51100000000E-03 0.  1.
        -12    1    3    3    0    0 -0.15776910484E+02 -0.25236043145E+02  0.87017003546E+01  0.31007875888E+02  0.00000000000E+00 0.  1.
</event>
<event>
 7    1  0.3837332E-009  0.4778729E+02  0.7816164E-02  0.1312668E+00
        -11   -1    0    0    0    0  0.00000000000E+00  0.00000000000E+00  0.45593999997E+02  0.45594000000E+02  0.51100000000E-03 0.  1.
         11   -1    0    0    0    0 -0.00000000000E+00 -0.00000000000E+00 -0.45593999997E+02  0.45594000000E+02  0.51100000000E-03 0. -1.
    9900012    2    1    2    0    0  0.33582293065E+02  0.20482236370E+02 -0.18339283296E+02  0.47787288877E+02  0.20000081304E+02 0.  0.
        -12    1    1    2    0    0 -0.33582293065E+02 -0.20482236370E+02  0.18339283296E+02  0.43400711123E+02  0.00000000000E+00 0.  1.
         11    1    3    3    0    0  0.28607588288E+02  0.13963686184E+02 -0.20645519916E+02  0.37942273685E+02  0.51100000000E-03 0. -1.
        -11    1    3    3    0    0 -0.54085249688E+00  0.18079157365E+01 -0.67318432852E+00  0.20035613629E+01  0.51100000000E-03 0.  1.
        -12    1    3    3    0    0  0.55155572740E+01  0.47106344497E+01  0.29794209489E+01  0.78414538290E+01  0.00000000000E+00 0.  1.
</event>
<event>
 7    1  0.3837332E-009  0.4778727E+02  0.7816164E-02  0.1312668E+00
        -11   -1    0    0    0    0  0.00000000000E+00  0.00000000000E+00  0.45593999997E+02  0.45594000000E+02  0.51100000000E-03 0.  1.
         11   -1    0    0    0    0 -0.00000000000E+00 -0.00000000000E+00 -0.45593999997E+02  0.45594000000E+02  0.51100000000E-03 0. -1.
    9900012    2    1    2    0    0 -0.91932466096E+01  0.27353775278E+02 -0.32417257595E+02  0.47787269648E+02  0.19999993631E+02 0.  0.
        -12    1    1    2    0    0  0.91932466096E+01 -0.27353775278E+02  0.32417257595E+02  0.43400730352E+02  0.00000000000E+00 0.  1.
         11    1    3    3    0    0 -0.19500885548E+01  0.73064614684E+00 -0.41876777982E+00  0.21241600406E+01  0.51100000000E-03 0. -1.
        -11    1    3    3    0    0  0.50966299094E+01  0.94443732145E+01 -0.65521014821E+01  0.12573856049E+02  0.51100000000E-03 0.  1.
        -12    1    3    3    0    0 -0.12339787964E+02  0.17178755916E+02 -0.25446388333E+02  0.33089253558E+02  0.00000000000E+00 0.  1.
</event>
<event>
 7    1  0.3837332E-009  0.4778727E+02  0.7816164E-02  0.1312668E+00
        -11   -1    0    0    0    0  0.00000000000E+00  0.00000000000E+00  0.45593999997E+02  0.45594000000E+02  0.51100000000E-03 0. -1.
         11   -1    0    0    0    0 -0.00000000000E+00 -0.00000000000E+00 -0.45593999997E+02  0.45594000000E+02  0.51100000000E-03 0.  1.
    9900012    2    1    2    0    0  0.42298825586E+02  0.26979252694E+01 -0.93356121488E+01  0.47787273037E+02  0.20000009087E+02 0.  0.
        -12    1    1    2    0    0 -0.42298825586E+02 -0.26979252694E+01  0.93356121488E+01  0.43400726963E+02  0.00000000000E+00 0.  1.
         11    1    3    3    0    0  0.23130911325E+01  0.18615304238E+01 -0.11292706267E+01  0.31766237604E+01  0.51100000000E-03 0. -1.
        -11    1    3    3    0    0  0.25025300174E+02  0.92352268893E+01 -0.56101369812E+01  0.27258552817E+02  0.51100000000E-03 0.  1.
         12    1    3    3    0    0  0.14960434279E+02 -0.83988320437E+01 -0.25962045410E+01  0.17352096460E+02  0.00000000000E+00 0. -1.
</event>
<event>
 7    1  0.3837332E-009  0.4778727E+02  0.7816164E-02  0.1312668E+00
        -11   -1    0    0    0    0  0.00000000000E+00  0.00000000000E+00  0.45593999997E+02  0.45594000000E+02  0.51100000000E-03 0.  1.
         11   -1    0    0    0    0 -0.00000000000E+00 -0.00000000000E+00 -0.45593999997E+02  0.45594000000E+02  0.51100000000E-03 0. -1.
    9900012    2    1    2    0    0 -0.21491999533E+02 -0.21695700835E+02 -0.30838509107E+02  0.47787272787E+02  0.20000007944E+02 0.  0.
        -12    1    1    2    0    0  0.21491999533E+02  0.21695700835E+02  0.30838509107E+02  0.43400727213E+02  0.00000000000E+00 0.  1.
         11    1    3    3    0    0 -0.17607819097E+02 -0.15983478125E+02 -0.22845295682E+02  0.32975967027E+02  0.51100000000E-03 0. -1.
        -11    1    3    3    0    0 -0.66761510216E+01 -0.66062444016E+01 -0.50784370854E+01  0.10677264680E+02  0.51100000000E-03 0.  1.
        -12    1    3    3    0    0  0.27919705855E+01  0.89402169110E+00 -0.29147763397E+01  0.41340410793E+01  0.00000000000E+00 0.  1.
</event>
<event>
 7    1  0.5243377E-009  0.4778725E+02  0.7816164E-02  0.1312668E+00
        -11   -1    0    0    0    0  0.00000000000E+00  0.00000000000E+00  0.45593999997E+02  0.45594000000E+02  0.51100000000E-03 0.  1.
         11   -1    0    0    0    0 -0.00000000000E+00 -0.00000000000E+00 -0.45593999997E+02  0.45594000000E+02  0.51100000000E-03 0. -1.
    9900012    2    1    2    0    0 -0.92786615371E+00 -0.30474522529E+02 -0.30887981529E+02  0.47787252750E+02  0.19999916588E+02 0.  0.
        -12    1    1    2    0    0  0.92786615371E+00  0.30474522529E+02  0.30887981529E+02  0.43400747250E+02  0.00000000000E+00 0.  1.
         11    1    3    3    0    0 -0.25728607498E+01 -0.17669988952E+02 -0.16545866642E+02  0.24343660884E+02  0.51100000000E-03 0. -1.
        -11    1    3    3    0    0 -0.55857766060E+01 -0.30020208312E+01 -0.54631481872E+01  0.83701265068E+01  0.51100000000E-03 0.  1.
        -12    1    3    3    0    0  0.72307712021E+01 -0.98025127451E+01 -0.88789666994E+01  0.15073465360E+02  0.00000000000E+00 0.  1.
</event>
<event>
 7    1  0.3837332E-009  0.4778726E+02  0.7816164E-02  0.1312668E+00
        -11   -1    0    0    0    0  0.00000000000E+00  0.00000000000E+00  0.45593999997E+02  0.45594000000E+02  0.51100000000E-03 0.  1.
         11   -1    0    0    0    0 -0.00000000000E+00 -0.00000000000E+00 -0.45593999997E+02  0.45594000000E+02  0.51100000000E-03 0. -1.
    9900012    2    1    2    0    0 -0.20855567151E+02 -0.37092282959E+02  0.85341543284E+01  0.47787263527E+02  0.19999965726E+02 0.  0.
        -12    1    1    2    0    0  0.20855567151E+02  0.37092282959E+02 -0.85341543284E+01  0.43400736473E+02  0.00000000000E+00 0.  1.
         11    1    3    3    0    0 -0.59370401094E+01 -0.82483994043E+01  0.86246733468E+00  0.10199430776E+02  0.51100000000E-03 0. -1.
        -11    1    3    3    0    0 -0.94014242726E+01 -0.11708364801E+02 -0.47122038695E+01  0.15737771451E+02  0.51100000000E-03 0.  1.
         12    1    3    3    0    0 -0.55171027685E+01 -0.17135518754E+02  0.12383890863E+02  0.21850061300E+02  0.00000000000E+00 0. -1.
</event>
<event>
 7    1  0.3837332E-009  0.4778727E+02  0.7816164E-02  0.1312668E+00
        -11   -1    0    0    0    0  0.00000000000E+00  0.00000000000E+00  0.45593999997E+02  0.45594000000E+02  0.51100000000E-03 0.  1.
         11   -1    0    0    0    0 -0.00000000000E+00 -0.00000000000E+00 -0.45593999997E+02  0.45594000000E+02  0.51100000000E-03 0. -1.
    9900012    2    1    2    0    0  0.26788542375E+01  0.14066632912E+02 -0.40970438760E+02  0.47787271047E+02  0.20000000012E+02 0.  0.
        -12    1    1    2    0    0 -0.26788542375E+01 -0.14066632912E+02  0.40970438760E+02  0.43400728953E+02  0.00000000000E+00 0.  1.
         11    1    3    3    0    0  0.76998862196E+01  0.62393112865E+01 -0.17858359313E+02  0.20423962660E+02  0.51100000000E-03 0. -1.
        -11    1    3    3    0    0  0.10447364132E+01 -0.21420313052E+00  0.85417107808E+00  0.13663695130E+01  0.51100000000E-03 0.  1.
         12    1    3    3    0    0 -0.60657683953E+01  0.80415247555E+01 -0.23966250525E+02  0.25996938874E+02  0.00000000000E+00 0. -1.
</event>
<event>
 7    1  0.3837332E-009  0.4778727E+02  0.7816164E-02  0.1312668E+00
        -11   -1    0    0    0    0  0.00000000000E+00  0.00000000000E+00  0.45593999997E+02  0.45594000000E+02  0.51100000000E-03 0. -1.
         11   -1    0    0    0    0 -0.00000000000E+00 -0.00000000000E+00 -0.45593999997E+02  0.45594000000E+02  0.51100000000E-03 0.  1.
    9900012    2    1    2    0    0 -0.27239297361E+02 -0.26992002378E+02  0.20324269367E+02  0.47787269149E+02  0.19999991359E+02 0.  0.
        -12    1    1    2    0    0  0.27239297361E+02  0.26992002378E+02 -0.20324269367E+02  0.43400730851E+02  0.00000000000E+00 0.  1.
         11    1    3    3    0    0 -0.10502178198E+02 -0.13440435013E+02  0.14862920664E+01  0.17121626810E+02  0.51100000000E-03 0. -1.
        -11    1    3    3    0    0  0.95228750735E-01 -0.32782363419E+01  0.68324577352E+01  0.75788113180E+01  0.51100000000E-03 0.  1.
        -12    1    3    3    0    0 -0.16832347914E+02 -0.10273331023E+02  0.12005519565E+02  0.23086831022E+02  0.00000000000E+00 0.  1.
</event>
<event>
 7    1  0.3837332E-009  0.4778727E+02  0.7816164E-02  0.1312668E+00
        -11   -1    0    0    0    0  0.00000000000E+00  0.00000000000E+00  0.45593999997E+02  0.45594000000E+02  0.51100000000E-03 0. -1.
         11   -1    0    0    0    0 -0.00000000000E+00 -0.00000000000E+00 -0.45593999997E+02  0.45594000000E+02  0.51100000000E-03 0.  1.
    9900012    2    1    2    0    0 -0.20071936468E+02 -0.29282177219E+02  0.24965875247E+02  0.47787268864E+02  0.19999990059E+02 0.  0.
        -12    1    1    2    0    0  0.20071936468E+02  0.29282177219E+02 -0.24965875247E+02  0.43400731136E+02  0.00000000000E+00 0.  1.
         11    1    3    3    0    0 -0.72052377440E+00 -0.83420382595E+01  0.32705106830E+01  0.89891599842E+01  0.51100000000E-03 0. -1.
        -11    1    3    3    0    0 -0.93576922904E+01 -0.19028752856E+02  0.10474950124E+02  0.23651309068E+02  0.51100000000E-03 0.  1.
        -12    1    3    3    0    0 -0.99937204033E+01 -0.19113861032E+01  0.11220414440E+02  0.15146799812E+02  0.00000000000E+00 0.  1.
</event>
<event>
 7    1  0.3837332E-009  0.4778727E+02  0.7816164E-02  0.1312668E+00
        -11   -1    0    0    0    0  0.00000000000E+00  0.00000000000E+00  0.45593999997E+02  0.45594000000E+02  0.51100000000E-03 0.  1.
         11   -1    0    0    0    0 -0.00000000000E+00 -0.00000000000E+00 -0.45593999997E+02  0.45594000000E+02  0.51100000000E-03 0. -1.
    9900012    2    1    2    0    0 -0.16807379250E+02  0.93572431417E+01 -0.38904721668E+02  0.47787270000E+02  0.19999995236E+02 0.  0.
        -12    1    1    2    0    0  0.16807379250E+02 -0.93572431417E+01  0.38904721668E+02  0.43400730000E+02  0.00000000000E+00 0.  1.
         11    1    3    3    0    0 -0.66786709807E+01  0.24167312361E+01 -0.18521563984E+02  0.19836672317E+02  0.51100000000E-03 0. -1.
        -11    1    3    3    0    0  0.10840720745E+01  0.73606226071E+01 -0.11225980179E+02  0.13467613325E+02  0.51100000000E-03 0.  1.
        -12    1    3    3    0    0 -0.11212780344E+02 -0.42011070143E+00 -0.91571775051E+01  0.14482984358E+02  0.00000000000E+00 0.  1.
</event>
<event>
 7    1  0.3837332E-009  0.4778727E+02  0.7816164E-02  0.1312668E+00
        -11   -1    0    0    0    0  0.00000000000E+00  0.00000000000E+00  0.45593999997E+02  0.45594000000E+02  0.51100000000E-03 0.  1.
         11   -1    0    0    0    0 -0.00000000000E+00 -0.00000000000E+00 -0.45593999997E+02  0.45594000000E+02  0.51100000000E-03 0. -1.
    9900012    2    1    2    0    0 -0.35764901244E+00  0.67153708316E+01 -0.42876557912E+02  0.47787270322E+02  0.19999996706E+02 0.  0.
        -12    1    1    2    0    0  0.35764901244E+00 -0.67153708316E+01  0.42876557912E+02  0.43400729678E+02  0.00000000000E+00 0.  1.
         11    1    3    3    0    0  0.13588912046E+01  0.36619819661E+00 -0.25536079222E+01  0.29157503505E+01  0.51100000000E-03 0. -1.
        -11    1    3    3    0    0  0.49355029098E+00  0.40356453352E+01  0.34276145265E+00  0.40801361296E+01  0.51100000000E-03 0.  1.
         12    1    3    3    0    0 -0.22100905080E+01  0.23135272997E+01 -0.40665711442E+02  0.40791383842E+02  0.00000000000E+00 0. -1.
</event>
<event>
 7    1  0.3837332E-009  0.4778727E+02  0.7816164E-02  0.1312668E+00
        -11   -1    0    0    0    0  0.00000000000E+00  0.00000000000E+00  0.45593999997E+02  0.45594000000E+02  0.51100000000E-03 0.  1.
         11   -1    0    0    0    0 -0.00000000000E+00 -0.00000000000E+00 -0.45593999997E+02  0.45594000000E+02  0.51100000000E-03 0. -1.
    9900012    2    1    2    0    0  0.37028300647E+02  0.49692077011E+01 -0.22086994679E+02  0.47787269500E+02  0.19999992958E+02 0.  0.
        -12    1    1    2    0    0 -0.37028300647E+02 -0.49692077011E+01  0.22086994679E+02  0.43400730500E+02  0.00000000000E+00 0.  1.
         11    1    3    3    0    0  0.28794443950E+02  0.19836394225E+01 -0.15725266759E+02  0.32868508373E+02  0.51100000000E-03 0. -1.
        -11    1    3    3    0    0  0.56691431922E+01 -0.29469852998E+01 -0.89122857066E+00  0.64512165921E+01  0.51100000000E-03 0.  1.
        -12    1    3    3    0    0  0.25647135052E+01  0.59325535785E+01 -0.54704993494E+01  0.84675445353E+01  0.00000000000E+00 0.  1.
</event>
<event>
 7    1  0.3837332E-009  0.4778727E+02  0.7816164E-02  0.1312668E+00
        -11   -1    0    0    0    0  0.00000000000E+00  0.00000000000E+00  0.45593999997E+02  0.45594000000E+02  0.51100000000E-03 0.  1.
         11   -1    0    0    0    0 -0.00000000000E+00 -0.00000000000E+00 -0.45593999997E+02  0.45594000000E+02  0.51100000000E-03 0. -1.
    9900012    2    1    2    0    0 -0.11721042334E+02  0.14854657961E+02 -0.39058665232E+02  0.47787273897E+02  0.20000013006E+02 0.  0.
        -12    1    1    2    0    0  0.11721042334E+02 -0.14854657961E+02  0.39058665232E+02  0.43400726103E+02  0.00000000000E+00 0.  1.
         11    1    3    3    0    0 -0.55801142678E+01  0.90631540575E+01 -0.14803838219E+02  0.18232719572E+02  0.51100000000E-03 0. -1.
        -11    1    3    3    0    0 -0.10042475064E+02  0.36294698929E+00 -0.12576758194E+02  0.16098381374E+02  0.51100000000E-03 0.  1.
         12    1    3    3    0    0  0.39015469977E+01  0.54285569142E+01 -0.11678068820E+02  0.13456172952E+02  0.00000000000E+00 0. -1.
</event>
<event>
 7    1  0.3837332E-009  0.4778726E+02  0.7816164E-02  0.1312668E+00
        -11   -1    0    0    0    0  0.00000000000E+00  0.00000000000E+00  0.45593999997E+02  0.45594000000E+02  0.51100000000E-03 0. -1.
         11   -1    0    0    0    0 -0.00000000000E+00 -0.00000000000E+00 -0.45593999997E+02  0.45594000000E+02  0.51100000000E-03 0.  1.
    9900012    2    1    2    0    0 -0.21199864233E+02 -0.23221582770E+02  0.29915680615E+02  0.47787261567E+02  0.19999956789E+02 0.  0.
        -12    1    1    2    0    0  0.21199864233E+02  0.23221582770E+02 -0.29915680615E+02  0.43400738433E+02  0.00000000000E+00 0.  1.
         11    1    3    3    0    0 -0.79608431202E+00  0.65222896444E+00  0.21646742876E+00  0.10516707007E+01  0.51100000000E-03 0. -1.
        -11    1    3    3    0    0 -0.16266275641E+01 -0.45861808868E+00  0.11523980864E+02  0.11647247872E+02  0.51100000000E-03 0.  1.
         12    1    3    3    0    0 -0.18777152357E+02 -0.23415193646E+02  0.18175232323E+02  0.35088342995E+02  0.00000000000E+00 0. -1.
</event>
<event>
 7    1  0.3837332E-009  0.4778727E+02  0.7816164E-02  0.1312668E+00
        -11   -1    0    0    0    0  0.00000000000E+00  0.00000000000E+00  0.45593999997E+02  0.45594000000E+02  0.51100000000E-03 0. -1.
         11   -1    0    0    0    0 -0.00000000000E+00 -0.00000000000E+00 -0.45593999997E+02  0.45594000000E+02  0.51100000000E-03 0.  1.
    9900012    2    1    2    0    0 -0.33800883043E+02 -0.14257741557E+01  0.27186222843E+02  0.47787271448E+02  0.20000001838E+02 0.  0.
        -12    1    1    2    0    0  0.33800883043E+02  0.14257741557E+01 -0.27186222843E+02  0.43400728552E+02  0.00000000000E+00 0.  1.
         11    1    3    3    0    0 -0.12712647338E+01 -0.17310274718E+01 -0.67217288277E+00  0.22504192447E+01  0.51100000000E-03 0. -1.
        -11    1    3    3    0    0 -0.16458874725E+02 -0.12619328958E+01  0.44444709498E+01  0.17095038875E+02  0.51100000000E-03 0.  1.
         12    1    3    3    0    0 -0.16070743584E+02  0.15671862119E+01  0.23413924776E+02  0.28441813328E+02  0.00000000000E+00 0. -1.
</event>
<event>
 7    1  0.3837332E-009  0.4778727E+02  0.7816164E-02  0.1312668E+00
        -11   -1    0    0    0    0  0.00000000000E+00  0.00000000000E+00  0.45593999997E+02  0.45594000000E+02  0.51100000000E-03 0.  1.
         11   -1    0    0    0    0 -0.00000000000E+00 -0.00000000000E+00 -0.45593999997E+02  0.45594000000E+02  0.51100000000E-03 0. -1.
    9900012    2    1    2    0    0 -0.38534134312E+02  0.94215988985E+01 -0.17606171786E+02  0.47787270537E+02  0.19999997685E+02 0.  0.
        -12    1    1    2    0    0  0.38534134312E+02 -0.94215988985E+01  0.17606171786E+02  0.43400729463E+02  0.00000000000E+00 0.  1.
         11    1    3    3    0    0 -0.13065869568E+02  0.53988368479E+01 -0.51751545003E+01  0.15054786987E+02  0.51100000000E-03 0. -1.
        -11    1    3    3    0    0  0.30561814314E+00  0.24619584611E+01 -0.54442155319E+01  0.59828191459E+01  0.51100000000E-03 0.  1.
        -12    1    3    3    0    0 -0.25773882887E+02  0.15608035896E+01 -0.69868017538E+01  0.26749664403E+02  0.00000000000E+00 0.  1.
</event>
<event>
 7    1  0.3837332E-009  0.4778728E+02  0.7816164E-02  0.1312668E+00
        -11   -1    0    0    0    0  0.00000000000E+00  0.00000000000E+00  0.45593999997E+02  0.45594000000E+02  0.51100000000E-03 0.  1.
         11   -1    0    0    0    0 -0.00000000000E+00 -0.00000000000E+00 -0.45593999997E+02  0.45594000000E+02  0.51100000000E-03 0. -1.
    9900012    2    1    2    0    0  0.73857611858E+01  0.10558917333E+02 -0.41443726288E+02  0.47787278207E+02  0.20000032658E+02 0.  0.
        -12    1    1    2    0    0 -0.73857611858E+01 -0.10558917333E+02  0.41443726288E+02  0.43400721793E+02  0.00000000000E+00 0.  1.
         11    1    3    3    0    0  0.77289296912E+01  0.82812510324E+01 -0.37951770765E+02  0.39606216397E+02  0.51100000000E-03 0. -1.
        -11    1    3    3    0    0  0.25312066884E+01  0.17393562761E+01 -0.41702049103E+01  0.51790903458E+01  0.51100000000E-03 0.  1.
        -12    1    3    3    0    0 -0.28743751939E+01  0.53831002448E+00  0.67824938812E+00  0.30019714639E+01  0.00000000000E+00 0.  1.
</event>
<event>
 7    1  0.3837332E-009  0.4778727E+02  0.7816164E-02  0.1312668E+00
        -11   -1    0    0    0    0  0.00000000000E+00  0.00000000000E+00  0.45593999997E+02  0.45594000000E+02  0.51100000000E-03 0.  1.
         11   -1    0    0    0    0 -0.00000000000E+00 -0.00000000000E+00 -0.45593999997E+02  0.45594000000E+02  0.51100000000E-03 0. -1.
    9900012    2    1    2    0    0 -0.16202001799E+01  0.21003417444E+02 -0.37945417579E+02  0.47787270649E+02  0.19999998199E+02 0.  0.
        -12    1    1    2    0    0  0.16202001799E+01 -0.21003417444E+02  0.37945417579E+02  0.43400729351E+02  0.00000000000E+00 0.  1.
         11    1    3    3    0    0 -0.27908502326E+01 -0.29725931796E-01 -0.74776410300E+01  0.79815314500E+01  0.51100000000E-03 0. -1.
        -11    1    3    3    0    0  0.92739946187E+00 -0.18523732088E+01 -0.57863361599E+01  0.61459777646E+01  0.51100000000E-03 0.  1.
        -12    1    3    3    0    0  0.24325059084E+00  0.22885516585E+02 -0.24681440389E+02  0.33659761435E+02  0.00000000000E+00 0.  1.
</event>
<event>
 7    1  0.3837332E-009  0.4778727E+02  0.7816164E-02  0.1312668E+00
        -11   -1    0    0    0    0  0.00000000000E+00  0.00000000000E+00  0.45593999997E+02  0.45594000000E+02  0.51100000000E-03 0.  1.
         11   -1    0    0    0    0 -0.00000000000E+00 -0.00000000000E+00 -0.45593999997E+02  0.45594000000E+02  0.51100000000E-03 0. -1.
    9900012    2    1    2    0    0 -0.91405637125E+00 -0.28873170606E+02 -0.32390237794E+02  0.47787274381E+02  0.20000015214E+02 0.  0.
        -12    1    1    2    0    0  0.91405637125E+00  0.28873170606E+02  0.32390237794E+02  0.43400725619E+02  0.00000000000E+00 0.  1.
         11    1    3    3    0    0  0.25333002244E+01 -0.61466241058E+01 -0.14563521231E+02  0.16009208251E+02  0.51100000000E-03 0. -1.
        -11    1    3    3    0    0  0.30826909550E+01 -0.17382431807E+02 -0.13909817959E+02  0.22475207562E+02  0.51100000000E-03 0.  1.
        -12    1    3    3    0    0 -0.65300475507E+01 -0.53441146933E+01 -0.39168986043E+01  0.93028585686E+01  0.00000000000E+00 0.  1.
</event>
<event>
 7    1  0.3837332E-009  0.4778728E+02  0.7816164E-02  0.1312668E+00
        -11   -1    0    0    0    0  0.00000000000E+00  0.00000000000E+00  0.45593999997E+02  0.45594000000E+02  0.51100000000E-03 0.  1.
         11   -1    0    0    0    0 -0.00000000000E+00 -0.00000000000E+00 -0.45593999997E+02  0.45594000000E+02  0.51100000000E-03 0. -1.
    9900012    2    1    2    0    0 -0.15559916905E+02 -0.52675286339E+01 -0.40171694256E+02  0.47787275451E+02  0.20000020089E+02 0.  0.
        -12    1    1    2    0    0  0.15559916905E+02  0.52675286339E+01  0.40171694256E+02  0.43400724549E+02  0.00000000000E+00 0.  1.
         11    1    3    3    0    0 -0.56812269642E+01  0.26165479214E+01 -0.24055372020E+02  0.24855252687E+02  0.51100000000E-03 0. -1.
        -11    1    3    3    0    0 -0.21191821721E+01  0.24900697879E+01 -0.23375278218E+01  0.40193802017E+01  0.51100000000E-03 0.  1.
         12    1    3    3    0    0 -0.77595077691E+01 -0.10374146343E+02 -0.13778794415E+02  0.18912642562E+02  0.00000000000E+00 0. -1.
</event>
<event>
 7    1  0.3837332E-009  0.4778727E+02  0.7816164E-02  0.1312668E+00
        -11   -1    0    0    0    0  0.00000000000E+00  0.00000000000E+00  0.45593999997E+02  0.45594000000E+02  0.51100000000E-03 0. -1.
         11   -1    0    0    0    0 -0.00000000000E+00 -0.00000000000E+00 -0.45593999997E+02  0.45594000000E+02  0.51100000000E-03 0.  1.
    9900012    2    1    2    0    0  0.41476597207E+02  0.60582776071E+01  0.11252211001E+02  0.47787273096E+02  0.20000009353E+02 0.  0.
        -12    1    1    2    0    0 -0.41476597207E+02 -0.60582776071E+01 -0.11252211001E+02  0.43400726904E+02  0.00000000000E+00 0.  1.
         11    1    3    3    0    0  0.94380130420E+01  0.59903135756E+01  0.57312582598E+01  0.12562136300E+02  0.51100000000E-03 0. -1.
        -11    1    3    3    0    0  0.14009895040E+02  0.64475477705E+01  0.40117315155E+00  0.15427539384E+02  0.51100000000E-03 0.  1.
        -12    1    3    3    0    0  0.18028689124E+02 -0.63795837390E+01  0.51197795898E+01  0.19797597412E+02  0.00000000000E+00 0.  1.
</event>
<event>
 7    1  0.3837332E-009  0.4778727E+02  0.7816164E-02  0.1312668E+00
        -11   -1    0    0    0    0  0.00000000000E+00  0.00000000000E+00  0.45593999997E+02  0.45594000000E+02  0.51100000000E-03 0.  1.
         11   -1    0    0    0    0 -0.00000000000E+00 -0.00000000000E+00 -0.45593999997E+02  0.45594000000E+02  0.51100000000E-03 0. -1.
    9900012    2    1    2    0    0  0.63270686212E+00  0.68891728261E+01 -0.42845795619E+02  0.47787271637E+02  0.20000002701E+02 0.  0.
        -12    1    1    2    0    0 -0.63270686212E+00 -0.68891728261E+01  0.42845795619E+02  0.43400728363E+02  0.00000000000E+00 0.  1.
         11    1    3    3    0    0  0.38222585270E+01  0.82672763947E+01 -0.31326139872E+02  0.32623374424E+02  0.51100000000E-03 0. -1.
        -11    1    3    3    0    0  0.15003469050E+01  0.28494791805E+01 -0.21749695519E+01  0.38860089099E+01  0.51100000000E-03 0.  1.
         12    1    3    3    0    0 -0.46898985698E+01 -0.42275827491E+01 -0.93446861950E+01  0.11277888303E+02  0.00000000000E+00 0. -1.
</event>
<event>
 7    1  0.3837332E-009  0.4778728E+02  0.7816164E-02  0.1312668E+00
        -11   -1    0    0    0    0  0.00000000000E+00  0.00000000000E+00  0.45593999997E+02  0.45594000000E+02  0.51100000000E-03 0. -1.
         11   -1    0    0    0    0 -0.00000000000E+00 -0.00000000000E+00 -0.45593999997E+02  0.45594000000E+02  0.51100000000E-03 0.  1.
    9900012    2    1    2    0    0 -0.36203433800E+01  0.37749044585E+02  0.21107461592E+02  0.47787283553E+02  0.20000057033E+02 0.  0.
        -12    1    1    2    0    0  0.36203433800E+01 -0.37749044585E+02 -0.21107461592E+02  0.43400716447E+02  0.00000000000E+00 0.  1.
         11    1    3    3    0    0  0.52021975414E+01  0.10904265308E+02  0.89374545569E+01  0.15028105515E+02  0.51100000000E-03 0. -1.
        -11    1    3    3    0    0 -0.65088800334E+00 -0.39998861364E+00  0.26601337944E+01  0.27676629399E+01  0.51100000000E-03 0.  1.
         12    1    3    3    0    0 -0.81716529180E+01  0.27244767891E+02  0.95098732402E+01  0.29991515098E+02  0.00000000000E+00 0. -1.
</event>
<event>
 7    1  0.3837332E-009  0.4778729E+02  0.7816164E-02  0.1312668E+00
        -11   -1    0    0    0    0  0.00000000000E+00  0.00000000000E+00  0.45593999997E+02  0.45594000000E+02  0.51100000000E-03 0.  1.
         11   -1    0    0    0    0 -0.00000000000E+00 -0.00000000000E+00 -0.45593999997E+02  0.45594000000E+02  0.51100000000E-03 0. -1.
    9900012    2    1    2    0    0  0.22677009147E+02  0.95587838736E+01 -0.35749185467E+02  0.47787293156E+02  0.20000100814E+02 0.  0.
        -12    1    1    2    0    0 -0.22677009147E+02 -0.95587838736E+01  0.35749185467E+02  0.43400706844E+02  0.00000000000E+00 0.  1.
         11    1    3    3    0    0  0.17197401934E+02  0.27875601707E+01 -0.12577934826E+02  0.21487800486E+02  0.51100000000E-03 0. -1.
        -11    1    3    3    0    0  0.24981736319E+01 -0.19709910819E+01 -0.66301893271E+01  0.73542564624E+01  0.51100000000E-03 0.  1.
         12    1    3    3    0    0  0.29814335812E+01  0.87422147848E+01 -0.16541061314E+02  0.18945236207E+02  0.00000000000E+00 0. -1.
</event>
<event>
 7    1  0.3837332E-009  0.4778727E+02  0.7816164E-02  0.1312668E+00
        -11   -1    0    0    0    0  0.00000000000E+00  0.00000000000E+00  0.45593999997E+02  0.45594000000E+02  0.51100000000E-03 0.  1.
         11   -1    0    0    0    0 -0.00000000000E+00 -0.00000000000E+00 -0.45593999997E+02  0.45594000000E+02  0.51100000000E-03 0. -1.
    9900012    2    1    2    0    0  0.16105074303E+02 -0.28397129996E+02 -0.28598128677E+02  0.47787269890E+02  0.19999994735E+02 0.  0.
        -12    1    1    2    0    0 -0.16105074303E+02  0.28397129996E+02  0.28598128677E+02  0.43400730110E+02  0.00000000000E+00 0.  1.
         11    1    3    3    0    0  0.45887242141E+00 -0.12312532791E+02 -0.47264383701E+01  0.13196524071E+02  0.51100000000E-03 0. -1.
        -11    1    3    3    0    0  0.69959619067E+01 -0.53915097984E+01 -0.25063275969E+01  0.91811512998E+01  0.51100000000E-03 0.  1.
         12    1    3    3    0    0  0.86502399747E+01 -0.10693087406E+02 -0.21365362710E+02  0.25409594519E+02  0.00000000000E+00 0. -1.
</event>
<event>
 7    1  0.3837332E-009  0.4778727E+02  0.7816164E-02  0.1312668E+00
        -11   -1    0    0    0    0  0.00000000000E+00  0.00000000000E+00  0.45593999997E+02  0.45594000000E+02  0.51100000000E-03 0. -1.
         11   -1    0    0    0    0 -0.00000000000E+00 -0.00000000000E+00 -0.45593999997E+02  0.45594000000E+02  0.51100000000E-03 0.  1.
    9900012    2    1    2    0    0  0.11585874174E+02  0.26327294113E+02  0.32500225257E+02  0.47787268009E+02  0.19999986158E+02 0.  0.
        -12    1    1    2    0    0 -0.11585874174E+02 -0.26327294113E+02 -0.32500225257E+02  0.43400731991E+02  0.00000000000E+00 0.  1.
         11    1    3    3    0    0  0.14983901667E+02  0.15076701820E+02  0.17036370241E+02  0.27240817869E+02  0.51100000000E-03 0. -1.
        -11    1    3    3    0    0  0.11008002462E+01  0.61335256298E+00  0.43096028754E+01  0.44900601057E+01  0.51100000000E-03 0.  1.
        -12    1    3    3    0    0 -0.44988277393E+01  0.10637239730E+02  0.11154252141E+02  0.16056390034E+02  0.00000000000E+00 0.  1.
</event>
<event>
 7    1  0.3837332E-009  0.4778727E+02  0.7816164E-02  0.1312668E+00
        -11   -1    0    0    0    0  0.00000000000E+00  0.00000000000E+00  0.45593999997E+02  0.45594000000E+02  0.51100000000E-03 0.  1.
         11   -1    0    0    0    0 -0.00000000000E+00 -0.00000000000E+00 -0.45593999997E+02  0.45594000000E+02  0.51100000000E-03 0. -1.
    9900012    2    1    2    0    0  0.42949616235E+02 -0.35534084226E+01 -0.51309951666E+01  0.47787270080E+02  0.19999995605E+02 0.  0.
        -12    1    1    2    0    0 -0.42949616235E+02  0.35534084226E+01  0.51309951666E+01  0.43400729920E+02  0.00000000000E+00 0.  1.
         11    1    3    3    0    0  0.18267597216E+02  0.31223507551E+01  0.31226694210E+01  0.18793755528E+02  0.51100000000E-03 0. -1.
        -11    1    3    3    0    0  0.91035792102E+01  0.26424809251E+01 -0.43311600597E+01  0.10421938764E+02  0.51100000000E-03 0.  1.
         12    1    3    3    0    0  0.15578439809E+02 -0.93182401028E+01 -0.39225045279E+01  0.18571575789E+02  0.00000000000E+00 0. -1.
</event>
<event>
 7    1  0.3837332E-009  0.4778727E+02  0.7816164E-02  0.1312668E+00
        -11   -1    0    0    0    0  0.00000000000E+00  0.00000000000E+00  0.45593999997E+02  0.45594000000E+02  0.51100000000E-03 0. -1.
         11   -1    0    0    0    0 -0.00000000000E+00 -0.00000000000E+00 -0.45593999997E+02  0.45594000000E+02  0.51100000000E-03 0.  1.
    9900012    2    1    2    0    0 -0.39701573872E+02 -0.10420464194E+02 -0.14100431234E+02  0.47787271862E+02  0.20000003727E+02 0.  0.
        -12    1    1    2    0    0  0.39701573872E+02  0.10420464194E+02  0.14100431234E+02  0.43400728138E+02  0.00000000000E+00 0.  1.
         11    1    3    3    0    0 -0.73198497891E+01 -0.48804970278E+01 -0.23777068633E+01  0.91133387056E+01  0.51100000000E-03 0. -1.
        -11    1    3    3    0    0 -0.13303404684E+01 -0.52250330004E+01  0.23833177275E+00  0.53969971199E+01  0.51100000000E-03 0.  1.
         12    1    3    3    0    0 -0.31051383614E+02 -0.31493416565E+00 -0.11961056144E+02  0.33276936036E+02  0.00000000000E+00 0. -1.
</event>
<event>
 7    1  0.3837332E-009  0.4778727E+02  0.7816164E-02  0.1312668E+00
        -11   -1    0    0    0    0  0.00000000000E+00  0.00000000000E+00  0.45593999997E+02  0.45594000000E+02  0.51100000000E-03 0.  1.
         11   -1    0    0    0    0 -0.00000000000E+00 -0.00000000000E+00 -0.45593999997E+02  0.45594000000E+02  0.51100000000E-03 0. -1.
    9900012    2    1    2    0    0 -0.29605077671E+02  0.18735225832E+02 -0.25615498831E+02  0.47787273149E+02  0.20000009594E+02 0.  0.
        -12    1    1    2    0    0  0.29605077671E+02 -0.18735225832E+02  0.25615498831E+02  0.43400726851E+02  0.00000000000E+00 0.  1.
         11    1    3    3    0    0 -0.48195827518E+01  0.13632455681E+01 -0.20544507578E+01  0.54136479898E+01  0.51100000000E-03 0. -1.
        -11    1    3    3    0    0 -0.22397439099E+02  0.16646440458E+02 -0.26523509204E+02  0.38499945440E+02  0.51100000000E-03 0.  1.
         12    1    3    3    0    0 -0.23880558200E+01  0.72553980608E+00  0.29624611312E+01  0.38736797188E+01  0.00000000000E+00 0. -1.
</event>
<event>
 7    1  0.3837332E-009  0.4778727E+02  0.7816164E-02  0.1312668E+00
        -11   -1    0    0    0    0  0.00000000000E+00  0.00000000000E+00  0.45593999997E+02  0.45594000000E+02  0.51100000000E-03 0. -1.
         11   -1    0    0    0    0 -0.00000000000E+00 -0.00000000000E+00 -0.45593999997E+02  0.45594000000E+02  0.51100000000E-03 0.  1.
    9900012    2    1    2    0    0 -0.21604374847E+02  0.37171093010E+02 -0.59316113255E+01  0.47787272114E+02  0.20000004878E+02 0.  0.
        -12    1    1    2    0    0  0.21604374847E+02 -0.37171093010E+02  0.59316113255E+01  0.43400727886E+02  0.00000000000E+00 0.  1.
         11    1    3    3    0    0 -0.55268599452E-01 -0.63466601647E+00  0.11425507754E+01  0.13081582879E+01  0.51100000000E-03 0. -1.
        -11    1    3    3    0    0 -0.53753362755E+01  0.16875338741E+01 -0.37449963168E+01  0.67651318040E+01  0.51100000000E-03 0.  1.
         12    1    3    3    0    0 -0.16173769972E+02  0.36118225152E+02 -0.33291657841E+01  0.39713982022E+02  0.00000000000E+00 0. -1.
</event>
<event>
 7    1  0.3837332E-009  0.4778727E+02  0.7816164E-02  0.1312668E+00
        -11   -1    0    0    0    0  0.00000000000E+00  0.00000000000E+00  0.45593999997E+02  0.45594000000E+02  0.51100000000E-03 0.  1.
         11   -1    0    0    0    0 -0.00000000000E+00 -0.00000000000E+00 -0.45593999997E+02  0.45594000000E+02  0.51100000000E-03 0. -1.
    9900012    2    1    2    0    0 -0.54089000701E+01 -0.67243960259E+01 -0.42534098658E+02  0.47787271313E+02  0.20000001226E+02 0.  0.
        -12    1    1    2    0    0  0.54089000701E+01  0.67243960259E+01  0.42534098658E+02  0.43400728687E+02  0.00000000000E+00 0.  1.
         11    1    3    3    0    0  0.81306130910E-01 -0.20209264202E+00  0.27426972339E+00  0.35025171687E+00  0.51100000000E-03 0. -1.
        -11    1    3    3    0    0  0.57844618458E+01 -0.63708157440E+01 -0.24137504502E+02  0.25625503233E+02  0.51100000000E-03 0.  1.
         12    1    3    3    0    0 -0.11274668047E+02 -0.15148763992E+00 -0.18670863879E+02  0.21811516363E+02  0.00000000000E+00 0. -1.
</event>
<event>
 7    1  0.3837332E-009  0.4778727E+02  0.7816164E-02  0.1312668E+00
        -11   -1    0    0    0    0  0.00000000000E+00  0.00000000000E+00  0.45593999997E+02  0.45594000000E+02  0.51100000000E-03 0.  1.
         11   -1    0    0    0    0 -0.00000000000E+00 -0.00000000000E+00 -0.45593999997E+02  0.45594000000E+02  0.51100000000E-03 0. -1.
    9900012    2    1    2    0    0  0.23424389842E+01  0.42059001252E+02 -0.10448761670E+02  0.47787271583E+02  0.20000002454E+02 0.  0.
        -12    1    1    2    0    0 -0.23424389842E+01 -0.42059001252E+02  0.10448761670E+02  0.43400728417E+02  0.00000000000E+00 0.  1.
         11    1    3    3    0    0 -0.29105067568E+01  0.12714884428E+02 -0.37798642546E+01  0.13580379584E+02  0.51100000000E-03 0. -1.
        -11    1    3    3    0    0 -0.14005499089E+01  0.17563682052E+01  0.34168864828E+01  0.40891909734E+01  0.51100000000E-03 0.  1.
         12    1    3    3    0    0  0.66534956499E+01  0.27587748619E+02 -0.10085783898E+02  0.30117701025E+02  0.00000000000E+00 0. -1.
</event>
<event>
 7    1  0.3837332E-009  0.4778729E+02  0.7816164E-02  0.1312668E+00
        -11   -1    0    0    0    0  0.00000000000E+00  0.00000000000E+00  0.45593999997E+02  0.45594000000E+02  0.51100000000E-03 0. -1.
         11   -1    0    0    0    0 -0.00000000000E+00 -0.00000000000E+00 -0.45593999997E+02  0.45594000000E+02  0.51100000000E-03 0.  1.
    9900012    2    1    2    0    0  0.21030014243E+02  0.37930486127E+02 -0.16243756697E+01  0.47787287181E+02  0.20000073573E+02 0.  0.
        -12    1    1    2    0    0 -0.21030014243E+02 -0.37930486127E+02  0.16243756697E+01  0.43400712819E+02  0.00000000000E+00 0.  1.
         11    1    3    3    0    0  0.10018304540E+01  0.17725949056E+02 -0.58155842137E+00  0.17763759306E+02  0.51100000000E-03 0. -1.
        -11    1    3    3    0    0  0.40187262602E+00  0.53269789093E+01  0.37170096668E+00  0.53550320053E+01  0.51100000000E-03 0.  1.
        -12    1    3    3    0    0  0.19626311163E+02  0.14877558161E+02 -0.14145182150E+01  0.24668495870E+02  0.00000000000E+00 0.  1.
</event>
<event>
 7    1  0.3837332E-009  0.4778727E+02  0.7816164E-02  0.1312668E+00
        -11   -1    0    0    0    0  0.00000000000E+00  0.00000000000E+00  0.45593999997E+02  0.45594000000E+02  0.51100000000E-03 0.  1.
         11   -1    0    0    0    0 -0.00000000000E+00 -0.00000000000E+00 -0.45593999997E+02  0.45594000000E+02  0.51100000000E-03 0. -1.
    9900012    2    1    2    0    0  0.18527705082E+01  0.22091760097E+02 -0.37311454593E+02  0.47787271128E+02  0.20000000383E+02 0.  0.
        -12    1    1    2    0    0 -0.18527705082E+01 -0.22091760097E+02  0.37311454593E+02  0.43400728872E+02  0.00000000000E+00 0.  1.
         11    1    3    3    0    0 -0.45618069430E+01  0.10382646941E+01 -0.10274510551E+02  0.11289536903E+02  0.51100000000E-03 0. -1.
        -11    1    3    3    0    0  0.11702690079E+01 -0.88921333906E+00 -0.27536709223E+00  0.14953451808E+01  0.51100000000E-03 0.  1.
         12    1    3    3    0    0  0.52443084433E+01  0.21942708742E+02 -0.26761576950E+02  0.35002389045E+02  0.00000000000E+00 0. -1.
</event>
<event>
 7    1  0.3837332E-009  0.4778727E+02  0.7816164E-02  0.1312668E+00
        -11   -1    0    0    0    0  0.00000000000E+00  0.00000000000E+00  0.45593999997E+02  0.45594000000E+02  0.51100000000E-03 0.  1.
         11   -1    0    0    0    0 -0.00000000000E+00 -0.00000000000E+00 -0.45593999997E+02  0.45594000000E+02  0.51100000000E-03 0. -1.
    9900012    2    1    2    0    0 -0.32814611537E+02 -0.23270361707E+02 -0.16288496802E+02  0.47787267375E+02  0.19999983270E+02 0.  0.
        -12    1    1    2    0    0  0.32814611537E+02  0.23270361707E+02  0.16288496802E+02  0.43400732625E+02  0.00000000000E+00 0.  1.
         11    1    3    3    0    0 -0.62695611269E+01 -0.66972788992E+00  0.12757056524E+01  0.64329897671E+01  0.51100000000E-03 0. -1.
        -11    1    3    3    0    0  0.12476732380E+01 -0.11350929920E+01  0.63409128591E+00  0.18019979548E+01  0.51100000000E-03 0.  1.
         12    1    3    3    0    0 -0.27792723648E+02 -0.21465540825E+02 -0.18198293740E+02  0.39552279653E+02  0.00000000000E+00 0. -1.
</event>
<event>
 7    1  0.3837332E-009  0.4778727E+02  0.7816164E-02  0.1312668E+00
        -11   -1    0    0    0    0  0.00000000000E+00  0.00000000000E+00  0.45593999997E+02  0.45594000000E+02  0.51100000000E-03 0.  1.
         11   -1    0    0    0    0 -0.00000000000E+00 -0.00000000000E+00 -0.45593999997E+02  0.45594000000E+02  0.51100000000E-03 0. -1.
    9900012    2    1    2    0    0  0.41298995865E+02 -0.62636591532E+01 -0.11780617102E+02  0.47787269306E+02  0.19999992075E+02 0.  0.
        -12    1    1    2    0    0 -0.41298995865E+02  0.62636591532E+01  0.11780617102E+02  0.43400730694E+02  0.00000000000E+00 0.  1.
         11    1    3    3    0    0  0.16137924088E+02 -0.22732744773E+01 -0.11455964509E+02  0.19920830651E+02  0.51100000000E-03 0. -1.
        -11    1    3    3    0    0  0.70438679293E+01  0.38250436851E+01 -0.12569619889E+01  0.81133832833E+01  0.51100000000E-03 0.  1.
        -12    1    3    3    0    0  0.18117203848E+02 -0.78154283610E+01  0.93230939678E+00  0.19753055373E+02  0.00000000000E+00 0.  1.
</event>
<event>
 7    1  0.3837332E-009  0.4778727E+02  0.7816164E-02  0.1312668E+00
        -11   -1    0    0    0    0  0.00000000000E+00  0.00000000000E+00  0.45593999997E+02  0.45594000000E+02  0.51100000000E-03 0.  1.
         11   -1    0    0    0    0 -0.00000000000E+00 -0.00000000000E+00 -0.45593999997E+02  0.45594000000E+02  0.51100000000E-03 0. -1.
    9900012    2    1    2    0    0 -0.28915562398E+02 -0.19945682614E+02  0.25488880953E+02  0.47787273555E+02  0.20000011446E+02 0.  0.
        -12    1    1    2    0    0  0.28915562398E+02  0.19945682614E+02 -0.25488880953E+02  0.43400726445E+02  0.00000000000E+00 0.  1.
         11    1    3    3    0    0 -0.11087712185E+02  0.76195998850E+00  0.55455710725E+01  0.12420599957E+02  0.51100000000E-03 0. -1.
        -11    1    3    3    0    0 -0.69737980505E+00 -0.65897348575E+01  0.23120085701E+01  0.70182852588E+01  0.51100000000E-03 0.  1.
        -12    1    3    3    0    0 -0.17130470408E+02 -0.14117907745E+02  0.17631301311E+02  0.28348388339E+02  0.00000000000E+00 0.  1.
</event>
<event>
 7    1  0.3837332E-009  0.4778728E+02  0.7816164E-02  0.1312668E+00
        -11   -1    0    0    0    0  0.00000000000E+00  0.00000000000E+00  0.45593999997E+02  0.45594000000E+02  0.51100000000E-03 0. -1.
         11   -1    0    0    0    0 -0.00000000000E+00 -0.00000000000E+00 -0.45593999997E+02  0.45594000000E+02  0.51100000000E-03 0.  1.
    9900012    2    1    2    0    0  0.35721722997E+02 -0.20479789568E+02  0.13717117593E+02  0.47787278927E+02  0.20000035938E+02 0.  0.
        -12    1    1    2    0    0 -0.35721722997E+02  0.20479789568E+02 -0.13717117593E+02  0.43400721073E+02  0.00000000000E+00 0.  1.
         11    1    3    3    0    0  0.16681840393E+02 -0.55333072779E+01  0.14213106372E+02  0.22603399774E+02  0.51100000000E-03 0. -1.
        -11    1    3    3    0    0  0.13278464153E+01  0.72455659359E+00 -0.24959818854E+00  0.15331203074E+01  0.51100000000E-03 0.  1.
         12    1    3    3    0    0  0.17712036188E+02 -0.15671038884E+02 -0.24639059047E+00  0.23650758845E+02  0.00000000000E+00 0. -1.
</event>
<event>
 7    1  0.3837332E-009  0.4778727E+02  0.7816164E-02  0.1312668E+00
        -11   -1    0    0    0    0  0.00000000000E+00  0.00000000000E+00  0.45593999997E+02  0.45594000000E+02  0.51100000000E-03 0.  1.
         11   -1    0    0    0    0 -0.00000000000E+00 -0.00000000000E+00 -0.45593999997E+02  0.45594000000E+02  0.51100000000E-03 0. -1.
    9900012    2    1    2    0    0  0.29937093055E+02  0.12550828584E+02 -0.28807470767E+02  0.47787271772E+02  0.20000003319E+02 0.  0.
        -12    1    1    2    0    0 -0.29937093055E+02 -0.12550828584E+02  0.28807470767E+02  0.43400728228E+02  0.00000000000E+00 0.  1.
         11    1    3    3    0    0  0.13386111197E+02  0.13918165702E+02 -0.15900444210E+02  0.25014544486E+02  0.51100000000E-03 0. -1.
        -11    1    3    3    0    0  0.23639386686E+01  0.15060556093E+00 -0.68936931153E+01  0.72892999042E+01  0.51100000000E-03 0.  1.
        -12    1    3    3    0    0  0.14187043189E+02 -0.15179426794E+01 -0.60133334417E+01  0.15483427382E+02  0.00000000000E+00 0.  1.
</event>
<event>
 7    1  0.3837332E-009  0.4778726E+02  0.7816164E-02  0.1312668E+00
        -11   -1    0    0    0    0  0.00000000000E+00  0.00000000000E+00  0.45593999997E+02  0.45594000000E+02  0.51100000000E-03 0.  1.
         11   -1    0    0    0    0 -0.00000000000E+00 -0.00000000000E+00 -0.45593999997E+02  0.45594000000E+02  0.51100000000E-03 0. -1.
    9900012    2    1    2    0    0 -0.13281405242E+02  0.33026182195E+02 -0.24829421319E+02  0.47787255783E+02  0.19999930417E+02 0.  0.
        -12    1    1    2    0    0  0.13281405242E+02 -0.33026182195E+02  0.24829421319E+02  0.43400744217E+02  0.00000000000E+00 0.  1.
         11    1    3    3    0    0 -0.47225903312E+00  0.75433294352E+01 -0.15586415301E+01  0.77171375032E+01  0.51100000000E-03 0. -1.
        -11    1    3    3    0    0 -0.10736327002E+02  0.14400026448E+02 -0.50764640879E+01  0.18665475271E+02  0.51100000000E-03 0.  1.
         12    1    3    3    0    0 -0.20728192064E+01  0.11082826312E+02 -0.18194315700E+02  0.21404643009E+02  0.00000000000E+00 0. -1.
</event>
<event>
 7    1  0.3837332E-009  0.4778727E+02  0.7816164E-02  0.1312668E+00
        -11   -1    0    0    0    0  0.00000000000E+00  0.00000000000E+00  0.45593999997E+02  0.45594000000E+02  0.51100000000E-03 0. -1.
         11   -1    0    0    0    0 -0.00000000000E+00 -0.00000000000E+00 -0.45593999997E+02  0.45594000000E+02  0.51100000000E-03 0.  1.
    9900012    2    1    2    0    0 -0.27722899412E+02 -0.29249369434E+02 -0.16110204167E+02  0.47787269103E+02  0.19999991147E+02 0.  0.
        -12    1    1    2    0    0  0.27722899412E+02  0.29249369434E+02  0.16110204167E+02  0.43400730897E+02  0.00000000000E+00 0.  1.
         11    1    3    3    0    0 -0.10756399029E+02 -0.14982564103E+02 -0.10706418631E+02  0.21326151724E+02  0.51100000000E-03 0. -1.
        -11    1    3    3    0    0 -0.58314546867E+01 -0.12905492875E+02 -0.37296714078E+00  0.14166746798E+02  0.51100000000E-03 0.  1.
        -12    1    3    3    0    0 -0.11135045696E+02 -0.13613124569E+01 -0.50308183950E+01  0.12294370581E+02  0.00000000000E+00 0.  1.
</event>
<event>
 7    1  0.3837332E-009  0.4778727E+02  0.7816164E-02  0.1312668E+00
        -11   -1    0    0    0    0  0.00000000000E+00  0.00000000000E+00  0.45593999997E+02  0.45594000000E+02  0.51100000000E-03 0.  1.
         11   -1    0    0    0    0 -0.00000000000E+00 -0.00000000000E+00 -0.45593999997E+02  0.45594000000E+02  0.51100000000E-03 0. -1.
    9900012    2    1    2    0    0  0.94641170684E+01 -0.42182456276E+02  0.38332692799E+01  0.47787273247E+02  0.20000010041E+02 0.  0.
        -12    1    1    2    0    0 -0.94641170684E+01  0.42182456276E+02 -0.38332692799E+01  0.43400726753E+02  0.00000000000E+00 0.  1.
         11    1    3    3    0    0  0.92321480045E+01 -0.26105393030E+02  0.54780746698E+00  0.27695201666E+02  0.51100000000E-03 0. -1.
        -11    1    3    3    0    0  0.56149301055E+01 -0.51039421172E+01  0.92918887276E+00  0.76446751041E+01  0.51100000000E-03 0.  1.
         12    1    3    3    0    0 -0.53829610417E+01 -0.10973121129E+02  0.23562729401E+01  0.12447396477E+02  0.00000000000E+00 0. -1.
</event>
<event>
 7    1  0.3837332E-009  0.4778727E+02  0.7816164E-02  0.1312668E+00
        -11   -1    0    0    0    0  0.00000000000E+00  0.00000000000E+00  0.45593999997E+02  0.45594000000E+02  0.51100000000E-03 0. -1.
         11   -1    0    0    0    0 -0.00000000000E+00 -0.00000000000E+00 -0.45593999997E+02  0.45594000000E+02  0.51100000000E-03 0.  1.
    9900012    2    1    2    0    0 -0.31014257988E+02 -0.30240805659E+02  0.26893652916E+01  0.47787271767E+02  0.20000003296E+02 0.  0.
        -12    1    1    2    0    0  0.31014257988E+02  0.30240805659E+02 -0.26893652916E+01  0.43400728233E+02  0.00000000000E+00 0.  1.
         11    1    3    3    0    0 -0.59022659151E+01 -0.38463344611E+01  0.61135665441E+01  0.93277396978E+01  0.51100000000E-03 0. -1.
        -11    1    3    3    0    0  0.90307502836E+00 -0.46638198130E+00 -0.13253377584E+01  0.16702027106E+01  0.51100000000E-03 0.  1.
         12    1    3    3    0    0 -0.26015067102E+02 -0.25928089216E+02 -0.20988634941E+01  0.36789329359E+02  0.00000000000E+00 0. -1.
</event>
<event>
 7    1  0.3837332E-009  0.4778727E+02  0.7816164E-02  0.1312668E+00
        -11   -1    0    0    0    0  0.00000000000E+00  0.00000000000E+00  0.45593999997E+02  0.45594000000E+02  0.51100000000E-03 0.  1.
         11   -1    0    0    0    0 -0.00000000000E+00 -0.00000000000E+00 -0.45593999997E+02  0.45594000000E+02  0.51100000000E-03 0. -1.
    9900012    2    1    2    0    0  0.35305992816E+01 -0.98080278262E+01 -0.42130284503E+02  0.47787269437E+02  0.19999992670E+02 0.  0.
        -12    1    1    2    0    0 -0.35305992816E+01  0.98080278262E+01  0.42130284503E+02  0.43400730563E+02  0.00000000000E+00 0.  1.
         11    1    3    3    0    0 -0.42031110162E+00  0.30181496395E+01 -0.81221997199E+01  0.86750226063E+01  0.51100000000E-03 0. -1.
        -11    1    3    3    0    0 -0.18062080964E+01 -0.17313038165E+01 -0.20714516762E+02  0.20865066632E+02  0.51100000000E-03 0.  1.
        -12    1    3    3    0    0  0.57571184797E+01 -0.11094873649E+02 -0.13293568021E+02  0.18247180199E+02  0.00000000000E+00 0.  1.
</event>
<event>
 7    1  0.3837332E-009  0.4778727E+02  0.7816164E-02  0.1312668E+00
        -11   -1    0    0    0    0  0.00000000000E+00  0.00000000000E+00  0.45593999997E+02  0.45594000000E+02  0.51100000000E-03 0. -1.
         11   -1    0    0    0    0 -0.00000000000E+00 -0.00000000000E+00 -0.45593999997E+02  0.45594000000E+02  0.51100000000E-03 0.  1.
    9900012    2    1    2    0    0  0.64472209061E+01  0.42900833833E+02  0.12550942599E+01  0.47787268871E+02  0.19999990089E+02 0.  0.
        -12    1    1    2    0    0 -0.64472209061E+01 -0.42900833833E+02 -0.12550942599E+01  0.43400731129E+02  0.00000000000E+00 0.  1.
         11    1    3    3    0    0  0.36245823129E+01  0.20519396613E+02  0.38111519885E+01  0.21182731506E+02  0.51100000000E-03 0. -1.
        -11    1    3    3    0    0  0.75743130304E+01  0.75823952881E+01  0.63874634774E+00  0.10736430196E+02  0.51100000000E-03 0.  1.
        -12    1    3    3    0    0 -0.47516744371E+01  0.14799041932E+02 -0.31948040763E+01  0.15868107169E+02  0.00000000000E+00 0.  1.
</event>
<event>
 7    1  0.3837332E-009  0.4778727E+02  0.7816164E-02  0.1312668E+00
        -11   -1    0    0    0    0  0.00000000000E+00  0.00000000000E+00  0.45593999997E+02  0.45594000000E+02  0.51100000000E-03 0.  1.
         11   -1    0    0    0    0 -0.00000000000E+00 -0.00000000000E+00 -0.45593999997E+02  0.45594000000E+02  0.51100000000E-03 0. -1.
    9900012    2    1    2    0    0 -0.39455433145E+02  0.15939629431E+02 -0.85334901443E+01  0.47787269072E+02  0.19999991006E+02 0.  0.
        -12    1    1    2    0    0  0.39455433145E+02 -0.15939629431E+02  0.85334901443E+01  0.43400730928E+02  0.00000000000E+00 0.  1.
         11    1    3    3    0    0 -0.29343607295E+02  0.18918586996E+02 -0.57622740506E+01  0.35385929767E+02  0.51100000000E-03 0. -1.
        -11    1    3    3    0    0 -0.14625038914E+00  0.18176418048E+00 -0.18956361455E+01  0.19099382322E+01  0.51100000000E-03 0.  1.
         12    1    3    3    0    0 -0.99655754608E+01 -0.31607217449E+01 -0.87557994821E+00  0.10491401072E+02  0.00000000000E+00 0. -1.
</event>
<event>
 7    1  0.3837332E-009  0.4778727E+02  0.7816164E-02  0.1312668E+00
        -11   -1    0    0    0    0  0.00000000000E+00  0.00000000000E+00  0.45593999997E+02  0.45594000000E+02  0.51100000000E-03 0.  1.
         11   -1    0    0    0    0 -0.00000000000E+00 -0.00000000000E+00 -0.45593999997E+02  0.45594000000E+02  0.51100000000E-03 0. -1.
    9900012    2    1    2    0    0 -0.23407787531E+02  0.35093708026E+02 -0.10204430963E+02  0.47787271073E+02  0.20000000129E+02 0.  0.
        -12    1    1    2    0    0  0.23407787531E+02 -0.35093708026E+02  0.10204430963E+02  0.43400728927E+02  0.00000000000E+00 0.  1.
         11    1    3    3    0    0  0.12306162993E+00  0.88390777096E+01 -0.12281598930E+01  0.89248426264E+01  0.51100000000E-03 0.  1.
        -11    1    3    3    0    0  0.15632452169E+01  0.21182049202E+01 -0.21105022500E+01  0.33741291766E+01  0.51100000000E-03 0. -1.
         12    1    3    3    0    0 -0.25094094378E+02  0.24136425397E+02 -0.68657688197E+01  0.35488299270E+02  0.00000000000E+00 0. -1.
</event>
<event>
 7    1  0.3837332E-009  0.4778727E+02  0.7816164E-02  0.1312668E+00
        -11   -1    0    0    0    0  0.00000000000E+00  0.00000000000E+00  0.45593999997E+02  0.45594000000E+02  0.51100000000E-03 0.  1.
         11   -1    0    0    0    0 -0.00000000000E+00 -0.00000000000E+00 -0.45593999997E+02  0.45594000000E+02  0.51100000000E-03 0. -1.
    9900012    2    1    2    0    0  0.13672407324E+02  0.67787348033E+01 -0.40629266008E+02  0.47787271620E+02  0.20000002624E+02 0.  0.
        -12    1    1    2    0    0 -0.13672407324E+02 -0.67787348033E+01  0.40629266008E+02  0.43400728380E+02  0.00000000000E+00 0.  1.
         11    1    3    3    0    0  0.15156478950E+01 -0.83745766833E+00 -0.13778504429E+02  0.13886889804E+02  0.51100000000E-03 0. -1.
        -11    1    3    3    0    0  0.11322763007E+02 -0.15835333726E+01 -0.14030866757E+02  0.18099109434E+02  0.51100000000E-03 0.  1.
         12    1    3    3    0    0  0.83399642143E+00  0.91997258443E+01 -0.12819894822E+02  0.15801272382E+02  0.00000000000E+00 0. -1.
</event>
<event>
 7    1  0.3837332E-009  0.4778728E+02  0.7816164E-02  0.1312668E+00
        -11   -1    0    0    0    0  0.00000000000E+00  0.00000000000E+00  0.45593999997E+02  0.45594000000E+02  0.51100000000E-03 0. -1.
         11   -1    0    0    0    0 -0.00000000000E+00 -0.00000000000E+00 -0.45593999997E+02  0.45594000000E+02  0.51100000000E-03 0.  1.
    9900012    2    1    2    0    0  0.12780421301E+02  0.31885636687E+02  0.26525259666E+02  0.47787281159E+02  0.20000046117E+02 0.  0.
        -12    1    1    2    0    0 -0.12780421301E+02 -0.31885636687E+02 -0.26525259666E+02  0.43400718841E+02  0.00000000000E+00 0.  1.
         11    1    3    3    0    0  0.44411439729E+01  0.16315131013E+02  0.13526760627E+02  0.21653648955E+02  0.51100000000E-03 0. -1.
        -11    1    3    3    0    0 -0.56049470879E+00  0.84074055325E+01  0.12003952567E+02  0.14666066262E+02  0.51100000000E-03 0.  1.
         12    1    3    3    0    0  0.88997720373E+01  0.71631001410E+01  0.99454647237E+00  0.11467565942E+02  0.00000000000E+00 0. -1.
</event>
<event>
 7    1  0.3837332E-009  0.4778727E+02  0.7816164E-02  0.1312668E+00
        -11   -1    0    0    0    0  0.00000000000E+00  0.00000000000E+00  0.45593999997E+02  0.45594000000E+02  0.51100000000E-03 0.  1.
         11   -1    0    0    0    0 -0.00000000000E+00 -0.00000000000E+00 -0.45593999997E+02  0.45594000000E+02  0.51100000000E-03 0. -1.
    9900012    2    1    2    0    0  0.11816215374E+02  0.48568722961E+00 -0.41758406911E+02  0.47787269757E+02  0.19999994132E+02 0.  0.
        -12    1    1    2    0    0 -0.11816215374E+02 -0.48568722961E+00  0.41758406911E+02  0.43400730243E+02  0.00000000000E+00 0.  1.
         11    1    3    3    0    0 -0.37988034780E+01 -0.72355507507E+00 -0.87501377936E+01  0.95665746994E+01  0.51100000000E-03 0. -1.
        -11    1    3    3    0    0  0.18461038482E+01 -0.26154351366E+01 -0.13266951290E+01  0.34653600965E+01  0.51100000000E-03 0.  1.
        -12    1    3    3    0    0  0.13768915004E+02  0.38246774413E+01 -0.31681573988E+02  0.34755334962E+02  0.00000000000E+00 0.  1.
</event>
<event>
 7    1  0.3837332E-009  0.4778728E+02  0.7816164E-02  0.1312668E+00
        -11   -1    0    0    0    0  0.00000000000E+00  0.00000000000E+00  0.45593999997E+02  0.45594000000E+02  0.51100000000E-03 0.  1.
         11   -1    0    0    0    0 -0.00000000000E+00 -0.00000000000E+00 -0.45593999997E+02  0.45594000000E+02  0.51100000000E-03 0. -1.
    9900012    2    1    2    0    0  0.11761256855E+02  0.30528690609E+02 -0.28518322607E+02  0.47787276073E+02  0.20000022926E+02 0.  0.
        -12    1    1    2    0    0 -0.11761256855E+02 -0.30528690609E+02  0.28518322607E+02  0.43400723927E+02  0.00000000000E+00 0.  1.
         11    1    3    3    0    0 -0.10486317297E+01  0.29545562544E+01 -0.32812848438E-01  0.31353003220E+01  0.51100000000E-03 0. -1.
        -11    1    3    3    0    0 -0.33155762010E+01  0.99354779470E+01 -0.81240644528E+01  0.13255458916E+02  0.51100000000E-03 0.  1.
         12    1    3    3    0    0  0.16125464786E+02  0.17638656407E+02 -0.20361445305E+02  0.31396516835E+02  0.00000000000E+00 0. -1.
</event>
<event>
 7    1  0.3837332E-009  0.4778723E+02  0.7816164E-02  0.1312668E+00
        -11   -1    0    0    0    0  0.00000000000E+00  0.00000000000E+00  0.45593999997E+02  0.45594000000E+02  0.51100000000E-03 0.  1.
         11   -1    0    0    0    0 -0.00000000000E+00 -0.00000000000E+00 -0.45593999997E+02  0.45594000000E+02  0.51100000000E-03 0. -1.
    9900012    2    1    2    0    0  0.23181305193E+01  0.18281441316E+02 -0.39294301175E+02  0.47787228918E+02  0.19999807929E+02 0.  0.
        -12    1    1    2    0    0 -0.23181305193E+01 -0.18281441316E+02  0.39294301175E+02  0.43400771082E+02  0.00000000000E+00 0.  1.
         11    1    3    3    0    0  0.43636424800E+01  0.37933378536E+01 -0.59529868578E+01  0.82987252368E+01  0.51100000000E-03 0. -1.
        -11    1    3    3    0    0 -0.51884261134E+01  0.44108968590E+01 -0.31465698372E+01  0.75017783649E+01  0.51100000000E-03 0.  1.
        -12    1    3    3    0    0  0.31429141526E+01  0.10077206603E+02 -0.30194744480E+02  0.31986725317E+02  0.00000000000E+00 0.  1.
</event>
<event>
 7    1  0.3837332E-009  0.4778727E+02  0.7816164E-02  0.1312668E+00
        -11   -1    0    0    0    0  0.00000000000E+00  0.00000000000E+00  0.45593999997E+02  0.45594000000E+02  0.51100000000E-03 0.  1.
         11   -1    0    0    0    0 -0.00000000000E+00 -0.00000000000E+00 -0.45593999997E+02  0.45594000000E+02  0.51100000000E-03 0. -1.
    9900012    2    1    2    0    0  0.22542781854E+02  0.18803469373E+01 -0.37039310155E+02  0.47787271721E+02  0.20000003087E+02 0.  0.
        -12    1    1    2    0    0 -0.22542781854E+02 -0.18803469373E+01  0.37039310155E+02  0.43400728279E+02  0.00000000000E+00 0.  1.
         11    1    3    3    0    0  0.13602385496E+02 -0.25126470998E+01 -0.17334217433E+02  0.22176865895E+02  0.51100000000E-03 0. -1.
        -11    1    3    3    0    0  0.10347652818E+02  0.80307594272E+00 -0.19057665688E+02  0.21700540812E+02  0.51100000000E-03 0.  1.
        -12    1    3    3    0    0 -0.14072564598E+01  0.35899180943E+01 -0.64742703429E+00  0.39098650146E+01  0.00000000000E+00 0.  1.
</event>
<event>
 7    1  0.3837332E-009  0.4778727E+02  0.7816164E-02  0.1312668E+00
        -11   -1    0    0    0    0  0.00000000000E+00  0.00000000000E+00  0.45593999997E+02  0.45594000000E+02  0.51100000000E-03 0.  1.
         11   -1    0    0    0    0 -0.00000000000E+00 -0.00000000000E+00 -0.45593999997E+02  0.45594000000E+02  0.51100000000E-03 0. -1.
    9900012    2    1    2    0    0 -0.20849023291E+02  0.37469290229E+02  0.67077494716E+01  0.47787269759E+02  0.19999994140E+02 0.  0.
        -12    1    1    2    0    0  0.20849023291E+02 -0.37469290229E+02 -0.67077494716E+01  0.43400730241E+02  0.00000000000E+00 0.  1.
         11    1    3    3    0    0 -0.30269138203E+01  0.15650777992E+02  0.39507291397E+01  0.16423072795E+02  0.51100000000E-03 0. -1.
        -11    1    3    3    0    0 -0.43398421166E+01  0.15827301257E+02  0.34728753843E+00  0.16415185152E+02  0.51100000000E-03 0.  1.
        -12    1    3    3    0    0 -0.13482267354E+02  0.59912109796E+01  0.24097327934E+01  0.14949011812E+02  0.00000000000E+00 0.  1.
</event>
<event>
 7    1  0.3837332E-009  0.4778727E+02  0.7816164E-02  0.1312668E+00
        -11   -1    0    0    0    0  0.00000000000E+00  0.00000000000E+00  0.45593999997E+02  0.45594000000E+02  0.51100000000E-03 0.  1.
         11   -1    0    0    0    0 -0.00000000000E+00 -0.00000000000E+00 -0.45593999997E+02  0.45594000000E+02  0.51100000000E-03 0. -1.
    9900012    2    1    2    0    0 -0.19406104451E+02  0.25445551088E+02 -0.29318085547E+02  0.47787273045E+02  0.20000009119E+02 0.  0.
        -12    1    1    2    0    0  0.19406104451E+02 -0.25445551088E+02  0.29318085547E+02  0.43400726955E+02  0.00000000000E+00 0.  1.
         11    1    3    3    0    0 -0.13355726785E+02  0.15757130638E+02 -0.27172643589E+02  0.34132318465E+02  0.51100000000E-03 0. -1.
        -11    1    3    3    0    0 -0.15737620541E+01  0.70376313350E+01 -0.38569604435E+01  0.81780881589E+01  0.51100000000E-03 0.  1.
         12    1    3    3    0    0 -0.44766156116E+01  0.26507891148E+01  0.17115184857E+01  0.54768664208E+01  0.00000000000E+00 0. -1.
</event>
<event>
 7    1  0.3837332E-009  0.4778727E+02  0.7816164E-02  0.1312668E+00
        -11   -1    0    0    0    0  0.00000000000E+00  0.00000000000E+00  0.45593999997E+02  0.45594000000E+02  0.51100000000E-03 0.  1.
         11   -1    0    0    0    0 -0.00000000000E+00 -0.00000000000E+00 -0.45593999997E+02  0.45594000000E+02  0.51100000000E-03 0. -1.
    9900012    2    1    2    0    0  0.12867195773E+02  0.40170486709E+02 -0.10217183011E+02  0.47787267769E+02  0.19999985067E+02 0.  0.
        -12    1    1    2    0    0 -0.12867195773E+02 -0.40170486709E+02  0.10217183011E+02  0.43400732231E+02  0.00000000000E+00 0.  1.
         11    1    3    3    0    0  0.75750826191E+01  0.18465074153E+02 -0.10854459133E+02  0.22719157632E+02  0.51100000000E-03 0. -1.
        -11    1    3    3    0    0 -0.17550402363E+01  0.64770683903E+01 -0.37994464462E+01  0.77115740755E+01  0.51100000000E-03 0.  1.
         12    1    3    3    0    0  0.70471533903E+01  0.15228344165E+02  0.44367225679E+01  0.17356536062E+02  0.00000000000E+00 0. -1.
</event>
<event>
 7    1  0.4095393E-009  0.4778727E+02  0.7816164E-02  0.1312668E+00
        -11   -1    0    0    0    0  0.00000000000E+00  0.00000000000E+00  0.45593999997E+02  0.45594000000E+02  0.51100000000E-03 0. -1.
         11   -1    0    0    0    0 -0.00000000000E+00 -0.00000000000E+00 -0.45593999997E+02  0.45594000000E+02  0.51100000000E-03 0.  1.
    9900012    2    1    2    0    0 -0.29998941361E+02 -0.26135612780E+02  0.17338299296E+02  0.47787270045E+02  0.19999995442E+02 0.  0.
        -12    1    1    2    0    0  0.29998941361E+02  0.26135612780E+02 -0.17338299296E+02  0.43400729955E+02  0.00000000000E+00 0.  1.
         11    1    3    3    0    0 -0.78681228314E+01 -0.67475292523E+01  0.71847969563E+00  0.10390029896E+02  0.51100000000E-03 0. -1.
        -11    1    3    3    0    0  0.15000583414E+01  0.13478354046E+01  0.14895078888E+01  0.25070838273E+01  0.51100000000E-03 0.  1.
        -12    1    3    3    0    0 -0.23630876871E+02 -0.20735918932E+02  0.15130311711E+02  0.34890156322E+02  0.00000000000E+00 0.  1.
</event>
<event>
 7    1  0.3837332E-009  0.4778727E+02  0.7816164E-02  0.1312668E+00
        -11   -1    0    0    0    0  0.00000000000E+00  0.00000000000E+00  0.45593999997E+02  0.45594000000E+02  0.51100000000E-03 0.  1.
         11   -1    0    0    0    0 -0.00000000000E+00 -0.00000000000E+00 -0.45593999997E+02  0.45594000000E+02  0.51100000000E-03 0. -1.
    9900012    2    1    2    0    0 -0.22612753086E+01  0.24254238770E+01 -0.43273862183E+02  0.47787271950E+02  0.20000004130E+02 0.  0.
        -12    1    1    2    0    0  0.22612753086E+01 -0.24254238770E+01  0.43273862183E+02  0.43400728050E+02  0.00000000000E+00 0.  1.
         11    1    3    3    0    0 -0.22085260577E+01  0.22827267013E+01 -0.61910267412E+01  0.69582498455E+01  0.51100000000E-03 0. -1.
        -11    1    3    3    0    0 -0.51995549108E+01  0.77252219420E+00 -0.24312697469E+01  0.57916521524E+01  0.51100000000E-03 0.  1.
         12    1    3    3    0    0  0.51468056598E+01 -0.62982501853E+00 -0.34651565695E+02  0.35037369952E+02  0.00000000000E+00 0. -1.
</event>
<event>
 7    1  0.3837332E-009  0.4778727E+02  0.7816164E-02  0.1312668E+00
        -11   -1    0    0    0    0  0.00000000000E+00  0.00000000000E+00  0.45593999997E+02  0.45594000000E+02  0.51100000000E-03 0. -1.
         11   -1    0    0    0    0 -0.00000000000E+00 -0.00000000000E+00 -0.45593999997E+02  0.45594000000E+02  0.51100000000E-03 0.  1.
    9900012    2    1    2    0    0 -0.40214853458E+02 -0.11738588421E+02  0.11339941117E+02  0.47787272342E+02  0.20000005915E+02 0.  0.
        -12    1    1    2    0    0  0.40214853458E+02  0.11738588421E+02 -0.11339941117E+02  0.43400727658E+02  0.00000000000E+00 0.  1.
         11    1    3    3    0    0 -0.10163168063E+02 -0.44214312479E+01  0.78738670076E+01  0.13595470616E+02  0.51100000000E-03 0. -1.
        -11    1    3    3    0    0 -0.11989842846E+01 -0.48682219661E+01 -0.11325138182E+00  0.50149750311E+01  0.51100000000E-03 0.  1.
        -12    1    3    3    0    0 -0.28852701110E+02 -0.24489352073E+01  0.35793254912E+01  0.29176826695E+02  0.00000000000E+00 0.  1.
</event>
<event>
 7    1  0.3837332E-009  0.4778727E+02  0.7816164E-02  0.1312668E+00
        -11   -1    0    0    0    0  0.00000000000E+00  0.00000000000E+00  0.45593999997E+02  0.45594000000E+02  0.51100000000E-03 0.  1.
         11   -1    0    0    0    0 -0.00000000000E+00 -0.00000000000E+00 -0.45593999997E+02  0.45594000000E+02  0.51100000000E-03 0. -1.
    9900012    2    1    2    0    0 -0.10557505334E+02  0.40018952725E+02 -0.13063142892E+02  0.47787271915E+02  0.20000003968E+02 0.  0.
        -12    1    1    2    0    0  0.10557505334E+02 -0.40018952725E+02  0.13063142892E+02  0.43400728085E+02  0.00000000000E+00 0.  1.
         11    1    3    3    0    0 -0.45063774237E+01  0.28870113393E+01 -0.27062191329E+01  0.59971571777E+01  0.51100000000E-03 0. -1.
        -11    1    3    3    0    0 -0.24802095863E+01 -0.60487601306E+00 -0.28048416634E+00  0.25682652145E+01  0.51100000000E-03 0.  1.
        -12    1    3    3    0    0 -0.35709183244E+01  0.37736817399E+02 -0.10076439593E+02  0.39221849522E+02  0.00000000000E+00 0.  1.
</event>
<event>
 7    1  0.3837332E-009  0.4778727E+02  0.7816164E-02  0.1312668E+00
        -11   -1    0    0    0    0  0.00000000000E+00  0.00000000000E+00  0.45593999997E+02  0.45594000000E+02  0.51100000000E-03 0. -1.
         11   -1    0    0    0    0 -0.00000000000E+00 -0.00000000000E+00 -0.45593999997E+02  0.45594000000E+02  0.51100000000E-03 0.  1.
    9900012    2    1    2    0    0  0.23374947759E+02  0.19966232699E+02  0.30636333388E+02  0.47787267813E+02  0.19999985266E+02 0.  0.
        -12    1    1    2    0    0 -0.23374947759E+02 -0.19966232699E+02 -0.30636333388E+02  0.43400732187E+02  0.00000000000E+00 0.  1.
         11    1    3    3    0    0  0.84846520576E+01  0.96690079330E+00  0.62892877297E+01  0.10605628604E+02  0.51100000000E-03 0. -1.
        -11    1    3    3    0    0  0.14139551064E+02  0.94754744863E+01  0.94047092813E+01  0.19446338420E+02  0.51100000000E-03 0.  1.
         12    1    3    3    0    0  0.75074463769E+00  0.95238574193E+01  0.14942336377E+02  0.17735300788E+02  0.00000000000E+00 0. -1.
</event>
<event>
 7    1  0.3837332E-009  0.4778727E+02  0.7816164E-02  0.1312668E+00
        -11   -1    0    0    0    0  0.00000000000E+00  0.00000000000E+00  0.45593999997E+02  0.45594000000E+02  0.51100000000E-03 0. -1.
         11   -1    0    0    0    0 -0.00000000000E+00 -0.00000000000E+00 -0.45593999997E+02  0.45594000000E+02  0.51100000000E-03 0.  1.
    9900012    2    1    2    0    0  0.21083805777E+02  0.19735960821E+02  0.32397348350E+02  0.47787271945E+02  0.20000004108E+02 0.  0.
        -12    1    1    2    0    0 -0.21083805777E+02 -0.19735960821E+02 -0.32397348350E+02  0.43400728055E+02  0.00000000000E+00 0.  1.
         11    1    3    3    0    0  0.10092255639E+01 -0.55528264028E+00  0.31653679148E+01  0.33684461324E+01  0.51100000000E-03 0. -1.
        -11    1    3    3    0    0 -0.24509438073E+00  0.11113480661E+02  0.10649451734E+02  0.15394165978E+02  0.51100000000E-03 0.  1.
         12    1    3    3    0    0  0.20319674594E+02  0.91777628001E+01  0.18582528701E+02  0.29024659835E+02  0.00000000000E+00 0. -1.
</event>
<event>
 7    1  0.3837332E-009  0.4778727E+02  0.7816164E-02  0.1312668E+00
        -11   -1    0    0    0    0  0.00000000000E+00  0.00000000000E+00  0.45593999997E+02  0.45594000000E+02  0.51100000000E-03 0.  1.
         11   -1    0    0    0    0 -0.00000000000E+00 -0.00000000000E+00 -0.45593999997E+02  0.45594000000E+02  0.51100000000E-03 0. -1.
    9900012    2    1    2    0    0  0.60592922945E+01  0.11632039460E+02 -0.41371537023E+02  0.47787269122E+02  0.19999991237E+02 0.  0.
        -12    1    1    2    0    0 -0.60592922945E+01 -0.11632039460E+02  0.41371537023E+02  0.43400730878E+02  0.00000000000E+00 0.  1.
         11    1    3    3    0    0  0.81550009874E+01  0.56443796182E+01 -0.23302217938E+02  0.25325015765E+02  0.51100000000E-03 0. -1.
        -11    1    3    3    0    0  0.23292097365E+01  0.87724459501E+00 -0.14699973941E+02  0.14909192138E+02  0.51100000000E-03 0.  1.
        -12    1    3    3    0    0 -0.44249184294E+01  0.51104152464E+01 -0.33693451433E+01  0.75530612199E+01  0.00000000000E+00 0.  1.
</event>
<event>
 7    1  0.3837332E-009  0.4778728E+02  0.7816164E-02  0.1312668E+00
        -11   -1    0    0    0    0  0.00000000000E+00  0.00000000000E+00  0.45593999997E+02  0.45594000000E+02  0.51100000000E-03 0.  1.
         11   -1    0    0    0    0 -0.00000000000E+00 -0.00000000000E+00 -0.45593999997E+02  0.45594000000E+02  0.51100000000E-03 0. -1.
    9900012    2    1    2    0    0 -0.15135701397E+02  0.27264563465E+02 -0.30185707644E+02  0.47787276230E+02  0.20000023645E+02 0.  0.
        -12    1    1    2    0    0  0.15135701397E+02 -0.27264563465E+02  0.30185707644E+02  0.43400723770E+02  0.00000000000E+00 0.  1.
         11    1    3    3    0    0 -0.84408440462E+01  0.12600112677E+02 -0.28307303486E+01  0.15428017444E+02  0.51100000000E-03 0. -1.
        -11    1    3    3    0    0 -0.44078371982E+01  0.55814590545E+01 -0.16824244768E+02  0.18265730925E+02  0.51100000000E-03 0.  1.
         12    1    3    3    0    0 -0.22870201527E+01  0.90829917335E+01 -0.10530732528E+02  0.14093527862E+02  0.00000000000E+00 0. -1.
</event>
<event>
 7    1  0.3837332E-009  0.4778727E+02  0.7816164E-02  0.1312668E+00
        -11   -1    0    0    0    0  0.00000000000E+00  0.00000000000E+00  0.45593999997E+02  0.45594000000E+02  0.51100000000E-03 0. -1.
         11   -1    0    0    0    0 -0.00000000000E+00 -0.00000000000E+00 -0.45593999997E+02  0.45594000000E+02  0.51100000000E-03 0.  1.
    9900012    2    1    2    0    0  0.40153871510E+02 -0.10449132151E+02  0.12732078368E+02  0.47787267524E+02  0.19999983947E+02 0.  0.
        -12    1    1    2    0    0 -0.40153871510E+02  0.10449132151E+02 -0.12732078368E+02  0.43400732476E+02  0.00000000000E+00 0.  1.
         11    1    3    3    0    0  0.14806772504E+02 -0.59309443604E+01 -0.37947303449E+00  0.15954955751E+02  0.51100000000E-03 0. -1.
        -11    1    3    3    0    0  0.25173591558E+01  0.28805202472E+01 -0.10497405555E+01  0.39669193979E+01  0.51100000000E-03 0.  1.
        -12    1    3    3    0    0  0.22829739850E+02 -0.73987080380E+01  0.14161291958E+02  0.27865392374E+02  0.00000000000E+00 0.  1.
</event>
<event>
 7    1  0.3837332E-009  0.4778728E+02  0.7816164E-02  0.1312668E+00
        -11   -1    0    0    0    0  0.00000000000E+00  0.00000000000E+00  0.45593999997E+02  0.45594000000E+02  0.51100000000E-03 0.  1.
         11   -1    0    0    0    0 -0.00000000000E+00 -0.00000000000E+00 -0.45593999997E+02  0.45594000000E+02  0.51100000000E-03 0. -1.
    9900012    2    1    2    0    0 -0.17573443878E+02 -0.67254293050E+01 -0.39109657832E+02  0.47787278061E+02  0.20000031993E+02 0.  0.
        -12    1    1    2    0    0  0.17573443878E+02  0.67254293050E+01  0.39109657832E+02  0.43400721939E+02  0.00000000000E+00 0.  1.
         11    1    3    3    0    0 -0.26091463732E+01 -0.23027324578E+01 -0.19983746699E+02  0.20284485548E+02  0.51100000000E-03 0. -1.
        -11    1    3    3    0    0 -0.81961655384E+01  0.35286112908E+01 -0.11582270878E+02  0.14621122602E+02  0.51100000000E-03 0.  1.
        -12    1    3    3    0    0 -0.67681319662E+01 -0.79513081380E+01 -0.75436402546E+01  0.12881669911E+02  0.00000000000E+00 0.  1.
</event>
<event>
 7    1  0.3837332E-009  0.4778727E+02  0.7816164E-02  0.1312668E+00
        -11   -1    0    0    0    0  0.00000000000E+00  0.00000000000E+00  0.45593999997E+02  0.45594000000E+02  0.51100000000E-03 0.  1.
         11   -1    0    0    0    0 -0.00000000000E+00 -0.00000000000E+00 -0.45593999997E+02  0.45594000000E+02  0.51100000000E-03 0. -1.
    9900012    2    1    2    0    0 -0.30037720250E+02  0.12208448806E+02 -0.28849829597E+02  0.47787268119E+02  0.19999986660E+02 0.  0.
        -12    1    1    2    0    0  0.30037720250E+02 -0.12208448806E+02  0.28849829597E+02  0.43400731881E+02  0.00000000000E+00 0.  1.
         11    1    3    3    0    0 -0.18329076697E+02  0.32212192223E+01 -0.13726249320E+02  0.23124472459E+02  0.51100000000E-03 0. -1.
        -11    1    3    3    0    0 -0.14288955573E+02  0.81130431303E+01 -0.14388755165E+02  0.21841062146E+02  0.51100000000E-03 0.  1.
        -12    1    3    3    0    0  0.25803120201E+01  0.87418645372E+00 -0.73482511150E+00  0.28217335135E+01  0.00000000000E+00 0.  1.
</event>
<event>
 7    1  0.3837332E-009  0.4778726E+02  0.7816164E-02  0.1312668E+00
        -11   -1    0    0    0    0  0.00000000000E+00  0.00000000000E+00  0.45593999997E+02  0.45594000000E+02  0.51100000000E-03 0.  1.
         11   -1    0    0    0    0 -0.00000000000E+00 -0.00000000000E+00 -0.45593999997E+02  0.45594000000E+02  0.51100000000E-03 0. -1.
    9900012    2    1    2    0    0  0.75194448793E+01  0.42744317678E+02  0.73972390623E-01  0.47787260180E+02  0.19999950464E+02 0.  0.
        -12    1    1    2    0    0 -0.75194448793E+01 -0.42744317678E+02 -0.73972390623E-01  0.43400739820E+02  0.00000000000E+00 0.  1.
         11    1    3    3    0    0 -0.34803083585E+00 -0.44140999495E+00 -0.24884958192E+00  0.61473134123E+00  0.51100000000E-03 0. -1.
        -11    1    3    3    0    0  0.33787340467E+01  0.12075851360E+01  0.32669655560E+01  0.48525426144E+01  0.51100000000E-03 0.  1.
         12    1    3    3    0    0  0.44887416685E+01  0.41978142537E+02 -0.29441435835E+01  0.42319986224E+02  0.00000000000E+00 0. -1.
</event>
<event>
 7    1  0.3837332E-009  0.4778727E+02  0.7816164E-02  0.1312668E+00
        -11   -1    0    0    0    0  0.00000000000E+00  0.00000000000E+00  0.45593999997E+02  0.45594000000E+02  0.51100000000E-03 0.  1.
         11   -1    0    0    0    0 -0.00000000000E+00 -0.00000000000E+00 -0.45593999997E+02  0.45594000000E+02  0.51100000000E-03 0. -1.
    9900012    2    1    2    0    0 -0.17126434955E+02 -0.16360857175E+02 -0.36367988521E+02  0.47787274074E+02  0.20000013814E+02 0.  0.
        -12    1    1    2    0    0  0.17126434955E+02  0.16360857175E+02  0.36367988521E+02  0.43400725926E+02  0.00000000000E+00 0.  1.
         11    1    3    3    0    0 -0.37079762132E+01  0.10423945264E+01 -0.77811806851E+00  0.39295218457E+01  0.51100000000E-03 0. -1.
        -11    1    3    3    0    0  0.65346240148E+00 -0.83461562868E+00 -0.10943306595E+02  0.10994523903E+02  0.51100000000E-03 0.  1.
        -12    1    3    3    0    0 -0.14071921144E+02 -0.16568636073E+02 -0.24646563858E+02  0.32863228326E+02  0.00000000000E+00 0.  1.
</event>
<event>
 7    1  0.3837332E-009  0.4778727E+02  0.7816164E-02  0.1312668E+00
        -11   -1    0    0    0    0  0.00000000000E+00  0.00000000000E+00  0.45593999997E+02  0.45594000000E+02  0.51100000000E-03 0. -1.
         11   -1    0    0    0    0 -0.00000000000E+00 -0.00000000000E+00 -0.45593999997E+02  0.45594000000E+02  0.51100000000E-03 0.  1.
    9900012    2    1    2    0    0  0.37177973597E+02 -0.66198105105E+01  0.21391581538E+02  0.47787269906E+02  0.19999994811E+02 0.  0.
        -12    1    1    2    0    0 -0.37177973597E+02  0.66198105105E+01 -0.21391581538E+02  0.43400730094E+02  0.00000000000E+00 0.  1.
         11    1    3    3    0    0  0.64162681080E+01 -0.11151885001E+01  0.19176410822E+01  0.67889240242E+01  0.51100000000E-03 0. -1.
        -11    1    3    3    0    0  0.20766450807E+01 -0.66310210753E+01  0.14387043251E+01  0.70959682700E+01  0.51100000000E-03 0.  1.
         12    1    3    3    0    0  0.28685060408E+02  0.11263990650E+01  0.18035236131E+02  0.33902377612E+02  0.00000000000E+00 0. -1.
</event>
<event>
 7    1  0.3837332E-009  0.4778727E+02  0.7816164E-02  0.1312668E+00
        -11   -1    0    0    0    0  0.00000000000E+00  0.00000000000E+00  0.45593999997E+02  0.45594000000E+02  0.51100000000E-03 0.  1.
         11   -1    0    0    0    0 -0.00000000000E+00 -0.00000000000E+00 -0.45593999997E+02  0.45594000000E+02  0.51100000000E-03 0. -1.
    9900012    2    1    2    0    0 -0.20589935262E+02  0.32325608014E+02 -0.20364987231E+02  0.47787273364E+02  0.20000010577E+02 0.  0.
        -12    1    1    2    0    0  0.20589935262E+02 -0.32325608014E+02  0.20364987231E+02  0.43400726636E+02  0.00000000000E+00 0.  1.
         11    1    3    3    0    0 -0.43483941725E+01  0.17366236630E+02 -0.13733229845E+02  0.22563162650E+02  0.51100000000E-03 0. -1.
        -11    1    3    3    0    0 -0.71980626779E+01  0.12341221455E+02 -0.67664415746E+01  0.15808307473E+02  0.51100000000E-03 0.  1.
        -12    1    3    3    0    0 -0.90434784120E+01  0.26181499294E+01  0.13468418797E+00  0.94158032409E+01  0.00000000000E+00 0.  1.
</event>
<event>
 7    1  0.3837332E-009  0.4778727E+02  0.7816164E-02  0.1312668E+00
        -11   -1    0    0    0    0  0.00000000000E+00  0.00000000000E+00  0.45593999997E+02  0.45594000000E+02  0.51100000000E-03 0.  1.
         11   -1    0    0    0    0 -0.00000000000E+00 -0.00000000000E+00 -0.45593999997E+02  0.45594000000E+02  0.51100000000E-03 0. -1.
    9900012    2    1    2    0    0 -0.43006735041E+02 -0.24437779484E+01 -0.52982705949E+01  0.47787274420E+02  0.20000015392E+02 0.  0.
        -12    1    1    2    0    0  0.43006735041E+02  0.24437779484E+01  0.52982705949E+01  0.43400725580E+02  0.00000000000E+00 0.  1.
         11    1    3    3    0    0 -0.82012860899E+01 -0.58913869880E+00 -0.60727624156E+01  0.10221869768E+02  0.51100000000E-03 0. -1.
        -11    1    3    3    0    0 -0.41629211060E+01 -0.52638225557E+01 -0.26565971324E+00  0.67162724317E+01  0.51100000000E-03 0.  1.
        -12    1    3    3    0    0 -0.30642527845E+02  0.34091833060E+01  0.10401515339E+01  0.30849132221E+02  0.00000000000E+00 0.  1.
</event>
<event>
 7    1  0.3837332E-009  0.4778725E+02  0.7816164E-02  0.1312668E+00
        -11   -1    0    0    0    0  0.00000000000E+00  0.00000000000E+00  0.45593999997E+02  0.45594000000E+02  0.51100000000E-03 0. -1.
         11   -1    0    0    0    0 -0.00000000000E+00 -0.00000000000E+00 -0.45593999997E+02  0.45594000000E+02  0.51100000000E-03 0.  1.
    9900012    2    1    2    0    0 -0.35607467432E+02 -0.16549901408E+02  0.18488757069E+02  0.47787249874E+02  0.19999903476E+02 0.  0.
        -12    1    1    2    0    0  0.35607467432E+02  0.16549901408E+02 -0.18488757069E+02  0.43400750126E+02  0.00000000000E+00 0.  1.
         11    1    3    3    0    0 -0.70220443530E+01  0.22311006155E+01  0.17403580686E+01  0.75707174904E+01  0.51100000000E-03 0. -1.
        -11    1    3    3    0    0 -0.42498970252E+01 -0.55004137404E+01 -0.13872877199E+01  0.70880705075E+01  0.51100000000E-03 0.  1.
         12    1    3    3    0    0 -0.24335526054E+02 -0.13280588283E+02  0.18135686721E+02  0.33128461876E+02  0.00000000000E+00 0. -1.
</event>
<event>
 7    1  0.3837332E-009  0.4778727E+02  0.7816164E-02  0.1312668E+00
        -11   -1    0    0    0    0  0.00000000000E+00  0.00000000000E+00  0.45593999997E+02  0.45594000000E+02  0.51100000000E-03 0. -1.
         11   -1    0    0    0    0 -0.00000000000E+00 -0.00000000000E+00 -0.45593999997E+02  0.45594000000E+02  0.51100000000E-03 0.  1.
    9900012    2    1    2    0    0  0.20923419478E+02 -0.36140127578E+02  0.11820521868E+02  0.47787273724E+02  0.20000012218E+02 0.  0.
        -12    1    1    2    0    0 -0.20923419478E+02  0.36140127578E+02 -0.11820521868E+02  0.43400726276E+02  0.00000000000E+00 0.  1.
         11    1    3    3    0    0  0.37304215985E+01 -0.96865556146E+01  0.36808631490E+01  0.11013362736E+02  0.51100000000E-03 0. -1.
        -11    1    3    3    0    0 -0.19407188083E+01 -0.61485229552E+01 -0.24986698910E+01  0.69147722674E+01  0.51100000000E-03 0.  1.
        -12    1    3    3    0    0  0.19133716688E+02 -0.20305049009E+02  0.10638328610E+02  0.29859138721E+02  0.00000000000E+00 0.  1.
</event>
<event>
 7    1  0.3837332E-009  0.4778727E+02  0.7816164E-02  0.1312668E+00
        -11   -1    0    0    0    0  0.00000000000E+00  0.00000000000E+00  0.45593999997E+02  0.45594000000E+02  0.51100000000E-03 0.  1.
         11   -1    0    0    0    0 -0.00000000000E+00 -0.00000000000E+00 -0.45593999997E+02  0.45594000000E+02  0.51100000000E-03 0. -1.
    9900012    2    1    2    0    0  0.19658980645E+02  0.24120831829E+02 -0.30254474757E+02  0.47787270848E+02  0.19999999103E+02 0.  0.
        -12    1    1    2    0    0 -0.19658980645E+02 -0.24120831829E+02  0.30254474757E+02  0.43400729152E+02  0.00000000000E+00 0.  1.
         11    1    3    3    0    0  0.78109396353E-01  0.87431509641E+00 -0.64126015234E+00  0.10870799463E+01  0.51100000000E-03 0. -1.
        -11    1    3    3    0    0  0.10937223651E+02  0.74101929582E+01 -0.24684401548E+02  0.27997383823E+02  0.51100000000E-03 0.  1.
        -12    1    3    3    0    0  0.86436475978E+01  0.15836323774E+02 -0.49288130570E+01  0.18702807079E+02  0.00000000000E+00 0.  1.
</event>
<event>
 7    1  0.3837332E-009  0.4778731E+02  0.7816164E-02  0.1312668E+00
        -11   -1    0    0    0    0  0.00000000000E+00  0.00000000000E+00  0.45593999997E+02  0.45594000000E+02  0.51100000000E-03 0. -1.
         11   -1    0    0    0    0 -0.00000000000E+00 -0.00000000000E+00 -0.45593999997E+02  0.45594000000E+02  0.51100000000E-03 0.  1.
    9900012    2    1    2    0    0 -0.39499459504E+02 -0.13679693393E+02 -0.11673858493E+02  0.47787305483E+02  0.20000157019E+02 0.  0.
        -12    1    1    2    0    0  0.39499459504E+02  0.13679693393E+02  0.11673858493E+02  0.43400694517E+02  0.00000000000E+00 0.  1.
         11    1    3    3    0    0 -0.63713431358E+01 -0.25273630646E+01  0.20428212143E+01  0.71522511274E+01  0.51100000000E-03 0. -1.
        -11    1    3    3    0    0 -0.29617710114E+02 -0.10732093700E+02 -0.58916116983E+01  0.32048364643E+02  0.51100000000E-03 0.  1.
        -12    1    3    3    0    0 -0.35104062540E+01 -0.42023662842E+00 -0.78250680086E+01  0.85866897133E+01  0.00000000000E+00 0.  1.
</event>
<event>
 7    1  0.3837332E-009  0.4778727E+02  0.7816164E-02  0.1312668E+00
        -11   -1    0    0    0    0  0.00000000000E+00  0.00000000000E+00  0.45593999997E+02  0.45594000000E+02  0.51100000000E-03 0.  1.
         11   -1    0    0    0    0 -0.00000000000E+00 -0.00000000000E+00 -0.45593999997E+02  0.45594000000E+02  0.51100000000E-03 0. -1.
    9900012    2    1    2    0    0  0.28921551584E+02  0.25514615185E+02 -0.19904071013E+02  0.47787265249E+02  0.19999973577E+02 0.  0.
        -12    1    1    2    0    0 -0.28921551584E+02 -0.25514615185E+02  0.19904071013E+02  0.43400734751E+02  0.00000000000E+00 0.  1.
         11    1    3    3    0    0  0.91456274690E+01  0.16909305751E+02 -0.42037920342E+01  0.19678388921E+02  0.51100000000E-03 0. -1.
        -11    1    3    3    0    0  0.62595071363E+01  0.70287787867E+01 -0.42614093883E+01  0.10331736111E+02  0.51100000000E-03 0.  1.
        -12    1    3    3    0    0  0.13516416978E+02  0.15765306466E+01 -0.11438869590E+02  0.17777140218E+02  0.00000000000E+00 0.  1.
</event>
<event>
 7    1  0.3837332E-009  0.4778727E+02  0.7816164E-02  0.1312668E+00
        -11   -1    0    0    0    0  0.00000000000E+00  0.00000000000E+00  0.45593999997E+02  0.45594000000E+02  0.51100000000E-03 0.  1.
         11   -1    0    0    0    0 -0.00000000000E+00 -0.00000000000E+00 -0.45593999997E+02  0.45594000000E+02  0.51100000000E-03 0. -1.
    9900012    2    1    2    0    0 -0.23642187335E+02 -0.29785922370E+02 -0.20915760809E+02  0.47787271393E+02  0.20000001587E+02 0.  0.
        -12    1    1    2    0    0  0.23642187335E+02  0.29785922370E+02  0.20915760809E+02  0.43400728607E+02  0.00000000000E+00 0.  1.
         11    1    3    3    0    0 -0.83165590725E+00 -0.69983980946E+01 -0.49910457010E+01  0.86359576707E+01  0.51100000000E-03 0. -1.
        -11    1    3    3    0    0 -0.22114980223E+02 -0.12515533825E+02 -0.10294898807E+02  0.27417072763E+02  0.51100000000E-03 0.  1.
        -12    1    3    3    0    0 -0.69555120494E+00 -0.10271990450E+02 -0.56298163016E+01  0.11734240959E+02  0.00000000000E+00 0.  1.
</event>
<event>
 7    1  0.3837332E-009  0.4778727E+02  0.7816164E-02  0.1312668E+00
        -11   -1    0    0    0    0  0.00000000000E+00  0.00000000000E+00  0.45593999997E+02  0.45594000000E+02  0.51100000000E-03 0.  1.
         11   -1    0    0    0    0 -0.00000000000E+00 -0.00000000000E+00 -0.45593999997E+02  0.45594000000E+02  0.51100000000E-03 0. -1.
    9900012    2    1    2    0    0  0.32468523042E+02  0.23209788790E+02 -0.17050633936E+02  0.47787269570E+02  0.19999993278E+02 0.  0.
        -12    1    1    2    0    0 -0.32468523042E+02 -0.23209788790E+02  0.17050633936E+02  0.43400730430E+02  0.00000000000E+00 0.  1.
         11    1    3    3    0    0  0.11421638429E+02  0.96412690615E+01 -0.59466447900E+01  0.16086344459E+02  0.51100000000E-03 0. -1.
        -11    1    3    3    0    0  0.13098969105E+02  0.27217261777E+01  0.12545237137E+01  0.13437433349E+02  0.51100000000E-03 0.  1.
         12    1    3    3    0    0  0.79479155082E+01  0.10846793551E+02 -0.12358512859E+02  0.18263491762E+02  0.00000000000E+00 0. -1.
</event>
<event>
 7    1  0.3837332E-009  0.4778727E+02  0.7816164E-02  0.1312668E+00
        -11   -1    0    0    0    0  0.00000000000E+00  0.00000000000E+00  0.45593999997E+02  0.45594000000E+02  0.51100000000E-03 0. -1.
         11   -1    0    0    0    0 -0.00000000000E+00 -0.00000000000E+00 -0.45593999997E+02  0.45594000000E+02  0.51100000000E-03 0.  1.
    9900012    2    1    2    0    0  0.36745023153E+02  0.21215443837E+02  0.91286176170E+01  0.47787269093E+02  0.19999991101E+02 0.  0.
        -12    1    1    2    0    0 -0.36745023153E+02 -0.21215443837E+02 -0.91286176170E+01  0.43400730907E+02  0.00000000000E+00 0.  1.
         11    1    3    3    0    0  0.10676118118E+02  0.58672864334E+01  0.95808577680E+01  0.15498302617E+02  0.51100000000E-03 0. -1.
        -11    1    3    3    0    0  0.16899128028E+02  0.36144133439E+01  0.11010983712E+01  0.17316377502E+02  0.51100000000E-03 0.  1.
         12    1    3    3    0    0  0.91697770069E+01  0.11733744060E+02 -0.15533385222E+01  0.14972588974E+02  0.00000000000E+00 0. -1.
</event>
<event>
 7    1  0.3837332E-009  0.4778727E+02  0.7816164E-02  0.1312668E+00
        -11   -1    0    0    0    0  0.00000000000E+00  0.00000000000E+00  0.45593999997E+02  0.45594000000E+02  0.51100000000E-03 0.  1.
         11   -1    0    0    0    0 -0.00000000000E+00 -0.00000000000E+00 -0.45593999997E+02  0.45594000000E+02  0.51100000000E-03 0. -1.
    9900012    2    1    2    0    0 -0.21593997881E+02 -0.37494505068E+02 -0.33889291846E+01  0.47787268488E+02  0.19999988344E+02 0.  0.
        -12    1    1    2    0    0  0.21593997881E+02  0.37494505068E+02  0.33889291846E+01  0.43400731512E+02  0.00000000000E+00 0.  1.
         11    1    3    3    0    0 -0.54821398088E+01 -0.16027066324E+02 -0.33593393546E+01  0.17268638423E+02  0.51100000000E-03 0. -1.
        -11    1    3    3    0    0 -0.86177769593E+01 -0.15687339326E+02  0.64760357604E+01  0.19034120265E+02  0.51100000000E-03 0.  1.
         12    1    3    3    0    0 -0.74940811127E+01 -0.57800994182E+01 -0.65056255903E+01  0.11484509799E+02  0.00000000000E+00 0. -1.
</event>
<event>
 7    1  0.3837332E-009  0.4778726E+02  0.7816164E-02  0.1312668E+00
        -11   -1    0    0    0    0  0.00000000000E+00  0.00000000000E+00  0.45593999997E+02  0.45594000000E+02  0.51100000000E-03 0.  1.
         11   -1    0    0    0    0 -0.00000000000E+00 -0.00000000000E+00 -0.45593999997E+02  0.45594000000E+02  0.51100000000E-03 0. -1.
    9900012    2    1    2    0    0 -0.41400775467E+02  0.12093562371E+02 -0.48317286826E+01  0.47787261963E+02  0.19999958593E+02 0.  0.
        -12    1    1    2    0    0  0.41400775467E+02 -0.12093562371E+02  0.48317286826E+01  0.43400738037E+02  0.00000000000E+00 0.  1.
         11    1    3    3    0    0 -0.18142504250E+02  0.76288631321E+01 -0.43639710678E+01  0.20159222626E+02  0.51100000000E-03 0. -1.
        -11    1    3    3    0    0 -0.97697772201E+01 -0.32083029072E+00 -0.68713769311E+01  0.11948527114E+02  0.51100000000E-03 0.  1.
        -12    1    3    3    0    0 -0.13488493997E+02  0.47855295296E+01  0.64036193163E+01  0.15679512223E+02  0.00000000000E+00 0.  1.
</event>
<event>
 7    1  0.3837332E-009  0.4778727E+02  0.7816164E-02  0.1312668E+00
        -11   -1    0    0    0    0  0.00000000000E+00  0.00000000000E+00  0.45593999997E+02  0.45594000000E+02  0.51100000000E-03 0. -1.
         11   -1    0    0    0    0 -0.00000000000E+00 -0.00000000000E+00 -0.45593999997E+02  0.45594000000E+02  0.51100000000E-03 0.  1.
    9900012    2    1    2    0    0 -0.34057919505E+02 -0.87601129136E+01  0.25435048560E+02  0.47787272420E+02  0.20000006270E+02 0.  0.
        -12    1    1    2    0    0  0.34057919505E+02  0.87601129136E+01 -0.25435048560E+02  0.43400727580E+02  0.00000000000E+00 0.  1.
         11    1    3    3    0    0 -0.29156723898E+01 -0.35435096169E+01  0.39554512393E+00  0.46058725662E+01  0.51100000000E-03 0. -1.
        -11    1    3    3    0    0  0.12518349167E+01 -0.87494288747E+00 -0.60001012445E+00  0.16409229493E+01  0.51100000000E-03 0.  1.
         12    1    3    3    0    0 -0.32394082032E+02 -0.43416604092E+01  0.25639513561E+02  0.41540476904E+02  0.00000000000E+00 0. -1.
</event>
<event>
 7    1  0.3837332E-009  0.4778727E+02  0.7816164E-02  0.1312668E+00
        -11   -1    0    0    0    0  0.00000000000E+00  0.00000000000E+00  0.45593999997E+02  0.45594000000E+02  0.51100000000E-03 0. -1.
         11   -1    0    0    0    0 -0.00000000000E+00 -0.00000000000E+00 -0.45593999997E+02  0.45594000000E+02  0.51100000000E-03 0.  1.
    9900012    2    1    2    0    0  0.13865011694E+02 -0.60120596873E+00  0.41122053653E+02  0.47787270807E+02  0.19999998917E+02 0.  0.
        -12    1    1    2    0    0 -0.13865011694E+02  0.60120596873E+00 -0.41122053653E+02  0.43400729193E+02  0.00000000000E+00 0.  1.
         11    1    3    3    0    0  0.70980885182E+01 -0.59703138765E+01  0.14501656587E+02  0.17214109110E+02  0.51100000000E-03 0. -1.
        -11    1    3    3    0    0  0.32742627438E+00 -0.37667292935E+01  0.54465370710E+01  0.66302506637E+01  0.51100000000E-03 0.  1.
         12    1    3    3    0    0  0.64394969014E+01  0.91358372013E+01  0.21173859994E+02  0.23942911034E+02  0.00000000000E+00 0. -1.
</event>
<event>
 7    1  0.3837332E-009  0.4778727E+02  0.7816164E-02  0.1312668E+00
        -11   -1    0    0    0    0  0.00000000000E+00  0.00000000000E+00  0.45593999997E+02  0.45594000000E+02  0.51100000000E-03 0.  1.
         11   -1    0    0    0    0 -0.00000000000E+00 -0.00000000000E+00 -0.45593999997E+02  0.45594000000E+02  0.51100000000E-03 0. -1.
    9900012    2    1    2    0    0 -0.36097942367E+02  0.18332149817E+02 -0.15636298250E+02  0.47787274396E+02  0.20000015280E+02 0.  0.
        -12    1    1    2    0    0  0.36097942367E+02 -0.18332149817E+02  0.15636298250E+02  0.43400725604E+02  0.00000000000E+00 0.  1.
         11    1    3    3    0    0 -0.22030284098E+02  0.74352130103E+01 -0.38555002095E+01  0.23568637892E+02  0.51100000000E-03 0. -1.
        -11    1    3    3    0    0 -0.99171995015E+01  0.65729667176E+01 -0.10709955638E+01  0.11945784578E+02  0.51100000000E-03 0.  1.
        -12    1    3    3    0    0 -0.41504587673E+01  0.43239700888E+01 -0.10709802477E+02  0.12272851926E+02  0.00000000000E+00 0.  1.
</event>
<event>
 7    1  0.3837332E-009  0.4778727E+02  0.7816164E-02  0.1312668E+00
        -11   -1    0    0    0    0  0.00000000000E+00  0.00000000000E+00  0.45593999997E+02  0.45594000000E+02  0.51100000000E-03 0.  1.
         11   -1    0    0    0    0 -0.00000000000E+00 -0.00000000000E+00 -0.45593999997E+02  0.45594000000E+02  0.51100000000E-03 0. -1.
    9900012    2    1    2    0    0 -0.30362409692E+02 -0.84885866637E+01 -0.29827691406E+02  0.47787271890E+02  0.20000003856E+02 0.  0.
        -12    1    1    2    0    0  0.30362409692E+02  0.84885866637E+01  0.29827691406E+02  0.43400728110E+02  0.00000000000E+00 0.  1.
         11    1    3    3    0    0 -0.16513576028E+02 -0.79137452280E+01 -0.54548696680E+01  0.19107097114E+02  0.51100000000E-03 0. -1.
        -11    1    3    3    0    0 -0.37133113048E+01  0.25484829391E+01 -0.68632366938E+01  0.82089868019E+01  0.51100000000E-03 0.  1.
         12    1    3    3    0    0 -0.10135522359E+02 -0.31233243747E+01 -0.17509585044E+02  0.20471187974E+02  0.00000000000E+00 0. -1.
</event>
<event>
 7    1  0.3837332E-009  0.4778728E+02  0.7816164E-02  0.1312668E+00
        -11   -1    0    0    0    0  0.00000000000E+00  0.00000000000E+00  0.45593999997E+02  0.45594000000E+02  0.51100000000E-03 0. -1.
         11   -1    0    0    0    0 -0.00000000000E+00 -0.00000000000E+00 -0.45593999997E+02  0.45594000000E+02  0.51100000000E-03 0.  1.
    9900012    2    1    2    0    0  0.82297812088E+01  0.44974164960E+01  0.42375303148E+02  0.47787281448E+02  0.20000047435E+02 0.  0.
        -12    1    1    2    0    0 -0.82297812088E+01 -0.44974164960E+01 -0.42375303148E+02  0.43400718552E+02  0.00000000000E+00 0.  1.
         11    1    3    3    0    0  0.49099058200E+01  0.86405692560E+01  0.33477725911E+02  0.34921694470E+02  0.51100000000E-03 0. -1.
        -11    1    3    3    0    0  0.24022089225E+01  0.38187857896E+00 -0.41850681432E+00  0.24681140920E+01  0.51100000000E-03 0.  1.
        -12    1    3    3    0    0  0.91766646622E+00 -0.45250313389E+01  0.93160840521E+01  0.10397472887E+02  0.00000000000E+00 0.  1.
</event>
<event>
 7    1  0.3837332E-009  0.4778727E+02  0.7816164E-02  0.1312668E+00
        -11   -1    0    0    0    0  0.00000000000E+00  0.00000000000E+00  0.45593999997E+02  0.45594000000E+02  0.51100000000E-03 0.  1.
         11   -1    0    0    0    0 -0.00000000000E+00 -0.00000000000E+00 -0.45593999997E+02  0.45594000000E+02  0.51100000000E-03 0. -1.
    9900012    2    1    2    0    0  0.16715974898E+02  0.91289778076E+01 -0.38998222336E+02  0.47787269615E+02  0.19999993481E+02 0.  0.
        -12    1    1    2    0    0 -0.16715974898E+02 -0.91289778076E+01  0.38998222336E+02  0.43400730385E+02  0.00000000000E+00 0.  1.
         11    1    3    3    0    0  0.81271626856E+01  0.45219281594E+01 -0.57201668867E+01  0.10918741552E+02  0.51100000000E-03 0. -1.
        -11    1    3    3    0    0 -0.31182756170E+00 -0.18510898750E+01 -0.60625826114E-01  0.18781495961E+01  0.51100000000E-03 0.  1.
        -12    1    3    3    0    0  0.89006397745E+01  0.64581395232E+01 -0.33217429623E+02  0.34990378467E+02  0.00000000000E+00 0.  1.
</event>
<event>
 7    1  0.3837332E-009  0.4778724E+02  0.7816164E-02  0.1312668E+00
        -11   -1    0    0    0    0  0.00000000000E+00  0.00000000000E+00  0.45593999997E+02  0.45594000000E+02  0.51100000000E-03 0.  1.
         11   -1    0    0    0    0 -0.00000000000E+00 -0.00000000000E+00 -0.45593999997E+02  0.45594000000E+02  0.51100000000E-03 0. -1.
    9900012    2    1    2    0    0  0.21997648970E+02 -0.24158230414E+02  0.28567620343E+02  0.47787244373E+02  0.19999878393E+02 0.  0.
        -12    1    1    2    0    0 -0.21997648970E+02  0.24158230414E+02 -0.28567620343E+02  0.43400755627E+02  0.00000000000E+00 0.  1.
         11    1    3    3    0    0  0.32609124296E+01 -0.25143983584E+01  0.13994556566E+01  0.43490487896E+01  0.51100000000E-03 0. -1.
        -11    1    3    3    0    0  0.11004976278E+02 -0.19869555397E+02  0.27288544009E+02  0.35504554200E+02  0.51100000000E-03 0.  1.
        -12    1    3    3    0    0  0.77317602622E+01 -0.17742766587E+01 -0.12037932279E+00  0.79336413830E+01  0.00000000000E+00 0.  1.
</event>
<event>
 7    1  0.3837332E-009  0.4778727E+02  0.7816164E-02  0.1312668E+00
        -11   -1    0    0    0    0  0.00000000000E+00  0.00000000000E+00  0.45593999997E+02  0.45594000000E+02  0.51100000000E-03 0.  1.
         11   -1    0    0    0    0 -0.00000000000E+00 -0.00000000000E+00 -0.45593999997E+02  0.45594000000E+02  0.51100000000E-03 0. -1.
    9900012    2    1    2    0    0  0.46836451532E+01 -0.36924580533E+02 -0.22321784555E+02  0.47787271374E+02  0.20000001505E+02 0.  0.
        -12    1    1    2    0    0 -0.46836451532E+01  0.36924580533E+02  0.22321784555E+02  0.43400728626E+02  0.00000000000E+00 0.  1.
         11    1    3    3    0    0  0.62363593907E+01 -0.20266290735E+02 -0.17243114812E+02  0.27330198084E+02  0.51100000000E-03 0. -1.
        -11    1    3    3    0    0  0.42637068195E+01 -0.10020483277E+02 -0.17759103024E+01  0.11033727322E+02  0.51100000000E-03 0.  1.
         12    1    3    3    0    0 -0.58164210570E+01 -0.66378065212E+01 -0.33027594404E+01  0.94233459687E+01  0.00000000000E+00 0. -1.
</event>
<event>
 7    1  0.3837332E-009  0.4778727E+02  0.7816164E-02  0.1312668E+00
        -11   -1    0    0    0    0  0.00000000000E+00  0.00000000000E+00  0.45593999997E+02  0.45594000000E+02  0.51100000000E-03 0.  1.
         11   -1    0    0    0    0 -0.00000000000E+00 -0.00000000000E+00 -0.45593999997E+02  0.45594000000E+02  0.51100000000E-03 0. -1.
    9900012    2    1    2    0    0  0.53118957212E+01 -0.42941606849E+02  0.33801564761E+01  0.47787270827E+02  0.19999999010E+02 0.  0.
        -12    1    1    2    0    0 -0.53118957212E+01  0.42941606849E+02 -0.33801564761E+01  0.43400729173E+02  0.00000000000E+00 0.  1.
         11    1    3    3    0    0  0.12378162500E+01 -0.86831397420E+01  0.54792401154E+00  0.87880217246E+01  0.51100000000E-03 0. -1.
        -11    1    3    3    0    0  0.22453959902E+01  0.15104029998E+01  0.16390459150E+01  0.31637939483E+01  0.51100000000E-03 0.  1.
        -12    1    3    3    0    0  0.18286834810E+01 -0.35768870107E+02  0.11931865496E+01  0.35835455154E+02  0.00000000000E+00 0.  1.
</event>
<event>
 7    1  0.3837332E-009  0.4778727E+02  0.7816164E-02  0.1312668E+00
        -11   -1    0    0    0    0  0.00000000000E+00  0.00000000000E+00  0.45593999997E+02  0.45594000000E+02  0.51100000000E-03 0. -1.
         11   -1    0    0    0    0 -0.00000000000E+00 -0.00000000000E+00 -0.45593999997E+02  0.45594000000E+02  0.51100000000E-03 0.  1.
    9900012    2    1    2    0    0  0.43287221380E+02  0.16888506710E+01 -0.26433668706E+01  0.47787272589E+02  0.20000007044E+02 0.  0.
        -12    1    1    2    0    0 -0.43287221380E+02 -0.16888506710E+01  0.26433668706E+01  0.43400727411E+02  0.00000000000E+00 0.  1.
         11    1    3    3    0    0  0.49252025951E+01 -0.54514749404E+01 -0.29617245457E+01  0.79213642874E+01  0.51100000000E-03 0. -1.
        -11    1    3    3    0    0  0.91169791238E+01  0.34851797602E+01 -0.29902600502E+01  0.10208204628E+02  0.51100000000E-03 0.  1.
        -12    1    3    3    0    0  0.29245039661E+02  0.36551458511E+01  0.33086177254E+01  0.29657703674E+02  0.00000000000E+00 0.  1.
</event>
<event>
 7    1  0.3837332E-009  0.4778727E+02  0.7816164E-02  0.1312668E+00
        -11   -1    0    0    0    0  0.00000000000E+00  0.00000000000E+00  0.45593999997E+02  0.45594000000E+02  0.51100000000E-03 0. -1.
         11   -1    0    0    0    0 -0.00000000000E+00 -0.00000000000E+00 -0.45593999997E+02  0.45594000000E+02  0.51100000000E-03 0.  1.
    9900012    2    1    2    0    0 -0.40587764721E+02  0.15226687816E+02  0.20987396038E+01  0.47787269882E+02  0.19999994698E+02 0.  0.
        -12    1    1    2    0    0  0.40587764721E+02 -0.15226687816E+02 -0.20987396038E+01  0.43400730118E+02  0.00000000000E+00 0.  1.
         11    1    3    3    0    0 -0.14397133836E+02  0.34926453768E+01 -0.62310291208E+01  0.16071768994E+02  0.51100000000E-03 0. -1.
        -11    1    3    3    0    0  0.19008403668E+00  0.21040114959E+01 -0.68467249577E+00  0.22207595555E+01  0.51100000000E-03 0.  1.
         12    1    3    3    0    0 -0.26380714921E+02  0.96300309437E+01  0.90144412203E+01  0.29494741332E+02  0.00000000000E+00 0. -1.
</event>
<event>
 7    1  0.3837332E-009  0.4778727E+02  0.7816164E-02  0.1312668E+00
        -11   -1    0    0    0    0  0.00000000000E+00  0.00000000000E+00  0.45593999997E+02  0.45594000000E+02  0.51100000000E-03 0.  1.
         11   -1    0    0    0    0 -0.00000000000E+00 -0.00000000000E+00 -0.45593999997E+02  0.45594000000E+02  0.51100000000E-03 0. -1.
    9900012    2    1    2    0    0 -0.24264872050E+02 -0.17320283782E+02 -0.31541191583E+02  0.47787274057E+02  0.20000013736E+02 0.  0.
        -12    1    1    2    0    0  0.24264872050E+02  0.17320283782E+02  0.31541191583E+02  0.43400725943E+02  0.00000000000E+00 0.  1.
         11    1    3    3    0    0 -0.60891180574E+01 -0.48129237719E+01 -0.14310285156E+02  0.16279614721E+02  0.51100000000E-03 0. -1.
        -11    1    3    3    0    0 -0.11235531890E+02 -0.14333567096E+02 -0.15967463029E+02  0.24220821588E+02  0.51100000000E-03 0.  1.
        -12    1    3    3    0    0 -0.69402221027E+01  0.18262070851E+01 -0.12634433972E+01  0.72868377484E+01  0.00000000000E+00 0.  1.
</event>
<event>
 7    1  0.3837332E-009  0.4778727E+02  0.7816164E-02  0.1312668E+00
        -11   -1    0    0    0    0  0.00000000000E+00  0.00000000000E+00  0.45593999997E+02  0.45594000000E+02  0.51100000000E-03 0.  1.
         11   -1    0    0    0    0 -0.00000000000E+00 -0.00000000000E+00 -0.45593999997E+02  0.45594000000E+02  0.51100000000E-03 0. -1.
    9900012    2    1    2    0    0 -0.11444553778E+02  0.90137925087E+00 -0.41854903994E+02  0.47787270926E+02  0.19999999462E+02 0.  0.
        -12    1    1    2    0    0  0.11444553778E+02 -0.90137925087E+00  0.41854903994E+02  0.43400729074E+02  0.00000000000E+00 0.  1.
         11    1    3    3    0    0 -0.34165729987E+01 -0.36124703392E+01 -0.27792133177E+01  0.56962215488E+01  0.51100000000E-03 0. -1.
        -11    1    3    3    0    0  0.80278993626E+00 -0.94026360611E+00  0.37965156259E+00  0.12933301593E+01  0.51100000000E-03 0.  1.
         12    1    3    3    0    0 -0.88307707158E+01  0.54541131961E+01 -0.39455342239E+02  0.40797719218E+02  0.00000000000E+00 0. -1.
</event>
<event>
 7    1  0.3837332E-009  0.4778727E+02  0.7816164E-02  0.1312668E+00
        -11   -1    0    0    0    0  0.00000000000E+00  0.00000000000E+00  0.45593999997E+02  0.45594000000E+02  0.51100000000E-03 0.  1.
         11   -1    0    0    0    0 -0.00000000000E+00 -0.00000000000E+00 -0.45593999997E+02  0.45594000000E+02  0.51100000000E-03 0. -1.
    9900012    2    1    2    0    0  0.18385174092E+02  0.30147987082E+02 -0.25233064474E+02  0.47787270810E+02  0.19999998930E+02 0.  0.
        -12    1    1    2    0    0 -0.18385174092E+02 -0.30147987082E+02  0.25233064474E+02  0.43400729190E+02  0.00000000000E+00 0.  1.
         11    1    3    3    0    0  0.22586100546E+01  0.10515253473E+02 -0.49734928018E+01  0.11849367320E+02  0.51100000000E-03 0. -1.
        -11    1    3    3    0    0  0.14643252469E+01  0.10513158257E+02 -0.19896205138E+01  0.10799506240E+02  0.51100000000E-03 0.  1.
         12    1    3    3    0    0  0.14662238790E+02  0.91195753517E+01 -0.18269951159E+02  0.25138397250E+02  0.00000000000E+00 0. -1.
</event>
<event>
 7    1  0.3837332E-009  0.4778727E+02  0.7816164E-02  0.1312668E+00
        -11   -1    0    0    0    0  0.00000000000E+00  0.00000000000E+00  0.45593999997E+02  0.45594000000E+02  0.51100000000E-03 0.  1.
         11   -1    0    0    0    0 -0.00000000000E+00 -0.00000000000E+00 -0.45593999997E+02  0.45594000000E+02  0.51100000000E-03 0. -1.
    9900012    2    1    2    0    0 -0.88980062753E+01 -0.15101483170E+02 -0.39703831428E+02  0.47787267983E+02  0.19999986040E+02 0.  0.
        -12    1    1    2    0    0  0.88980062753E+01  0.15101483170E+02  0.39703831428E+02  0.43400732017E+02  0.00000000000E+00 0.  1.
         11    1    3    3    0    0 -0.74251794439E+01 -0.12902205240E+02 -0.19788575726E+02  0.24762631511E+02  0.51100000000E-03 0. -1.
        -11    1    3    3    0    0 -0.12381682818E+01 -0.64745873973E+01 -0.80151534450E+01  0.10377669665E+02  0.51100000000E-03 0.  1.
        -12    1    3    3    0    0 -0.23465854961E+00  0.42753094681E+01 -0.11900102257E+02  0.12646966807E+02  0.00000000000E+00 0.  1.
</event>
<event>
 7    1  0.3837332E-009  0.4778727E+02  0.7816164E-02  0.1312668E+00
        -11   -1    0    0    0    0  0.00000000000E+00  0.00000000000E+00  0.45593999997E+02  0.45594000000E+02  0.51100000000E-03 0.  1.
         11   -1    0    0    0    0 -0.00000000000E+00 -0.00000000000E+00 -0.45593999997E+02  0.45594000000E+02  0.51100000000E-03 0. -1.
    9900012    2    1    2    0    0  0.82640365338E+01  0.34896056872E+02 -0.24445743377E+02  0.47787268966E+02  0.19999990522E+02 0.  0.
        -12    1    1    2    0    0 -0.82640365338E+01 -0.34896056872E+02  0.24445743377E+02  0.43400731034E+02  0.00000000000E+00 0.  1.
         11    1    3    3    0    0  0.28861804193E+01  0.13384980746E+02 -0.46400165214E+01  0.14457437552E+02  0.51100000000E-03 0. -1.
        -11    1    3    3    0    0 -0.52010743733E+01  0.91946732389E+01 -0.81842981600E+01  0.13363230419E+02  0.51100000000E-03 0.  1.
         12    1    3    3    0    0  0.10578930488E+02  0.12316402887E+02 -0.11621428695E+02  0.19966600994E+02  0.00000000000E+00 0. -1.
</event>
<event>
 7    1  0.3837332E-009  0.4778728E+02  0.7816164E-02  0.1312668E+00
        -11   -1    0    0    0    0  0.00000000000E+00  0.00000000000E+00  0.45593999997E+02  0.45594000000E+02  0.51100000000E-03 0.  1.
         11   -1    0    0    0    0 -0.00000000000E+00 -0.00000000000E+00 -0.45593999997E+02  0.45594000000E+02  0.51100000000E-03 0. -1.
    9900012    2    1    2    0    0 -0.10379949652E+02  0.28812666371E+02 -0.30752393114E+02  0.47787276729E+02  0.20000025920E+02 0.  0.
        -12    1    1    2    0    0  0.10379949652E+02 -0.28812666371E+02  0.30752393114E+02  0.43400723271E+02  0.00000000000E+00 0.  1.
         11    1    3    3    0    0 -0.63950850721E+01  0.23099192933E+02 -0.19454854933E+02  0.30870069776E+02  0.51100000000E-03 0. -1.
        -11    1    3    3    0    0 -0.40918540920E+00  0.64963016142E+01 -0.18221801097E+01  0.67594162452E+01  0.51100000000E-03 0.  1.
        -12    1    3    3    0    0 -0.35756791707E+01 -0.78282817669E+00 -0.94753580720E+01  0.10157790709E+02  0.00000000000E+00 0.  1.
</event>
<event>
 7    1  0.3837332E-009  0.4778727E+02  0.7816164E-02  0.1312668E+00
        -11   -1    0    0    0    0  0.00000000000E+00  0.00000000000E+00  0.45593999997E+02  0.45594000000E+02  0.51100000000E-03 0.  1.
         11   -1    0    0    0    0 -0.00000000000E+00 -0.00000000000E+00 -0.45593999997E+02  0.45594000000E+02  0.51100000000E-03 0. -1.
    9900012    2    1    2    0    0  0.95092879683E+01 -0.28488403694E+02 -0.31330618862E+02  0.47787269810E+02  0.19999994373E+02 0.  0.
        -12    1    1    2    0    0 -0.95092879683E+01  0.28488403694E+02  0.31330618862E+02  0.43400730190E+02  0.00000000000E+00 0.  1.
         11    1    3    3    0    0 -0.16574213422E+01 -0.18535242335E+01 -0.46324417322E+01  0.52575768424E+01  0.51100000000E-03 0. -1.
        -11    1    3    3    0    0  0.68811834226E+01 -0.10906362864E+02 -0.22107462652E+02  0.25593736370E+02  0.51100000000E-03 0.  1.
         12    1    3    3    0    0  0.42855258880E+01 -0.15728516597E+02 -0.45907144786E+01  0.16935956598E+02  0.00000000000E+00 0. -1.
</event>
<event>
 7    1  0.3837332E-009  0.4778727E+02  0.7816164E-02  0.1312668E+00
        -11   -1    0    0    0    0  0.00000000000E+00  0.00000000000E+00  0.45593999997E+02  0.45594000000E+02  0.51100000000E-03 0.  1.
         11   -1    0    0    0    0 -0.00000000000E+00 -0.00000000000E+00 -0.45593999997E+02  0.45594000000E+02  0.51100000000E-03 0. -1.
    9900012    2    1    2    0    0 -0.77127898141E+01 -0.40099586415E+02 -0.14702353619E+02  0.47787272364E+02  0.20000006019E+02 0.  0.
        -12    1    1    2    0    0  0.77127898141E+01  0.40099586415E+02  0.14702353619E+02  0.43400727636E+02  0.00000000000E+00 0.  1.
         11    1    3    3    0    0 -0.36867040666E+01 -0.34535835301E+02 -0.14309234296E+02  0.37564210270E+02  0.51100000000E-03 0. -1.
        -11    1    3    3    0    0 -0.17945592528E+01 -0.68035926207E+01  0.13060245188E+01  0.71564667096E+01  0.51100000000E-03 0.  1.
         12    1    3    3    0    0 -0.22315264947E+01  0.12398415069E+01 -0.16991438421E+01  0.30665953850E+01  0.00000000000E+00 0. -1.
</event>
<event>
 7    1  0.3837332E-009  0.4778727E+02  0.7816164E-02  0.1312668E+00
        -11   -1    0    0    0    0  0.00000000000E+00  0.00000000000E+00  0.45593999997E+02  0.45594000000E+02  0.51100000000E-03 0.  1.
         11   -1    0    0    0    0 -0.00000000000E+00 -0.00000000000E+00 -0.45593999997E+02  0.45594000000E+02  0.51100000000E-03 0. -1.
    9900012    2    1    2    0    0 -0.43081800628E+02  0.47843718684E+01 -0.21660108482E+01  0.47787270023E+02  0.19999995343E+02 0.  0.
        -12    1    1    2    0    0  0.43081800628E+02 -0.47843718684E+01  0.21660108482E+01  0.43400729977E+02  0.00000000000E+00 0.  1.
         11    1    3    3    0    0 -0.59696659668E+01 -0.21347699527E+01  0.57594788067E+01  0.85653809543E+01  0.51100000000E-03 0. -1.
        -11    1    3    3    0    0 -0.78723409738E+01  0.41110086952E+01 -0.35744033629E+00  0.88883017925E+01  0.51100000000E-03 0.  1.
         12    1    3    3    0    0 -0.29239793688E+02  0.28081331259E+01 -0.75680493187E+01  0.30333587276E+02  0.00000000000E+00 0. -1.
</event>
<event>
 7    1  0.3837332E-009  0.4778727E+02  0.7816164E-02  0.1312668E+00
        -11   -1    0    0    0    0  0.00000000000E+00  0.00000000000E+00  0.45593999997E+02  0.45594000000E+02  0.51100000000E-03 0.  1.
         11   -1    0    0    0    0 -0.00000000000E+00 -0.00000000000E+00 -0.45593999997E+02  0.45594000000E+02  0.51100000000E-03 0. -1.
    9900012    2    1    2    0    0 -0.11413017583E+01  0.16758857049E+01 -0.43353342061E+02  0.47787269240E+02  0.19999991774E+02 0.  0.
        -12    1    1    2    0    0  0.11413017583E+01 -0.16758857049E+01  0.43353342061E+02  0.43400730760E+02  0.00000000000E+00 0.  1.
         11    1    3    3    0    0  0.31714149518E+01 -0.11728412879E+01 -0.26549227988E+02  0.26763686900E+02  0.51100000000E-03 0. -1.
        -11    1    3    3    0    0 -0.48783310327E+00 -0.43520142077E+01 -0.46462720345E+01  0.63848142401E+01  0.51100000000E-03 0.  1.
         12    1    3    3    0    0 -0.38248836067E+01  0.72007412004E+01 -0.12157842039E+02  0.14638768100E+02  0.00000000000E+00 0. -1.
</event>
<event>
 7    1  0.3837332E-009  0.4778727E+02  0.7816164E-02  0.1312668E+00
        -11   -1    0    0    0    0  0.00000000000E+00  0.00000000000E+00  0.45593999997E+02  0.45594000000E+02  0.51100000000E-03 0. -1.
         11   -1    0    0    0    0 -0.00000000000E+00 -0.00000000000E+00 -0.45593999997E+02  0.45594000000E+02  0.51100000000E-03 0.  1.
    9900012    2    1    2    0    0 -0.42989401608E+02 -0.44078806357E+01  0.40131131790E+01  0.47787272590E+02  0.20000007046E+02 0.  0.
        -12    1    1    2    0    0  0.42989401608E+02  0.44078806357E+01 -0.40131131790E+01  0.43400727410E+02  0.00000000000E+00 0.  1.
         11    1    3    3    0    0 -0.16516514090E+01 -0.18544407929E+00  0.34604389862E+01  0.38388774560E+01  0.51100000000E-03 0. -1.
        -11    1    3    3    0    0 -0.21376026422E+02 -0.93455127478E+01 -0.86979542915E-01  0.23329823827E+02  0.51100000000E-03 0.  1.
         12    1    3    3    0    0 -0.19961723778E+02  0.51230761914E+01  0.63965373568E+00  0.20618571307E+02  0.00000000000E+00 0. -1.
</event>
<event>
 7    1  0.3837332E-009  0.4778728E+02  0.7816164E-02  0.1312668E+00
        -11   -1    0    0    0    0  0.00000000000E+00  0.00000000000E+00  0.45593999997E+02  0.45594000000E+02  0.51100000000E-03 0.  1.
         11   -1    0    0    0    0 -0.00000000000E+00 -0.00000000000E+00 -0.45593999997E+02  0.45594000000E+02  0.51100000000E-03 0. -1.
    9900012    2    1    2    0    0  0.17004114612E+02 -0.23407192171E+02 -0.32350982614E+02  0.47787278403E+02  0.20000033550E+02 0.  0.
        -12    1    1    2    0    0 -0.17004114612E+02  0.23407192171E+02  0.32350982614E+02  0.43400721597E+02  0.00000000000E+00 0.  1.
         11    1    3    3    0    0  0.12522598258E+02 -0.15960480984E+02 -0.18528238097E+02  0.27474497769E+02  0.51100000000E-03 0. -1.
        -11    1    3    3    0    0  0.92165100828E-01 -0.85232199443E+01 -0.13253240924E+02  0.15757606667E+02  0.51100000000E-03 0.  1.
         12    1    3    3    0    0  0.43893512532E+01  0.10765087577E+01 -0.56950359237E+00  0.45551739672E+01  0.00000000000E+00 0. -1.
</event>
<event>
 7    1  0.3837332E-009  0.4778727E+02  0.7816164E-02  0.1312668E+00
        -11   -1    0    0    0    0  0.00000000000E+00  0.00000000000E+00  0.45593999997E+02  0.45594000000E+02  0.51100000000E-03 0.  1.
         11   -1    0    0    0    0 -0.00000000000E+00 -0.00000000000E+00 -0.45593999997E+02  0.45594000000E+02  0.51100000000E-03 0. -1.
    9900012    2    1    2    0    0  0.33277232005E+02 -0.50876252181E+01 -0.27392793868E+02  0.47787271248E+02  0.20000000929E+02 0.  0.
        -12    1    1    2    0    0 -0.33277232005E+02  0.50876252181E+01  0.27392793868E+02  0.43400728752E+02  0.00000000000E+00 0.  1.
         11    1    3    3    0    0  0.31072479026E+01 -0.31458660093E+01 -0.66889536960E+01  0.80183267759E+01  0.51100000000E-03 0. -1.
        -11    1    3    3    0    0  0.79572351930E+01 -0.59937509941E+01 -0.13946932116E+01  0.10059215293E+02  0.51100000000E-03 0.  1.
        -12    1    3    3    0    0  0.22212748910E+02  0.40519917853E+01 -0.19309146961E+02  0.29709729179E+02  0.00000000000E+00 0.  1.
</event>
<event>
 7    1  0.3837332E-009  0.4778727E+02  0.7816164E-02  0.1312668E+00
        -11   -1    0    0    0    0  0.00000000000E+00  0.00000000000E+00  0.45593999997E+02  0.45594000000E+02  0.51100000000E-03 0.  1.
         11   -1    0    0    0    0 -0.00000000000E+00 -0.00000000000E+00 -0.45593999997E+02  0.45594000000E+02  0.51100000000E-03 0. -1.
    9900012    2    1    2    0    0 -0.74930004206E+01 -0.39954354784E+02 -0.15202888211E+02  0.47787270381E+02  0.19999996974E+02 0.  0.
        -12    1    1    2    0    0  0.74930004206E+01  0.39954354784E+02  0.15202888211E+02  0.43400729619E+02  0.00000000000E+00 0.  1.
         11    1    3    3    0    0 -0.88468653940E+01 -0.21308005377E+02 -0.91077514840E+01  0.24804218548E+02  0.51100000000E-03 0. -1.
        -11    1    3    3    0    0 -0.29277632334E+00 -0.72720046660E+01 -0.85528644275E+01  0.11230283167E+02  0.51100000000E-03 0.  1.
        -12    1    3    3    0    0  0.16466412968E+01 -0.11374344741E+02  0.24577277003E+01  0.11752768665E+02  0.00000000000E+00 0.  1.
</event>
<event>
 7    1  0.3837332E-009  0.4778727E+02  0.7816164E-02  0.1312668E+00
        -11   -1    0    0    0    0  0.00000000000E+00  0.00000000000E+00  0.45593999997E+02  0.45594000000E+02  0.51100000000E-03 0.  1.
         11   -1    0    0    0    0 -0.00000000000E+00 -0.00000000000E+00 -0.45593999997E+02  0.45594000000E+02  0.51100000000E-03 0. -1.
    9900012    2    1    2    0    0  0.21758873193E+02 -0.29561824851E+02 -0.23157575016E+02  0.47787270377E+02  0.19999996957E+02 0.  0.
        -12    1    1    2    0    0 -0.21758873193E+02  0.29561824851E+02  0.23157575016E+02  0.43400729623E+02  0.00000000000E+00 0.  1.
         11    1    3    3    0    0  0.78321384181E+01 -0.30141939030E+01 -0.10924930371E+02  0.13776133745E+02  0.51100000000E-03 0. -1.
        -11    1    3    3    0    0  0.40533765759E+01 -0.15552033675E+01 -0.40079192981E+01  0.59086323749E+01  0.51100000000E-03 0.  1.
         12    1    3    3    0    0  0.98733581987E+01 -0.24992427581E+02 -0.82247253476E+01  0.28102504258E+02  0.00000000000E+00 0. -1.
</event>
<event>
 7    1  0.3837332E-009  0.4778726E+02  0.7816164E-02  0.1312668E+00
        -11   -1    0    0    0    0  0.00000000000E+00  0.00000000000E+00  0.45593999997E+02  0.45594000000E+02  0.51100000000E-03 0.  1.
         11   -1    0    0    0    0 -0.00000000000E+00 -0.00000000000E+00 -0.45593999997E+02  0.45594000000E+02  0.51100000000E-03 0. -1.
    9900012    2    1    2    0    0  0.38262880608E+02  0.92774737875E+01 -0.18262113238E+02  0.47787258852E+02  0.19999944408E+02 0.  0.
        -12    1    1    2    0    0 -0.38262880608E+02 -0.92774737875E+01  0.18262113238E+02  0.43400741148E+02  0.00000000000E+00 0.  1.
         11    1    3    3    0    0  0.11358124900E+02  0.18580991585E+01 -0.12810030692E+02  0.17220813579E+02  0.51100000000E-03 0. -1.
        -11    1    3    3    0    0  0.16032212980E+02 -0.77720572999E+00 -0.54480135794E+01  0.16950420467E+02  0.51100000000E-03 0.  1.
        -12    1    3    3    0    0  0.10872542728E+02  0.81965803590E+01 -0.40689662358E-02  0.13616024806E+02  0.00000000000E+00 0.  1.
</event>
<event>
 7    1  0.3837332E-009  0.4778722E+02  0.7816164E-02  0.1312668E+00
        -11   -1    0    0    0    0  0.00000000000E+00  0.00000000000E+00  0.45593999997E+02  0.45594000000E+02  0.51100000000E-03 0. -1.
         11   -1    0    0    0    0 -0.00000000000E+00 -0.00000000000E+00 -0.45593999997E+02  0.45594000000E+02  0.51100000000E-03 0.  1.
    9900012    2    1    2    0    0 -0.27854179799E+01  0.29950683963E+02  0.31286190330E+02  0.47787219724E+02  0.19999766010E+02 0.  0.
        -12    1    1    2    0    0  0.27854179799E+01 -0.29950683963E+02 -0.31286190330E+02  0.43400780276E+02  0.00000000000E+00 0.  1.
         11    1    3    3    0    0 -0.19413687778E+01  0.46876806605E+01  0.14251165817E+02  0.15127425099E+02  0.51100000000E-03 0. -1.
        -11    1    3    3    0    0  0.27608986808E+01  0.17456167491E+01 -0.21308009960E+00  0.32733992654E+01  0.51100000000E-03 0.  1.
        -12    1    3    3    0    0 -0.36049478830E+01  0.23517386554E+02  0.17248104612E+02  0.29386395360E+02  0.00000000000E+00 0.  1.
</event>
<event>
 7    1  0.3837332E-009  0.4778727E+02  0.7816164E-02  0.1312668E+00
        -11   -1    0    0    0    0  0.00000000000E+00  0.00000000000E+00  0.45593999997E+02  0.45594000000E+02  0.51100000000E-03 0.  1.
         11   -1    0    0    0    0 -0.00000000000E+00 -0.00000000000E+00 -0.45593999997E+02  0.45594000000E+02  0.51100000000E-03 0. -1.
    9900012    2    1    2    0    0  0.27161382694E+02  0.33605761495E+02 -0.40663660448E+01  0.47787271339E+02  0.20000001342E+02 0.  0.
        -12    1    1    2    0    0 -0.27161382694E+02 -0.33605761495E+02  0.40663660448E+01  0.43400728661E+02  0.00000000000E+00 0.  1.
         11    1    3    3    0    0  0.10657196794E+02  0.25218728910E+02 -0.81171691543E+01  0.28556060069E+02  0.51100000000E-03 0. -1.
        -11    1    3    3    0    0  0.36518210944E+01  0.12267254536E+01 -0.36723256881E+00  0.38698207536E+01  0.51100000000E-03 0.  1.
         12    1    3    3    0    0  0.12852364806E+02  0.71603071309E+01  0.44180356783E+01  0.15361390516E+02  0.00000000000E+00 0. -1.
</event>
<event>
 7    1  0.3837332E-009  0.4778728E+02  0.7816164E-02  0.1312668E+00
        -11   -1    0    0    0    0  0.00000000000E+00  0.00000000000E+00  0.45593999997E+02  0.45594000000E+02  0.51100000000E-03 0.  1.
         11   -1    0    0    0    0 -0.00000000000E+00 -0.00000000000E+00 -0.45593999997E+02  0.45594000000E+02  0.51100000000E-03 0. -1.
    9900012    2    1    2    0    0  0.11658794424E+01  0.46860631951E+01 -0.43131245082E+02  0.47787276902E+02  0.20000026706E+02 0.  0.
        -12    1    1    2    0    0 -0.11658794424E+01 -0.46860631951E+01  0.43131245082E+02  0.43400723098E+02  0.00000000000E+00 0.  1.
         11    1    3    3    0    0  0.49293025196E+01 -0.15390008671E+01 -0.43224524013E+01  0.67342514077E+01  0.51100000000E-03 0.  1.
        -11    1    3    3    0    0 -0.30065029024E+01  0.76437293949E+01 -0.14296450328E+02  0.16488000212E+02  0.51100000000E-03 0. -1.
        -12    1    3    3    0    0 -0.75692017483E+00 -0.14186653327E+01 -0.24512342352E+02  0.24565025282E+02  0.00000000000E+00 0.  1.
</event>
<event>
 7    1  0.3837332E-009  0.4778727E+02  0.7816164E-02  0.1312668E+00
        -11   -1    0    0    0    0  0.00000000000E+00  0.00000000000E+00  0.45593999997E+02  0.45594000000E+02  0.51100000000E-03 0.  1.
         11   -1    0    0    0    0 -0.00000000000E+00 -0.00000000000E+00 -0.45593999997E+02  0.45594000000E+02  0.51100000000E-03 0. -1.
    9900012    2    1    2    0    0 -0.58061344389E+01  0.22572880891E+02 -0.36611160186E+02  0.47787271907E+02  0.20000003932E+02 0.  0.
        -12    1    1    2    0    0  0.58061344389E+01 -0.22572880891E+02  0.36611160186E+02  0.43400728093E+02  0.00000000000E+00 0.  1.
         11    1    3    3    0    0  0.18561998973E+01  0.88551653679E+01 -0.46343919825E+01  0.10165481841E+02  0.51100000000E-03 0. -1.
        -11    1    3    3    0    0  0.14023728698E+01  0.91858906028E+01 -0.19054058745E+02  0.21199160143E+02  0.51100000000E-03 0.  1.
         12    1    3    3    0    0 -0.90647072060E+01  0.45318249201E+01 -0.12922709459E+02  0.16422629923E+02  0.00000000000E+00 0. -1.
</event>
<event>
 7    1  0.3837332E-009  0.4778725E+02  0.7816164E-02  0.1312668E+00
        -11   -1    0    0    0    0  0.00000000000E+00  0.00000000000E+00  0.45593999997E+02  0.45594000000E+02  0.51100000000E-03 0. -1.
         11   -1    0    0    0    0 -0.00000000000E+00 -0.00000000000E+00 -0.45593999997E+02  0.45594000000E+02  0.51100000000E-03 0.  1.
    9900012    2    1    2    0    0  0.32724915653E+02 -0.19670317647E+02  0.20634519289E+02  0.47787252459E+02  0.19999915262E+02 0.  0.
        -12    1    1    2    0    0 -0.32724915653E+02  0.19670317647E+02 -0.20634519289E+02  0.43400747541E+02  0.00000000000E+00 0.  1.
         11    1    3    3    0    0  0.50830433246E+01 -0.74512155412E+01  0.24423934120E+01  0.93446898462E+01  0.51100000000E-03 0. -1.
        -11    1    3    3    0    0  0.10883371087E+02 -0.13162824911E+02  0.90223760336E+01  0.19316081264E+02  0.51100000000E-03 0.  1.
         12    1    3    3    0    0  0.16758501241E+02  0.94372280553E+00  0.91697498436E+01  0.19126481349E+02  0.00000000000E+00 0. -1.
</event>
<event>
 7    1  0.3837332E-009  0.4778727E+02  0.7816164E-02  0.1312668E+00
        -11   -1    0    0    0    0  0.00000000000E+00  0.00000000000E+00  0.45593999997E+02  0.45594000000E+02  0.51100000000E-03 0.  1.
         11   -1    0    0    0    0 -0.00000000000E+00 -0.00000000000E+00 -0.45593999997E+02  0.45594000000E+02  0.51100000000E-03 0. -1.
    9900012    2    1    2    0    0  0.91928863174E+01 -0.22413155336E+02 -0.36010615120E+02  0.47787273136E+02  0.20000009538E+02 0.  0.
        -12    1    1    2    0    0 -0.91928863174E+01  0.22413155336E+02  0.36010615120E+02  0.43400726864E+02  0.00000000000E+00 0.  1.
         11    1    3    3    0    0 -0.15580116140E+01  0.79277571585E+00 -0.45287882302E+01  0.48544635770E+01  0.51100000000E-03 0. -1.
        -11    1    3    3    0    0 -0.14406523967E+00 -0.31494522722E+01  0.93340305555E+00  0.32880155008E+01  0.51100000000E-03 0.  1.
         12    1    3    3    0    0  0.10894963171E+02 -0.20056478780E+02 -0.32415229945E+02  0.39644794059E+02  0.00000000000E+00 0. -1.
</event>
<event>
 7    1  0.3837332E-009  0.4778725E+02  0.7816164E-02  0.1312668E+00
        -11   -1    0    0    0    0  0.00000000000E+00  0.00000000000E+00  0.45593999997E+02  0.45594000000E+02  0.51100000000E-03 0. -1.
         11   -1    0    0    0    0 -0.00000000000E+00 -0.00000000000E+00 -0.45593999997E+02  0.45594000000E+02  0.51100000000E-03 0.  1.
    9900012    2    1    2    0    0 -0.16978736442E+02 -0.35313966527E+02  0.18662018924E+02  0.47787254921E+02  0.19999926487E+02 0.  0.
        -12    1    1    2    0    0  0.16978736442E+02  0.35313966527E+02 -0.18662018924E+02  0.43400745079E+02  0.00000000000E+00 0.  1.
         11    1    3    3    0    0 -0.26697549006E+00 -0.61786172180E+01 -0.18815772698E+01  0.64642803097E+01  0.51100000000E-03 0.  1.
        -11    1    3    3    0    0 -0.54879139987E+01 -0.35238864600E+01 -0.16969616013E+00  0.65240917290E+01  0.51100000000E-03 0. -1.
         12    1    3    3    0    0 -0.11223846954E+02 -0.25611462849E+02  0.20713292354E+02  0.34798882882E+02  0.00000000000E+00 0. -1.
</event>
<event>
 7    1  0.3837332E-009  0.4778727E+02  0.7816164E-02  0.1312668E+00
        -11   -1    0    0    0    0  0.00000000000E+00  0.00000000000E+00  0.45593999997E+02  0.45594000000E+02  0.51100000000E-03 0. -1.
         11   -1    0    0    0    0 -0.00000000000E+00 -0.00000000000E+00 -0.45593999997E+02  0.45594000000E+02  0.51100000000E-03 0.  1.
    9900012    2    1    2    0    0  0.11807682461E+01  0.11826281153E+02  0.41741683991E+02  0.47787270491E+02  0.19999997476E+02 0.  0.
        -12    1    1    2    0    0 -0.11807682461E+01 -0.11826281153E+02 -0.41741683991E+02  0.43400729509E+02  0.00000000000E+00 0.  1.
         11    1    3    3    0    0  0.33357183699E+01  0.50035172980E+01  0.80642980146E+01  0.10059577781E+02  0.51100000000E-03 0. -1.
        -11    1    3    3    0    0  0.55955716127E+01  0.23333648232E+01  0.55887613678E+01  0.82455604393E+01  0.51100000000E-03 0.  1.
        -12    1    3    3    0    0 -0.77505217365E+01  0.44893990319E+01  0.28088624608E+02  0.29482132271E+02  0.00000000000E+00 0.  1.
</event>
<event>
 7    1  0.3837332E-009  0.4778725E+02  0.7816164E-02  0.1312668E+00
        -11   -1    0    0    0    0  0.00000000000E+00  0.00000000000E+00  0.45593999997E+02  0.45594000000E+02  0.51100000000E-03 0. -1.
         11   -1    0    0    0    0 -0.00000000000E+00 -0.00000000000E+00 -0.45593999997E+02  0.45594000000E+02  0.51100000000E-03 0.  1.
    9900012    2    1    2    0    0 -0.13161696455E+02  0.32925748335E+02 -0.25025781243E+02  0.47787252497E+02  0.19999915434E+02 0.  0.
        -12    1    1    2    0    0  0.13161696455E+02 -0.32925748335E+02  0.25025781243E+02  0.43400747503E+02  0.00000000000E+00 0.  1.
         11    1    3    3    0    0 -0.52700994211E+01  0.81419021188E+01 -0.12380907411E+02  0.15727408770E+02  0.51100000000E-03 0. -1.
        -11    1    3    3    0    0  0.10949664458E+01 -0.13725625903E+01 -0.33752270103E+00  0.17879601272E+01  0.51100000000E-03 0.  1.
        -12    1    3    3    0    0 -0.89865634794E+01  0.26156408807E+02 -0.12307351130E+02  0.30271883600E+02  0.00000000000E+00 0.  1.
</event>
<event>
 7    1  0.3837332E-009  0.4778727E+02  0.7816164E-02  0.1312668E+00
        -11   -1    0    0    0    0  0.00000000000E+00  0.00000000000E+00  0.45593999997E+02  0.45594000000E+02  0.51100000000E-03 0.  1.
         11   -1    0    0    0    0 -0.00000000000E+00 -0.00000000000E+00 -0.45593999997E+02  0.45594000000E+02  0.51100000000E-03 0. -1.
    9900012    2    1    2    0    0 -0.34536711759E+02 -0.58281832873E+01 -0.25629493621E+02  0.47787272785E+02  0.20000007935E+02 0.  0.
        -12    1    1    2    0    0  0.34536711759E+02  0.58281832873E+01  0.25629493621E+02  0.43400727215E+02  0.00000000000E+00 0.  1.
         11    1    3    3    0    0 -0.11735032732E+02  0.49272277130E+01 -0.99356676921E+01  0.16146394610E+02  0.51100000000E-03 0. -1.
        -11    1    3    3    0    0 -0.15660396968E+01 -0.13447122350E+01 -0.62237172384E+01  0.65570868418E+01  0.51100000000E-03 0.  1.
        -12    1    3    3    0    0 -0.21235639330E+02 -0.94106987653E+01 -0.94701086902E+01  0.25083791333E+02  0.00000000000E+00 0.  1.
</event>
<event>
 7    1  0.3837332E-009  0.4778727E+02  0.7816164E-02  0.1312668E+00
        -11   -1    0    0    0    0  0.00000000000E+00  0.00000000000E+00  0.45593999997E+02  0.45594000000E+02  0.51100000000E-03 0.  1.
         11   -1    0    0    0    0 -0.00000000000E+00 -0.00000000000E+00 -0.45593999997E+02  0.45594000000E+02  0.51100000000E-03 0. -1.
    9900012    2    1    2    0    0 -0.34790709565E+02  0.16345735617E+02 -0.20150598700E+02  0.47787272208E+02  0.20000005306E+02 0.  0.
        -12    1    1    2    0    0  0.34790709565E+02 -0.16345735617E+02  0.20150598700E+02  0.43400727792E+02  0.00000000000E+00 0.  1.
         11    1    3    3    0    0 -0.33286976166E+01  0.67062369003E+01 -0.69405788026E+01  0.10209087891E+02  0.51100000000E-03 0.  1.
        -11    1    3    3    0    0 -0.28639216347E+01  0.32664254936E+01  0.17463082123E+01  0.46820054751E+01  0.51100000000E-03 0. -1.
        -12    1    3    3    0    0 -0.28598090313E+02  0.63730732234E+01 -0.14956328110E+02  0.32896178842E+02  0.00000000000E+00 0.  1.
</event>
<event>
 7    1  0.3837332E-009  0.4778727E+02  0.7816164E-02  0.1312668E+00
        -11   -1    0    0    0    0  0.00000000000E+00  0.00000000000E+00  0.45593999997E+02  0.45594000000E+02  0.51100000000E-03 0. -1.
         11   -1    0    0    0    0 -0.00000000000E+00 -0.00000000000E+00 -0.45593999997E+02  0.45594000000E+02  0.51100000000E-03 0.  1.
    9900012    2    1    2    0    0  0.44701169607E+01 -0.24103425239E+02  0.35814330774E+02  0.47787270252E+02  0.19999996386E+02 0.  0.
        -12    1    1    2    0    0 -0.44701169607E+01  0.24103425239E+02 -0.35814330774E+02  0.43400729748E+02  0.00000000000E+00 0.  1.
         11    1    3    3    0    0  0.25740447276E+01 -0.10654467984E+02  0.91400159167E+01  0.14271765325E+02  0.51100000000E-03 0. -1.
        -11    1    3    3    0    0  0.39486035607E+01 -0.43345612497E+01  0.69151160484E+00  0.59040731590E+01  0.51100000000E-03 0.  1.
        -12    1    3    3    0    0 -0.20525313276E+01 -0.91143960050E+01  0.25982803252E+02  0.27611431767E+02  0.00000000000E+00 0.  1.
</event>
<event>
 7    1  0.3837332E-009  0.4778728E+02  0.7816164E-02  0.1312668E+00
        -11   -1    0    0    0    0  0.00000000000E+00  0.00000000000E+00  0.45593999997E+02  0.45594000000E+02  0.51100000000E-03 0.  1.
         11   -1    0    0    0    0 -0.00000000000E+00 -0.00000000000E+00 -0.45593999997E+02  0.45594000000E+02  0.51100000000E-03 0. -1.
    9900012    2    1    2    0    0 -0.17579099885E+02 -0.26869649806E+02 -0.29199657902E+02  0.47787275869E+02  0.20000021998E+02 0.  0.
        -12    1    1    2    0    0  0.17579099885E+02  0.26869649806E+02  0.29199657902E+02  0.43400724131E+02  0.00000000000E+00 0.  1.
         11    1    3    3    0    0 -0.16426500776E+02 -0.10053909467E+02 -0.18254171952E+02  0.26535369175E+02  0.51100000000E-03 0.  1.
        -11    1    3    3    0    0 -0.18545706047E+01 -0.29705977864E+01 -0.51464716451E+01  0.62249541357E+01  0.51100000000E-03 0. -1.
        -12    1    3    3    0    0  0.70197149576E+00 -0.13845142553E+02 -0.57990143046E+01  0.15026952559E+02  0.00000000000E+00 0.  1.
</event>
<event>
 7    1  0.3837332E-009  0.4778727E+02  0.7816164E-02  0.1312668E+00
        -11   -1    0    0    0    0  0.00000000000E+00  0.00000000000E+00  0.45593999997E+02  0.45594000000E+02  0.51100000000E-03 0.  1.
         11   -1    0    0    0    0 -0.00000000000E+00 -0.00000000000E+00 -0.45593999997E+02  0.45594000000E+02  0.51100000000E-03 0. -1.
    9900012    2    1    2    0    0 -0.15393059091E+02 -0.32391794875E+02 -0.24442759602E+02  0.47787272582E+02  0.20000007011E+02 0.  0.
        -12    1    1    2    0    0  0.15393059091E+02  0.32391794875E+02  0.24442759602E+02  0.43400727418E+02  0.00000000000E+00 0.  1.
         11    1    3    3    0    0 -0.54184398709E+00  0.23832425383E+01 -0.33797323453E+01  0.41708549351E+01  0.51100000000E-03 0. -1.
        -11    1    3    3    0    0 -0.49596982812E+01 -0.65482326779E+01 -0.34801810370E+01  0.89213013936E+01  0.51100000000E-03 0.  1.
         12    1    3    3    0    0 -0.98915168229E+01 -0.28226804736E+02 -0.17582846220E+02  0.34695116253E+02  0.00000000000E+00 0. -1.
</event>
<event>
 7    1  0.3837332E-009  0.4778729E+02  0.7816164E-02  0.1312668E+00
        -11   -1    0    0    0    0  0.00000000000E+00  0.00000000000E+00  0.45593999997E+02  0.45594000000E+02  0.51100000000E-03 0.  1.
         11   -1    0    0    0    0 -0.00000000000E+00 -0.00000000000E+00 -0.45593999997E+02  0.45594000000E+02  0.51100000000E-03 0. -1.
    9900012    2    1    2    0    0 -0.25559872191E+02 -0.14269811328E+02 -0.32041962042E+02  0.47787286720E+02  0.20000071469E+02 0.  0.
        -12    1    1    2    0    0  0.25559872191E+02  0.14269811328E+02  0.32041962042E+02  0.43400713280E+02  0.00000000000E+00 0.  1.
         11    1    3    3    0    0 -0.69977787696E+01 -0.85080135676E+00 -0.18568353312E+02  0.19861432869E+02  0.51100000000E-03 0. -1.
        -11    1    3    3    0    0 -0.12078431616E+01  0.10307751463E+01  0.77167456453E-01  0.15897602281E+01  0.51100000000E-03 0.  1.
         12    1    3    3    0    0 -0.17354250259E+02 -0.14449785117E+02 -0.13550776187E+02  0.26336093622E+02  0.00000000000E+00 0. -1.
</event>
<event>
 7    1  0.4659949E-009  0.4778727E+02  0.7816164E-02  0.1312668E+00
        -11   -1    0    0    0    0  0.00000000000E+00  0.00000000000E+00  0.45593999997E+02  0.45594000000E+02  0.51100000000E-03 0. -1.
         11   -1    0    0    0    0 -0.00000000000E+00 -0.00000000000E+00 -0.45593999997E+02  0.45594000000E+02  0.51100000000E-03 0.  1.
    9900012    2    1    2    0    0  0.21833234008E+02  0.36271543022E+02 -0.95555380658E+01  0.47787271341E+02  0.20000001352E+02 0.  0.
        -12    1    1    2    0    0 -0.21833234008E+02 -0.36271543022E+02  0.95555380658E+01  0.43400728659E+02  0.00000000000E+00 0.  1.
         11    1    3    3    0    0  0.12647437644E+02  0.15627567586E+02 -0.98528668094E+01  0.22388781393E+02  0.51100000000E-03 0.  1.
        -11    1    3    3    0    0  0.10321201539E+02  0.19021105510E+02 -0.26970520451E+01  0.21808341203E+02  0.51100000000E-03 0. -1.
        -12    1    3    3    0    0 -0.11354051750E+01  0.16228699248E+01  0.29943807887E+01  0.35901487451E+01  0.00000000000E+00 0.  1.
</event>
<event>
 7    1  0.3837332E-009  0.4778727E+02  0.7816164E-02  0.1312668E+00
        -11   -1    0    0    0    0  0.00000000000E+00  0.00000000000E+00  0.45593999997E+02  0.45594000000E+02  0.51100000000E-03 0. -1.
         11   -1    0    0    0    0 -0.00000000000E+00 -0.00000000000E+00 -0.45593999997E+02  0.45594000000E+02  0.51100000000E-03 0.  1.
    9900012    2    1    2    0    0 -0.42324818942E+02  0.92422513550E+01 -0.26103121012E+01  0.47787271460E+02  0.20000001894E+02 0.  0.
        -12    1    1    2    0    0  0.42324818942E+02 -0.92422513550E+01  0.26103121012E+01  0.43400728540E+02  0.00000000000E+00 0.  1.
         11    1    3    3    0    0 -0.17093129098E+02 -0.96671644973E-01 -0.16695903458E+01  0.17174747159E+02  0.51100000000E-03 0.  1.
        -11    1    3    3    0    0 -0.25269730422E+02  0.55507970673E+01 -0.34019377937E+01  0.26094899975E+02  0.51100000000E-03 0. -1.
        -12    1    3    3    0    0  0.38040578852E-01  0.37881259327E+01  0.24612160382E+01  0.45176243264E+01  0.00000000000E+00 0.  1.
</event>
<event>
 7    1  0.3837332E-009  0.4778727E+02  0.7816164E-02  0.1312668E+00
        -11   -1    0    0    0    0  0.00000000000E+00  0.00000000000E+00  0.45593999997E+02  0.45594000000E+02  0.51100000000E-03 0.  1.
         11   -1    0    0    0    0 -0.00000000000E+00 -0.00000000000E+00 -0.45593999997E+02  0.45594000000E+02  0.51100000000E-03 0. -1.
    9900012    2    1    2    0    0  0.52957628180E+01 -0.16880894680E+02 -0.39630968823E+02  0.47787269604E+02  0.19999993434E+02 0.  0.
        -12    1    1    2    0    0 -0.52957628180E+01  0.16880894680E+02  0.39630968823E+02  0.43400730396E+02  0.00000000000E+00 0.  1.
         11    1    3    3    0    0  0.92549780221E+01 -0.24653861993E+01 -0.12909477722E+02  0.16074431953E+02  0.51100000000E-03 0. -1.
        -11    1    3    3    0    0  0.18880575422E+01 -0.63491378498E+00 -0.44787295499E+01  0.49017237212E+01  0.51100000000E-03 0.  1.
        -12    1    3    3    0    0 -0.58472727462E+01 -0.13780594696E+02 -0.22242761551E+02  0.26811113930E+02  0.00000000000E+00 0.  1.
</event>
<event>
 7    1  0.3837332E-009  0.4778726E+02  0.7816164E-02  0.1312668E+00
        -11   -1    0    0    0    0  0.00000000000E+00  0.00000000000E+00  0.45593999997E+02  0.45594000000E+02  0.51100000000E-03 0. -1.
         11   -1    0    0    0    0 -0.00000000000E+00 -0.00000000000E+00 -0.45593999997E+02  0.45594000000E+02  0.51100000000E-03 0.  1.
    9900012    2    1    2    0    0  0.28062270192E+02 -0.31981386272E+02  0.85629681053E+01  0.47787256930E+02  0.19999935648E+02 0.  0.
        -12    1    1    2    0    0 -0.28062270192E+02  0.31981386272E+02 -0.85629681053E+01  0.43400743070E+02  0.00000000000E+00 0.  1.
         11    1    3    3    0    0  0.55126513054E+00 -0.13668866514E+01 -0.30882914468E+01  0.34219609412E+01  0.51100000000E-03 0. -1.
        -11    1    3    3    0    0  0.22507150641E+01 -0.61420294882E+01  0.57368818432E+01  0.87006929654E+01  0.51100000000E-03 0.  1.
         12    1    3    3    0    0  0.25260289998E+02 -0.24472470133E+02  0.59143777089E+01  0.35664603024E+02  0.00000000000E+00 0. -1.
</event>
<event>
 7    1  0.3837332E-009  0.4778727E+02  0.7816164E-02  0.1312668E+00
        -11   -1    0    0    0    0  0.00000000000E+00  0.00000000000E+00  0.45593999997E+02  0.45594000000E+02  0.51100000000E-03 0.  1.
         11   -1    0    0    0    0 -0.00000000000E+00 -0.00000000000E+00 -0.45593999997E+02  0.45594000000E+02  0.51100000000E-03 0. -1.
    9900012    2    1    2    0    0 -0.39363137096E+02  0.87299244629E+01 -0.16060986574E+02  0.47787269212E+02  0.19999991645E+02 0.  0.
        -12    1    1    2    0    0  0.39363137096E+02 -0.87299244629E+01  0.16060986574E+02  0.43400730788E+02  0.00000000000E+00 0.  1.
         11    1    3    3    0    0 -0.17989672825E+02  0.39556062394E+00 -0.35937720806E+01  0.18349386763E+02  0.51100000000E-03 0. -1.
        -11    1    3    3    0    0  0.65610782789E+00  0.35586776598E+01 -0.39085276234E+01  0.53264671792E+01  0.51100000000E-03 0.  1.
        -12    1    3    3    0    0 -0.22029572099E+02  0.47756861792E+01 -0.85586868703E+01  0.24111415270E+02  0.00000000000E+00 0.  1.
</event>
<event>
 7    1  0.3837332E-009  0.4778728E+02  0.7816164E-02  0.1312668E+00
        -11   -1    0    0    0    0  0.00000000000E+00  0.00000000000E+00  0.45593999997E+02  0.45594000000E+02  0.51100000000E-03 0.  1.
         11   -1    0    0    0    0 -0.00000000000E+00 -0.00000000000E+00 -0.45593999997E+02  0.45594000000E+02  0.51100000000E-03 0. -1.
    9900012    2    1    2    0    0  0.23160208283E+02  0.17066145959E+02 -0.32495755132E+02  0.47787277803E+02  0.20000030816E+02 0.  0.
        -12    1    1    2    0    0 -0.23160208283E+02 -0.17066145959E+02  0.32495755132E+02  0.43400722197E+02  0.00000000000E+00 0.  1.
         11    1    3    3    0    0  0.19798871644E+02  0.83046297022E+01 -0.18985320541E+02  0.28660156824E+02  0.51100000000E-03 0. -1.
        -11    1    3    3    0    0  0.60850286022E+01  0.87821040896E+01 -0.96133432041E+01  0.14372518678E+02  0.51100000000E-03 0.  1.
        -12    1    3    3    0    0 -0.27236919626E+01 -0.20587833284E-01 -0.38970913868E+01  0.47546023012E+01  0.00000000000E+00 0.  1.
</event>
<event>
 7    1  0.3837332E-009  0.4778727E+02  0.7816164E-02  0.1312668E+00
        -11   -1    0    0    0    0  0.00000000000E+00  0.00000000000E+00  0.45593999997E+02  0.45594000000E+02  0.51100000000E-03 0.  1.
         11   -1    0    0    0    0 -0.00000000000E+00 -0.00000000000E+00 -0.45593999997E+02  0.45594000000E+02  0.51100000000E-03 0. -1.
    9900012    2    1    2    0    0 -0.10308697896E+02 -0.23713639616E+02 -0.34857097244E+02  0.47787272075E+02  0.20000004700E+02 0.  0.
        -12    1    1    2    0    0  0.10308697896E+02  0.23713639616E+02  0.34857097244E+02  0.43400727925E+02  0.00000000000E+00 0.  1.
         11    1    3    3    0    0  0.73824798771E+00 -0.56416551092E+00 -0.58997758029E+01  0.59724909042E+01  0.51100000000E-03 0. -1.
        -11    1    3    3    0    0 -0.63022952363E+01 -0.11969138598E+02 -0.26009432188E+02  0.29316714806E+02  0.51100000000E-03 0.  1.
        -12    1    3    3    0    0 -0.47446506472E+01 -0.11180335507E+02 -0.29478892526E+01  0.12498066365E+02  0.00000000000E+00 0.  1.
</event>
<event>
 7    1  0.3837332E-009  0.4778727E+02  0.7816164E-02  0.1312668E+00
        -11   -1    0    0    0    0  0.00000000000E+00  0.00000000000E+00  0.45593999997E+02  0.45594000000E+02  0.51100000000E-03 0.  1.
         11   -1    0    0    0    0 -0.00000000000E+00 -0.00000000000E+00 -0.45593999997E+02  0.45594000000E+02  0.51100000000E-03 0. -1.
    9900012    2    1    2    0    0 -0.38017701093E+02 -0.19351034590E+02 -0.79884554486E+01  0.47787267788E+02  0.19999985152E+02 0.  0.
        -12    1    1    2    0    0  0.38017701093E+02  0.19351034590E+02  0.79884554486E+01  0.43400732212E+02  0.00000000000E+00 0.  1.
         11    1    3    3    0    0 -0.11106961298E+02 -0.35214001621E+01 -0.22121395286E+01  0.11859949829E+02  0.51100000000E-03 0.  1.
        -11    1    3    3    0    0 -0.46147898069E+01 -0.53787617883E+01 -0.85980085991E+01  0.11142401692E+02  0.51100000000E-03 0. -1.
         12    1    3    3    0    0 -0.22295949988E+02 -0.10450872640E+02  0.28216926791E+01  0.24784916267E+02  0.00000000000E+00 0. -1.
</event>
<event>
 7    1  0.3837332E-009  0.4778727E+02  0.7816164E-02  0.1312668E+00
        -11   -1    0    0    0    0  0.00000000000E+00  0.00000000000E+00  0.45593999997E+02  0.45594000000E+02  0.51100000000E-03 0. -1.
         11   -1    0    0    0    0 -0.00000000000E+00 -0.00000000000E+00 -0.45593999997E+02  0.45594000000E+02  0.51100000000E-03 0.  1.
    9900012    2    1    2    0    0  0.39935131387E+01 -0.36214508754E+02  0.23583560470E+02  0.47787272864E+02  0.20000008297E+02 0.  0.
        -12    1    1    2    0    0 -0.39935131387E+01  0.36214508754E+02 -0.23583560470E+02  0.43400727136E+02  0.00000000000E+00 0.  1.
         11    1    3    3    0    0  0.14178252769E+01 -0.22633042108E+02  0.16613380706E+02  0.28111727843E+02  0.51100000000E-03 0. -1.
        -11    1    3    3    0    0 -0.36022048000E+01 -0.55947499343E+01  0.68891827087E+01  0.95779927388E+01  0.51100000000E-03 0.  1.
        -12    1    3    3    0    0  0.61778926618E+01 -0.79867167120E+01  0.80997055170E-01  0.10097552283E+02  0.00000000000E+00 0.  1.
</event>
<event>
 7    1  0.3837332E-009  0.4778727E+02  0.7816164E-02  0.1312668E+00
        -11   -1    0    0    0    0  0.00000000000E+00  0.00000000000E+00  0.45593999997E+02  0.45594000000E+02  0.51100000000E-03 0.  1.
         11   -1    0    0    0    0 -0.00000000000E+00 -0.00000000000E+00 -0.45593999997E+02  0.45594000000E+02  0.51100000000E-03 0. -1.
    9900012    2    1    2    0    0 -0.27880566409E+02  0.31569332105E+02 -0.10472561388E+02  0.47787271263E+02  0.20000000998E+02 0.  0.
        -12    1    1    2    0    0  0.27880566409E+02 -0.31569332105E+02  0.10472561388E+02  0.43400728737E+02  0.00000000000E+00 0.  1.
         11    1    3    3    0    0 -0.98575887559E+00 -0.47555766756E+00 -0.92025288626E+00  0.14299445065E+01  0.51100000000E-03 0. -1.
        -11    1    3    3    0    0 -0.15480309495E+02  0.55825103874E+01 -0.20955117429E+01  0.16589019682E+02  0.51100000000E-03 0.  1.
         12    1    3    3    0    0 -0.11414498039E+02  0.26462379385E+02 -0.74567967585E+01  0.29768307075E+02  0.00000000000E+00 0. -1.
</event>
<event>
 7    1  0.3837332E-009  0.4778727E+02  0.7816164E-02  0.1312668E+00
        -11   -1    0    0    0    0  0.00000000000E+00  0.00000000000E+00  0.45593999997E+02  0.45594000000E+02  0.51100000000E-03 0.  1.
         11   -1    0    0    0    0 -0.00000000000E+00 -0.00000000000E+00 -0.45593999997E+02  0.45594000000E+02  0.51100000000E-03 0. -1.
    9900012    2    1    2    0    0 -0.15490048067E+02  0.41808959755E+01 -0.40326190897E+02  0.47787272443E+02  0.20000006376E+02 0.  0.
        -12    1    1    2    0    0  0.15490048067E+02 -0.41808959755E+01  0.40326190897E+02  0.43400727557E+02  0.00000000000E+00 0.  1.
         11    1    3    3    0    0 -0.10845843450E+01  0.65220431369E+01 -0.15251462868E+02  0.16622890535E+02  0.51100000000E-03 0. -1.
        -11    1    3    3    0    0 -0.56059390165E+01  0.37919903420E+01 -0.50376099318E+01  0.84370170733E+01  0.51100000000E-03 0.  1.
         12    1    3    3    0    0 -0.87995247053E+01 -0.61331375034E+01 -0.20037118097E+02  0.22727364834E+02  0.00000000000E+00 0. -1.
</event>
<event>
 7    1  0.3837332E-009  0.4778727E+02  0.7816164E-02  0.1312668E+00
        -11   -1    0    0    0    0  0.00000000000E+00  0.00000000000E+00  0.45593999997E+02  0.45594000000E+02  0.51100000000E-03 0. -1.
         11   -1    0    0    0    0 -0.00000000000E+00 -0.00000000000E+00 -0.45593999997E+02  0.45594000000E+02  0.51100000000E-03 0.  1.
    9900012    2    1    2    0    0  0.85873994941E+01 -0.41563046458E+02 -0.90770630592E+01  0.47787270344E+02  0.19999996805E+02 0.  0.
        -12    1    1    2    0    0 -0.85873994941E+01  0.41563046458E+02  0.90770630592E+01  0.43400729656E+02  0.00000000000E+00 0.  1.
         11    1    3    3    0    0  0.14918310318E+01 -0.12350418358E+01 -0.30113137278E+01  0.35803489763E+01  0.51100000000E-03 0. -1.
        -11    1    3    3    0    0  0.33181728910E+01 -0.57362764425E+01 -0.66727124152E+01  0.94042665847E+01  0.51100000000E-03 0.  1.
         12    1    3    3    0    0  0.37773955713E+01 -0.34591728179E+02  0.60696308389E+00  0.34802654783E+02  0.00000000000E+00 0. -1.
</event>
<event>
 7    1  0.3837332E-009  0.4778727E+02  0.7816164E-02  0.1312668E+00
        -11   -1    0    0    0    0  0.00000000000E+00  0.00000000000E+00  0.45593999997E+02  0.45594000000E+02  0.51100000000E-03 0.  1.
         11   -1    0    0    0    0 -0.00000000000E+00 -0.00000000000E+00 -0.45593999997E+02  0.45594000000E+02  0.51100000000E-03 0. -1.
    9900012    2    1    2    0    0  0.36743772563E+02 -0.54127279788E+01 -0.22454862711E+02  0.47787270678E+02  0.19999998330E+02 0.  0.
        -12    1    1    2    0    0 -0.36743772563E+02  0.54127279788E+01  0.22454862711E+02  0.43400729322E+02  0.00000000000E+00 0.  1.
         11    1    3    3    0    0  0.14774797201E+02 -0.75503108058E+01 -0.17945302771E+02  0.24440452479E+02  0.51100000000E-03 0. -1.
        -11    1    3    3    0    0  0.10008220770E+01  0.15817172068E+01  0.86164334556E-01  0.18737392310E+01  0.51100000000E-03 0.  1.
        -12    1    3    3    0    0  0.20968153285E+02  0.55586562016E+00 -0.45957242745E+01  0.21473078968E+02  0.00000000000E+00 0.  1.
</event>
<event>
 7    1  0.3837332E-009  0.4778729E+02  0.7816164E-02  0.1312668E+00
        -11   -1    0    0    0    0  0.00000000000E+00  0.00000000000E+00  0.45593999997E+02  0.45594000000E+02  0.51100000000E-03 0.  1.
         11   -1    0    0    0    0 -0.00000000000E+00 -0.00000000000E+00 -0.45593999997E+02  0.45594000000E+02  0.51100000000E-03 0. -1.
    9900012    2    1    2    0    0 -0.16060790175E+02 -0.36165604384E+02 -0.17824739655E+02  0.47787294185E+02  0.20000105505E+02 0.  0.
        -12    1    1    2    0    0  0.16060790175E+02  0.36165604384E+02  0.17824739655E+02  0.43400705815E+02  0.00000000000E+00 0.  1.
         11    1    3    3    0    0 -0.88419427658E+01 -0.17028136762E+02 -0.10324615658E+02  0.21788416239E+02  0.51100000000E-03 0. -1.
        -11    1    3    3    0    0 -0.86127051396E+01 -0.16833640481E+02 -0.96825711687E+00  0.18933770458E+02  0.51100000000E-03 0.  1.
        -12    1    3    3    0    0  0.13938577304E+01 -0.23038271416E+01 -0.65318668802E+01  0.70651074876E+01  0.00000000000E+00 0.  1.
</event>
<event>
 7    1  0.3837332E-009  0.4778727E+02  0.7816164E-02  0.1312668E+00
        -11   -1    0    0    0    0  0.00000000000E+00  0.00000000000E+00  0.45593999997E+02  0.45594000000E+02  0.51100000000E-03 0.  1.
         11   -1    0    0    0    0 -0.00000000000E+00 -0.00000000000E+00 -0.45593999997E+02  0.45594000000E+02  0.51100000000E-03 0. -1.
    9900012    2    1    2    0    0 -0.20889234957E+02  0.28262222179E+02  0.25465860101E+02  0.47787269934E+02  0.19999994935E+02 0.  0.
        -12    1    1    2    0    0  0.20889234957E+02 -0.28262222179E+02 -0.25465860101E+02  0.43400730066E+02  0.00000000000E+00 0.  1.
         11    1    3    3    0    0 -0.12441066252E+02  0.15254892826E+02  0.21791896610E+02  0.29366284115E+02  0.51100000000E-03 0. -1.
        -11    1    3    3    0    0 -0.68006630029E+00  0.84713902993E+01  0.40571006885E+01  0.94173780870E+01  0.51100000000E-03 0.  1.
        -12    1    3    3    0    0 -0.77681024043E+01  0.45359390540E+01 -0.38313719698E+00  0.90036077312E+01  0.00000000000E+00 0.  1.
</event>
<event>
 7    1  0.3837332E-009  0.4778727E+02  0.7816164E-02  0.1312668E+00
        -11   -1    0    0    0    0  0.00000000000E+00  0.00000000000E+00  0.45593999997E+02  0.45594000000E+02  0.51100000000E-03 0.  1.
         11   -1    0    0    0    0 -0.00000000000E+00 -0.00000000000E+00 -0.45593999997E+02  0.45594000000E+02  0.51100000000E-03 0. -1.
    9900012    2    1    2    0    0 -0.14072318952E+02  0.29366509784E+02 -0.28691484129E+02  0.47787270524E+02  0.19999997626E+02 0.  0.
        -12    1    1    2    0    0  0.14072318952E+02 -0.29366509784E+02  0.28691484129E+02  0.43400729476E+02  0.00000000000E+00 0.  1.
         11    1    3    3    0    0 -0.89105773893E+01  0.30467870650E+01 -0.57088058752E+01  0.11012346054E+02  0.51100000000E-03 0.  1.
        -11    1    3    3    0    0 -0.73164642952E+01  0.12390803971E+02 -0.93137803093E+01  0.17140862777E+02  0.51100000000E-03 0. -1.
        -12    1    3    3    0    0  0.21547227329E+01  0.13928918747E+02 -0.13668897945E+02  0.19634061692E+02  0.00000000000E+00 0.  1.
</event>
<event>
 7    1  0.3837332E-009  0.4778727E+02  0.7816164E-02  0.1312668E+00
        -11   -1    0    0    0    0  0.00000000000E+00  0.00000000000E+00  0.45593999997E+02  0.45594000000E+02  0.51100000000E-03 0. -1.
         11   -1    0    0    0    0 -0.00000000000E+00 -0.00000000000E+00 -0.45593999997E+02  0.45594000000E+02  0.51100000000E-03 0.  1.
    9900012    2    1    2    0    0 -0.36868224802E+01 -0.16206524351E+02  0.40092135035E+02  0.47787269785E+02  0.19999994257E+02 0.  0.
        -12    1    1    2    0    0  0.36868224802E+01  0.16206524351E+02 -0.40092135035E+02  0.43400730215E+02  0.00000000000E+00 0.  1.
         11    1    3    3    0    0 -0.72491788664E+01 -0.21127934748E+01  0.17892641377E+02  0.19420636092E+02  0.51100000000E-03 0. -1.
        -11    1    3    3    0    0  0.26318990967E+01  0.59914043638E+00  0.19456379127E+01  0.33273667165E+01  0.51100000000E-03 0.  1.
         12    1    3    3    0    0  0.93045728948E+00 -0.14692871313E+02  0.20253855746E+02  0.25039266977E+02  0.00000000000E+00 0. -1.
</event>
<event>
 7    1  0.3837332E-009  0.4778727E+02  0.7816164E-02  0.1312668E+00
        -11   -1    0    0    0    0  0.00000000000E+00  0.00000000000E+00  0.45593999997E+02  0.45594000000E+02  0.51100000000E-03 0.  1.
         11   -1    0    0    0    0 -0.00000000000E+00 -0.00000000000E+00 -0.45593999997E+02  0.45594000000E+02  0.51100000000E-03 0. -1.
    9900012    2    1    2    0    0 -0.30277731006E+02 -0.29167774574E+02  0.10776038893E+02  0.47787273247E+02  0.20000010043E+02 0.  0.
        -12    1    1    2    0    0  0.30277731006E+02  0.29167774574E+02 -0.10776038893E+02  0.43400726753E+02  0.00000000000E+00 0.  1.
         11    1    3    3    0    0 -0.12567281136E+00 -0.18351566695E+01 -0.16559888232E+01  0.24750541208E+01  0.51100000000E-03 0. -1.
        -11    1    3    3    0    0 -0.44556519681E+01 -0.43299635918E+01  0.86034384642E+01  0.10612284054E+02  0.51100000000E-03 0.  1.
         12    1    3    3    0    0 -0.25696406227E+02 -0.23002654312E+02  0.38285892516E+01  0.34699935073E+02  0.00000000000E+00 0. -1.
</event>
<event>
 7    1  0.3837332E-009  0.4778727E+02  0.7816164E-02  0.1312668E+00
        -11   -1    0    0    0    0  0.00000000000E+00  0.00000000000E+00  0.45593999997E+02  0.45594000000E+02  0.51100000000E-03 0.  1.
         11   -1    0    0    0    0 -0.00000000000E+00 -0.00000000000E+00 -0.45593999997E+02  0.45594000000E+02  0.51100000000E-03 0. -1.
    9900012    2    1    2    0    0 -0.13336479592E+02  0.41172538060E+02  0.32532567348E+01  0.47787271232E+02  0.20000000855E+02 0.  0.
        -12    1    1    2    0    0  0.13336479592E+02 -0.41172538060E+02 -0.32532567348E+01  0.43400728768E+02  0.00000000000E+00 0.  1.
         11    1    3    3    0    0 -0.43446643861E+01  0.20399720171E+01 -0.26001675584E+01  0.54587971249E+01  0.51100000000E-03 0. -1.
        -11    1    3    3    0    0 -0.18799718602E+01  0.77382622763E+00  0.24267990434E+01  0.31658261298E+01  0.51100000000E-03 0.  1.
         12    1    3    3    0    0 -0.71118433454E+01  0.38358739815E+02  0.34266252498E+01  0.39162647977E+02  0.00000000000E+00 0. -1.
</event>
<event>
 7    1  0.3837332E-009  0.4778727E+02  0.7816164E-02  0.1312668E+00
        -11   -1    0    0    0    0  0.00000000000E+00  0.00000000000E+00  0.45593999997E+02  0.45594000000E+02  0.51100000000E-03 0. -1.
         11   -1    0    0    0    0 -0.00000000000E+00 -0.00000000000E+00 -0.45593999997E+02  0.45594000000E+02  0.51100000000E-03 0.  1.
    9900012    2    1    2    0    0 -0.71259505677E+01 -0.38100341093E+02  0.19524556711E+02  0.47787268697E+02  0.19999989297E+02 0.  0.
        -12    1    1    2    0    0  0.71259505677E+01  0.38100341093E+02 -0.19524556711E+02  0.43400731303E+02  0.00000000000E+00 0.  1.
         11    1    3    3    0    0 -0.33515175967E+01 -0.88536039309E+01  0.94706295650E+01  0.13390735506E+02  0.51100000000E-03 0. -1.
        -11    1    3    3    0    0  0.23892174954E+01  0.37480844919E+00  0.18589503368E+01  0.30503341177E+01  0.51100000000E-03 0.  1.
        -12    1    3    3    0    0 -0.61636504664E+01 -0.29621545611E+02  0.81949768097E+01  0.31346199073E+02  0.00000000000E+00 0.  1.
</event>
<event>
 7    1  0.3837332E-009  0.4778728E+02  0.7816164E-02  0.1312668E+00
        -11   -1    0    0    0    0  0.00000000000E+00  0.00000000000E+00  0.45593999997E+02  0.45594000000E+02  0.51100000000E-03 0. -1.
         11   -1    0    0    0    0 -0.00000000000E+00 -0.00000000000E+00 -0.45593999997E+02  0.45594000000E+02  0.51100000000E-03 0.  1.
    9900012    2    1    2    0    0 -0.37496776825E+02  0.77004307500E+01 -0.20452824236E+02  0.47787275061E+02  0.20000018311E+02 0.  0.
        -12    1    1    2    0    0  0.37496776825E+02 -0.77004307500E+01  0.20452824236E+02  0.43400724939E+02  0.00000000000E+00 0.  1.
         11    1    3    3    0    0 -0.35087545650E+01  0.34201081128E+01  0.19802800168E+01  0.52848847959E+01  0.51100000000E-03 0. -1.
        -11    1    3    3    0    0 -0.10464159462E+02  0.63555439559E+01 -0.10037015048E+02  0.15831400556E+02  0.51100000000E-03 0.  1.
        -12    1    3    3    0    0 -0.23523862798E+02 -0.20752213186E+01 -0.12396089204E+02  0.26670989708E+02  0.00000000000E+00 0.  1.
</event>
<event>
 7    1  0.4199630E-009  0.4778728E+02  0.7816164E-02  0.1312668E+00
        -11   -1    0    0    0    0  0.00000000000E+00  0.00000000000E+00  0.45593999997E+02  0.45594000000E+02  0.51100000000E-03 0.  1.
         11   -1    0    0    0    0 -0.00000000000E+00 -0.00000000000E+00 -0.45593999997E+02  0.45594000000E+02  0.51100000000E-03 0. -1.
    9900012    2    1    2    0    0 -0.40815405742E+02  0.24044066744E+01 -0.14558307703E+02  0.47787276037E+02  0.20000022762E+02 0.  0.
        -12    1    1    2    0    0  0.40815405742E+02 -0.24044066744E+01  0.14558307703E+02  0.43400723963E+02  0.00000000000E+00 0.  1.
         11    1    3    3    0    0 -0.16687507208E+02  0.14026996553E+01 -0.77587242143E+01  0.18456388185E+02  0.51100000000E-03 0. -1.
        -11    1    3    3    0    0 -0.15176605569E+02  0.37485382497E-01 -0.11623968868E+02  0.19116678954E+02  0.51100000000E-03 0.  1.
        -12    1    3    3    0    0 -0.89512929655E+01  0.96422163662E+00  0.48243853786E+01  0.10214208897E+02  0.00000000000E+00 0.  1.
</event>
<event>
 7    1  0.3837332E-009  0.4778727E+02  0.7816164E-02  0.1312668E+00
        -11   -1    0    0    0    0  0.00000000000E+00  0.00000000000E+00  0.45593999997E+02  0.45594000000E+02  0.51100000000E-03 0.  1.
         11   -1    0    0    0    0 -0.00000000000E+00 -0.00000000000E+00 -0.45593999997E+02  0.45594000000E+02  0.51100000000E-03 0. -1.
    9900012    2    1    2    0    0  0.22062185934E+02  0.18120646672E+02 -0.32688307769E+02  0.47787270181E+02  0.19999996065E+02 0.  0.
        -12    1    1    2    0    0 -0.22062185934E+02 -0.18120646672E+02  0.32688307769E+02  0.43400729819E+02  0.00000000000E+00 0.  1.
         11    1    3    3    0    0  0.25033583553E+01  0.51637383985E+01 -0.68274161587E+01  0.89187784460E+01  0.51100000000E-03 0. -1.
        -11    1    3    3    0    0 -0.27121184949E+01 -0.30027262795E+00 -0.45881469882E+01  0.53382434778E+01  0.51100000000E-03 0.  1.
         12    1    3    3    0    0  0.22270946074E+02  0.13257180901E+02 -0.21272744622E+02  0.33530248258E+02  0.00000000000E+00 0. -1.
</event>
<event>
 7    1  0.3837332E-009  0.4778732E+02  0.7816164E-02  0.1312668E+00
        -11   -1    0    0    0    0  0.00000000000E+00  0.00000000000E+00  0.45593999997E+02  0.45594000000E+02  0.51100000000E-03 0. -1.
         11   -1    0    0    0    0 -0.00000000000E+00 -0.00000000000E+00 -0.45593999997E+02  0.45594000000E+02  0.51100000000E-03 0.  1.
    9900012    2    1    2    0    0  0.40255490953E+02  0.11282105682E+02  0.11654534085E+02  0.47787324599E+02  0.20000244176E+02 0.  0.
        -12    1    1    2    0    0 -0.40255490953E+02 -0.11282105682E+02 -0.11654534085E+02  0.43400675401E+02  0.00000000000E+00 0.  1.
         11    1    3    3    0    0  0.15290365821E+02  0.46840731351E+01  0.46804796418E+01  0.16662614381E+02  0.51100000000E-03 0. -1.
        -11    1    3    3    0    0  0.23744563912E+02  0.68225388162E+01  0.10903163359E+02  0.27004264899E+02  0.51100000000E-03 0.  1.
        -12    1    3    3    0    0  0.12205612200E+01 -0.22450626930E+00 -0.39291089152E+01  0.41204453187E+01  0.00000000000E+00 0.  1.
</event>
<event>
 7    1  0.3837332E-009  0.4778726E+02  0.7816164E-02  0.1312668E+00
        -11   -1    0    0    0    0  0.00000000000E+00  0.00000000000E+00  0.45593999997E+02  0.45594000000E+02  0.51100000000E-03 0.  1.
         11   -1    0    0    0    0 -0.00000000000E+00 -0.00000000000E+00 -0.45593999997E+02  0.45594000000E+02  0.51100000000E-03 0. -1.
    9900012    2    1    2    0    0 -0.40477830173E+02  0.58931868437E+01 -0.14506556054E+02  0.47787256282E+02  0.19999932692E+02 0.  0.
        -12    1    1    2    0    0  0.40477830173E+02 -0.58931868437E+01  0.14506556054E+02  0.43400743718E+02  0.00000000000E+00 0.  1.
         11    1    3    3    0    0 -0.23081539091E+02  0.75480986370E+00 -0.65685292979E+01  0.24009847191E+02  0.51100000000E-03 0. -1.
        -11    1    3    3    0    0 -0.17044822183E+02  0.70371552327E+01 -0.32731030566E+01  0.18728607019E+02  0.51100000000E-03 0.  1.
        -12    1    3    3    0    0 -0.35146890011E+00 -0.18987782528E+01 -0.46649236993E+01  0.50488020719E+01  0.00000000000E+00 0.  1.
</event>
<event>
 7    1  0.3837332E-009  0.4778727E+02  0.7816164E-02  0.1312668E+00
        -11   -1    0    0    0    0  0.00000000000E+00  0.00000000000E+00  0.45593999997E+02  0.45594000000E+02  0.51100000000E-03 0. -1.
         11   -1    0    0    0    0 -0.00000000000E+00 -0.00000000000E+00 -0.45593999997E+02  0.45594000000E+02  0.51100000000E-03 0.  1.
    9900012    2    1    2    0    0  0.37557793957E+02 -0.21741334923E+02 -0.59133405634E+00  0.47787271813E+02  0.20000003506E+02 0.  0.
        -12    1    1    2    0    0 -0.37557793957E+02  0.21741334923E+02  0.59133405634E+00  0.43400728187E+02  0.00000000000E+00 0.  1.
         11    1    3    3    0    0  0.14039330516E+02 -0.82475918598E+01  0.78227974248E+01  0.18064377449E+02  0.51100000000E-03 0. -1.
        -11    1    3    3    0    0  0.90201180987E+01 -0.93122857277E+01 -0.12664915964E+01  0.13026327081E+02  0.51100000000E-03 0.  1.
        -12    1    3    3    0    0  0.14498345343E+02 -0.41814573356E+01 -0.71476398847E+01  0.16696567283E+02  0.00000000000E+00 0.  1.
</event>
<event>
 7    1  0.3837332E-009  0.4778728E+02  0.7816164E-02  0.1312668E+00
        -11   -1    0    0    0    0  0.00000000000E+00  0.00000000000E+00  0.45593999997E+02  0.45594000000E+02  0.51100000000E-03 0.  1.
         11   -1    0    0    0    0 -0.00000000000E+00 -0.00000000000E+00 -0.45593999997E+02  0.45594000000E+02  0.51100000000E-03 0. -1.
    9900012    2    1    2    0    0  0.24900575083E+02  0.18048861645E+02 -0.30623887023E+02  0.47787279931E+02  0.20000040515E+02 0.  0.
        -12    1    1    2    0    0 -0.24900575083E+02 -0.18048861645E+02  0.30623887023E+02  0.43400720069E+02  0.00000000000E+00 0.  1.
         11    1    3    3    0    0  0.25953568568E+01  0.18578662956E+01  0.23839016005E+01  0.39837835645E+01  0.51100000000E-03 0. -1.
        -11    1    3    3    0    0  0.84466290850E+01  0.10249809033E+02 -0.11699211790E+02  0.17699595613E+02  0.51100000000E-03 0.  1.
        -12    1    3    3    0    0  0.13858589142E+02  0.59411863163E+01 -0.21308576834E+02  0.26103900753E+02  0.00000000000E+00 0.  1.
</event>
<event>
 7    1  0.3837332E-009  0.4778727E+02  0.7816164E-02  0.1312668E+00
        -11   -1    0    0    0    0  0.00000000000E+00  0.00000000000E+00  0.45593999997E+02  0.45594000000E+02  0.51100000000E-03 0.  1.
         11   -1    0    0    0    0 -0.00000000000E+00 -0.00000000000E+00 -0.45593999997E+02  0.45594000000E+02  0.51100000000E-03 0. -1.
    9900012    2    1    2    0    0 -0.44097239930E+01 -0.32181630234E+02 -0.28784035013E+02  0.47787266575E+02  0.19999979621E+02 0.  0.
        -12    1    1    2    0    0  0.44097239930E+01  0.32181630234E+02  0.28784035013E+02  0.43400733425E+02  0.00000000000E+00 0.  1.
         11    1    3    3    0    0  0.16921251091E+01 -0.85711381109E+01 -0.89678730295E+01  0.12520001711E+02  0.51100000000E-03 0. -1.
        -11    1    3    3    0    0 -0.94356708992E+01 -0.16069307211E+02 -0.19563395892E+02  0.27018160164E+02  0.51100000000E-03 0.  1.
        -12    1    3    3    0    0  0.33338217971E+01 -0.75411849122E+01 -0.25276609145E+00  0.82491047000E+01  0.00000000000E+00 0.  1.
</event>
<event>
 7    1  0.3837332E-009  0.4778726E+02  0.7816164E-02  0.1312668E+00
        -11   -1    0    0    0    0  0.00000000000E+00  0.00000000000E+00  0.45593999997E+02  0.45594000000E+02  0.51100000000E-03 0.  1.
         11   -1    0    0    0    0 -0.00000000000E+00 -0.00000000000E+00 -0.45593999997E+02  0.45594000000E+02  0.51100000000E-03 0. -1.
    9900012    2    1    2    0    0 -0.32494652013E+02  0.28769834947E+02 -0.13620293401E+00  0.47787258490E+02  0.19999942761E+02 0.  0.
        -12    1    1    2    0    0  0.32494652013E+02 -0.28769834947E+02  0.13620293401E+00  0.43400741510E+02  0.00000000000E+00 0.  1.
         11    1    3    3    0    0 -0.17647091864E+02  0.14797894566E+02  0.36646799737E+01  0.23320107513E+02  0.51100000000E-03 0. -1.
        -11    1    3    3    0    0 -0.15427038872E+02  0.12130974628E+02  0.62865230616E+00  0.19635408776E+02  0.51100000000E-03 0.  1.
        -12    1    3    3    0    0  0.57947872298E+00  0.18409657527E+01 -0.44295352139E+01  0.48317422018E+01  0.00000000000E+00 0.  1.
</event>
<event>
 7    1  0.3837332E-009  0.4778727E+02  0.7816164E-02  0.1312668E+00
        -11   -1    0    0    0    0  0.00000000000E+00  0.00000000000E+00  0.45593999997E+02  0.45594000000E+02  0.51100000000E-03 0.  1.
         11   -1    0    0    0    0 -0.00000000000E+00 -0.00000000000E+00 -0.45593999997E+02  0.45594000000E+02  0.51100000000E-03 0. -1.
    9900012    2    1    2    0    0 -0.22052579027E+02 -0.20021989179E+00 -0.37380036635E+02  0.47787268802E+02  0.19999989774E+02 0.  0.
        -12    1    1    2    0    0  0.22052579027E+02  0.20021989179E+00  0.37380036635E+02  0.43400731198E+02  0.00000000000E+00 0.  1.
         11    1    3    3    0    0 -0.59706285708E+01 -0.39167438517E+01 -0.55400115405E+01  0.90377550343E+01  0.51100000000E-03 0. -1.
        -11    1    3    3    0    0 -0.17497655778E+02  0.44508025820E+01 -0.20580598471E+02  0.27377703246E+02  0.51100000000E-03 0.  1.
        -12    1    3    3    0    0  0.14157053215E+01 -0.73427862211E+00 -0.11259426623E+02  0.11371810521E+02  0.00000000000E+00 0.  1.
</event>
<event>
 7    1  0.3837332E-009  0.4778727E+02  0.7816164E-02  0.1312668E+00
        -11   -1    0    0    0    0  0.00000000000E+00  0.00000000000E+00  0.45593999997E+02  0.45594000000E+02  0.51100000000E-03 0.  1.
         11   -1    0    0    0    0 -0.00000000000E+00 -0.00000000000E+00 -0.45593999997E+02  0.45594000000E+02  0.51100000000E-03 0. -1.
    9900012    2    1    2    0    0 -0.30611065501E+00 -0.39172153314E+02  0.18683461892E+02  0.47787273655E+02  0.20000011904E+02 0.  0.
        -12    1    1    2    0    0  0.30611065501E+00  0.39172153314E+02 -0.18683461892E+02  0.43400726345E+02  0.00000000000E+00 0.  1.
         11    1    3    3    0    0  0.38478644421E+01 -0.11324645347E+02  0.12517886281E+02  0.17313322333E+02  0.51100000000E-03 0. -1.
        -11    1    3    3    0    0  0.28198807644E-01 -0.11803685738E+02  0.72603969798E+01  0.13857891497E+02  0.51100000000E-03 0.  1.
         12    1    3    3    0    0 -0.41821739048E+01 -0.16043822229E+02 -0.10948213693E+01  0.16616059825E+02  0.00000000000E+00 0. -1.
</event>
<event>
 7    1  0.3837332E-009  0.4778728E+02  0.7816164E-02  0.1312668E+00
        -11   -1    0    0    0    0  0.00000000000E+00  0.00000000000E+00  0.45593999997E+02  0.45594000000E+02  0.51100000000E-03 0.  1.
         11   -1    0    0    0    0 -0.00000000000E+00 -0.00000000000E+00 -0.45593999997E+02  0.45594000000E+02  0.51100000000E-03 0. -1.
    9900012    2    1    2    0    0 -0.92131510058E+01 -0.85115386621E+01 -0.41548699853E+02  0.47787275336E+02  0.20000019567E+02 0.  0.
        -12    1    1    2    0    0  0.92131510058E+01  0.85115386621E+01  0.41548699853E+02  0.43400724664E+02  0.00000000000E+00 0.  1.
         11    1    3    3    0    0 -0.56323888699E+01 -0.43714044337E+01 -0.14450760718E+02  0.16113890489E+02  0.51100000000E-03 0. -1.
        -11    1    3    3    0    0 -0.79203242687E+01  0.22928725665E+01 -0.10496094595E+02  0.13347539217E+02  0.51100000000E-03 0.  1.
         12    1    3    3    0    0  0.43395621328E+01 -0.64330067950E+01 -0.16601844540E+02  0.18325845630E+02  0.00000000000E+00 0. -1.
</event>
<event>
 7    1  0.3837332E-009  0.4778727E+02  0.7816164E-02  0.1312668E+00
        -11   -1    0    0    0    0  0.00000000000E+00  0.00000000000E+00  0.45593999997E+02  0.45594000000E+02  0.51100000000E-03 0.  1.
         11   -1    0    0    0    0 -0.00000000000E+00 -0.00000000000E+00 -0.45593999997E+02  0.45594000000E+02  0.51100000000E-03 0. -1.
    9900012    2    1    2    0    0  0.19677731114E+02  0.21919312116E+02 -0.31874030545E+02  0.47787272257E+02  0.20000005529E+02 0.  0.
        -12    1    1    2    0    0 -0.19677731114E+02 -0.21919312116E+02  0.31874030545E+02  0.43400727743E+02  0.00000000000E+00 0.  1.
         11    1    3    3    0    0  0.11708380396E+02  0.12169377072E+02 -0.19400418235E+02  0.25720733617E+02  0.51100000000E-03 0. -1.
        -11    1    3    3    0    0  0.10811567461E+02  0.64372002232E+01 -0.52661138632E+01  0.13640362647E+02  0.51100000000E-03 0.  1.
        -12    1    3    3    0    0 -0.28422167429E+01  0.33127348202E+01 -0.72074984471E+01  0.84261759931E+01  0.00000000000E+00 0.  1.
</event>
<event>
 7    1  0.3837332E-009  0.4778727E+02  0.7816164E-02  0.1312668E+00
        -11   -1    0    0    0    0  0.00000000000E+00  0.00000000000E+00  0.45593999997E+02  0.45594000000E+02  0.51100000000E-03 0. -1.
         11   -1    0    0    0    0 -0.00000000000E+00 -0.00000000000E+00 -0.45593999997E+02  0.45594000000E+02  0.51100000000E-03 0.  1.
    9900012    2    1    2    0    0  0.93961082975E+01  0.40804451432E+02 -0.11416375780E+02  0.47787265631E+02  0.19999975320E+02 0.  0.
        -12    1    1    2    0    0 -0.93961082975E+01 -0.40804451432E+02  0.11416375780E+02  0.43400734369E+02  0.00000000000E+00 0.  1.
         11    1    3    3    0    0  0.12097787508E+01  0.61382941345E+01  0.42371392897E+01  0.75561610047E+01  0.51100000000E-03 0. -1.
        -11    1    3    3    0    0  0.83279071985E+01  0.16054217877E+02 -0.49094278739E+01  0.18740182290E+02  0.51100000000E-03 0.  1.
         12    1    3    3    0    0 -0.14157765171E+00  0.18611939421E+02 -0.10744087196E+02  0.21490922337E+02  0.00000000000E+00 0. -1.
</event>
<event>
 7    1  0.3837332E-009  0.4778727E+02  0.7816164E-02  0.1312668E+00
        -11   -1    0    0    0    0  0.00000000000E+00  0.00000000000E+00  0.45593999997E+02  0.45594000000E+02  0.51100000000E-03 0. -1.
         11   -1    0    0    0    0 -0.00000000000E+00 -0.00000000000E+00 -0.45593999997E+02  0.45594000000E+02  0.51100000000E-03 0.  1.
    9900012    2    1    2    0    0  0.14465716792E+02  0.42765887643E+01  0.40694927976E+02  0.47787270321E+02  0.19999996700E+02 0.  0.
        -12    1    1    2    0    0 -0.14465716792E+02 -0.42765887643E+01 -0.40694927976E+02  0.43400729679E+02  0.00000000000E+00 0.  1.
         11    1    3    3    0    0  0.10496219064E+02  0.16126023897E+01  0.23847778680E+02  0.26105318411E+02  0.51100000000E-03 0. -1.
        -11    1    3    3    0    0  0.72469242648E+01 -0.18728437794E+01  0.64790051376E+01  0.98996445874E+01  0.51100000000E-03 0.  1.
         12    1    3    3    0    0 -0.32774265373E+01  0.45368301539E+01  0.10368144158E+02  0.11782307322E+02  0.00000000000E+00 0. -1.
</event>
<event>
 7    1  0.3837332E-009  0.4778729E+02  0.7816164E-02  0.1312668E+00
        -11   -1    0    0    0    0  0.00000000000E+00  0.00000000000E+00  0.45593999997E+02  0.45594000000E+02  0.51100000000E-03 0.  1.
         11   -1    0    0    0    0 -0.00000000000E+00 -0.00000000000E+00 -0.45593999997E+02  0.45594000000E+02  0.51100000000E-03 0. -1.
    9900012    2    1    2    0    0  0.59883116931E+01 -0.28883552810E+02 -0.31835546915E+02  0.47787290937E+02  0.20000090696E+02 0.  0.
        -12    1    1    2    0    0 -0.59883116931E+01  0.28883552810E+02  0.31835546915E+02  0.43400709063E+02  0.00000000000E+00 0.  1.
         11    1    3    3    0    0 -0.37495867002E+01 -0.68533237973E+01 -0.14987713837E+02  0.16901450051E+02  0.51100000000E-03 0. -1.
        -11    1    3    3    0    0 -0.41671933923E+00 -0.56502139244E+01 -0.76812129314E+01  0.95446112942E+01  0.51100000000E-03 0.  1.
        -12    1    3    3    0    0  0.10154617733E+02 -0.16380015088E+02 -0.91666201460E+01  0.21341229592E+02  0.00000000000E+00 0.  1.
</event>
<event>
 7    1  0.3837332E-009  0.4778727E+02  0.7816164E-02  0.1312668E+00
        -11   -1    0    0    0    0  0.00000000000E+00  0.00000000000E+00  0.45593999997E+02  0.45594000000E+02  0.51100000000E-03 0.  1.
         11   -1    0    0    0    0 -0.00000000000E+00 -0.00000000000E+00 -0.45593999997E+02  0.45594000000E+02  0.51100000000E-03 0. -1.
    9900012    2    1    2    0    0 -0.23707025630E+02  0.15652549898E+02 -0.32811555781E+02  0.47787267571E+02  0.19999984165E+02 0.  0.
        -12    1    1    2    0    0  0.23707025630E+02 -0.15652549898E+02  0.32811555781E+02  0.43400732429E+02  0.00000000000E+00 0.  1.
         11    1    3    3    0    0 -0.59498747746E+00  0.16265975472E+01 -0.20195495895E+01  0.26605282341E+01  0.51100000000E-03 0. -1.
        -11    1    3    3    0    0 -0.71598371918E+01  0.27615339831E+01 -0.22746149334E+02  0.24005762815E+02  0.51100000000E-03 0.  1.
         12    1    3    3    0    0 -0.15952200961E+02  0.11264418368E+02 -0.80458568576E+01  0.21120976522E+02  0.00000000000E+00 0. -1.
</event>
<event>
 7    1  0.3837332E-009  0.4778727E+02  0.7816164E-02  0.1312668E+00
        -11   -1    0    0    0    0  0.00000000000E+00  0.00000000000E+00  0.45593999997E+02  0.45594000000E+02  0.51100000000E-03 0.  1.
         11   -1    0    0    0    0 -0.00000000000E+00 -0.00000000000E+00 -0.45593999997E+02  0.45594000000E+02  0.51100000000E-03 0. -1.
    9900012    2    1    2    0    0 -0.38302213307E+02  0.20389846340E+02  0.90425544282E+00  0.47787273556E+02  0.20000011450E+02 0.  0.
        -12    1    1    2    0    0  0.38302213307E+02 -0.20389846340E+02 -0.90425544282E+00  0.43400726444E+02  0.00000000000E+00 0.  1.
         11    1    3    3    0    0 -0.17556432271E+02  0.41520133880E+01 -0.31493394922E+01  0.18313543316E+02  0.51100000000E-03 0. -1.
        -11    1    3    3    0    0 -0.20286569984E+02  0.10391679651E+02  0.54711265157E+01  0.23440673056E+02  0.51100000000E-03 0.  1.
        -12    1    3    3    0    0 -0.45921105167E+00  0.58461533010E+01 -0.14175315807E+01  0.60330571844E+01  0.00000000000E+00 0.  1.
</event>
<event>
 7    1  0.4094391E-009  0.4778730E+02  0.7816164E-02  0.1312668E+00
        -11   -1    0    0    0    0  0.00000000000E+00  0.00000000000E+00  0.45593999997E+02  0.45594000000E+02  0.51100000000E-03 0.  1.
         11   -1    0    0    0    0 -0.00000000000E+00 -0.00000000000E+00 -0.45593999997E+02  0.45594000000E+02  0.51100000000E-03 0. -1.
    9900012    2    1    2    0    0 -0.41816552394E+02 -0.56213196966E+01 -0.10168439014E+02  0.47787303678E+02  0.20000148788E+02 0.  0.
        -12    1    1    2    0    0  0.41816552394E+02  0.56213196966E+01  0.10168439014E+02  0.43400696322E+02  0.00000000000E+00 0.  1.
         11    1    3    3    0    0 -0.18222153360E+02 -0.61079349571E+01 -0.31365967011E+01  0.19472852427E+02  0.51100000000E-03 0. -1.
        -11    1    3    3    0    0 -0.24875020899E+02  0.89059096758E+00 -0.85211794143E+01  0.26309129896E+02  0.51100000000E-03 0.  1.
        -12    1    3    3    0    0  0.12806218650E+01 -0.40397570710E+00  0.14893371019E+01  0.20053213548E+01  0.00000000000E+00 0.  1.
</event>
<event>
 7    1  0.3837332E-009  0.4778721E+02  0.7816164E-02  0.1312668E+00
        -11   -1    0    0    0    0  0.00000000000E+00  0.00000000000E+00  0.45593999997E+02  0.45594000000E+02  0.51100000000E-03 0. -1.
         11   -1    0    0    0    0 -0.00000000000E+00 -0.00000000000E+00 -0.45593999997E+02  0.45594000000E+02  0.51100000000E-03 0.  1.
    9900012    2    1    2    0    0  0.18711327320E+02  0.38970887155E+02 -0.38450863968E+01  0.47787210778E+02  0.19999725217E+02 0.  0.
        -12    1    1    2    0    0 -0.18711327320E+02 -0.38970887155E+02  0.38450863968E+01  0.43400789222E+02  0.00000000000E+00 0.  1.
         11    1    3    3    0    0  0.49192618971E+01  0.93623921666E+01 -0.18083659562E+01  0.10729571864E+02  0.51100000000E-03 0. -1.
        -11    1    3    3    0    0  0.52348885806E+01  0.33475988412E+01 -0.65983150773E+01  0.90635665482E+01  0.51100000000E-03 0.  1.
         12    1    3    3    0    0  0.85571768424E+01  0.26260896147E+02  0.45615946367E+01  0.27994072365E+02  0.00000000000E+00 0. -1.
</event>
<event>
 7    1  0.3837332E-009  0.4778727E+02  0.7816164E-02  0.1312668E+00
        -11   -1    0    0    0    0  0.00000000000E+00  0.00000000000E+00  0.45593999997E+02  0.45594000000E+02  0.51100000000E-03 0.  1.
         11   -1    0    0    0    0 -0.00000000000E+00 -0.00000000000E+00 -0.45593999997E+02  0.45594000000E+02  0.51100000000E-03 0. -1.
    9900012    2    1    2    0    0 -0.22539595602E+02 -0.21844002806E+02 -0.29973814263E+02  0.47787269938E+02  0.19999994953E+02 0.  0.
        -12    1    1    2    0    0  0.22539595602E+02  0.21844002806E+02  0.29973814263E+02  0.43400730062E+02  0.00000000000E+00 0.  1.
         11    1    3    3    0    0 -0.51433929768E-01 -0.23851890142E+01  0.56057858120E+00  0.24507184027E+01  0.51100000000E-03 0. -1.
        -11    1    3    3    0    0 -0.50022083048E+01  0.15306387323E+00  0.63862053630E-01  0.50049570524E+01  0.51100000000E-03 0.  1.
         12    1    3    3    0    0 -0.17485953368E+02 -0.19611877665E+02 -0.30598254898E+02  0.40331594482E+02  0.00000000000E+00 0. -1.
</event>
<event>
 7    1  0.3837332E-009  0.4778727E+02  0.7816164E-02  0.1312668E+00
        -11   -1    0    0    0    0  0.00000000000E+00  0.00000000000E+00  0.45593999997E+02  0.45594000000E+02  0.51100000000E-03 0. -1.
         11   -1    0    0    0    0 -0.00000000000E+00 -0.00000000000E+00 -0.45593999997E+02  0.45594000000E+02  0.51100000000E-03 0.  1.
    9900012    2    1    2    0    0 -0.42370623943E+02  0.66898128828E+01  0.66030112820E+01  0.47787272728E+02  0.20000007677E+02 0.  0.
        -12    1    1    2    0    0  0.42370623943E+02 -0.66898128828E+01 -0.66030112820E+01  0.43400727272E+02  0.00000000000E+00 0.  1.
         11    1    3    3    0    0 -0.24808039007E+02  0.30186580336E+01  0.88697536546E+01  0.26518363936E+02  0.51100000000E-03 0. -1.
        -11    1    3    3    0    0 -0.79389800029E+01  0.27187473105E+01  0.44461995342E+01  0.94967194853E+01  0.51100000000E-03 0.  1.
        -12    1    3    3    0    0 -0.96236049329E+01  0.95240753865E+00 -0.67129419068E+01  0.11772189306E+02  0.00000000000E+00 0.  1.
</event>
<event>
 7    1  0.3837332E-009  0.4778727E+02  0.7816164E-02  0.1312668E+00
        -11   -1    0    0    0    0  0.00000000000E+00  0.00000000000E+00  0.45593999997E+02  0.45594000000E+02  0.51100000000E-03 0.  1.
         11   -1    0    0    0    0 -0.00000000000E+00 -0.00000000000E+00 -0.45593999997E+02  0.45594000000E+02  0.51100000000E-03 0. -1.
    9900012    2    1    2    0    0  0.31346895335E+02  0.21131764686E+02  0.21317685470E+02  0.47787273742E+02  0.20000012300E+02 0.  0.
        -12    1    1    2    0    0 -0.31346895335E+02 -0.21131764686E+02 -0.21317685470E+02  0.43400726258E+02  0.00000000000E+00 0.  1.
         11    1    3    3    0    0  0.24216146356E+02  0.65762329887E+01  0.13728437632E+02  0.28603121940E+02  0.51100000000E-03 0. -1.
        -11    1    3    3    0    0  0.44737239982E+01  0.36614128398E+01  0.25792432457E+00  0.57867672852E+01  0.51100000000E-03 0.  1.
         12    1    3    3    0    0  0.26570249811E+01  0.10894118857E+02  0.73313235132E+01  0.13397384517E+02  0.00000000000E+00 0. -1.
</event>
<event>
 7    1  0.3837332E-009  0.4778727E+02  0.7816164E-02  0.1312668E+00
        -11   -1    0    0    0    0  0.00000000000E+00  0.00000000000E+00  0.45593999997E+02  0.45594000000E+02  0.51100000000E-03 0.  1.
         11   -1    0    0    0    0 -0.00000000000E+00 -0.00000000000E+00 -0.45593999997E+02  0.45594000000E+02  0.51100000000E-03 0. -1.
    9900012    2    1    2    0    0 -0.41296060334E+02 -0.12758640107E+02 -0.39339406010E+01  0.47787269763E+02  0.19999994156E+02 0.  0.
        -12    1    1    2    0    0  0.41296060334E+02  0.12758640107E+02  0.39339406010E+01  0.43400730237E+02  0.00000000000E+00 0.  1.
         11    1    3    3    0    0 -0.37143167020E+01 -0.16480944854E+01 -0.58067496648E+01  0.70873624097E+01  0.51100000000E-03 0. -1.
        -11    1    3    3    0    0 -0.56891490772E+01  0.21280160998E+01 -0.45004742969E+00  0.60907645409E+01  0.51100000000E-03 0.  1.
         12    1    3    3    0    0 -0.31892594555E+02 -0.13238561721E+02  0.23228564935E+01  0.34609142812E+02  0.00000000000E+00 0. -1.
</event>
<event>
 7    1  0.3837332E-009  0.4778727E+02  0.7816164E-02  0.1312668E+00
        -11   -1    0    0    0    0  0.00000000000E+00  0.00000000000E+00  0.45593999997E+02  0.45594000000E+02  0.51100000000E-03 0.  1.
         11   -1    0    0    0    0 -0.00000000000E+00 -0.00000000000E+00 -0.45593999997E+02  0.45594000000E+02  0.51100000000E-03 0. -1.
    9900012    2    1    2    0    0 -0.26157492811E+02 -0.34589783681E+01 -0.34459313041E+02  0.47787271703E+02  0.20000003001E+02 0.  0.
        -12    1    1    2    0    0  0.26157492811E+02  0.34589783681E+01  0.34459313041E+02  0.43400728297E+02  0.00000000000E+00 0.  1.
         11    1    3    3    0    0 -0.17967557400E+01  0.25686721403E+01 -0.15425250870E+01  0.34936788144E+01  0.51100000000E-03 0. -1.
        -11    1    3    3    0    0 -0.18848823728E+02 -0.84827469330E+01 -0.15426422911E+02  0.25791659030E+02  0.51100000000E-03 0.  1.
        -12    1    3    3    0    0 -0.55119133436E+01  0.24550964246E+01 -0.17490365042E+02  0.18501933858E+02  0.00000000000E+00 0.  1.
</event>
<event>
 7    1  0.3837332E-009  0.4778727E+02  0.7816164E-02  0.1312668E+00
        -11   -1    0    0    0    0  0.00000000000E+00  0.00000000000E+00  0.45593999997E+02  0.45594000000E+02  0.51100000000E-03 0.  1.
         11   -1    0    0    0    0 -0.00000000000E+00 -0.00000000000E+00 -0.45593999997E+02  0.45594000000E+02  0.51100000000E-03 0. -1.
    9900012    2    1    2    0    0  0.18294117126E+01  0.17258846604E+02 -0.39779498279E+02  0.47787274008E+02  0.20000013511E+02 0.  0.
        -12    1    1    2    0    0 -0.18294117126E+01 -0.17258846604E+02  0.39779498279E+02  0.43400725992E+02  0.00000000000E+00 0.  1.
         11    1    3    3    0    0  0.24120262289E+01  0.11777912467E+02 -0.11501673791E+02  0.16638076598E+02  0.51100000000E-03 0. -1.
        -11    1    3    3    0    0 -0.38102458932E+00  0.24352171932E+01  0.23264193588E+00  0.24757998802E+01  0.51100000000E-03 0.  1.
         12    1    3    3    0    0 -0.20158992698E+00  0.30457169437E+01 -0.28510466424E+02  0.28673397530E+02  0.00000000000E+00 0. -1.
</event>
<event>
 7    1  0.3837332E-009  0.4778727E+02  0.7816164E-02  0.1312668E+00
        -11   -1    0    0    0    0  0.00000000000E+00  0.00000000000E+00  0.45593999997E+02  0.45594000000E+02  0.51100000000E-03 0.  1.
         11   -1    0    0    0    0 -0.00000000000E+00 -0.00000000000E+00 -0.45593999997E+02  0.45594000000E+02  0.51100000000E-03 0. -1.
    9900012    2    1    2    0    0 -0.89754845442E+00  0.39302141870E+02  0.18389113716E+02  0.47787268992E+02  0.19999990640E+02 0.  0.
        -12    1    1    2    0    0  0.89754845442E+00 -0.39302141870E+02 -0.18389113716E+02  0.43400731008E+02  0.00000000000E+00 0.  1.
         11    1    3    3    0    0  0.39170138988E+01  0.10047200662E+02  0.69950735715E+01  0.12853804633E+02  0.51100000000E-03 0. -1.
        -11    1    3    3    0    0 -0.37114483932E+01  0.20241042340E+02  0.14677937447E+02  0.25276797506E+02  0.51100000000E-03 0.  1.
        -12    1    3    3    0    0 -0.11031139600E+01  0.90138988679E+01 -0.32838973019E+01  0.96566668524E+01  0.00000000000E+00 0.  1.
</event>
<event>
 7    1  0.3837332E-009  0.4778727E+02  0.7816164E-02  0.1312668E+00
        -11   -1    0    0    0    0  0.00000000000E+00  0.00000000000E+00  0.45593999997E+02  0.45594000000E+02  0.51100000000E-03 0.  1.
         11   -1    0    0    0    0 -0.00000000000E+00 -0.00000000000E+00 -0.45593999997E+02  0.45594000000E+02  0.51100000000E-03 0. -1.
    9900012    2    1    2    0    0  0.34882189374E+02 -0.11223049488E+02 -0.23257236771E+02  0.47787273767E+02  0.20000012413E+02 0.  0.
        -12    1    1    2    0    0 -0.34882189374E+02  0.11223049488E+02  0.23257236771E+02  0.43400726233E+02  0.00000000000E+00 0.  1.
         11    1    3    3    0    0  0.11343182007E+02  0.64183243248E+00 -0.99627150694E+01  0.15110771612E+02  0.51100000000E-03 0. -1.
        -11    1    3    3    0    0  0.12870310115E+02  0.58872552894E+00 -0.90279112960E+01  0.15731963095E+02  0.51100000000E-03 0.  1.
        -12    1    3    3    0    0  0.10668697253E+02 -0.12453607450E+02 -0.42666104052E+01  0.16944539059E+02  0.00000000000E+00 0.  1.
</event>
<event>
 7    1  0.3837332E-009  0.4778727E+02  0.7816164E-02  0.1312668E+00
        -11   -1    0    0    0    0  0.00000000000E+00  0.00000000000E+00  0.45593999997E+02  0.45594000000E+02  0.51100000000E-03 0. -1.
         11   -1    0    0    0    0 -0.00000000000E+00 -0.00000000000E+00 -0.45593999997E+02  0.45594000000E+02  0.51100000000E-03 0.  1.
    9900012    2    1    2    0    0 -0.11423445125E+02 -0.31560560889E+02  0.27514711535E+02  0.47787268981E+02  0.19999990591E+02 0.  0.
        -12    1    1    2    0    0  0.11423445125E+02  0.31560560889E+02 -0.27514711535E+02  0.43400731019E+02  0.00000000000E+00 0.  1.
         11    1    3    3    0    0  0.33302845061E+00 -0.32678117487E+01 -0.12632014508E+01  0.35192584078E+01  0.51100000000E-03 0. -1.
        -11    1    3    3    0    0 -0.13482015002E+01 -0.17589865486E+01 -0.15070825378E+01  0.26801080203E+01  0.51100000000E-03 0.  1.
         12    1    3    3    0    0 -0.10408272075E+02 -0.26533762592E+02  0.30284995523E+02  0.41587902553E+02  0.00000000000E+00 0. -1.
</event>
<event>
 7    1  0.3837332E-009  0.4778727E+02  0.7816164E-02  0.1312668E+00
        -11   -1    0    0    0    0  0.00000000000E+00  0.00000000000E+00  0.45593999997E+02  0.45594000000E+02  0.51100000000E-03 0. -1.
         11   -1    0    0    0    0 -0.00000000000E+00 -0.00000000000E+00 -0.45593999997E+02  0.45594000000E+02  0.51100000000E-03 0.  1.
    9900012    2    1    2    0    0 -0.37948442961E+02 -0.20819247354E+02 -0.31777775641E+01  0.47787266667E+02  0.19999980043E+02 0.  0.
        -12    1    1    2    0    0  0.37948442961E+02  0.20819247354E+02  0.31777775641E+01  0.43400733333E+02  0.00000000000E+00 0.  1.
         11    1    3    3    0    0 -0.13852167961E+02 -0.99369950650E+01 -0.57552794335E+01  0.17993045039E+02  0.51100000000E-03 0. -1.
        -11    1    3    3    0    0 -0.35210111474E+01 -0.80006593340E+01  0.22042072138E+01  0.90147988875E+01  0.51100000000E-03 0.  1.
        -12    1    3    3    0    0 -0.20575263852E+02 -0.28815929550E+01  0.37329465553E+00  0.20779422741E+02  0.00000000000E+00 0.  1.
</event>
<event>
 7    1  0.3837332E-009  0.4778727E+02  0.7816164E-02  0.1312668E+00
        -11   -1    0    0    0    0  0.00000000000E+00  0.00000000000E+00  0.45593999997E+02  0.45594000000E+02  0.51100000000E-03 0.  1.
         11   -1    0    0    0    0 -0.00000000000E+00 -0.00000000000E+00 -0.45593999997E+02  0.45594000000E+02  0.51100000000E-03 0. -1.
    9900012    2    1    2    0    0  0.13766201719E+02  0.21346916410E+01 -0.41104236577E+02  0.47787268638E+02  0.19999989030E+02 0.  0.
        -12    1    1    2    0    0 -0.13766201719E+02 -0.21346916410E+01  0.41104236577E+02  0.43400731362E+02  0.00000000000E+00 0.  1.
         11    1    3    3    0    0  0.52748369023E+01 -0.91553612646E+00 -0.21120182854E+01  0.57552352031E+01  0.51100000000E-03 0. -1.
        -11    1    3    3    0    0  0.72050619617E+01 -0.82698456322E-01 -0.76566954365E+01  0.10514025974E+02  0.51100000000E-03 0.  1.
         12    1    3    3    0    0  0.12863028550E+01  0.31329262238E+01 -0.31335522855E+02  0.31518007462E+02  0.00000000000E+00 0. -1.
</event>
<event>
 7    1  0.3837332E-009  0.4778727E+02  0.7816164E-02  0.1312668E+00
        -11   -1    0    0    0    0  0.00000000000E+00  0.00000000000E+00  0.45593999997E+02  0.45594000000E+02  0.51100000000E-03 0. -1.
         11   -1    0    0    0    0 -0.00000000000E+00 -0.00000000000E+00 -0.45593999997E+02  0.45594000000E+02  0.51100000000E-03 0.  1.
    9900012    2    1    2    0    0  0.23166756130E+02 -0.28401686518E+02  0.23243682814E+02  0.47787272155E+02  0.20000005066E+02 0.  0.
        -12    1    1    2    0    0 -0.23166756130E+02  0.28401686518E+02 -0.23243682814E+02  0.43400727845E+02  0.00000000000E+00 0.  1.
         11    1    3    3    0    0  0.15903662720E+02 -0.20992789376E+02  0.18543539360E+02  0.32210037969E+02  0.51100000000E-03 0. -1.
        -11    1    3    3    0    0  0.10139556632E+01 -0.83025515630E+01  0.38491808463E+01  0.92074242865E+01  0.51100000000E-03 0.  1.
        -12    1    3    3    0    0  0.62491377465E+01  0.89365442143E+00  0.85096260855E+00  0.63698098999E+01  0.00000000000E+00 0.  1.
</event>
<event>
 7    1  0.3837332E-009  0.4778727E+02  0.7816164E-02  0.1312668E+00
        -11   -1    0    0    0    0  0.00000000000E+00  0.00000000000E+00  0.45593999997E+02  0.45594000000E+02  0.51100000000E-03 0.  1.
         11   -1    0    0    0    0 -0.00000000000E+00 -0.00000000000E+00 -0.45593999997E+02  0.45594000000E+02  0.51100000000E-03 0. -1.
    9900012    2    1    2    0    0 -0.31149970943E+02  0.40875498057E-01 -0.30220871152E+02  0.47787269433E+02  0.19999992654E+02 0.  0.
        -12    1    1    2    0    0  0.31149970943E+02 -0.40875498057E-01  0.30220871152E+02  0.43400730567E+02  0.00000000000E+00 0.  1.
         11    1    3    3    0    0 -0.11409591388E+02  0.50109464418E+01 -0.88273014903E+01  0.15271202040E+02  0.51100000000E-03 0. -1.
        -11    1    3    3    0    0 -0.40975170726E+01  0.16361790107E+01  0.88902793466E+00  0.45007886914E+01  0.51100000000E-03 0.  1.
         12    1    3    3    0    0 -0.15642862482E+02 -0.66062499545E+01 -0.22282597597E+02  0.28015278702E+02  0.00000000000E+00 0. -1.
</event>
<event>
 7    1  0.3837332E-009  0.4778727E+02  0.7816164E-02  0.1312668E+00
        -11   -1    0    0    0    0  0.00000000000E+00  0.00000000000E+00  0.45593999997E+02  0.45594000000E+02  0.51100000000E-03 0.  1.
         11   -1    0    0    0    0 -0.00000000000E+00 -0.00000000000E+00 -0.45593999997E+02  0.45594000000E+02  0.51100000000E-03 0. -1.
    9900012    2    1    2    0    0  0.24083339371E+02  0.32993408258E+02 -0.14664619274E+02  0.47787270949E+02  0.19999999565E+02 0.  0.
        -12    1    1    2    0    0 -0.24083339371E+02 -0.32993408258E+02  0.14664619274E+02  0.43400729051E+02  0.00000000000E+00 0.  1.
         11    1    3    3    0    0 -0.39101735063E+00  0.53739284017E+00  0.15072420432E+01  0.16472596854E+01  0.51100000000E-03 0. -1.
        -11    1    3    3    0    0  0.12300384394E+02  0.12448350259E+02  0.30738509311E+00  0.17503010206E+02  0.51100000000E-03 0.  1.
         12    1    3    3    0    0  0.12173972327E+02  0.20007665159E+02 -0.16479246410E+02  0.28637001058E+02  0.00000000000E+00 0. -1.
</event>
<event>
 7    1  0.3837332E-009  0.4778727E+02  0.7816164E-02  0.1312668E+00
        -11   -1    0    0    0    0  0.00000000000E+00  0.00000000000E+00  0.45593999997E+02  0.45594000000E+02  0.51100000000E-03 0.  1.
         11   -1    0    0    0    0 -0.00000000000E+00 -0.00000000000E+00 -0.45593999997E+02  0.45594000000E+02  0.51100000000E-03 0. -1.
    9900012    2    1    2    0    0 -0.23213646096E+02 -0.29562395644E+02 -0.21698273483E+02  0.47787266441E+02  0.19999979012E+02 0.  0.
        -12    1    1    2    0    0  0.23213646096E+02  0.29562395644E+02  0.21698273483E+02  0.43400733559E+02  0.00000000000E+00 0.  1.
         11    1    3    3    0    0 -0.83492663222E+01 -0.15249273933E+02 -0.51009659120E+01  0.18118235485E+02  0.51100000000E-03 0. -1.
        -11    1    3    3    0    0 -0.71314062787E+01 -0.14981350533E+02 -0.13172694911E+02  0.21185318284E+02  0.51100000000E-03 0.  1.
        -12    1    3    3    0    0 -0.77329734953E+01  0.66822882169E+00 -0.34246126593E+01  0.84837126721E+01  0.00000000000E+00 0.  1.
</event>
<event>
 7    1  0.3837332E-009  0.4778727E+02  0.7816164E-02  0.1312668E+00
        -11   -1    0    0    0    0  0.00000000000E+00  0.00000000000E+00  0.45593999997E+02  0.45594000000E+02  0.51100000000E-03 0.  1.
         11   -1    0    0    0    0 -0.00000000000E+00 -0.00000000000E+00 -0.45593999997E+02  0.45594000000E+02  0.51100000000E-03 0. -1.
    9900012    2    1    2    0    0  0.83692456153E+01  0.24328383230E+02 -0.34952949689E+02  0.47787271956E+02  0.20000004157E+02 0.  0.
        -12    1    1    2    0    0 -0.83692456153E+01 -0.24328383230E+02  0.34952949689E+02  0.43400728044E+02  0.00000000000E+00 0.  1.
         11    1    3    3    0    0  0.40355278429E+01  0.14279783480E+02 -0.19584225694E+02  0.24571113070E+02  0.51100000000E-03 0. -1.
        -11    1    3    3    0    0 -0.42920845349E+01  0.64232729665E+01 -0.91796985195E+01  0.11997803567E+02  0.51100000000E-03 0.  1.
        -12    1    3    3    0    0  0.86258023074E+01  0.36253267833E+01 -0.61890254759E+01  0.11218355319E+02  0.00000000000E+00 0.  1.
</event>
<event>
 7    1  0.3837332E-009  0.4778726E+02  0.7816164E-02  0.1312668E+00
        -11   -1    0    0    0    0  0.00000000000E+00  0.00000000000E+00  0.45593999997E+02  0.45594000000E+02  0.51100000000E-03 0.  1.
         11   -1    0    0    0    0 -0.00000000000E+00 -0.00000000000E+00 -0.45593999997E+02  0.45594000000E+02  0.51100000000E-03 0. -1.
    9900012    2    1    2    0    0  0.42302543104E+02 -0.96685605617E+01  0.79876149322E+00  0.47787259957E+02  0.19999949446E+02 0.  0.
        -12    1    1    2    0    0 -0.42302543104E+02  0.96685605617E+01 -0.79876149322E+00  0.43400740043E+02  0.00000000000E+00 0.  1.
         11    1    3    3    0    0  0.51351646887E+01 -0.13810776469E+01 -0.18609171253E+01  0.56338534464E+01  0.51100000000E-03 0. -1.
        -11    1    3    3    0    0  0.87457753042E+01 -0.10374585054E+02  0.10585401449E+01  0.13610330937E+02  0.51100000000E-03 0.  1.
         12    1    3    3    0    0  0.28421603111E+02  0.20871021397E+01  0.16011384737E+01  0.28543075573E+02  0.00000000000E+00 0. -1.
</event>
<event>
 7    1  0.3837332E-009  0.4778727E+02  0.7816164E-02  0.1312668E+00
        -11   -1    0    0    0    0  0.00000000000E+00  0.00000000000E+00  0.45593999997E+02  0.45594000000E+02  0.51100000000E-03 0. -1.
         11   -1    0    0    0    0 -0.00000000000E+00 -0.00000000000E+00 -0.45593999997E+02  0.45594000000E+02  0.51100000000E-03 0.  1.
    9900012    2    1    2    0    0 -0.36905098426E+02 -0.14247637862E+02 -0.17850545457E+02  0.47787269043E+02  0.19999990874E+02 0.  0.
        -12    1    1    2    0    0  0.36905098426E+02  0.14247637862E+02  0.17850545457E+02  0.43400730957E+02  0.00000000000E+00 0.  1.
         11    1    3    3    0    0 -0.11083144522E+02 -0.88761174371E+01 -0.70235675667E+01  0.15841466311E+02  0.51100000000E-03 0. -1.
        -11    1    3    3    0    0 -0.73105261357E+01 -0.64713390396E+01  0.12094517503E+01  0.98379263640E+01  0.51100000000E-03 0.  1.
        -12    1    3    3    0    0 -0.18511427769E+02  0.10998186147E+01 -0.12036429641E+02  0.22107876368E+02  0.00000000000E+00 0.  1.
</event>
<event>
 7    1  0.3837332E-009  0.4778728E+02  0.7816164E-02  0.1312668E+00
        -11   -1    0    0    0    0  0.00000000000E+00  0.00000000000E+00  0.45593999997E+02  0.45594000000E+02  0.51100000000E-03 0.  1.
         11   -1    0    0    0    0 -0.00000000000E+00 -0.00000000000E+00 -0.45593999997E+02  0.45594000000E+02  0.51100000000E-03 0. -1.
    9900012    2    1    2    0    0 -0.40174063397E+01 -0.36099019114E+02 -0.23755918548E+02  0.47787281103E+02  0.20000045861E+02 0.  0.
        -12    1    1    2    0    0  0.40174063397E+01  0.36099019114E+02  0.23755918548E+02  0.43400718897E+02  0.00000000000E+00 0.  1.
         11    1    3    3    0    0  0.52570049977E+01 -0.18137182707E+01 -0.28900465576E+01  0.62672198683E+01  0.51100000000E-03 0. -1.
        -11    1    3    3    0    0 -0.29956529077E-01  0.10475178342E+00  0.13844441544E+00  0.17617447901E+00  0.51100000000E-03 0.  1.
         12    1    3    3    0    0 -0.92444548084E+01 -0.34390052627E+02 -0.21004316406E+02  0.41343886756E+02  0.00000000000E+00 0. -1.
</event>
<event>
 7    1  0.3837332E-009  0.4778727E+02  0.7816164E-02  0.1312668E+00
        -11   -1    0    0    0    0  0.00000000000E+00  0.00000000000E+00  0.45593999997E+02  0.45594000000E+02  0.51100000000E-03 0.  1.
         11   -1    0    0    0    0 -0.00000000000E+00 -0.00000000000E+00 -0.45593999997E+02  0.45594000000E+02  0.51100000000E-03 0. -1.
    9900012    2    1    2    0    0 -0.38065399165E+02  0.18928497654E+02 -0.87384585058E+01  0.47787270811E+02  0.19999998936E+02 0.  0.
        -12    1    1    2    0    0  0.38065399165E+02 -0.18928497654E+02  0.87384585058E+01  0.43400729189E+02  0.00000000000E+00 0.  1.
         11    1    3    3    0    0 -0.24535699525E+02  0.71708106545E+01 -0.72409657443E+01  0.26567887793E+02  0.51100000000E-03 0. -1.
        -11    1    3    3    0    0 -0.90375086475E+01  0.69227676802E+00 -0.19376621720E+01  0.92687833415E+01  0.51100000000E-03 0.  1.
        -12    1    3    3    0    0 -0.44921909927E+01  0.11065410232E+02  0.44016941049E+00  0.11950599676E+02  0.00000000000E+00 0.  1.
</event>
<event>
 7    1  0.3837332E-009  0.4778727E+02  0.7816164E-02  0.1312668E+00
        -11   -1    0    0    0    0  0.00000000000E+00  0.00000000000E+00  0.45593999997E+02  0.45594000000E+02  0.51100000000E-03 0.  1.
         11   -1    0    0    0    0 -0.00000000000E+00 -0.00000000000E+00 -0.45593999997E+02  0.45594000000E+02  0.51100000000E-03 0. -1.
    9900012    2    1    2    0    0  0.83741061021E+01  0.13545041004E+02 -0.40373621613E+02  0.47787272921E+02  0.20000008556E+02 0.  0.
        -12    1    1    2    0    0 -0.83741061021E+01 -0.13545041004E+02  0.40373621613E+02  0.43400727079E+02  0.00000000000E+00 0.  1.
         11    1    3    3    0    0 -0.85073757133E-01  0.41642982980E+01 -0.62457530584E+01  0.75071998366E+01  0.51100000000E-03 0. -1.
        -11    1    3    3    0    0  0.26735141106E+01 -0.42436749751E+01 -0.16585103820E+02  0.17326919056E+02  0.51100000000E-03 0.  1.
        -12    1    3    3    0    0  0.57856657487E+01  0.13624417681E+02 -0.17542764735E+02  0.22953154029E+02  0.00000000000E+00 0.  1.
</event>
<event>
 7    1  0.3837332E-009  0.4778727E+02  0.7816164E-02  0.1312668E+00
        -11   -1    0    0    0    0  0.00000000000E+00  0.00000000000E+00  0.45593999997E+02  0.45594000000E+02  0.51100000000E-03 0. -1.
         11   -1    0    0    0    0 -0.00000000000E+00 -0.00000000000E+00 -0.45593999997E+02  0.45594000000E+02  0.51100000000E-03 0.  1.
    9900012    2    1    2    0    0  0.32222954308E+02  0.20900825244E+02  0.20210386294E+02  0.47787274265E+02  0.20000014682E+02 0.  0.
        -12    1    1    2    0    0 -0.32222954308E+02 -0.20900825244E+02 -0.20210386294E+02  0.43400725735E+02  0.00000000000E+00 0.  1.
         11    1    3    3    0    0  0.91583666778E+00  0.13376324631E+01  0.49957137081E+01  0.52521589012E+01  0.51100000000E-03 0.  1.
        -11    1    3    3    0    0  0.20178901144E+01 -0.16449306365E+01 -0.11465037497E+01  0.28446701781E+01  0.51100000000E-03 0. -1.
         12    1    3    3    0    0  0.29289227526E+02  0.21208123417E+02  0.16361176336E+02  0.39690445185E+02  0.00000000000E+00 0. -1.
</event>
<event>
 7    1  0.3837332E-009  0.4778734E+02  0.7816164E-02  0.1312667E+00
        -11   -1    0    0    0    0  0.00000000000E+00  0.00000000000E+00  0.45593999997E+02  0.45594000000E+02  0.51100000000E-03 0. -1.
         11   -1    0    0    0    0 -0.00000000000E+00 -0.00000000000E+00 -0.45593999997E+02  0.45594000000E+02  0.51100000000E-03 0.  1.
    9900012    2    1    2    0    0 -0.12473531986E+02  0.30659457685E+01  0.41456346736E+02  0.47787335162E+02  0.20000292336E+02 0.  0.
        -12    1    1    2    0    0  0.12473531986E+02 -0.30659457685E+01 -0.41456346736E+02  0.43400664838E+02  0.00000000000E+00 0.  1.
         11    1    3    3    0    0 -0.83962470060E+00  0.46322995913E+01  0.30325590693E+01  0.55999628491E+01  0.51100000000E-03 0.  1.
        -11    1    3    3    0    0  0.24075705426E+01 -0.14548607083E+01  0.31599583392E+01  0.42306444621E+01  0.51100000000E-03 0. -1.
         12    1    3    3    0    0 -0.14041477828E+02 -0.11149311460E+00  0.35263829328E+02  0.37956727851E+02  0.00000000000E+00 0. -1.
</event>
<event>
 7    1  0.3837332E-009  0.4778727E+02  0.7816164E-02  0.1312668E+00
        -11   -1    0    0    0    0  0.00000000000E+00  0.00000000000E+00  0.45593999997E+02  0.45594000000E+02  0.51100000000E-03 0.  1.
         11   -1    0    0    0    0 -0.00000000000E+00 -0.00000000000E+00 -0.45593999997E+02  0.45594000000E+02  0.51100000000E-03 0. -1.
    9900012    2    1    2    0    0 -0.26407966876E+02 -0.14129632287E+02 -0.31410122701E+02  0.47787273840E+02  0.20000012748E+02 0.  0.
        -12    1    1    2    0    0  0.26407966876E+02  0.14129632287E+02  0.31410122701E+02  0.43400726160E+02  0.00000000000E+00 0.  1.
         11    1    3    3    0    0 -0.19921961202E+02 -0.50140983669E+01 -0.19444614394E+02  0.28286370389E+02  0.51100000000E-03 0. -1.
        -11    1    3    3    0    0 -0.52596930637E+01 -0.31721953635E+01 -0.65199539311E-01  0.61425927579E+01  0.51100000000E-03 0.  1.
        -12    1    3    3    0    0 -0.12263126094E+01 -0.59433385568E+01 -0.11900308768E+02  0.13358310694E+02  0.00000000000E+00 0.  1.
</event>
<event>
 7    1  0.3837332E-009  0.4778727E+02  0.7816164E-02  0.1312668E+00
        -11   -1    0    0    0    0  0.00000000000E+00  0.00000000000E+00  0.45593999997E+02  0.45594000000E+02  0.51100000000E-03 0.  1.
         11   -1    0    0    0    0 -0.00000000000E+00 -0.00000000000E+00 -0.45593999997E+02  0.45594000000E+02  0.51100000000E-03 0. -1.
    9900012    2    1    2    0    0 -0.26492910031E+02 -0.32419666007E+01 -0.34223367392E+02  0.47787268382E+02  0.19999987859E+02 0.  0.
        -12    1    1    2    0    0  0.26492910031E+02  0.32419666007E+01  0.34223367392E+02  0.43400731618E+02  0.00000000000E+00 0.  1.
         11    1    3    3    0    0 -0.21833026565E+02 -0.46752073890E+01 -0.21557743488E+02  0.31036670531E+02  0.51100000000E-03 0. -1.
        -11    1    3    3    0    0 -0.63297485965E+01  0.30951849053E+01 -0.12548979340E+02  0.14391760477E+02  0.51100000000E-03 0.  1.
         12    1    3    3    0    0  0.16698651304E+01 -0.16619441169E+01 -0.11664456496E+00  0.23588373738E+01  0.00000000000E+00 0. -1.
</event>
<event>
 7    1  0.3837332E-009  0.4778727E+02  0.7816164E-02  0.1312668E+00
        -11   -1    0    0    0    0  0.00000000000E+00  0.00000000000E+00  0.45593999997E+02  0.45594000000E+02  0.51100000000E-03 0. -1.
         11   -1    0    0    0    0 -0.00000000000E+00 -0.00000000000E+00 -0.45593999997E+02  0.45594000000E+02  0.51100000000E-03 0.  1.
    9900012    2    1    2    0    0 -0.20755178702E+02 -0.21392768623E+02  0.31546716635E+02  0.47787270481E+02  0.19999997431E+02 0.  0.
        -12    1    1    2    0    0  0.20755178702E+02  0.21392768623E+02 -0.31546716635E+02  0.43400729519E+02  0.00000000000E+00 0.  1.
         11    1    3    3    0    0 -0.11677092079E+01  0.20359533002E+01  0.57850500144E+00  0.24172957892E+01  0.51100000000E-03 0. -1.
        -11    1    3    3    0    0 -0.86151545157E+01 -0.49738077614E+01  0.35870496274E+01  0.10574808569E+02  0.51100000000E-03 0.  1.
         12    1    3    3    0    0 -0.10972314978E+02 -0.18454914162E+02  0.27381162006E+02  0.34795166123E+02  0.00000000000E+00 0. -1.
</event>
<event>
 7    1  0.3837332E-009  0.4778728E+02  0.7816164E-02  0.1312668E+00
        -11   -1    0    0    0    0  0.00000000000E+00  0.00000000000E+00  0.45593999997E+02  0.45594000000E+02  0.51100000000E-03 0.  1.
         11   -1    0    0    0    0 -0.00000000000E+00 -0.00000000000E+00 -0.45593999997E+02  0.45594000000E+02  0.51100000000E-03 0. -1.
    9900012    2    1    2    0    0  0.24266852391E+02  0.77967383644E+01 -0.35127665125E+02  0.47787284439E+02  0.20000061070E+02 0.  0.
        -12    1    1    2    0    0 -0.24266852391E+02 -0.77967383644E+01  0.35127665125E+02  0.43400715561E+02  0.00000000000E+00 0.  1.
         11    1    3    3    0    0 -0.20449231697E+01  0.60843952072E+00 -0.30763243292E+01  0.37437522701E+01  0.51100000000E-03 0.  1.
        -11    1    3    3    0    0  0.11075757628E+02  0.90166684578E+01 -0.19768393895E+02  0.24387745171E+02  0.51100000000E-03 0. -1.
         12    1    3    3    0    0  0.15236017933E+02 -0.18283696141E+01 -0.12282946901E+02  0.19655786997E+02  0.00000000000E+00 0. -1.
</event>
<event>
 7    1  0.3837332E-009  0.4778729E+02  0.7816164E-02  0.1312668E+00
        -11   -1    0    0    0    0  0.00000000000E+00  0.00000000000E+00  0.45593999997E+02  0.45594000000E+02  0.51100000000E-03 0.  1.
         11   -1    0    0    0    0 -0.00000000000E+00 -0.00000000000E+00 -0.45593999997E+02  0.45594000000E+02  0.51100000000E-03 0. -1.
    9900012    2    1    2    0    0 -0.59191844851E+01 -0.40594998282E+02  0.14164437482E+02  0.47787286646E+02  0.20000071134E+02 0.  0.
        -12    1    1    2    0    0  0.59191844851E+01  0.40594998282E+02 -0.14164437482E+02  0.43400713354E+02  0.00000000000E+00 0.  1.
         11    1    3    3    0    0 -0.35408919095E+01 -0.12638105641E+01 -0.51321802401E+00  0.37945389256E+01  0.51100000000E-03 0. -1.
        -11    1    3    3    0    0 -0.17641998716E+01 -0.11206604398E+01  0.36702195164E+01  0.42235994800E+01  0.51100000000E-03 0.  1.
         12    1    3    3    0    0 -0.61409270402E+00 -0.38210527278E+02  0.11007435989E+02  0.39769148240E+02  0.00000000000E+00 0. -1.
</event>
<event>
 7    1  0.3837332E-009  0.4778727E+02  0.7816164E-02  0.1312668E+00
        -11   -1    0    0    0    0  0.00000000000E+00  0.00000000000E+00  0.45593999997E+02  0.45594000000E+02  0.51100000000E-03 0. -1.
         11   -1    0    0    0    0 -0.00000000000E+00 -0.00000000000E+00 -0.45593999997E+02  0.45594000000E+02  0.51100000000E-03 0.  1.
    9900012    2    1    2    0    0  0.30608603504E+02  0.41083953842E+01 -0.30493565946E+02  0.47787273218E+02  0.20000009910E+02 0.  0.
        -12    1    1    2    0    0 -0.30608603504E+02 -0.41083953842E+01  0.30493565946E+02  0.43400726782E+02  0.00000000000E+00 0.  1.
         11    1    3    3    0    0  0.10102011861E+02  0.74871090576E+01 -0.16142952255E+02  0.20462217706E+02  0.51100000000E-03 0. -1.
        -11    1    3    3    0    0  0.49905351297E+01  0.35318639184E+01 -0.24549168794E+01  0.65883321687E+01  0.51100000000E-03 0.  1.
         12    1    3    3    0    0  0.15516056513E+02 -0.69105775918E+01 -0.11895696811E+02  0.20736723343E+02  0.00000000000E+00 0. -1.
</event>
<event>
 7    1  0.3837332E-009  0.4778727E+02  0.7816164E-02  0.1312668E+00
        -11   -1    0    0    0    0  0.00000000000E+00  0.00000000000E+00  0.45593999997E+02  0.45594000000E+02  0.51100000000E-03 0.  1.
         11   -1    0    0    0    0 -0.00000000000E+00 -0.00000000000E+00 -0.45593999997E+02  0.45594000000E+02  0.51100000000E-03 0. -1.
    9900012    2    1    2    0    0  0.24738287244E+02  0.26252172422E+02 -0.24134285424E+02  0.47787272523E+02  0.20000006742E+02 0.  0.
        -12    1    1    2    0    0 -0.24738287244E+02 -0.26252172422E+02  0.24134285424E+02  0.43400727477E+02  0.00000000000E+00 0.  1.
         11    1    3    3    0    0  0.11518285866E+02  0.21736591900E+02 -0.19612583580E+02  0.31461147018E+02  0.51100000000E-03 0. -1.
        -11    1    3    3    0    0 -0.81445619916E+00 -0.22805301687E+00 -0.32408169970E-01  0.84640275842E+00  0.51100000000E-03 0.  1.
         12    1    3    3    0    0  0.14034457577E+02  0.47436335387E+01 -0.44892936731E+01  0.15479722747E+02  0.00000000000E+00 0. -1.
</event>
<event>
 7    1  0.3837332E-009  0.4778727E+02  0.7816164E-02  0.1312668E+00
        -11   -1    0    0    0    0  0.00000000000E+00  0.00000000000E+00  0.45593999997E+02  0.45594000000E+02  0.51100000000E-03 0.  1.
         11   -1    0    0    0    0 -0.00000000000E+00 -0.00000000000E+00 -0.45593999997E+02  0.45594000000E+02  0.51100000000E-03 0. -1.
    9900012    2    1    2    0    0 -0.44400741157E+01 -0.12537590287E+02 -0.41312440016E+02  0.47787272720E+02  0.20000007639E+02 0.  0.
        -12    1    1    2    0    0  0.44400741157E+01  0.12537590287E+02  0.41312440016E+02  0.43400727280E+02  0.00000000000E+00 0.  1.
         11    1    3    3    0    0 -0.24086335975E+01  0.38893733434E+01 -0.10390357035E+02  0.11352896564E+02  0.51100000000E-03 0. -1.
        -11    1    3    3    0    0  0.23839771369E+01 -0.18584286632E+01 -0.16579421150E+01  0.34475899413E+01  0.51100000000E-03 0.  1.
         12    1    3    3    0    0 -0.44154176550E+01 -0.14568534967E+02 -0.29264140866E+02  0.32986786215E+02  0.00000000000E+00 0. -1.
</event>
<event>
 7    1  0.3837332E-009  0.4778727E+02  0.7816164E-02  0.1312668E+00
        -11   -1    0    0    0    0  0.00000000000E+00  0.00000000000E+00  0.45593999997E+02  0.45594000000E+02  0.51100000000E-03 0.  1.
         11   -1    0    0    0    0 -0.00000000000E+00 -0.00000000000E+00 -0.45593999997E+02  0.45594000000E+02  0.51100000000E-03 0. -1.
    9900012    2    1    2    0    0 -0.46386987260E+01 -0.12509555766E+02 -0.41299113634E+02  0.47787270763E+02  0.19999998717E+02 0.  0.
        -12    1    1    2    0    0  0.46386987260E+01  0.12509555766E+02  0.41299113634E+02  0.43400729237E+02  0.00000000000E+00 0.  1.
         11    1    3    3    0    0 -0.36014420650E+01 -0.36629512651E+01 -0.98494101119E+01  0.11108486699E+02  0.51100000000E-03 0. -1.
        -11    1    3    3    0    0  0.47309491456E+00 -0.54505352702E+01 -0.48574429834E+00  0.54925496187E+01  0.51100000000E-03 0.  1.
        -12    1    3    3    0    0 -0.15103515756E+01 -0.33960692311E+01 -0.30963959224E+02  0.31186234446E+02  0.00000000000E+00 0.  1.
</event>
<event>
 7    1  0.3837332E-009  0.4778725E+02  0.7816164E-02  0.1312668E+00
        -11   -1    0    0    0    0  0.00000000000E+00  0.00000000000E+00  0.45593999997E+02  0.45594000000E+02  0.51100000000E-03 0. -1.
         11   -1    0    0    0    0 -0.00000000000E+00 -0.00000000000E+00 -0.45593999997E+02  0.45594000000E+02  0.51100000000E-03 0.  1.
    9900012    2    1    2    0    0  0.19568439974E+02  0.37377376672E+02  0.10180007519E+02  0.47787254811E+02  0.19999925985E+02 0.  0.
        -12    1    1    2    0    0 -0.19568439974E+02 -0.37377376672E+02 -0.10180007519E+02  0.43400745189E+02  0.00000000000E+00 0.  1.
         11    1    3    3    0    0  0.69885642440E+01  0.19722209172E+02 -0.26449456646E+01  0.21090313005E+02  0.51100000000E-03 0. -1.
        -11    1    3    3    0    0  0.80089099223E+01  0.10232599267E+02  0.25845158056E+01  0.13248714960E+02  0.51100000000E-03 0.  1.
        -12    1    3    3    0    0  0.45709658078E+01  0.74225682331E+01  0.10240437378E+02  0.13448226845E+02  0.00000000000E+00 0.  1.
</event>
<event>
 7    1  0.3837332E-009  0.4778727E+02  0.7816164E-02  0.1312668E+00
        -11   -1    0    0    0    0  0.00000000000E+00  0.00000000000E+00  0.45593999997E+02  0.45594000000E+02  0.51100000000E-03 0.  1.
         11   -1    0    0    0    0 -0.00000000000E+00 -0.00000000000E+00 -0.45593999997E+02  0.45594000000E+02  0.51100000000E-03 0. -1.
    9900012    2    1    2    0    0 -0.12145324024E+02  0.23809019089E+02 -0.34194227551E+02  0.47787268630E+02  0.19999988992E+02 0.  0.
        -12    1    1    2    0    0  0.12145324024E+02 -0.23809019089E+02  0.34194227551E+02  0.43400731370E+02  0.00000000000E+00 0.  1.
         11    1    3    3    0    0 -0.74457740281E+01  0.15200128782E+02 -0.12201730029E+02  0.20865418324E+02  0.51100000000E-03 0. -1.
        -11    1    3    3    0    0 -0.86957546958E+01  0.51433816349E+01 -0.16061361527E+02  0.18974663600E+02  0.51100000000E-03 0.  1.
         12    1    3    3    0    0  0.39962046995E+01  0.34655086722E+01 -0.59311359954E+01  0.79471867068E+01  0.00000000000E+00 0. -1.
</event>
<event>
 7    1  0.3837332E-009  0.4778727E+02  0.7816164E-02  0.1312668E+00
        -11   -1    0    0    0    0  0.00000000000E+00  0.00000000000E+00  0.45593999997E+02  0.45594000000E+02  0.51100000000E-03 0. -1.
         11   -1    0    0    0    0 -0.00000000000E+00 -0.00000000000E+00 -0.45593999997E+02  0.45594000000E+02  0.51100000000E-03 0.  1.
    9900012    2    1    2    0    0 -0.10602484786E+02 -0.54628369990E+01  0.41729701761E+02  0.47787270965E+02  0.19999999636E+02 0.  0.
        -12    1    1    2    0    0  0.10602484786E+02  0.54628369990E+01 -0.41729701761E+02  0.43400729035E+02  0.00000000000E+00 0.  1.
         11    1    3    3    0    0 -0.98591462201E+01 -0.31120030404E+01  0.17622809225E+02  0.20431611106E+02  0.51100000000E-03 0. -1.
        -11    1    3    3    0    0 -0.59595495603E+01 -0.38528120513E+01  0.10189608891E+02  0.12417267062E+02  0.51100000000E-03 0.  1.
         12    1    3    3    0    0  0.52162109940E+01  0.15019780927E+01  0.13917283644E+02  0.14938392797E+02  0.00000000000E+00 0. -1.
</event>
<event>
 7    1  0.3837332E-009  0.4778727E+02  0.7816164E-02  0.1312668E+00
        -11   -1    0    0    0    0  0.00000000000E+00  0.00000000000E+00  0.45593999997E+02  0.45594000000E+02  0.51100000000E-03 0.  1.
         11   -1    0    0    0    0 -0.00000000000E+00 -0.00000000000E+00 -0.45593999997E+02  0.45594000000E+02  0.51100000000E-03 0. -1.
    9900012    2    1    2    0    0 -0.72804977355E+01 -0.50195773940E+01 -0.42490255460E+02  0.47787267131E+02  0.19999982156E+02 0.  0.
        -12    1    1    2    0    0  0.72804977355E+01  0.50195773940E+01  0.42490255460E+02  0.43400732869E+02  0.00000000000E+00 0.  1.
         11    1    3    3    0    0 -0.37355001569E+01 -0.26605631731E+01 -0.19426003263E+02  0.19960014050E+02  0.51100000000E-03 0. -1.
        -11    1    3    3    0    0 -0.94186841324E+01 -0.20717296607E+01 -0.13291118327E+02  0.16421251512E+02  0.51100000000E-03 0.  1.
        -12    1    3    3    0    0  0.58736865537E+01 -0.28728456024E+00 -0.97731338703E+01  0.11406001569E+02  0.00000000000E+00 0.  1.
</event>
<event>
 7    1  0.3837332E-009  0.4778727E+02  0.7816164E-02  0.1312668E+00
        -11   -1    0    0    0    0  0.00000000000E+00  0.00000000000E+00  0.45593999997E+02  0.45594000000E+02  0.51100000000E-03 0.  1.
         11   -1    0    0    0    0 -0.00000000000E+00 -0.00000000000E+00 -0.45593999997E+02  0.45594000000E+02  0.51100000000E-03 0. -1.
    9900012    2    1    2    0    0  0.78021673751E+01  0.41394458962E+02  0.10452174033E+02  0.47787274309E+02  0.20000014884E+02 0.  0.
        -12    1    1    2    0    0 -0.78021673751E+01 -0.41394458962E+02 -0.10452174033E+02  0.43400725691E+02  0.00000000000E+00 0.  1.
         11    1    3    3    0    0  0.43176082146E+01  0.11674655360E+02 -0.34909798684E+01  0.12927732175E+02  0.51100000000E-03 0. -1.
        -11    1    3    3    0    0  0.22963376598E+01  0.11201947873E+01  0.36196044207E+01  0.44305236071E+01  0.51100000000E-03 0.  1.
        -12    1    3    3    0    0  0.11882215008E+01  0.28599608814E+02  0.10323549481E+02  0.30429018527E+02  0.00000000000E+00 0.  1.
</event>
<event>
 7    1  0.3837332E-009  0.4778727E+02  0.7816164E-02  0.1312668E+00
        -11   -1    0    0    0    0  0.00000000000E+00  0.00000000000E+00  0.45593999997E+02  0.45594000000E+02  0.51100000000E-03 0.  1.
         11   -1    0    0    0    0 -0.00000000000E+00 -0.00000000000E+00 -0.45593999997E+02  0.45594000000E+02  0.51100000000E-03 0. -1.
    9900012    2    1    2    0    0 -0.11979085242E+02 -0.29015403851E+02 -0.29970504891E+02  0.47787270660E+02  0.19999998245E+02 0.  0.
        -12    1    1    2    0    0  0.11979085242E+02  0.29015403851E+02  0.29970504891E+02  0.43400729340E+02  0.00000000000E+00 0.  1.
         11    1    3    3    0    0 -0.17307348972E+01 -0.82744909405E+00  0.13193323266E+01  0.23282511327E+01  0.51100000000E-03 0. -1.
        -11    1    3    3    0    0 -0.32666862705E+01 -0.14294883229E+02 -0.61532047573E+01  0.15902102212E+02  0.51100000000E-03 0.  1.
         12    1    3    3    0    0 -0.69816640740E+01 -0.13893071529E+02 -0.25136632460E+02  0.29556917315E+02  0.00000000000E+00 0. -1.
</event>
<event>
 7    1  0.3837332E-009  0.4778727E+02  0.7816164E-02  0.1312668E+00
        -11   -1    0    0    0    0  0.00000000000E+00  0.00000000000E+00  0.45593999997E+02  0.45594000000E+02  0.51100000000E-03 0.  1.
         11   -1    0    0    0    0 -0.00000000000E+00 -0.00000000000E+00 -0.45593999997E+02  0.45594000000E+02  0.51100000000E-03 0. -1.
    9900012    2    1    2    0    0 -0.27850218983E+02 -0.36754893213E+01 -0.33082919579E+02  0.47787268589E+02  0.19999988804E+02 0.  0.
        -12    1    1    2    0    0  0.27850218983E+02  0.36754893213E+01  0.33082919579E+02  0.43400731411E+02  0.00000000000E+00 0.  1.
         11    1    3    3    0    0  0.25878364173E+01  0.58367803146E-01 -0.53600921996E+01  0.59523854691E+01  0.51100000000E-03 0. -1.
        -11    1    3    3    0    0 -0.73598086519E+01 -0.32541824352E+01 -0.51805302969E+01  0.95704953442E+01  0.51100000000E-03 0.  1.
         12    1    3    3    0    0 -0.23078246749E+02 -0.47967468927E+00 -0.22542297082E+02  0.32264387776E+02  0.00000000000E+00 0. -1.
</event>
<event>
 7    1  0.3946623E-009  0.4778727E+02  0.7816164E-02  0.1312668E+00
        -11   -1    0    0    0    0  0.00000000000E+00  0.00000000000E+00  0.45593999997E+02  0.45594000000E+02  0.51100000000E-03 0. -1.
         11   -1    0    0    0    0 -0.00000000000E+00 -0.00000000000E+00 -0.45593999997E+02  0.45594000000E+02  0.51100000000E-03 0.  1.
    9900012    2    1    2    0    0 -0.20481499519E+02  0.28405678072E+02  0.25636866890E+02  0.47787270591E+02  0.19999997932E+02 0.  0.
        -12    1    1    2    0    0  0.20481499519E+02 -0.28405678072E+02 -0.25636866890E+02  0.43400729409E+02  0.00000000000E+00 0.  1.
         11    1    3    3    0    0 -0.36511749478E+01 -0.54325269626E+00  0.83127562140E+00  0.37838104355E+01  0.51100000000E-03 0. -1.
        -11    1    3    3    0    0  0.96947426334E+00  0.15035671170E+01 -0.12502209704E+01  0.21825780991E+01  0.51100000000E-03 0.  1.
         12    1    3    3    0    0 -0.17799798835E+02  0.27445363651E+02  0.26055812239E+02  0.41820882056E+02  0.00000000000E+00 0. -1.
</event>
<event>
 7    1  0.3837332E-009  0.4778727E+02  0.7816164E-02  0.1312668E+00
        -11   -1    0    0    0    0  0.00000000000E+00  0.00000000000E+00  0.45593999997E+02  0.45594000000E+02  0.51100000000E-03 0. -1.
         11   -1    0    0    0    0 -0.00000000000E+00 -0.00000000000E+00 -0.45593999997E+02  0.45594000000E+02  0.51100000000E-03 0.  1.
    9900012    2    1    2    0    0  0.31148347264E+02  0.16386025226E+02  0.25394919753E+02  0.47787270637E+02  0.19999998141E+02 0.  0.
        -12    1    1    2    0    0 -0.31148347264E+02 -0.16386025226E+02 -0.25394919753E+02  0.43400729363E+02  0.00000000000E+00 0.  1.
         11    1    3    3    0    0  0.26122425041E+01  0.61763134644E+01  0.38891946337E+01  0.77521928556E+01  0.51100000000E-03 0. -1.
        -11    1    3    3    0    0  0.21338271832E+01  0.50858786205E+01  0.85691458633E+01  0.10190664398E+02  0.51100000000E-03 0.  1.
         12    1    3    3    0    0  0.26402277577E+02  0.51238331408E+01  0.12936579256E+02  0.29844413383E+02  0.00000000000E+00 0. -1.
</event>
<event>
 7    1  0.3837332E-009  0.4778727E+02  0.7816164E-02  0.1312668E+00
        -11   -1    0    0    0    0  0.00000000000E+00  0.00000000000E+00  0.45593999997E+02  0.45594000000E+02  0.51100000000E-03 0.  1.
         11   -1    0    0    0    0 -0.00000000000E+00 -0.00000000000E+00 -0.45593999997E+02  0.45594000000E+02  0.51100000000E-03 0. -1.
    9900012    2    1    2    0    0 -0.37885332679E+02  0.19204479779E+02  0.89170236259E+01  0.47787265143E+02  0.19999973091E+02 0.  0.
        -12    1    1    2    0    0  0.37885332679E+02 -0.19204479779E+02 -0.89170236259E+01  0.43400734857E+02  0.00000000000E+00 0.  1.
         11    1    3    3    0    0 -0.13192906334E+02  0.11427811412E+02 -0.29451764461E+01  0.17700895903E+02  0.51100000000E-03 0. -1.
        -11    1    3    3    0    0 -0.14410487825E+01 -0.13477274424E+01 -0.74297008878E+00  0.21083158365E+01  0.51100000000E-03 0.  1.
         12    1    3    3    0    0 -0.23251377563E+02  0.91243958101E+01  0.12605170161E+02  0.27978053403E+02  0.00000000000E+00 0. -1.
</event>
<event>
 7    1  0.3837332E-009  0.4778727E+02  0.7816164E-02  0.1312668E+00
        -11   -1    0    0    0    0  0.00000000000E+00  0.00000000000E+00  0.45593999997E+02  0.45594000000E+02  0.51100000000E-03 0.  1.
         11   -1    0    0    0    0 -0.00000000000E+00 -0.00000000000E+00 -0.45593999997E+02  0.45594000000E+02  0.51100000000E-03 0. -1.
    9900012    2    1    2    0    0  0.16262524838E+02 -0.89865621960E+01 -0.39222384036E+02  0.47787269318E+02  0.19999992129E+02 0.  0.
        -12    1    1    2    0    0 -0.16262524838E+02  0.89865621960E+01  0.39222384036E+02  0.43400730682E+02  0.00000000000E+00 0.  1.
         11    1    3    3    0    0  0.22517503554E+01  0.14737813190E+01 -0.98523391538E+01  0.10213275581E+02  0.51100000000E-03 0.  1.
        -11    1    3    3    0    0  0.12575149964E+02 -0.10878461363E+02 -0.31113088386E+02  0.35277465717E+02  0.51100000000E-03 0. -1.
        -12    1    3    3    0    0  0.14356245189E+01  0.41811784782E+00  0.17430435030E+01  0.22965280201E+01  0.00000000000E+00 0.  1.
</event>
<event>
 7    1  0.3837332E-009  0.4778727E+02  0.7816164E-02  0.1312668E+00
        -11   -1    0    0    0    0  0.00000000000E+00  0.00000000000E+00  0.45593999997E+02  0.45594000000E+02  0.51100000000E-03 0.  1.
         11   -1    0    0    0    0 -0.00000000000E+00 -0.00000000000E+00 -0.45593999997E+02  0.45594000000E+02  0.51100000000E-03 0. -1.
    9900012    2    1    2    0    0 -0.22193951577E+02 -0.34166429635E+02 -0.14956834649E+02  0.47787270705E+02  0.19999998452E+02 0.  0.
        -12    1    1    2    0    0  0.22193951577E+02  0.34166429635E+02  0.14956834649E+02  0.43400729295E+02  0.00000000000E+00 0.  1.
         11    1    3    3    0    0 -0.17935833598E+02 -0.14142900913E+02 -0.96520669972E+01  0.24796737097E+02  0.51100000000E-03 0. -1.
        -11    1    3    3    0    0  0.16613412139E+00 -0.23978635599E+01 -0.41320351966E+01  0.47802787916E+01  0.51100000000E-03 0.  1.
        -12    1    3    3    0    0 -0.44242521002E+01 -0.17625665162E+02 -0.11727324556E+01  0.18210254816E+02  0.00000000000E+00 0.  1.
</event>
<event>
 7    1  0.3837332E-009  0.4778724E+02  0.7816164E-02  0.1312668E+00
        -11   -1    0    0    0    0  0.00000000000E+00  0.00000000000E+00  0.45593999997E+02  0.45594000000E+02  0.51100000000E-03 0.  1.
         11   -1    0    0    0    0 -0.00000000000E+00 -0.00000000000E+00 -0.45593999997E+02  0.45594000000E+02  0.51100000000E-03 0. -1.
    9900012    2    1    2    0    0 -0.31908893202E+02  0.27939320644E+02 -0.92110046219E+01  0.47787242984E+02  0.19999872060E+02 0.  0.
        -12    1    1    2    0    0  0.31908893202E+02 -0.27939320644E+02  0.92110046219E+01  0.43400757016E+02  0.00000000000E+00 0.  1.
         11    1    3    3    0    0 -0.46087928165E+01  0.25668021862E+01  0.15966198151E+01  0.55116821192E+01  0.51100000000E-03 0. -1.
        -11    1    3    3    0    0 -0.12410596894E+01  0.48435031211E-01 -0.53967664894E+01  0.55378392815E+01  0.51100000000E-03 0.  1.
         12    1    3    3    0    0 -0.26059040696E+02  0.25324083427E+02 -0.54108579476E+01  0.36737721583E+02  0.00000000000E+00 0. -1.
</event>
<event>
 7    1  0.3837332E-009  0.4778727E+02  0.7816164E-02  0.1312668E+00
        -11   -1    0    0    0    0  0.00000000000E+00  0.00000000000E+00  0.45593999997E+02  0.45594000000E+02  0.51100000000E-03 0. -1.
         11   -1    0    0    0    0 -0.00000000000E+00 -0.00000000000E+00 -0.45593999997E+02  0.45594000000E+02  0.51100000000E-03 0.  1.
    9900012    2    1    2    0    0 -0.36032301277E+02 -0.23740740203E+02  0.46555101378E+01  0.47787271258E+02  0.20000000975E+02 0.  0.
        -12    1    1    2    0    0  0.36032301277E+02  0.23740740203E+02 -0.46555101378E+01  0.43400728742E+02  0.00000000000E+00 0.  1.
         11    1    3    3    0    0 -0.11539144454E+02 -0.26219708040E+01  0.72866327913E+01  0.13896819900E+02  0.51100000000E-03 0. -1.
        -11    1    3    3    0    0 -0.16033902840E+01 -0.28380184126E+00  0.20158945281E+01  0.25913770272E+01  0.51100000000E-03 0.  1.
         12    1    3    3    0    0 -0.22889766538E+02 -0.20834967557E+02 -0.46470171816E+01  0.31299074331E+02  0.00000000000E+00 0. -1.
</event>
<event>
 7    1  0.3837332E-009  0.4778727E+02  0.7816164E-02  0.1312668E+00
        -11   -1    0    0    0    0  0.00000000000E+00  0.00000000000E+00  0.45593999997E+02  0.45594000000E+02  0.51100000000E-03 0. -1.
         11   -1    0    0    0    0 -0.00000000000E+00 -0.00000000000E+00 -0.45593999997E+02  0.45594000000E+02  0.51100000000E-03 0.  1.
    9900012    2    1    2    0    0 -0.22077742348E+02 -0.10875436064E+02  0.35748022668E+02  0.47787274874E+02  0.20000017463E+02 0.  0.
        -12    1    1    2    0    0  0.22077742348E+02  0.10875436064E+02 -0.35748022668E+02  0.43400725126E+02  0.00000000000E+00 0.  1.
         11    1    3    3    0    0 -0.16317895991E+01 -0.59870539506E+00  0.51143507774E+01  0.54016450810E+01  0.51100000000E-03 0. -1.
        -11    1    3    3    0    0 -0.11334242567E+02  0.23534452170E+01  0.21263250586E+02  0.24210113273E+02  0.51100000000E-03 0.  1.
         12    1    3    3    0    0 -0.91117101821E+01 -0.12630175886E+02  0.93704213042E+01  0.18175516520E+02  0.00000000000E+00 0. -1.
</event>
<event>
 7    1  0.3837332E-009  0.4778728E+02  0.7816164E-02  0.1312668E+00
        -11   -1    0    0    0    0  0.00000000000E+00  0.00000000000E+00  0.45593999997E+02  0.45594000000E+02  0.51100000000E-03 0. -1.
         11   -1    0    0    0    0 -0.00000000000E+00 -0.00000000000E+00 -0.45593999997E+02  0.45594000000E+02  0.51100000000E-03 0.  1.
    9900012    2    1    2    0    0  0.33074187179E+02  0.27448079167E+02  0.60268904375E+01  0.47787282081E+02  0.20000050320E+02 0.  0.
        -12    1    1    2    0    0 -0.33074187179E+02 -0.27448079167E+02 -0.60268904375E+01  0.43400717919E+02  0.00000000000E+00 0.  1.
         11    1    3    3    0    0  0.19795367189E+02  0.15564258917E+02 -0.33748463081E+01  0.25406540608E+02  0.51100000000E-03 0. -1.
        -11    1    3    3    0    0  0.53971938894E+01 -0.47108369009E+00  0.10677002949E+01  0.55219204906E+01  0.51100000000E-03 0.  1.
         12    1    3    3    0    0  0.78816261005E+01  0.12354903941E+02  0.83340364506E+01  0.16858820983E+02  0.00000000000E+00 0. -1.
</event>
<event>
 7    1  0.3837332E-009  0.4778728E+02  0.7816164E-02  0.1312668E+00
        -11   -1    0    0    0    0  0.00000000000E+00  0.00000000000E+00  0.45593999997E+02  0.45594000000E+02  0.51100000000E-03 0. -1.
         11   -1    0    0    0    0 -0.00000000000E+00 -0.00000000000E+00 -0.45593999997E+02  0.45594000000E+02  0.51100000000E-03 0.  1.
    9900012    2    1    2    0    0 -0.22597869240E+02  0.37015387083E+02  0.16792506070E+01  0.47787280447E+02  0.20000042871E+02 0.  0.
        -12    1    1    2    0    0  0.22597869240E+02 -0.37015387083E+02 -0.16792506070E+01  0.43400719553E+02  0.00000000000E+00 0.  1.
         11    1    3    3    0    0 -0.47411206081E+01  0.62064444353E+01 -0.96025011520E+00  0.78689426032E+01  0.51100000000E-03 0. -1.
        -11    1    3    3    0    0 -0.88504832963E+01  0.16759449841E+02  0.10283154444E+02  0.21562779949E+02  0.51100000000E-03 0.  1.
        -12    1    3    3    0    0 -0.90062653353E+01  0.14049492807E+02 -0.76436537214E+01  0.18355557895E+02  0.00000000000E+00 0.  1.
</event>
<event>
 7    1  0.3837332E-009  0.4778728E+02  0.7816164E-02  0.1312668E+00
        -11   -1    0    0    0    0  0.00000000000E+00  0.00000000000E+00  0.45593999997E+02  0.45594000000E+02  0.51100000000E-03 0. -1.
         11   -1    0    0    0    0 -0.00000000000E+00 -0.00000000000E+00 -0.45593999997E+02  0.45594000000E+02  0.51100000000E-03 0.  1.
    9900012    2    1    2    0    0  0.14114378738E+02  0.39850119278E+02  0.98170879769E+01  0.47787275237E+02  0.20000019114E+02 0.  0.
        -12    1    1    2    0    0 -0.14114378738E+02 -0.39850119278E+02 -0.98170879769E+01  0.43400724763E+02  0.00000000000E+00 0.  1.
         11    1    3    3    0    0  0.25603959490E+01  0.57815371525E+01  0.92350768030E+01  0.11192338588E+02  0.51100000000E-03 0. -1.
        -11    1    3    3    0    0  0.34216354103E+01  0.46178436817E+01 -0.15949478702E+01  0.59645559868E+01  0.51100000000E-03 0.  1.
         12    1    3    3    0    0  0.81323473787E+01  0.29450738444E+02  0.21769590441E+01  0.30630380661E+02  0.00000000000E+00 0. -1.
</event>
<event>
 7    1  0.3837332E-009  0.4778728E+02  0.7816164E-02  0.1312668E+00
        -11   -1    0    0    0    0  0.00000000000E+00  0.00000000000E+00  0.45593999997E+02  0.45594000000E+02  0.51100000000E-03 0.  1.
         11   -1    0    0    0    0 -0.00000000000E+00 -0.00000000000E+00 -0.45593999997E+02  0.45594000000E+02  0.51100000000E-03 0. -1.
    9900012    2    1    2    0    0 -0.27100385661E+02  0.32639958019E+02 -0.91556059889E+01  0.47787275542E+02  0.20000020505E+02 0.  0.
        -12    1    1    2    0    0  0.27100385661E+02 -0.32639958019E+02  0.91556059889E+01  0.43400724458E+02  0.00000000000E+00 0.  1.
         11    1    3    3    0    0 -0.11507710565E+02  0.52683255774E+01 -0.29280865395E+01  0.12990625384E+02  0.51100000000E-03 0. -1.
        -11    1    3    3    0    0 -0.88934381087E+01  0.47402277928E+01 -0.47696213552E+01  0.11149542101E+02  0.51100000000E-03 0.  1.
        -12    1    3    3    0    0 -0.66992369877E+01  0.22631404649E+02 -0.14578980942E+01  0.23647108057E+02  0.00000000000E+00 0.  1.
</event>
<event>
 7    1  0.3837332E-009  0.4778725E+02  0.7816164E-02  0.1312668E+00
        -11   -1    0    0    0    0  0.00000000000E+00  0.00000000000E+00  0.45593999997E+02  0.45594000000E+02  0.51100000000E-03 0.  1.
         11   -1    0    0    0    0 -0.00000000000E+00 -0.00000000000E+00 -0.45593999997E+02  0.45594000000E+02  0.51100000000E-03 0. -1.
    9900012    2    1    2    0    0 -0.68349660045E+01 -0.11496167891E+01 -0.42843744780E+02  0.47787252934E+02  0.19999917429E+02 0.  0.
        -12    1    1    2    0    0  0.68349660045E+01  0.11496167891E+01  0.42843744780E+02  0.43400747066E+02  0.00000000000E+00 0.  1.
         11    1    3    3    0    0 -0.76284823257E+00  0.19689108398E+01 -0.46594798929E+01  0.51155938516E+01  0.51100000000E-03 0. -1.
        -11    1    3    3    0    0  0.49970631771E+01 -0.47381825345E+01 -0.21566069601E+02  0.22638824448E+02  0.51100000000E-03 0.  1.
         12    1    3    3    0    0 -0.11069180949E+02  0.16196549057E+01 -0.16618195287E+02  0.20032834634E+02  0.00000000000E+00 0. -1.
</event>
<event>
 7    1  0.3837332E-009  0.4778727E+02  0.7816164E-02  0.1312668E+00
        -11   -1    0    0    0    0  0.00000000000E+00  0.00000000000E+00  0.45593999997E+02  0.45594000000E+02  0.51100000000E-03 0. -1.
         11   -1    0    0    0    0 -0.00000000000E+00 -0.00000000000E+00 -0.45593999997E+02  0.45594000000E+02  0.51100000000E-03 0.  1.
    9900012    2    1    2    0    0  0.31103117220E+02 -0.30259058364E+02 -0.78012047404E+00  0.47787273026E+02  0.20000009037E+02 0.  0.
        -12    1    1    2    0    0 -0.31103117220E+02  0.30259058364E+02  0.78012047404E+00  0.43400726974E+02  0.00000000000E+00 0.  1.
         11    1    3    3    0    0  0.92083325078E+00 -0.43192421045E+01 -0.34055704282E+01  0.55768894947E+01  0.51100000000E-03 0.  1.
        -11    1    3    3    0    0  0.31074303068E+01  0.15373528082E+01  0.96848760619E+00  0.35996590495E+01  0.51100000000E-03 0. -1.
         12    1    3    3    0    0  0.27074853663E+02 -0.27477169068E+02  0.16569623479E+01  0.38610724482E+02  0.00000000000E+00 0. -1.
</event>
<event>
 7    1  0.3837332E-009  0.4778727E+02  0.7816164E-02  0.1312668E+00
        -11   -1    0    0    0    0  0.00000000000E+00  0.00000000000E+00  0.45593999997E+02  0.45594000000E+02  0.51100000000E-03 0.  1.
         11   -1    0    0    0    0 -0.00000000000E+00 -0.00000000000E+00 -0.45593999997E+02  0.45594000000E+02  0.51100000000E-03 0. -1.
    9900012    2    1    2    0    0 -0.23003443623E+02  0.22968005404E+01 -0.36731321950E+02  0.47787265866E+02  0.19999976388E+02 0.  0.
        -12    1    1    2    0    0  0.23003443623E+02 -0.22968005404E+01  0.36731321950E+02  0.43400734134E+02  0.00000000000E+00 0.  1.
         11    1    3    3    0    0 -0.12735252629E+01 -0.33843875464E+01 -0.11521131501E+02  0.12075281238E+02  0.51100000000E-03 0. -1.
        -11    1    3    3    0    0 -0.11152858827E+02 -0.28300491645E+01 -0.92855619147E+01  0.14785705888E+02  0.51100000000E-03 0.  1.
         12    1    3    3    0    0 -0.10577059533E+02  0.85112372514E+01 -0.15924628534E+02  0.20926278739E+02  0.00000000000E+00 0. -1.
</event>
<event>
 7    1  0.3837332E-009  0.4778728E+02  0.7816164E-02  0.1312668E+00
        -11   -1    0    0    0    0  0.00000000000E+00  0.00000000000E+00  0.45593999997E+02  0.45594000000E+02  0.51100000000E-03 0.  1.
         11   -1    0    0    0    0 -0.00000000000E+00 -0.00000000000E+00 -0.45593999997E+02  0.45594000000E+02  0.51100000000E-03 0. -1.
    9900012    2    1    2    0    0 -0.29274145652E+02  0.12957196772E+02 -0.29304579382E+02  0.47787275069E+02  0.20000018347E+02 0.  0.
        -12    1    1    2    0    0  0.29274145652E+02 -0.12957196772E+02  0.29304579382E+02  0.43400724931E+02  0.00000000000E+00 0.  1.
         11    1    3    3    0    0 -0.96159684030E+01  0.33481910105E+01 -0.42493635989E+01  0.11033327813E+02  0.51100000000E-03 0. -1.
        -11    1    3    3    0    0 -0.14953832635E+02  0.10385633881E+02 -0.96051438957E+01  0.20584880158E+02  0.51100000000E-03 0.  1.
        -12    1    3    3    0    0 -0.47043446133E+01 -0.77662812011E+00 -0.15450071887E+02  0.16169067098E+02  0.00000000000E+00 0.  1.
</event>
<event>
 7    1  0.3837332E-009  0.4778727E+02  0.7816164E-02  0.1312668E+00
        -11   -1    0    0    0    0  0.00000000000E+00  0.00000000000E+00  0.45593999997E+02  0.45594000000E+02  0.51100000000E-03 0.  1.
         11   -1    0    0    0    0 -0.00000000000E+00 -0.00000000000E+00 -0.45593999997E+02  0.45594000000E+02  0.51100000000E-03 0. -1.
    9900012    2    1    2    0    0 -0.42722034946E+02 -0.12949660445E+01  0.75348631306E+01  0.47787269944E+02  0.19999994982E+02 0.  0.
        -12    1    1    2    0    0  0.42722034946E+02  0.12949660445E+01 -0.75348631306E+01  0.43400730056E+02  0.00000000000E+00 0.  1.
         11    1    3    3    0    0 -0.43429013735E+01 -0.40743607444E+01  0.15925303331E+01  0.61641999431E+01  0.51100000000E-03 0. -1.
        -11    1    3    3    0    0 -0.46791209680E+01 -0.37864084568E+01 -0.20730337829E+01  0.63662022715E+01  0.51100000000E-03 0.  1.
         12    1    3    3    0    0 -0.33700012605E+02  0.65658031567E+01  0.80153665804E+01  0.35256867729E+02  0.00000000000E+00 0. -1.
</event>
<event>
 7    1  0.3837332E-009  0.4778727E+02  0.7816164E-02  0.1312668E+00
        -11   -1    0    0    0    0  0.00000000000E+00  0.00000000000E+00  0.45593999997E+02  0.45594000000E+02  0.51100000000E-03 0.  1.
         11   -1    0    0    0    0 -0.00000000000E+00 -0.00000000000E+00 -0.45593999997E+02  0.45594000000E+02  0.51100000000E-03 0. -1.
    9900012    2    1    2    0    0 -0.18854205959E+02 -0.34837607495E+02 -0.17733678096E+02  0.47787270546E+02  0.19999997725E+02 0.  0.
        -12    1    1    2    0    0  0.18854205959E+02  0.34837607495E+02  0.17733678096E+02  0.43400729454E+02  0.00000000000E+00 0.  1.
         11    1    3    3    0    0 -0.28329374103E+01 -0.50363587668E+01 -0.41116477844E+01  0.70919737565E+01  0.51100000000E-03 0. -1.
        -11    1    3    3    0    0  0.25982121823E+01  0.33045482399E+00  0.30170120018E+00  0.26364617977E+01  0.51100000000E-03 0.  1.
         12    1    3    3    0    0 -0.18619480731E+02 -0.30131703553E+02 -0.13923731512E+02  0.38058834991E+02  0.00000000000E+00 0. -1.
</event>
<event>
 7    1  0.4075216E-009  0.4778727E+02  0.7816164E-02  0.1312668E+00
        -11   -1    0    0    0    0  0.00000000000E+00  0.00000000000E+00  0.45593999997E+02  0.45594000000E+02  0.51100000000E-03 0.  1.
         11   -1    0    0    0    0 -0.00000000000E+00 -0.00000000000E+00 -0.45593999997E+02  0.45594000000E+02  0.51100000000E-03 0. -1.
    9900012    2    1    2    0    0  0.20773321226E+02  0.38102195589E+02 -0.56122265112E+00  0.47787272422E+02  0.20000006281E+02 0.  0.
        -12    1    1    2    0    0 -0.20773321226E+02 -0.38102195589E+02  0.56122265112E+00  0.43400727578E+02  0.00000000000E+00 0.  1.
         11    1    3    3    0    0  0.14544084145E+02  0.27865379352E+02 -0.12333216041E+01  0.31456809000E+02  0.51100000000E-03 0. -1.
        -11    1    3    3    0    0 -0.12836844726E+00  0.99140288192E+01  0.93790401648E+00  0.99591219538E+01  0.51100000000E-03 0.  1.
        -12    1    3    3    0    0  0.63576055286E+01  0.32278741787E+00 -0.26580506351E+00  0.63713414683E+01  0.00000000000E+00 0.  1.
</event>
<event>
 7    1  0.3837332E-009  0.4778727E+02  0.7816164E-02  0.1312668E+00
        -11   -1    0    0    0    0  0.00000000000E+00  0.00000000000E+00  0.45593999997E+02  0.45594000000E+02  0.51100000000E-03 0.  1.
         11   -1    0    0    0    0 -0.00000000000E+00 -0.00000000000E+00 -0.45593999997E+02  0.45594000000E+02  0.51100000000E-03 0. -1.
    9900012    2    1    2    0    0  0.50886148380E+01  0.27565576040E+02 -0.33134098834E+02  0.47787268567E+02  0.19999988704E+02 0.  0.
        -12    1    1    2    0    0 -0.50886148380E+01 -0.27565576040E+02  0.33134098834E+02  0.43400731433E+02  0.00000000000E+00 0.  1.
         11    1    3    3    0    0 -0.63276116155E+01  0.28394423944E+01 -0.70764640577E+01  0.99084532440E+01  0.51100000000E-03 0.  1.
        -11    1    3    3    0    0  0.13093624932E+01  0.99624530044E+00 -0.21750344426E+01  0.27272165159E+01  0.51100000000E-03 0. -1.
        -12    1    3    3    0    0  0.10106863960E+02  0.23729888346E+02 -0.23882600333E+02  0.35151598807E+02  0.00000000000E+00 0.  1.
</event>
<event>
 7    1  0.3837332E-009  0.4778727E+02  0.7816164E-02  0.1312668E+00
        -11   -1    0    0    0    0  0.00000000000E+00  0.00000000000E+00  0.45593999997E+02  0.45594000000E+02  0.51100000000E-03 0. -1.
         11   -1    0    0    0    0 -0.00000000000E+00 -0.00000000000E+00 -0.45593999997E+02  0.45594000000E+02  0.51100000000E-03 0.  1.
    9900012    2    1    2    0    0  0.20439222405E+02 -0.80696772958E+01  0.37426488645E+02  0.47787267788E+02  0.19999985154E+02 0.  0.
        -12    1    1    2    0    0 -0.20439222405E+02  0.80696772958E+01 -0.37426488645E+02  0.43400732212E+02  0.00000000000E+00 0.  1.
         11    1    3    3    0    0  0.11734343666E+02  0.18560425622E-01  0.12871925401E+02  0.17417853758E+02  0.51100000000E-03 0. -1.
        -11    1    3    3    0    0  0.52597411412E+01  0.21798956195E+01  0.14553089196E+02  0.15627195115E+02  0.51100000000E-03 0.  1.
        -12    1    3    3    0    0  0.34451375984E+01 -0.10268133341E+02  0.10001474049E+02  0.14742218915E+02  0.00000000000E+00 0.  1.
</event>
<event>
 7    1  0.3837332E-009  0.4778727E+02  0.7816164E-02  0.1312668E+00
        -11   -1    0    0    0    0  0.00000000000E+00  0.00000000000E+00  0.45593999997E+02  0.45594000000E+02  0.51100000000E-03 0.  1.
         11   -1    0    0    0    0 -0.00000000000E+00 -0.00000000000E+00 -0.45593999997E+02  0.45594000000E+02  0.51100000000E-03 0. -1.
    9900012    2    1    2    0    0  0.82733075042E+01  0.41892277874E+02  0.77596781007E+01  0.47787272278E+02  0.20000005625E+02 0.  0.
        -12    1    1    2    0    0 -0.82733075042E+01 -0.41892277874E+02 -0.77596781007E+01  0.43400727722E+02  0.00000000000E+00 0.  1.
         11    1    3    3    0    0 -0.91862713073E+00  0.14142677563E+02 -0.49016413492E+01  0.14996175933E+02  0.51100000000E-03 0. -1.
        -11    1    3    3    0    0 -0.71076153002E+00  0.48358977353E+01  0.41682585797E+01  0.64238204137E+01  0.51100000000E-03 0.  1.
         12    1    3    3    0    0  0.99026961650E+01  0.22913702576E+02  0.84930608702E+01  0.26367275931E+02  0.00000000000E+00 0. -1.
</event>
<event>
 7    1  0.3837332E-009  0.4778730E+02  0.7816164E-02  0.1312668E+00
        -11   -1    0    0    0    0  0.00000000000E+00  0.00000000000E+00  0.45593999997E+02  0.45594000000E+02  0.51100000000E-03 0. -1.
         11   -1    0    0    0    0 -0.00000000000E+00 -0.00000000000E+00 -0.45593999997E+02  0.45594000000E+02  0.51100000000E-03 0.  1.
    9900012    2    1    2    0    0  0.24516179100E+02  0.24895647353E+02  0.25744596475E+02  0.47787302512E+02  0.20000143472E+02 0.  0.
        -12    1    1    2    0    0 -0.24516179100E+02 -0.24895647353E+02 -0.25744596475E+02  0.43400697488E+02  0.00000000000E+00 0.  1.
         11    1    3    3    0    0  0.15635213807E+02  0.11236272260E+02  0.10330293083E+02  0.21850141430E+02  0.51100000000E-03 0. -1.
        -11    1    3    3    0    0  0.94090945840E+01  0.11274214543E+02  0.54269508269E+01  0.15655375115E+02  0.51100000000E-03 0.  1.
         12    1    3    3    0    0 -0.52812929125E+00  0.23851605508E+01  0.99873525650E+01  0.10281785966E+02  0.00000000000E+00 0. -1.
</event>
<event>
 7    1  0.3837332E-009  0.4778727E+02  0.7816164E-02  0.1312668E+00
        -11   -1    0    0    0    0  0.00000000000E+00  0.00000000000E+00  0.45593999997E+02  0.45594000000E+02  0.51100000000E-03 0.  1.
         11   -1    0    0    0    0 -0.00000000000E+00 -0.00000000000E+00 -0.45593999997E+02  0.45594000000E+02  0.51100000000E-03 0. -1.
    9900012    2    1    2    0    0  0.10700122318E+02 -0.26051421897E+02 -0.33022026940E+02  0.47787268858E+02  0.19999990029E+02 0.  0.
        -12    1    1    2    0    0 -0.10700122318E+02  0.26051421897E+02  0.33022026940E+02  0.43400731142E+02  0.00000000000E+00 0.  1.
         11    1    3    3    0    0  0.63843400680E+01 -0.24978957177E+01 -0.13715202350E+02  0.15333168521E+02  0.51100000000E-03 0. -1.
        -11    1    3    3    0    0  0.16163777821E+01 -0.11987062456E+01 -0.59323747667E+01  0.62643949773E+01  0.51100000000E-03 0.  1.
         12    1    3    3    0    0  0.26994044676E+01 -0.22354819933E+02 -0.13374449823E+02  0.26189705359E+02  0.00000000000E+00 0. -1.
</event>
<event>
 7    1  0.3837332E-009  0.4778727E+02  0.7816164E-02  0.1312668E+00
        -11   -1    0    0    0    0  0.00000000000E+00  0.00000000000E+00  0.45593999997E+02  0.45594000000E+02  0.51100000000E-03 0.  1.
         11   -1    0    0    0    0 -0.00000000000E+00 -0.00000000000E+00 -0.45593999997E+02  0.45594000000E+02  0.51100000000E-03 0. -1.
    9900012    2    1    2    0    0  0.20627088173E+02 -0.71977882032E+01 -0.37501179349E+02  0.47787269889E+02  0.19999994734E+02 0.  0.
        -12    1    1    2    0    0 -0.20627088173E+02  0.71977882032E+01  0.37501179349E+02  0.43400730111E+02  0.00000000000E+00 0.  1.
         11    1    3    3    0    0  0.23145980546E+01  0.30047778355E+01 -0.45523403325E+01  0.59253570997E+01  0.51100000000E-03 0. -1.
        -11    1    3    3    0    0  0.22092516770E+00 -0.63475975332E+01 -0.14040363310E+02  0.15410146154E+02  0.51100000000E-03 0.  1.
        -12    1    3    3    0    0  0.18091564951E+02 -0.38549685055E+01 -0.18908475707E+02  0.26451766635E+02  0.00000000000E+00 0.  1.
</event>
<event>
 7    1  0.3837332E-009  0.4778727E+02  0.7816164E-02  0.1312668E+00
        -11   -1    0    0    0    0  0.00000000000E+00  0.00000000000E+00  0.45593999997E+02  0.45594000000E+02  0.51100000000E-03 0.  1.
         11   -1    0    0    0    0 -0.00000000000E+00 -0.00000000000E+00 -0.45593999997E+02  0.45594000000E+02  0.51100000000E-03 0. -1.
    9900012    2    1    2    0    0  0.33246586225E+02 -0.49476655897E+00 -0.27893417301E+02  0.47787273989E+02  0.20000013424E+02 0.  0.
        -12    1    1    2    0    0 -0.33246586225E+02  0.49476655897E+00  0.27893417301E+02  0.43400726011E+02  0.00000000000E+00 0.  1.
         11    1    3    3    0    0  0.13933061220E+02 -0.42676006444E+00 -0.53684815031E+01  0.14937634117E+02  0.51100000000E-03 0. -1.
        -11    1    3    3    0    0  0.70202736010E+01 -0.57926740082E+01 -0.41258819697E+01  0.99931084197E+01  0.51100000000E-03 0.  1.
         12    1    3    3    0    0  0.12293251404E+02  0.57246675136E+01 -0.18399053828E+02  0.22856531452E+02  0.00000000000E+00 0. -1.
</event>
<event>
 7    1  0.3837332E-009  0.4778727E+02  0.7816164E-02  0.1312668E+00
        -11   -1    0    0    0    0  0.00000000000E+00  0.00000000000E+00  0.45593999997E+02  0.45594000000E+02  0.51100000000E-03 0. -1.
         11   -1    0    0    0    0 -0.00000000000E+00 -0.00000000000E+00 -0.45593999997E+02  0.45594000000E+02  0.51100000000E-03 0.  1.
    9900012    2    1    2    0    0 -0.87163066981E+00 -0.43352155917E+02 -0.18585894808E+01  0.47787268237E+02  0.19999987201E+02 0.  0.
        -12    1    1    2    0    0  0.87163066981E+00  0.43352155917E+02  0.18585894808E+01  0.43400731763E+02  0.00000000000E+00 0.  1.
         11    1    3    3    0    0 -0.51392797584E+01 -0.80009208917E+01  0.26583131641E+01  0.98738827565E+01  0.51100000000E-03 0. -1.
        -11    1    3    3    0    0 -0.42030348878E+01 -0.11801889319E+02 -0.28206625185E+00  0.12531147410E+02  0.51100000000E-03 0.  1.
        -12    1    3    3    0    0  0.84706839763E+01 -0.23549345706E+02 -0.42348363931E+01  0.25382238071E+02  0.00000000000E+00 0.  1.
</event>
<event>
 7    1  0.3837332E-009  0.4778728E+02  0.7816164E-02  0.1312668E+00
        -11   -1    0    0    0    0  0.00000000000E+00  0.00000000000E+00  0.45593999997E+02  0.45594000000E+02  0.51100000000E-03 0. -1.
         11   -1    0    0    0    0 -0.00000000000E+00 -0.00000000000E+00 -0.45593999997E+02  0.45594000000E+02  0.51100000000E-03 0.  1.
    9900012    2    1    2    0    0  0.36449013514E+02 -0.22964364311E+02 -0.52659280455E+01  0.47787278664E+02  0.20000034739E+02 0.  0.
        -12    1    1    2    0    0 -0.36449013514E+02  0.22964364311E+02  0.52659280455E+01  0.43400721336E+02  0.00000000000E+00 0.  1.
         11    1    3    3    0    0  0.92276806628E+01 -0.30109225448E+01  0.16850956949E+01  0.98516644658E+01  0.51100000000E-03 0. -1.
        -11    1    3    3    0    0  0.18067966303E+02 -0.35082138564E+01 -0.23008190785E+01  0.18548658697E+02  0.51100000000E-03 0.  1.
         12    1    3    3    0    0  0.91533665484E+01 -0.16445227910E+02 -0.46502046619E+01  0.19386955500E+02  0.00000000000E+00 0. -1.
</event>
<event>
 7    1  0.3837332E-009  0.4778727E+02  0.7816164E-02  0.1312668E+00
        -11   -1    0    0    0    0  0.00000000000E+00  0.00000000000E+00  0.45593999997E+02  0.45594000000E+02  0.51100000000E-03 0.  1.
         11   -1    0    0    0    0 -0.00000000000E+00 -0.00000000000E+00 -0.45593999997E+02  0.45594000000E+02  0.51100000000E-03 0. -1.
    9900012    2    1    2    0    0 -0.25954849095E+02  0.17877600606E+02 -0.29838907701E+02  0.47787271806E+02  0.20000003473E+02 0.  0.
        -12    1    1    2    0    0  0.25954849095E+02 -0.17877600606E+02  0.29838907701E+02  0.43400728194E+02  0.00000000000E+00 0.  1.
         11    1    3    3    0    0 -0.84842768964E+01 -0.12802228291E+01 -0.77988245493E+01  0.11594981223E+02  0.51100000000E-03 0.  1.
        -11    1    3    3    0    0  0.50703498511E+00  0.40648283096E+01 -0.75984621936E+01  0.86322964286E+01  0.51100000000E-03 0. -1.
        -12    1    3    3    0    0 -0.17977607184E+02  0.15092995126E+02 -0.14441620958E+02  0.27559994155E+02  0.00000000000E+00 0.  1.
</event>
<event>
 7    1  0.3837332E-009  0.4778727E+02  0.7816164E-02  0.1312668E+00
        -11   -1    0    0    0    0  0.00000000000E+00  0.00000000000E+00  0.45593999997E+02  0.45594000000E+02  0.51100000000E-03 0. -1.
         11   -1    0    0    0    0 -0.00000000000E+00 -0.00000000000E+00 -0.45593999997E+02  0.45594000000E+02  0.51100000000E-03 0.  1.
    9900012    2    1    2    0    0  0.19195809085E+02  0.26371507354E+02  0.28630194405E+02  0.47787268230E+02  0.19999987166E+02 0.  0.
        -12    1    1    2    0    0 -0.19195809085E+02 -0.26371507354E+02 -0.28630194405E+02  0.43400731770E+02  0.00000000000E+00 0.  1.
         11    1    3    3    0    0  0.11888206269E+01  0.88850130729E+01  0.45823452072E+01  0.10067504142E+02  0.51100000000E-03 0.  1.
        -11    1    3    3    0    0  0.10217249506E+01  0.68907854940E+01  0.13261108788E+02  0.14979447692E+02  0.51100000000E-03 0. -1.
         12    1    3    3    0    0  0.16985263508E+02  0.10595708787E+02  0.10786740410E+02  0.22740316396E+02  0.00000000000E+00 0. -1.
</event>
<event>
 7    1  0.3837332E-009  0.4778727E+02  0.7816164E-02  0.1312668E+00
        -11   -1    0    0    0    0  0.00000000000E+00  0.00000000000E+00  0.45593999997E+02  0.45594000000E+02  0.51100000000E-03 0. -1.
         11   -1    0    0    0    0 -0.00000000000E+00 -0.00000000000E+00 -0.45593999997E+02  0.45594000000E+02  0.51100000000E-03 0.  1.
    9900012    2    1    2    0    0 -0.66779677044E+01 -0.11094021068E+02  0.41424031519E+02  0.47787274852E+02  0.20000017360E+02 0.  0.
        -12    1    1    2    0    0  0.66779677044E+01  0.11094021068E+02 -0.41424031519E+02  0.43400725148E+02  0.00000000000E+00 0.  1.
         11    1    3    3    0    0  0.43682807004E+01 -0.86354241767E+01  0.24990507456E+02  0.26798841210E+02  0.51100000000E-03 0. -1.
        -11    1    3    3    0    0 -0.36345503441E+01  0.18493776549E+01  0.30405953131E+01  0.50867842527E+01  0.51100000000E-03 0.  1.
        -12    1    3    3    0    0 -0.74116980607E+01 -0.43079745466E+01  0.13392928749E+02  0.15901649390E+02  0.00000000000E+00 0.  1.
</event>
<event>
 7    1  0.3837332E-009  0.4778727E+02  0.7816164E-02  0.1312668E+00
        -11   -1    0    0    0    0  0.00000000000E+00  0.00000000000E+00  0.45593999997E+02  0.45594000000E+02  0.51100000000E-03 0.  1.
         11   -1    0    0    0    0 -0.00000000000E+00 -0.00000000000E+00 -0.45593999997E+02  0.45594000000E+02  0.51100000000E-03 0. -1.
    9900012    2    1    2    0    0  0.22146510511E+02 -0.31840840608E+02 -0.19476037290E+02  0.47787273198E+02  0.20000009821E+02 0.  0.
        -12    1    1    2    0    0 -0.22146510511E+02  0.31840840608E+02  0.19476037290E+02  0.43400726802E+02  0.00000000000E+00 0.  1.
         11    1    3    3    0    0  0.79023038917E+01 -0.43189702694E+01 -0.34221690925E+01  0.96338545008E+01  0.51100000000E-03 0. -1.
        -11    1    3    3    0    0  0.16297073789E+02 -0.26985594386E+02 -0.12296085031E+02  0.33838005642E+02  0.51100000000E-03 0.  1.
         12    1    3    3    0    0 -0.20528671701E+01 -0.53627595176E+00 -0.37577831667E+01  0.43154130559E+01  0.00000000000E+00 0. -1.
</event>
<event>
 7    1  0.3837332E-009  0.4778730E+02  0.7816164E-02  0.1312668E+00
        -11   -1    0    0    0    0  0.00000000000E+00  0.00000000000E+00  0.45593999997E+02  0.45594000000E+02  0.51100000000E-03 0.  1.
         11   -1    0    0    0    0 -0.00000000000E+00 -0.00000000000E+00 -0.45593999997E+02  0.45594000000E+02  0.51100000000E-03 0. -1.
    9900012    2    1    2    0    0  0.94468654652E+01 -0.22851141383E+01 -0.42298413999E+02  0.47787299077E+02  0.20000127813E+02 0.  0.
        -12    1    1    2    0    0 -0.94468654652E+01  0.22851141383E+01  0.42298413999E+02  0.43400700923E+02  0.00000000000E+00 0.  1.
         11    1    3    3    0    0  0.22320300316E+01 -0.31972349328E+01 -0.15310077513E+02  0.15798820936E+02  0.51100000000E-03 0. -1.
        -11    1    3    3    0    0  0.55265344121E+01 -0.61269357556E+01 -0.73192047962E+01  0.11029627531E+02  0.51100000000E-03 0.  1.
         12    1    3    3    0    0  0.16883010216E+01  0.70390565501E+01 -0.19669131690E+02  0.20958850610E+02  0.00000000000E+00 0. -1.
</event>
<event>
 7    1  0.3837332E-009  0.4778727E+02  0.7816164E-02  0.1312668E+00
        -11   -1    0    0    0    0  0.00000000000E+00  0.00000000000E+00  0.45593999997E+02  0.45594000000E+02  0.51100000000E-03 0.  1.
         11   -1    0    0    0    0 -0.00000000000E+00 -0.00000000000E+00 -0.45593999997E+02  0.45594000000E+02  0.51100000000E-03 0. -1.
    9900012    2    1    2    0    0 -0.34960177033E+02 -0.21384669075E+02 -0.14286536794E+02  0.47787272089E+02  0.20000004762E+02 0.  0.
        -12    1    1    2    0    0  0.34960177033E+02  0.21384669075E+02  0.14286536794E+02  0.43400727911E+02  0.00000000000E+00 0.  1.
         11    1    3    3    0    0 -0.12382936093E+01  0.10495307656E+01 -0.14435404314E+01  0.21722557697E+01  0.51100000000E-03 0.  1.
        -11    1    3    3    0    0 -0.33984146119E+02 -0.22185971019E+02 -0.15119687271E+02  0.43309865400E+02  0.51100000000E-03 0. -1.
         12    1    3    3    0    0  0.26226269501E+00 -0.24822882100E+00  0.22766909085E+01  0.23051509195E+01  0.00000000000E+00 0. -1.
</event>
<event>
 7    1  0.3837332E-009  0.4778727E+02  0.7816164E-02  0.1312668E+00
        -11   -1    0    0    0    0  0.00000000000E+00  0.00000000000E+00  0.45593999997E+02  0.45594000000E+02  0.51100000000E-03 0.  1.
         11   -1    0    0    0    0 -0.00000000000E+00 -0.00000000000E+00 -0.45593999997E+02  0.45594000000E+02  0.51100000000E-03 0. -1.
    9900012    2    1    2    0    0 -0.15499481777E+01 -0.21210059700E+02 -0.37833243299E+02  0.47787271085E+02  0.20000000185E+02 0.  0.
        -12    1    1    2    0    0  0.15499481777E+01  0.21210059700E+02  0.37833243299E+02  0.43400728915E+02  0.00000000000E+00 0.  1.
         11    1    3    3    0    0  0.31927212622E+01 -0.39660422218E+01 -0.36098763719E+01  0.62413273944E+01  0.51100000000E-03 0.  1.
        -11    1    3    3    0    0 -0.10266733761E+00 -0.81681722838E+01 -0.28928220432E+02  0.30059466340E+02  0.51100000000E-03 0. -1.
        -12    1    3    3    0    0 -0.46400021023E+01 -0.90758451949E+01 -0.52951464948E+01  0.11486477350E+02  0.00000000000E+00 0.  1.
</event>
<event>
 7    1  0.3837332E-009  0.4778727E+02  0.7816164E-02  0.1312668E+00
        -11   -1    0    0    0    0  0.00000000000E+00  0.00000000000E+00  0.45593999997E+02  0.45594000000E+02  0.51100000000E-03 0.  1.
         11   -1    0    0    0    0 -0.00000000000E+00 -0.00000000000E+00 -0.45593999997E+02  0.45594000000E+02  0.51100000000E-03 0. -1.
    9900012    2    1    2    0    0 -0.38346036918E+02  0.19883417843E+02 -0.42254344533E+01  0.47787272485E+02  0.20000006570E+02 0.  0.
        -12    1    1    2    0    0  0.38346036918E+02 -0.19883417843E+02  0.42254344533E+01  0.43400727515E+02  0.00000000000E+00 0.  1.
         11    1    3    3    0    0 -0.84564204296E+00 -0.17621467499E+00  0.50109239820E-01  0.86525907886E+00  0.51100000000E-03 0. -1.
        -11    1    3    3    0    0 -0.94358740393E+01 -0.14331051402E+01  0.44219370210E+01  0.10518699373E+02  0.51100000000E-03 0.  1.
         12    1    3    3    0    0 -0.28064520836E+02  0.21492737659E+02 -0.86974807141E+01  0.36403314033E+02  0.00000000000E+00 0. -1.
</event>
<event>
 7    1  0.3837332E-009  0.4778727E+02  0.7816164E-02  0.1312668E+00
        -11   -1    0    0    0    0  0.00000000000E+00  0.00000000000E+00  0.45593999997E+02  0.45594000000E+02  0.51100000000E-03 0.  1.
         11   -1    0    0    0    0 -0.00000000000E+00 -0.00000000000E+00 -0.45593999997E+02  0.45594000000E+02  0.51100000000E-03 0. -1.
    9900012    2    1    2    0    0  0.14856287636E+02  0.38156106116E+02 -0.14388386066E+02  0.47787269939E+02  0.19999994960E+02 0.  0.
        -12    1    1    2    0    0 -0.14856287636E+02 -0.38156106116E+02  0.14388386066E+02  0.43400730061E+02  0.00000000000E+00 0.  1.
         11    1    3    3    0    0  0.11944536411E+02  0.28305148750E+02 -0.14189749457E+02  0.33840839022E+02  0.51100000000E-03 0. -1.
        -11    1    3    3    0    0  0.20776841099E+01  0.47345792227E+01 -0.47701480223E+01  0.70347227446E+01  0.51100000000E-03 0.  1.
        -12    1    3    3    0    0  0.83406711554E+00  0.51163781430E+01  0.45715114132E+01  0.69117081722E+01  0.00000000000E+00 0.  1.
</event>
<event>
 7    1  0.3924033E-009  0.4778727E+02  0.7816164E-02  0.1312668E+00
        -11   -1    0    0    0    0  0.00000000000E+00  0.00000000000E+00  0.45593999997E+02  0.45594000000E+02  0.51100000000E-03 0.  1.
         11   -1    0    0    0    0 -0.00000000000E+00 -0.00000000000E+00 -0.45593999997E+02  0.45594000000E+02  0.51100000000E-03 0. -1.
    9900012    2    1    2    0    0 -0.32232570823E+02 -0.17951951420E+02 -0.22856337230E+02  0.47787270361E+02  0.19999996883E+02 0.  0.
        -12    1    1    2    0    0  0.32232570823E+02  0.17951951420E+02  0.22856337230E+02  0.43400729639E+02  0.00000000000E+00 0.  1.
         11    1    3    3    0    0 -0.25491409910E+02 -0.94661001568E+01 -0.16511768071E+02  0.31812851435E+02  0.51100000000E-03 0. -1.
        -11    1    3    3    0    0 -0.80524877356E+01 -0.56111233982E+01 -0.77603821028E+01  0.12512026022E+02  0.51100000000E-03 0.  1.
        -12    1    3    3    0    0  0.13113268220E+01 -0.28747278650E+01  0.14158129437E+01  0.34623929043E+01  0.00000000000E+00 0.  1.
</event>
<event>
 7    1  0.3837332E-009  0.4778727E+02  0.7816164E-02  0.1312668E+00
        -11   -1    0    0    0    0  0.00000000000E+00  0.00000000000E+00  0.45593999997E+02  0.45594000000E+02  0.51100000000E-03 0. -1.
         11   -1    0    0    0    0 -0.00000000000E+00 -0.00000000000E+00 -0.45593999997E+02  0.45594000000E+02  0.51100000000E-03 0.  1.
    9900012    2    1    2    0    0  0.16712707654E+02  0.21844336932E+02 -0.33572811803E+02  0.47787270219E+02  0.19999996238E+02 0.  0.
        -12    1    1    2    0    0 -0.16712707654E+02 -0.21844336932E+02  0.33572811803E+02  0.43400729781E+02  0.00000000000E+00 0.  1.
         11    1    3    3    0    0  0.11742056191E+01  0.10907647522E+02 -0.11418450789E+02  0.15834662989E+02  0.51100000000E-03 0. -1.
        -11    1    3    3    0    0 -0.16537921837E+00  0.33567259423E+01 -0.10384020133E+02  0.10914340737E+02  0.51100000000E-03 0.  1.
         12    1    3    3    0    0  0.15703881253E+02  0.75799634681E+01 -0.11770340881E+02  0.21038266493E+02  0.00000000000E+00 0. -1.
</event>
<event>
 7    1  0.3837332E-009  0.4778727E+02  0.7816164E-02  0.1312668E+00
        -11   -1    0    0    0    0  0.00000000000E+00  0.00000000000E+00  0.45593999997E+02  0.45594000000E+02  0.51100000000E-03 0.  1.
         11   -1    0    0    0    0 -0.00000000000E+00 -0.00000000000E+00 -0.45593999997E+02  0.45594000000E+02  0.51100000000E-03 0. -1.
    9900012    2    1    2    0    0  0.78254335824E+01 -0.31893210634E+02 -0.28376208131E+02  0.47787268633E+02  0.19999989004E+02 0.  0.
        -12    1    1    2    0    0 -0.78254335824E+01  0.31893210634E+02  0.28376208131E+02  0.43400731367E+02  0.00000000000E+00 0.  1.
         11    1    3    3    0    0  0.12837118625E+01 -0.71046535634E+01 -0.14586199586E+02  0.16275172411E+02  0.51100000000E-03 0. -1.
        -11    1    3    3    0    0 -0.28669794738E+01 -0.19552133160E+01 -0.28972086718E+01  0.45206469408E+01  0.51100000000E-03 0.  1.
        -12    1    3    3    0    0  0.94087011937E+01 -0.22833343755E+02 -0.10892799874E+02  0.26991449281E+02  0.00000000000E+00 0.  1.
</event>
<event>
 7    1  0.3837332E-009  0.4778727E+02  0.7816164E-02  0.1312668E+00
        -11   -1    0    0    0    0  0.00000000000E+00  0.00000000000E+00  0.45593999997E+02  0.45594000000E+02  0.51100000000E-03 0.  1.
         11   -1    0    0    0    0 -0.00000000000E+00 -0.00000000000E+00 -0.45593999997E+02  0.45594000000E+02  0.51100000000E-03 0. -1.
    9900012    2    1    2    0    0 -0.25681684411E+02 -0.12559049318E+02 -0.32654932602E+02  0.47787271237E+02  0.20000000877E+02 0.  0.
        -12    1    1    2    0    0  0.25681684411E+02  0.12559049318E+02  0.32654932602E+02  0.43400728763E+02  0.00000000000E+00 0.  1.
         11    1    3    3    0    0 -0.14949297225E+02 -0.39157350061E+01 -0.16066107619E+02  0.22292022843E+02  0.51100000000E-03 0. -1.
        -11    1    3    3    0    0 -0.68800166529E+01 -0.44817526811E+01 -0.17883494464E+02  0.19678417384E+02  0.51100000000E-03 0.  1.
        -12    1    3    3    0    0 -0.38523705333E+01 -0.41615616303E+01  0.12946694809E+01  0.58168310095E+01  0.00000000000E+00 0.  1.
</event>
<event>
 7    1  0.3837332E-009  0.4778723E+02  0.7816164E-02  0.1312668E+00
        -11   -1    0    0    0    0  0.00000000000E+00  0.00000000000E+00  0.45593999997E+02  0.45594000000E+02  0.51100000000E-03 0. -1.
         11   -1    0    0    0    0 -0.00000000000E+00 -0.00000000000E+00 -0.45593999997E+02  0.45594000000E+02  0.51100000000E-03 0.  1.
    9900012    2    1    2    0    0 -0.72060255991E+01  0.24235432270E+01  0.42729687536E+02  0.47787233144E+02  0.19999827198E+02 0.  0.
        -12    1    1    2    0    0  0.72060255991E+01 -0.24235432270E+01 -0.42729687536E+02  0.43400766856E+02  0.00000000000E+00 0.  1.
         11    1    3    3    0    0 -0.33943365745E+01 -0.20091372783E+01  0.14182521754E+02  0.14720804222E+02  0.51100000000E-03 0. -1.
        -11    1    3    3    0    0 -0.41447841440E+01  0.40856072879E+01  0.30502514848E+02  0.31052774994E+02  0.51100000000E-03 0.  1.
        -12    1    3    3    0    0  0.33309511935E+00  0.34707321736E+00 -0.19553490654E+01  0.20136539287E+01  0.00000000000E+00 0.  1.
</event>
<event>
 7    1  0.3837332E-009  0.4778727E+02  0.7816164E-02  0.1312668E+00
        -11   -1    0    0    0    0  0.00000000000E+00  0.00000000000E+00  0.45593999997E+02  0.45594000000E+02  0.51100000000E-03 0.  1.
         11   -1    0    0    0    0 -0.00000000000E+00 -0.00000000000E+00 -0.45593999997E+02  0.45594000000E+02  0.51100000000E-03 0. -1.
    9900012    2    1    2    0    0 -0.11281745917E+02  0.19718908451E+02 -0.36979861029E+02  0.47787271168E+02  0.20000000562E+02 0.  0.
        -12    1    1    2    0    0  0.11281745917E+02 -0.19718908451E+02  0.36979861029E+02  0.43400728832E+02  0.00000000000E+00 0.  1.
         11    1    3    3    0    0 -0.13028841779E+02  0.12561331669E+02 -0.25680730770E+02  0.31417156213E+02  0.51100000000E-03 0. -1.
        -11    1    3    3    0    0 -0.37708200208E+01  0.36802843790E+01 -0.58306413347E+01  0.78587502425E+01  0.51100000000E-03 0.  1.
        -12    1    3    3    0    0  0.55179158824E+01  0.34772924028E+01 -0.54684889247E+01  0.85113647119E+01  0.00000000000E+00 0.  1.
</event>
<event>
 7    1  0.3837332E-009  0.4778727E+02  0.7816164E-02  0.1312668E+00
        -11   -1    0    0    0    0  0.00000000000E+00  0.00000000000E+00  0.45593999997E+02  0.45594000000E+02  0.51100000000E-03 0. -1.
         11   -1    0    0    0    0 -0.00000000000E+00 -0.00000000000E+00 -0.45593999997E+02  0.45594000000E+02  0.51100000000E-03 0.  1.
    9900012    2    1    2    0    0  0.20620942266E+02  0.37828633442E+02 -0.52339763016E+01  0.47787271021E+02  0.19999999892E+02 0.  0.
        -12    1    1    2    0    0 -0.20620942266E+02 -0.37828633442E+02  0.52339763016E+01  0.43400728979E+02  0.00000000000E+00 0.  1.
         11    1    3    3    0    0  0.33486520731E+01  0.16818435662E+01 -0.17409566210E+01  0.41319485361E+01  0.51100000000E-03 0. -1.
        -11    1    3    3    0    0 -0.60320344395E-01  0.13587367839E+02 -0.64731357157E+01  0.15050637514E+02  0.51100000000E-03 0.  1.
         12    1    3    3    0    0  0.17332610537E+02  0.22559422037E+02  0.29801160351E+01  0.28604684970E+02  0.00000000000E+00 0. -1.
</event>
<event>
 7    1  0.3837332E-009  0.4778727E+02  0.7816164E-02  0.1312668E+00
        -11   -1    0    0    0    0  0.00000000000E+00  0.00000000000E+00  0.45593999997E+02  0.45594000000E+02  0.51100000000E-03 0.  1.
         11   -1    0    0    0    0 -0.00000000000E+00 -0.00000000000E+00 -0.45593999997E+02  0.45594000000E+02  0.51100000000E-03 0. -1.
    9900012    2    1    2    0    0  0.34106593234E+02 -0.26798504617E+02  0.14845404098E+01  0.47787269454E+02  0.19999992748E+02 0.  0.
        -12    1    1    2    0    0 -0.34106593234E+02  0.26798504617E+02 -0.14845404098E+01  0.43400730546E+02  0.00000000000E+00 0.  1.
         11    1    3    3    0    0 -0.12597374686E-01 -0.20012887006E+01 -0.27839649896E+01  0.34286697831E+01  0.51100000000E-03 0. -1.
        -11    1    3    3    0    0  0.10420363455E+02 -0.24257572596E+01  0.48877580624E+01  0.11762586959E+02  0.51100000000E-03 0.  1.
         12    1    3    3    0    0  0.23698827153E+02 -0.22371458657E+02 -0.61925266301E+00  0.32596012712E+02  0.00000000000E+00 0. -1.
</event>
<event>
 7    1  0.3837332E-009  0.4778727E+02  0.7816164E-02  0.1312668E+00
        -11   -1    0    0    0    0  0.00000000000E+00  0.00000000000E+00  0.45593999997E+02  0.45594000000E+02  0.51100000000E-03 0.  1.
         11   -1    0    0    0    0 -0.00000000000E+00 -0.00000000000E+00 -0.45593999997E+02  0.45594000000E+02  0.51100000000E-03 0. -1.
    9900012    2    1    2    0    0  0.16194919482E+02 -0.62457288799E+01 -0.39778618859E+02  0.47787273455E+02  0.20000010992E+02 0.  0.
        -12    1    1    2    0    0 -0.16194919482E+02  0.62457288799E+01  0.39778618859E+02  0.43400726545E+02  0.00000000000E+00 0.  1.
         11    1    3    3    0    0  0.58933333768E+01 -0.27988137756E+01 -0.25015598769E+01  0.69873127109E+01  0.51100000000E-03 0. -1.
        -11    1    3    3    0    0  0.21281285055E+01  0.39211287299E+01 -0.50122376964E+01  0.67101943667E+01  0.51100000000E-03 0.  1.
         12    1    3    3    0    0  0.81734576000E+01 -0.73680438343E+01 -0.32264821286E+02  0.34089766378E+02  0.00000000000E+00 0. -1.
</event>
<event>
 7    1  0.3837332E-009  0.4778727E+02  0.7816164E-02  0.1312668E+00
        -11   -1    0    0    0    0  0.00000000000E+00  0.00000000000E+00  0.45593999997E+02  0.45594000000E+02  0.51100000000E-03 0. -1.
         11   -1    0    0    0    0 -0.00000000000E+00 -0.00000000000E+00 -0.45593999997E+02  0.45594000000E+02  0.51100000000E-03 0.  1.
    9900012    2    1    2    0    0 -0.16998728502E+01 -0.22657404862E+02  0.36978043753E+02  0.47787270944E+02  0.19999999542E+02 0.  0.
        -12    1    1    2    0    0  0.16998728502E+01  0.22657404862E+02 -0.36978043753E+02  0.43400729056E+02  0.00000000000E+00 0.  1.
         11    1    3    3    0    0 -0.17365677691E+01 -0.36162562608E+01  0.18716122917E+02  0.19141218202E+02  0.51100000000E-03 0. -1.
        -11    1    3    3    0    0 -0.21177589478E+01 -0.78457830183E+01  0.14533240219E+02  0.16651014554E+02  0.51100000000E-03 0.  1.
        -12    1    3    3    0    0  0.21544538667E+01 -0.11195365583E+02  0.37286806169E+01  0.11995038188E+02  0.00000000000E+00 0.  1.
</event>
<event>
 7    1  0.3837332E-009  0.4778727E+02  0.7816164E-02  0.1312668E+00
        -11   -1    0    0    0    0  0.00000000000E+00  0.00000000000E+00  0.45593999997E+02  0.45594000000E+02  0.51100000000E-03 0. -1.
         11   -1    0    0    0    0 -0.00000000000E+00 -0.00000000000E+00 -0.45593999997E+02  0.45594000000E+02  0.51100000000E-03 0.  1.
    9900012    2    1    2    0    0 -0.28345515025E+02  0.93627671085E+01  0.31503866865E+02  0.47787271235E+02  0.20000000867E+02 0.  0.
        -12    1    1    2    0    0  0.28345515025E+02 -0.93627671085E+01 -0.31503866865E+02  0.43400728765E+02  0.00000000000E+00 0.  1.
         11    1    3    3    0    0 -0.14968378932E+01  0.37669821808E+01 -0.34333321490E+00  0.40679916896E+01  0.51100000000E-03 0.  1.
        -11    1    3    3    0    0 -0.13822412890E+02  0.74021853917E+01  0.11312867507E+02  0.19334746395E+02  0.51100000000E-03 0. -1.
        -12    1    3    3    0    0 -0.13026264242E+02 -0.18064004640E+01  0.20534332573E+02  0.24384533150E+02  0.00000000000E+00 0.  1.
</event>
<event>
 7    1  0.3837332E-009  0.4778725E+02  0.7816164E-02  0.1312668E+00
        -11   -1    0    0    0    0  0.00000000000E+00  0.00000000000E+00  0.45593999997E+02  0.45594000000E+02  0.51100000000E-03 0.  1.
         11   -1    0    0    0    0 -0.00000000000E+00 -0.00000000000E+00 -0.45593999997E+02  0.45594000000E+02  0.51100000000E-03 0. -1.
    9900012    2    1    2    0    0  0.19306206252E+02 -0.29209195483E+02 -0.25646014523E+02  0.47787253906E+02  0.19999921858E+02 0.  0.
        -12    1    1    2    0    0 -0.19306206252E+02  0.29209195483E+02  0.25646014523E+02  0.43400746094E+02  0.00000000000E+00 0.  1.
         11    1    3    3    0    0  0.58415507524E+01 -0.60788769628E+01 -0.72637287813E+01  0.11128262056E+02  0.51100000000E-03 0. -1.
        -11    1    3    3    0    0  0.17479224241E+02 -0.20137716084E+02 -0.14751095525E+02  0.30473688792E+02  0.51100000000E-03 0.  1.
        -12    1    3    3    0    0 -0.40145687416E+01 -0.29926024362E+01 -0.36311902163E+01  0.61853030572E+01  0.00000000000E+00 0.  1.
</event>
<event>
 7    1  0.3837332E-009  0.4778728E+02  0.7816164E-02  0.1312668E+00
        -11   -1    0    0    0    0  0.00000000000E+00  0.00000000000E+00  0.45593999997E+02  0.45594000000E+02  0.51100000000E-03 0. -1.
         11   -1    0    0    0    0 -0.00000000000E+00 -0.00000000000E+00 -0.45593999997E+02  0.45594000000E+02  0.51100000000E-03 0.  1.
    9900012    2    1    2    0    0  0.10323959458E+01  0.42675648227E+02  0.78323430867E+01  0.47787281213E+02  0.20000046362E+02 0.  0.
        -12    1    1    2    0    0 -0.10323959458E+01 -0.42675648227E+02 -0.78323430867E+01  0.43400718787E+02  0.00000000000E+00 0.  1.
         11    1    3    3    0    0 -0.46677513811E+01  0.10261956732E+02  0.63050681334E+01  0.12917025329E+02  0.51100000000E-03 0. -1.
        -11    1    3    3    0    0 -0.96662111832E+00 -0.57094303058E+00  0.42556997912E+00  0.12006008491E+01  0.51100000000E-03 0.  1.
         12    1    3    3    0    0  0.66667684453E+01  0.32984634526E+02  0.11017049742E+01  0.33669655035E+02  0.00000000000E+00 0. -1.
</event>
<event>
 7    1  0.3837332E-009  0.4778727E+02  0.7816164E-02  0.1312668E+00
        -11   -1    0    0    0    0  0.00000000000E+00  0.00000000000E+00  0.45593999997E+02  0.45594000000E+02  0.51100000000E-03 0. -1.
         11   -1    0    0    0    0 -0.00000000000E+00 -0.00000000000E+00 -0.45593999997E+02  0.45594000000E+02  0.51100000000E-03 0.  1.
    9900012    2    1    2    0    0 -0.79801519970E+01  0.42640187583E+02  0.13247009174E+01  0.47787271256E+02  0.20000000965E+02 0.  0.
        -12    1    1    2    0    0  0.79801519970E+01 -0.42640187583E+02 -0.13247009174E+01  0.43400728744E+02  0.00000000000E+00 0.  1.
         11    1    3    3    0    0  0.36101535084E+00  0.18660183275E+02 -0.79049678242E+01  0.20268726859E+02  0.51100000000E-03 0. -1.
        -11    1    3    3    0    0 -0.42065978928E+00  0.15725130647E+01  0.21957865264E+01  0.27333552143E+01  0.51100000000E-03 0.  1.
         12    1    3    3    0    0 -0.79205075585E+01  0.22407491243E+02  0.70338822152E+01  0.24785189182E+02  0.00000000000E+00 0. -1.
</event>
<event>
 7    1  0.3837332E-009  0.4778727E+02  0.7816164E-02  0.1312668E+00
        -11   -1    0    0    0    0  0.00000000000E+00  0.00000000000E+00  0.45593999997E+02  0.45594000000E+02  0.51100000000E-03 0.  1.
         11   -1    0    0    0    0 -0.00000000000E+00 -0.00000000000E+00 -0.45593999997E+02  0.45594000000E+02  0.51100000000E-03 0. -1.
    9900012    2    1    2    0    0 -0.37514829727E+02  0.21736289691E+02  0.19479670139E+01  0.47787270577E+02  0.19999997868E+02 0.  0.
        -12    1    1    2    0    0  0.37514829727E+02 -0.21736289691E+02 -0.19479670139E+01  0.43400729423E+02  0.00000000000E+00 0.  1.
         11    1    3    3    0    0 -0.24017224465E+02  0.17353170924E+02  0.37337243768E+00  0.29632735604E+02  0.51100000000E-03 0. -1.
        -11    1    3    3    0    0 -0.71908405701E+01  0.75400258942E+01  0.32332648566E+01  0.10909362057E+02  0.51100000000E-03 0.  1.
        -12    1    3    3    0    0 -0.63067646914E+01 -0.31569071273E+01 -0.16586702804E+01  0.72451729160E+01  0.00000000000E+00 0.  1.
</event>
<event>
 7    1  0.3837332E-009  0.4778727E+02  0.7816164E-02  0.1312668E+00
        -11   -1    0    0    0    0  0.00000000000E+00  0.00000000000E+00  0.45593999997E+02  0.45594000000E+02  0.51100000000E-03 0. -1.
         11   -1    0    0    0    0 -0.00000000000E+00 -0.00000000000E+00 -0.45593999997E+02  0.45594000000E+02  0.51100000000E-03 0.  1.
    9900012    2    1    2    0    0 -0.38618020709E+02 -0.16108459540E+02  0.11523435460E+02  0.47787267782E+02  0.19999985126E+02 0.  0.
        -12    1    1    2    0    0  0.38618020709E+02  0.16108459540E+02 -0.11523435460E+02  0.43400732218E+02  0.00000000000E+00 0.  1.
         11    1    3    3    0    0 -0.24374170466E+02 -0.96664205195E+01  0.59514324485E+01  0.26887904716E+02  0.51100000000E-03 0. -1.
        -11    1    3    3    0    0 -0.12097972511E+02  0.83692885431E+00  0.13144124258E+01  0.12197912488E+02  0.51100000000E-03 0.  1.
        -12    1    3    3    0    0 -0.21458777320E+01 -0.72789678747E+01  0.42575905861E+01  0.87014505779E+01  0.00000000000E+00 0.  1.
</event>
<event>
 7    1  0.3837332E-009  0.4778727E+02  0.7816164E-02  0.1312668E+00
        -11   -1    0    0    0    0  0.00000000000E+00  0.00000000000E+00  0.45593999997E+02  0.45594000000E+02  0.51100000000E-03 0.  1.
         11   -1    0    0    0    0 -0.00000000000E+00 -0.00000000000E+00 -0.45593999997E+02  0.45594000000E+02  0.51100000000E-03 0. -1.
    9900012    2    1    2    0    0  0.28382576027E+02 -0.32044115743E+02 -0.71573486229E+01  0.47787267115E+02  0.19999982082E+02 0.  0.
        -12    1    1    2    0    0 -0.28382576027E+02  0.32044115743E+02  0.71573486229E+01  0.43400732885E+02  0.00000000000E+00 0.  1.
         11    1    3    3    0    0  0.15587847814E+02 -0.19607219039E+02 -0.76904395613E+01  0.26202421621E+02  0.51100000000E-03 0. -1.
        -11    1    3    3    0    0  0.51800514918E+01 -0.12910399111E+02  0.95682612653E+00  0.13943703065E+02  0.51100000000E-03 0.  1.
         12    1    3    3    0    0  0.76146767216E+01  0.47350240696E+00 -0.42373518812E+00  0.76411424286E+01  0.00000000000E+00 0. -1.
</event>
<event>
 7    1  0.3837332E-009  0.4778726E+02  0.7816164E-02  0.1312668E+00
        -11   -1    0    0    0    0  0.00000000000E+00  0.00000000000E+00  0.45593999997E+02  0.45594000000E+02  0.51100000000E-03 0. -1.
         11   -1    0    0    0    0 -0.00000000000E+00 -0.00000000000E+00 -0.45593999997E+02  0.45594000000E+02  0.51100000000E-03 0.  1.
    9900012    2    1    2    0    0 -0.41818121472E+02 -0.89679755517E+00  0.11578640925E+02  0.47787257438E+02  0.19999937962E+02 0.  0.
        -12    1    1    2    0    0  0.41818121472E+02  0.89679755517E+00 -0.11578640925E+02  0.43400742562E+02  0.00000000000E+00 0.  1.
         11    1    3    3    0    0 -0.87940000918E+01  0.38369534667E+01 -0.15310159646E+00  0.95958371120E+01  0.51100000000E-03 0. -1.
        -11    1    3    3    0    0 -0.15370324570E+01  0.22782876905E+01  0.42753052062E+01  0.50824500432E+01  0.51100000000E-03 0.  1.
         12    1    3    3    0    0 -0.31487088923E+02 -0.70120387123E+01  0.74564373149E+01  0.33108970283E+02  0.00000000000E+00 0. -1.
</event>
<event>
 7    1  0.3837332E-009  0.4778728E+02  0.7816164E-02  0.1312668E+00
        -11   -1    0    0    0    0  0.00000000000E+00  0.00000000000E+00  0.45593999997E+02  0.45594000000E+02  0.51100000000E-03 0.  1.
         11   -1    0    0    0    0 -0.00000000000E+00 -0.00000000000E+00 -0.45593999997E+02  0.45594000000E+02  0.51100000000E-03 0. -1.
    9900012    2    1    2    0    0  0.16581681069E+02 -0.26898840594E+02 -0.29751012878E+02  0.47787279503E+02  0.20000038565E+02 0.  0.
        -12    1    1    2    0    0 -0.16581681069E+02  0.26898840594E+02  0.29751012878E+02  0.43400720497E+02  0.00000000000E+00 0.  1.
         11    1    3    3    0    0  0.40823469076E+01 -0.11540413524E+02 -0.15945060668E+02  0.20102031254E+02  0.51100000000E-03 0. -1.
        -11    1    3    3    0    0  0.11573071295E+02 -0.14913105692E+02 -0.16329936141E+02  0.24960038366E+02  0.51100000000E-03 0.  1.
        -12    1    3    3    0    0  0.92626286659E+00 -0.44532137802E+00  0.25239839303E+01  0.27252098833E+01  0.00000000000E+00 0.  1.
</event>
<event>
 7    1  0.3837332E-009  0.4778727E+02  0.7816164E-02  0.1312668E+00
        -11   -1    0    0    0    0  0.00000000000E+00  0.00000000000E+00  0.45593999997E+02  0.45594000000E+02  0.51100000000E-03 0.  1.
         11   -1    0    0    0    0 -0.00000000000E+00 -0.00000000000E+00 -0.45593999997E+02  0.45594000000E+02  0.51100000000E-03 0. -1.
    9900012    2    1    2    0    0 -0.31085690464E+02 -0.14966222873E+02 -0.26330886454E+02  0.47787267746E+02  0.19999984962E+02 0.  0.
        -12    1    1    2    0    0  0.31085690464E+02  0.14966222873E+02  0.26330886454E+02  0.43400732254E+02  0.00000000000E+00 0.  1.
         11    1    3    3    0    0 -0.22976578496E+02 -0.15930436575E+02 -0.25640898520E+02  0.37936231311E+02  0.51100000000E-03 0. -1.
        -11    1    3    3    0    0 -0.49454384598E+01 -0.21174863091E+01  0.79685510934E-02  0.53797001392E+01  0.51100000000E-03 0.  1.
         12    1    3    3    0    0 -0.31636735077E+01  0.30817000107E+01 -0.69795648490E+00  0.44713362963E+01  0.00000000000E+00 0. -1.
</event>
<event>
 7    1  0.3837332E-009  0.4778727E+02  0.7816164E-02  0.1312668E+00
        -11   -1    0    0    0    0  0.00000000000E+00  0.00000000000E+00  0.45593999997E+02  0.45594000000E+02  0.51100000000E-03 0. -1.
         11   -1    0    0    0    0 -0.00000000000E+00 -0.00000000000E+00 -0.45593999997E+02  0.45594000000E+02  0.51100000000E-03 0.  1.
    9900012    2    1    2    0    0 -0.30732953899E+02  0.30585902482E+02 -0.19003610373E+01  0.47787271227E+02  0.20000000831E+02 0.  0.
        -12    1    1    2    0    0  0.30732953899E+02 -0.30585902482E+02  0.19003610373E+01  0.43400728773E+02  0.00000000000E+00 0.  1.
         11    1    3    3    0    0 -0.15652278728E+02  0.14291532119E+02 -0.21895581224E+01  0.21308117813E+02  0.51100000000E-03 0. -1.
        -11    1    3    3    0    0 -0.10029507213E+02  0.11613672430E+02 -0.66309390084E+01  0.16716391795E+02  0.51100000000E-03 0.  1.
        -12    1    3    3    0    0 -0.50511679586E+01  0.46806979322E+01  0.69201360934E+01  0.97627616190E+01  0.00000000000E+00 0.  1.
</event>
<event>
 7    1  0.3837332E-009  0.4778727E+02  0.7816164E-02  0.1312668E+00
        -11   -1    0    0    0    0  0.00000000000E+00  0.00000000000E+00  0.45593999997E+02  0.45594000000E+02  0.51100000000E-03 0.  1.
         11   -1    0    0    0    0 -0.00000000000E+00 -0.00000000000E+00 -0.45593999997E+02  0.45594000000E+02  0.51100000000E-03 0. -1.
    9900012    2    1    2    0    0 -0.98798942561E+01 -0.30932275234E+02 -0.28795929969E+02  0.47787267928E+02  0.19999985789E+02 0.  0.
        -12    1    1    2    0    0  0.98798942561E+01  0.30932275234E+02  0.28795929969E+02  0.43400732072E+02  0.00000000000E+00 0.  1.
         11    1    3    3    0    0  0.10999150569E+01 -0.84807577259E+01 -0.94328316086E+01  0.12732296617E+02  0.51100000000E-03 0. -1.
        -11    1    3    3    0    0  0.71838804645E+00 -0.11336383488E+02 -0.14047048068E+02  0.18065138573E+02  0.51100000000E-03 0.  1.
         12    1    3    3    0    0 -0.11698197360E+02 -0.11115134020E+02 -0.53160502927E+01  0.16989832738E+02  0.00000000000E+00 0. -1.
</event>
<event>
 7    1  0.3837332E-009  0.4778727E+02  0.7816164E-02  0.1312668E+00
        -11   -1    0    0    0    0  0.00000000000E+00  0.00000000000E+00  0.45593999997E+02  0.45594000000E+02  0.51100000000E-03 0.  1.
         11   -1    0    0    0    0 -0.00000000000E+00 -0.00000000000E+00 -0.45593999997E+02  0.45594000000E+02  0.51100000000E-03 0. -1.
    9900012    2    1    2    0    0 -0.19982569191E+02  0.11892381633E+02 -0.36645484494E+02  0.47787270212E+02  0.19999996202E+02 0.  0.
        -12    1    1    2    0    0  0.19982569191E+02 -0.11892381633E+02  0.36645484494E+02  0.43400729788E+02  0.00000000000E+00 0.  1.
         11    1    3    3    0    0 -0.36462988821E+01  0.20529932514E+01  0.13756911248E+00  0.41867890262E+01  0.51100000000E-03 0. -1.
        -11    1    3    3    0    0 -0.11337743112E+02  0.11505130093E+02 -0.18432665034E+02  0.24508683723E+02  0.51100000000E-03 0.  1.
         12    1    3    3    0    0 -0.49985271972E+01 -0.16657417107E+01 -0.18350388573E+02  0.19091797463E+02  0.00000000000E+00 0. -1.
</event>
<event>
 7    1  0.3837332E-009  0.4778725E+02  0.7816164E-02  0.1312668E+00
        -11   -1    0    0    0    0  0.00000000000E+00  0.00000000000E+00  0.45593999997E+02  0.45594000000E+02  0.51100000000E-03 0. -1.
         11   -1    0    0    0    0 -0.00000000000E+00 -0.00000000000E+00 -0.45593999997E+02  0.45594000000E+02  0.51100000000E-03 0.  1.
    9900012    2    1    2    0    0  0.34584752291E+02 -0.24919215888E+02  0.81579582091E+01  0.47787254688E+02  0.19999925426E+02 0.  0.
        -12    1    1    2    0    0 -0.34584752291E+02  0.24919215888E+02 -0.81579582091E+01  0.43400745312E+02  0.00000000000E+00 0.  1.
         11    1    3    3    0    0  0.41122599245E+01 -0.12397716924E+01 -0.24016992398E+01  0.49209628159E+01  0.51100000000E-03 0. -1.
        -11    1    3    3    0    0  0.12982553501E+02 -0.50961341608E+01 -0.25475175553E+01  0.14177698147E+02  0.51100000000E-03 0.  1.
         12    1    3    3    0    0  0.17489938865E+02 -0.18583310035E+02  0.13107175004E+02  0.28688593725E+02  0.00000000000E+00 0. -1.
</event>
<event>
 7    1  0.3837332E-009  0.4778727E+02  0.7816164E-02  0.1312668E+00
        -11   -1    0    0    0    0  0.00000000000E+00  0.00000000000E+00  0.45593999997E+02  0.45594000000E+02  0.51100000000E-03 0.  1.
         11   -1    0    0    0    0 -0.00000000000E+00 -0.00000000000E+00 -0.45593999997E+02  0.45594000000E+02  0.51100000000E-03 0. -1.
    9900012    2    1    2    0    0  0.25930053677E+02 -0.78720863177E+00 -0.34794192926E+02  0.47787271406E+02  0.20000001647E+02 0.  0.
        -12    1    1    2    0    0 -0.25930053677E+02  0.78720863177E+00  0.34794192926E+02  0.43400728594E+02  0.00000000000E+00 0.  1.
         11    1    3    3    0    0  0.12596199881E+02  0.81844736716E+01 -0.13141163529E+02  0.19958457854E+02  0.51100000000E-03 0. -1.
        -11    1    3    3    0    0 -0.59782748591E+00 -0.16093215793E+01 -0.23674438277E+01  0.29243980896E+01  0.51100000000E-03 0.  1.
        -12    1    3    3    0    0  0.13931681282E+02 -0.73623607241E+01 -0.19285585569E+02  0.24904415462E+02  0.00000000000E+00 0.  1.
</event>
<event>
 7    1  0.3837332E-009  0.4778727E+02  0.7816164E-02  0.1312668E+00
        -11   -1    0    0    0    0  0.00000000000E+00  0.00000000000E+00  0.45593999997E+02  0.45594000000E+02  0.51100000000E-03 0. -1.
         11   -1    0    0    0    0 -0.00000000000E+00 -0.00000000000E+00 -0.45593999997E+02  0.45594000000E+02  0.51100000000E-03 0.  1.
    9900012    2    1    2    0    0 -0.14727295610E+02 -0.11387758221E+02  0.39205220649E+02  0.47787267294E+02  0.19999982901E+02 0.  0.
        -12    1    1    2    0    0  0.14727295610E+02  0.11387758221E+02 -0.39205220649E+02  0.43400732706E+02  0.00000000000E+00 0.  1.
         11    1    3    3    0    0 -0.78175666877E+01 -0.12448805006E+02  0.26615463552E+02  0.30405098180E+02  0.51100000000E-03 0.  1.
        -11    1    3    3    0    0  0.23389683521E+01 -0.10138699623E+00  0.43544958577E+01  0.49439545620E+01  0.51100000000E-03 0. -1.
        -12    1    3    3    0    0 -0.92486972746E+01  0.11624337810E+01  0.82352612386E+01  0.12438214552E+02  0.00000000000E+00 0.  1.
</event>
<event>
 7    1  0.3837332E-009  0.4778727E+02  0.7816164E-02  0.1312668E+00
        -11   -1    0    0    0    0  0.00000000000E+00  0.00000000000E+00  0.45593999997E+02  0.45594000000E+02  0.51100000000E-03 0.  1.
         11   -1    0    0    0    0 -0.00000000000E+00 -0.00000000000E+00 -0.45593999997E+02  0.45594000000E+02  0.51100000000E-03 0. -1.
    9900012    2    1    2    0    0  0.38385902677E+02 -0.11272595343E+02 -0.16824822454E+02  0.47787267510E+02  0.19999983884E+02 0.  0.
        -12    1    1    2    0    0 -0.38385902677E+02  0.11272595343E+02  0.16824822454E+02  0.43400732490E+02  0.00000000000E+00 0.  1.
         11    1    3    3    0    0  0.12798857541E+02 -0.37372183799E+00 -0.10854833677E+01  0.12850241117E+02  0.51100000000E-03 0. -1.
        -11    1    3    3    0    0  0.32197616697E+01  0.27707786414E+01 -0.51234850021E+01  0.66553871651E+01  0.51100000000E-03 0.  1.
         12    1    3    3    0    0  0.22367283466E+02 -0.13669652147E+02 -0.10615854084E+02  0.28281639228E+02  0.00000000000E+00 0. -1.
</event>
<event>
 7    1  0.3837332E-009  0.4778727E+02  0.7816164E-02  0.1312668E+00
        -11   -1    0    0    0    0  0.00000000000E+00  0.00000000000E+00  0.45593999997E+02  0.45594000000E+02  0.51100000000E-03 0. -1.
         11   -1    0    0    0    0 -0.00000000000E+00 -0.00000000000E+00 -0.45593999997E+02  0.45594000000E+02  0.51100000000E-03 0.  1.
    9900012    2    1    2    0    0  0.42603585437E+02 -0.65195938289E+01 -0.51041978978E+01  0.47787269223E+02  0.19999991695E+02 0.  0.
        -12    1    1    2    0    0 -0.42603585437E+02  0.65195938289E+01  0.51041978978E+01  0.43400730777E+02  0.00000000000E+00 0.  1.
         11    1    3    3    0    0  0.14095153659E+02 -0.29830744440E+01  0.39986023482E+01  0.14951953411E+02  0.51100000000E-03 0. -1.
        -11    1    3    3    0    0  0.27708683907E+02 -0.53179372251E+01 -0.55117842181E+01  0.28747719661E+02  0.51100000000E-03 0.  1.
        -12    1    3    3    0    0  0.79974787139E+00  0.17814178402E+01 -0.35910160280E+01  0.40875961508E+01  0.00000000000E+00 0.  1.
</event>
<event>
 7    1  0.3837332E-009  0.4778729E+02  0.7816164E-02  0.1312668E+00
        -11   -1    0    0    0    0  0.00000000000E+00  0.00000000000E+00  0.45593999997E+02  0.45594000000E+02  0.51100000000E-03 0. -1.
         11   -1    0    0    0    0 -0.00000000000E+00 -0.00000000000E+00 -0.45593999997E+02  0.45594000000E+02  0.51100000000E-03 0.  1.
    9900012    2    1    2    0    0  0.21608377932E+02 -0.16945012218E+02  0.33609025901E+02  0.47787285053E+02  0.20000063869E+02 0.  0.
        -12    1    1    2    0    0 -0.21608377932E+02  0.16945012218E+02 -0.33609025901E+02  0.43400714947E+02  0.00000000000E+00 0.  1.
         11    1    3    3    0    0 -0.26927104740E+00  0.11807716047E+00  0.45359940024E+01  0.45455132784E+01  0.51100000000E-03 0. -1.
        -11    1    3    3    0    0 -0.93963498482E+00  0.18226690579E+01  0.37458684670E+01  0.42704293967E+01  0.51100000000E-03 0.  1.
         12    1    3    3    0    0  0.22817283964E+02 -0.18885758437E+02  0.25327163432E+02  0.38971342378E+02  0.00000000000E+00 0. -1.
</event>
<event>
 7    1  0.3837332E-009  0.4778727E+02  0.7816164E-02  0.1312668E+00
        -11   -1    0    0    0    0  0.00000000000E+00  0.00000000000E+00  0.45593999997E+02  0.45594000000E+02  0.51100000000E-03 0. -1.
         11   -1    0    0    0    0 -0.00000000000E+00 -0.00000000000E+00 -0.45593999997E+02  0.45594000000E+02  0.51100000000E-03 0.  1.
    9900012    2    1    2    0    0 -0.25384332946E+02 -0.26335280448E+02  0.23360481875E+02  0.47787268799E+02  0.19999989761E+02 0.  0.
        -12    1    1    2    0    0  0.25384332946E+02  0.26335280448E+02 -0.23360481875E+02  0.43400731201E+02  0.00000000000E+00 0.  1.
         11    1    3    3    0    0 -0.21847325798E+02 -0.12393559639E+02  0.79041375731E+01  0.26332135426E+02  0.51100000000E-03 0. -1.
        -11    1    3    3    0    0  0.52389826282E+00 -0.22599944134E+00  0.71039227723E+00  0.91115453461E+00  0.51100000000E-03 0.  1.
         12    1    3    3    0    0 -0.40609054104E+01 -0.13715721368E+02  0.14745952024E+02  0.20543978838E+02  0.00000000000E+00 0. -1.
</event>
<event>
 7    1  0.3837332E-009  0.4778727E+02  0.7816164E-02  0.1312668E+00
        -11   -1    0    0    0    0  0.00000000000E+00  0.00000000000E+00  0.45593999997E+02  0.45594000000E+02  0.51100000000E-03 0. -1.
         11   -1    0    0    0    0 -0.00000000000E+00 -0.00000000000E+00 -0.45593999997E+02  0.45594000000E+02  0.51100000000E-03 0.  1.
    9900012    2    1    2    0    0 -0.14621714475E+02  0.26898282874E+02  0.30762170664E+02  0.47787270747E+02  0.19999998642E+02 0.  0.
        -12    1    1    2    0    0  0.14621714475E+02 -0.26898282874E+02 -0.30762170664E+02  0.43400729253E+02  0.00000000000E+00 0.  1.
         11    1    3    3    0    0 -0.15162592241E+00  0.25078627149E+01  0.16426119241E+01  0.30017561546E+01  0.51100000000E-03 0. -1.
        -11    1    3    3    0    0 -0.33888225827E+01  0.84252547806E+01  0.22485986275E+02  0.24250538461E+02  0.51100000000E-03 0.  1.
         12    1    3    3    0    0 -0.11081265970E+02  0.15965165379E+02  0.66335724646E+01  0.20534976131E+02  0.00000000000E+00 0. -1.
</event>
<event>
 7    1  0.3837332E-009  0.4778727E+02  0.7816164E-02  0.1312668E+00
        -11   -1    0    0    0    0  0.00000000000E+00  0.00000000000E+00  0.45593999997E+02  0.45594000000E+02  0.51100000000E-03 0. -1.
         11   -1    0    0    0    0 -0.00000000000E+00 -0.00000000000E+00 -0.45593999997E+02  0.45594000000E+02  0.51100000000E-03 0.  1.
    9900012    2    1    2    0    0 -0.26925822926E+02 -0.31606711165E+02  0.12634829906E+02  0.47787273535E+02  0.20000011356E+02 0.  0.
        -12    1    1    2    0    0  0.26925822926E+02  0.31606711165E+02 -0.12634829906E+02  0.43400726465E+02  0.00000000000E+00 0.  1.
         11    1    3    3    0    0 -0.94340615596E+01 -0.46036972728E+00  0.52603061908E+01  0.10811303311E+02  0.51100000000E-03 0. -1.
        -11    1    3    3    0    0 -0.87849863481E+00 -0.60262580075E+01  0.17721787113E+01  0.63425675455E+01  0.51100000000E-03 0.  1.
        -12    1    3    3    0    0 -0.16613262732E+02 -0.25120083430E+02  0.56023450037E+01  0.30633402679E+02  0.00000000000E+00 0.  1.
</event>
<event>
 7    1  0.3837332E-009  0.4778727E+02  0.7816164E-02  0.1312668E+00
        -11   -1    0    0    0    0  0.00000000000E+00  0.00000000000E+00  0.45593999997E+02  0.45594000000E+02  0.51100000000E-03 0.  1.
         11   -1    0    0    0    0 -0.00000000000E+00 -0.00000000000E+00 -0.45593999997E+02  0.45594000000E+02  0.51100000000E-03 0. -1.
    9900012    2    1    2    0    0  0.50228716589E+01 -0.29460209375E+02 -0.31472051349E+02  0.47787271985E+02  0.20000004290E+02 0.  0.
        -12    1    1    2    0    0 -0.50228716589E+01  0.29460209375E+02  0.31472051349E+02  0.43400728015E+02  0.00000000000E+00 0.  1.
         11    1    3    3    0    0  0.11176371775E+01 -0.20859355778E+02 -0.10775522897E+02  0.23504759737E+02  0.51100000000E-03 0. -1.
        -11    1    3    3    0    0  0.49352819767E+01 -0.98720085917E+01 -0.18525219141E+02  0.21563796194E+02  0.51100000000E-03 0.  1.
        -12    1    3    3    0    0 -0.10300474953E+01  0.12711549946E+01 -0.21713093100E+01  0.27187160540E+01  0.00000000000E+00 0.  1.
</event>
<event>
 7    1  0.3837332E-009  0.4778727E+02  0.7816164E-02  0.1312668E+00
        -11   -1    0    0    0    0  0.00000000000E+00  0.00000000000E+00  0.45593999997E+02  0.45594000000E+02  0.51100000000E-03 0. -1.
         11   -1    0    0    0    0 -0.00000000000E+00 -0.00000000000E+00 -0.45593999997E+02  0.45594000000E+02  0.51100000000E-03 0.  1.
    9900012    2    1    2    0    0  0.36007355607E+02 -0.18375758525E+02 -0.15793208473E+02  0.47787267367E+02  0.19999983235E+02 0.  0.
        -12    1    1    2    0    0 -0.36007355607E+02  0.18375758525E+02  0.15793208473E+02  0.43400732633E+02  0.00000000000E+00 0.  1.
         11    1    3    3    0    0  0.70801055949E+01  0.26642630487E+01 -0.44199278736E+01  0.87613900436E+01  0.51100000000E-03 0. -1.
        -11    1    3    3    0    0  0.60241318342E+01  0.22069166626E+00 -0.10798904896E+01  0.61241352776E+01  0.51100000000E-03 0.  1.
         12    1    3    3    0    0  0.22903118178E+02 -0.21260713240E+02 -0.10293390110E+02  0.32901742046E+02  0.00000000000E+00 0. -1.
</event>
<event>
 7    1  0.3837332E-009  0.4778727E+02  0.7816164E-02  0.1312668E+00
        -11   -1    0    0    0    0  0.00000000000E+00  0.00000000000E+00  0.45593999997E+02  0.45594000000E+02  0.51100000000E-03 0.  1.
         11   -1    0    0    0    0 -0.00000000000E+00 -0.00000000000E+00 -0.45593999997E+02  0.45594000000E+02  0.51100000000E-03 0. -1.
    9900012    2    1    2    0    0  0.14180377037E+01 -0.43222465498E+02 -0.36648394750E+01  0.47787269556E+02  0.19999993214E+02 0.  0.
        -12    1    1    2    0    0 -0.14180377037E+01  0.43222465498E+02  0.36648394750E+01  0.43400730444E+02  0.00000000000E+00 0.  1.
         11    1    3    3    0    0 -0.23829735199E+01 -0.15241432392E+02 -0.31712603853E+00  0.15429853964E+02  0.51100000000E-03 0. -1.
        -11    1    3    3    0    0 -0.53757557402E+01 -0.46371139209E+01 -0.61034823818E+00  0.71255947490E+01  0.51100000000E-03 0.  1.
         12    1    3    3    0    0  0.91767669638E+01 -0.23343919186E+02 -0.27373651982E+01  0.25231820844E+02  0.00000000000E+00 0. -1.
</event>
<event>
 7    1  0.3837332E-009  0.4778728E+02  0.7816164E-02  0.1312668E+00
        -11   -1    0    0    0    0  0.00000000000E+00  0.00000000000E+00  0.45593999997E+02  0.45594000000E+02  0.51100000000E-03 0.  1.
         11   -1    0    0    0    0 -0.00000000000E+00 -0.00000000000E+00 -0.45593999997E+02  0.45594000000E+02  0.51100000000E-03 0. -1.
    9900012    2    1    2    0    0  0.14828390995E+02  0.85655349412E+01 -0.39879482069E+02  0.47787278135E+02  0.20000032329E+02 0.  0.
        -12    1    1    2    0    0 -0.14828390995E+02 -0.85655349412E+01  0.39879482069E+02  0.43400721865E+02  0.00000000000E+00 0.  1.
         11    1    3    3    0    0 -0.27810278772E+01  0.28554095822E+01 -0.10479322459E+02  0.11211765222E+02  0.51100000000E-03 0. -1.
        -11    1    3    3    0    0 -0.16733295694E+01  0.11373307120E+00 -0.21335823424E+01  0.27138793143E+01  0.51100000000E-03 0.  1.
         12    1    3    3    0    0  0.19282748442E+02  0.55963922878E+01 -0.27266577267E+02  0.33861633598E+02  0.00000000000E+00 0. -1.
</event>
<event>
 7    1  0.3837332E-009  0.4778727E+02  0.7816164E-02  0.1312668E+00
        -11   -1    0    0    0    0  0.00000000000E+00  0.00000000000E+00  0.45593999997E+02  0.45594000000E+02  0.51100000000E-03 0.  1.
         11   -1    0    0    0    0 -0.00000000000E+00 -0.00000000000E+00 -0.45593999997E+02  0.45594000000E+02  0.51100000000E-03 0. -1.
    9900012    2    1    2    0    0 -0.38364541830E+02 -0.15654654628E+02 -0.12911893951E+02  0.47787270896E+02  0.19999999324E+02 0.  0.
        -12    1    1    2    0    0  0.38364541830E+02  0.15654654628E+02  0.12911893951E+02  0.43400729104E+02  0.00000000000E+00 0.  1.
         11    1    3    3    0    0 -0.21681736335E+02 -0.75610349067E+01 -0.84004276321E+01  0.24450646699E+02  0.51100000000E-03 0. -1.
        -11    1    3    3    0    0 -0.15374944612E+02 -0.78613462921E+01 -0.84177803502E+01  0.19210640635E+02  0.51100000000E-03 0.  1.
        -12    1    3    3    0    0 -0.13078608835E+01 -0.23227342937E+00  0.39063140314E+01  0.41259835614E+01  0.00000000000E+00 0.  1.
</event>
<event>
 7    1  0.3837332E-009  0.4778727E+02  0.7816164E-02  0.1312668E+00
        -11   -1    0    0    0    0  0.00000000000E+00  0.00000000000E+00  0.45593999997E+02  0.45594000000E+02  0.51100000000E-03 0.  1.
         11   -1    0    0    0    0 -0.00000000000E+00 -0.00000000000E+00 -0.45593999997E+02  0.45594000000E+02  0.51100000000E-03 0. -1.
    9900012    2    1    2    0    0 -0.20505487402E+01  0.28380651475E+02 -0.32771290996E+02  0.47787266805E+02  0.19999980672E+02 0.  0.
        -12    1    1    2    0    0  0.20505487402E+01 -0.28380651475E+02  0.32771290996E+02  0.43400733195E+02  0.00000000000E+00 0.  1.
         11    1    3    3    0    0 -0.48047536446E+01  0.36109814340E+00 -0.26354467853E+01  0.54919604400E+01  0.51100000000E-03 0. -1.
        -11    1    3    3    0    0  0.14650093659E+01  0.46977504773E+01 -0.11175866627E+02  0.12211269677E+02  0.51100000000E-03 0.  1.
         12    1    3    3    0    0  0.12891955386E+01  0.23321802854E+02 -0.18959977584E+02  0.30084036689E+02  0.00000000000E+00 0. -1.
</event>
<event>
 7    1  0.3837332E-009  0.4778727E+02  0.7816164E-02  0.1312668E+00
        -11   -1    0    0    0    0  0.00000000000E+00  0.00000000000E+00  0.45593999997E+02  0.45594000000E+02  0.51100000000E-03 0. -1.
         11   -1    0    0    0    0 -0.00000000000E+00 -0.00000000000E+00 -0.45593999997E+02  0.45594000000E+02  0.51100000000E-03 0.  1.
    9900012    2    1    2    0    0  0.62308612972E+00 -0.38667389574E+02  0.19699434673E+02  0.47787274439E+02  0.20000015477E+02 0.  0.
        -12    1    1    2    0    0 -0.62308612972E+00  0.38667389574E+02 -0.19699434673E+02  0.43400725561E+02  0.00000000000E+00 0.  1.
         11    1    3    3    0    0  0.16030388114E+01 -0.60886711995E+01  0.84278795342E+00  0.63523178606E+01  0.51100000000E-03 0. -1.
        -11    1    3    3    0    0  0.15225491614E+01  0.42002518392E+00 -0.18226126578E+01  0.24117409200E+01  0.51100000000E-03 0.  1.
         12    1    3    3    0    0 -0.25025018431E+01 -0.32998743558E+02  0.20679259378E+02  0.39023215658E+02  0.00000000000E+00 0. -1.
</event>
<event>
 7    1  0.3837332E-009  0.4778727E+02  0.7816164E-02  0.1312668E+00
        -11   -1    0    0    0    0  0.00000000000E+00  0.00000000000E+00  0.45593999997E+02  0.45594000000E+02  0.51100000000E-03 0.  1.
         11   -1    0    0    0    0 -0.00000000000E+00 -0.00000000000E+00 -0.45593999997E+02  0.45594000000E+02  0.51100000000E-03 0. -1.
    9900012    2    1    2    0    0  0.22496268148E+02 -0.24750501094E+02 -0.27657805143E+02  0.47787267630E+02  0.19999984431E+02 0.  0.
        -12    1    1    2    0    0 -0.22496268148E+02  0.24750501094E+02  0.27657805143E+02  0.43400732370E+02  0.00000000000E+00 0.  1.
         11    1    3    3    0    0  0.11624602255E+02 -0.17807492672E+02 -0.10979886606E+02  0.23933158650E+02  0.51100000000E-03 0.  1.
        -11    1    3    3    0    0  0.10299126153E+02 -0.92403616270E+01 -0.10914582554E+02  0.17623404754E+02  0.51100000000E-03 0. -1.
        -12    1    3    3    0    0  0.57253973951E+00  0.22973532047E+01 -0.57633359828E+01  0.62307042259E+01  0.00000000000E+00 0.  1.
</event>
<event>
 7    1  0.3837332E-009  0.4778724E+02  0.7816164E-02  0.1312668E+00
        -11   -1    0    0    0    0  0.00000000000E+00  0.00000000000E+00  0.45593999997E+02  0.45594000000E+02  0.51100000000E-03 0.  1.
         11   -1    0    0    0    0 -0.00000000000E+00 -0.00000000000E+00 -0.45593999997E+02  0.45594000000E+02  0.51100000000E-03 0. -1.
    9900012    2    1    2    0    0 -0.16046876270E+02  0.63914922878E+01 -0.39815485213E+02  0.47787236476E+02  0.19999842390E+02 0.  0.
        -12    1    1    2    0    0  0.16046876270E+02 -0.63914922878E+01  0.39815485213E+02  0.43400763524E+02  0.00000000000E+00 0.  1.
         11    1    3    3    0    0  0.11003878941E+01  0.22591789336E+01 -0.80201680517E+00  0.26377972228E+01  0.51100000000E-03 0. -1.
        -11    1    3    3    0    0 -0.10643862107E+02  0.95196569638E+01 -0.24541054067E+02  0.28393291536E+02  0.51100000000E-03 0.  1.
         12    1    3    3    0    0 -0.65034020569E+01 -0.53873436097E+01 -0.14472414341E+02  0.16756147718E+02  0.00000000000E+00 0. -1.
</event>
