<event>
 7    1  0.4359248E-015  0.9000776E+02  0.7816164E-02  0.1186339E+00
        -11   -1    0    0    0    0  0.00000000000E+00  0.00000000000E+00  0.45593999997E+02  0.45594000000E+02  0.51100000000E-03 0.  1.
         11   -1    0    0    0    0 -0.00000000000E+00 -0.00000000000E+00 -0.45593999997E+02  0.45594000000E+02  0.51100000000E-03 0. -1.
    9900012    2    1    2    0    0  0.51751655339E+00  0.61978361524E+00 -0.86082663118E+00  0.90007755279E+02  0.90000016849E+02 0.  0.
        -12    1    1    2    0    0 -0.51751655339E+00 -0.61978361524E+00  0.86082663118E+00  0.11802447211E+01  0.00000000000E+00 0.  1.
         11    1    3    3    0    0 -0.89899436376E+01 -0.30393683376E+01 -0.47427605856E+01  0.10608987922E+02  0.51100000000E-03 0. -1.
        -11    1    3    3    0    0  0.12915759014E+02 -0.36259011705E+02  0.73477239558E+01  0.39185734755E+02  0.51100000000E-03 0.  1.
         12    1    3    3    0    0 -0.34082988233E+01  0.39918163658E+02 -0.34657900014E+01  0.40213032601E+02  0.00000000000E+00 0. -1.
</event>
<event>
 7    1  0.4359248E-015  0.9000778E+02  0.7816164E-02  0.1186339E+00
        -11   -1    0    0    0    0  0.00000000000E+00  0.00000000000E+00  0.45593999997E+02  0.45594000000E+02  0.51100000000E-03 0.  1.
         11   -1    0    0    0    0 -0.00000000000E+00 -0.00000000000E+00 -0.45593999997E+02  0.45594000000E+02  0.51100000000E-03 0. -1.
    9900012    2    1    2    0    0  0.11096804210E+01 -0.26753709789E+00  0.29991372352E+00  0.90007781810E+02  0.90000043729E+02 0.  0.
        -12    1    1    2    0    0 -0.11096804210E+01  0.26753709789E+00 -0.29991372352E+00  0.11802181905E+01  0.00000000000E+00 0.  1.
         11    1    3    3    0    0  0.11014601938E+02 -0.36470479541E+02 -0.74005325775E+01  0.38809602117E+02  0.51100000000E-03 0. -1.
        -11    1    3    3    0    0  0.37798386615E+01 -0.38214550173E+01  0.70867018378E+01  0.88944950365E+01  0.51100000000E-03 0.  1.
        -12    1    3    3    0    0 -0.13684760178E+02  0.40024397460E+02  0.61374446322E+00  0.42303684656E+02  0.00000000000E+00 0.  1.
</event>
<event>
 7    1  0.4359248E-015  0.9000773E+02  0.7816164E-02  0.1186339E+00
        -11   -1    0    0    0    0  0.00000000000E+00  0.00000000000E+00  0.45593999997E+02  0.45594000000E+02  0.51100000000E-03 0. -1.
         11   -1    0    0    0    0 -0.00000000000E+00 -0.00000000000E+00 -0.45593999997E+02  0.45594000000E+02  0.51100000000E-03 0.  1.
    9900012    2    1    2    0    0  0.56339329987E+00 -0.54795250038E+00  0.88055578702E+00  0.90007727808E+02  0.89999989015E+02 0.  0.
        -12    1    1    2    0    0 -0.56339329987E+00  0.54795250038E+00 -0.88055578702E+00  0.11802721919E+01  0.00000000000E+00 0.  1.
         11    1    3    3    0    0  0.15125430426E+02  0.74188371816E+01  0.37604833332E+02  0.41206083056E+02  0.51100000000E-03 0. -1.
        -11    1    3    3    0    0  0.55982895055E+01  0.55070502177E+01 -0.79869420636E+01  0.11200879040E+02  0.51100000000E-03 0.  1.
        -12    1    3    3    0    0 -0.20160326632E+02 -0.13473839900E+02 -0.28737335481E+02  0.37600765711E+02  0.00000000000E+00 0.  1.
</event>
<event>
 7    1  0.4359248E-015  0.9000772E+02  0.7816164E-02  0.1186339E+00
        -11   -1    0    0    0    0  0.00000000000E+00  0.00000000000E+00  0.45593999997E+02  0.45594000000E+02  0.51100000000E-03 0. -1.
         11   -1    0    0    0    0 -0.00000000000E+00 -0.00000000000E+00 -0.45593999997E+02  0.45594000000E+02  0.51100000000E-03 0.  1.
    9900012    2    1    2    0    0  0.21915996022E+00  0.11592430911E+01 -0.34431213099E-01  0.90007719889E+02  0.89999980991E+02 0.  0.
        -12    1    1    2    0    0 -0.21915996022E+00 -0.11592430911E+01  0.34431213099E-01  0.11802801112E+01  0.00000000000E+00 0.  1.
         11    1    3    3    0    0  0.92008573795E+01  0.17516214590E+01 -0.10819261796E+02  0.14310149556E+02  0.51100000000E-03 0. -1.
        -11    1    3    3    0    0  0.18269792102E+02  0.26864888702E+02 -0.68171505442E+01  0.33196100527E+02  0.51100000000E-03 0.  1.
         12    1    3    3    0    0 -0.27251489521E+02 -0.27457267070E+02  0.17601981127E+02  0.42501469806E+02  0.00000000000E+00 0. -1.
</event>
<event>
 7    1  0.4359248E-015  0.9000782E+02  0.7816164E-02  0.1186339E+00
        -11   -1    0    0    0    0  0.00000000000E+00  0.00000000000E+00  0.45593999997E+02  0.45594000000E+02  0.51100000000E-03 0. -1.
         11   -1    0    0    0    0 -0.00000000000E+00 -0.00000000000E+00 -0.45593999997E+02  0.45594000000E+02  0.51100000000E-03 0.  1.
    9900012    2    1    2    0    0  0.94903851794E+00  0.48367946007E+00  0.50813015432E+00  0.90007823665E+02  0.90000086137E+02 0.  0.
        -12    1    1    2    0    0 -0.94903851794E+00 -0.48367946007E+00 -0.50813015432E+00  0.11801763353E+01  0.00000000000E+00 0.  1.
         11    1    3    3    0    0  0.10444083463E+01 -0.81756179781E+01  0.44133675789E+01  0.93492957898E+01  0.51100000000E-03 0. -1.
        -11    1    3    3    0    0 -0.29755161442E+02 -0.22271010443E+02 -0.64832032484E+01  0.37727966593E+02  0.51100000000E-03 0.  1.
         12    1    3    3    0    0  0.29659791614E+02  0.30930307881E+02  0.25779658238E+01  0.42930561282E+02  0.00000000000E+00 0. -1.
</event>
<event>
 7    1  0.4359248E-015  0.9000774E+02  0.7816164E-02  0.1186339E+00
        -11   -1    0    0    0    0  0.00000000000E+00  0.00000000000E+00  0.45593999997E+02  0.45594000000E+02  0.51100000000E-03 0.  1.
         11   -1    0    0    0    0 -0.00000000000E+00 -0.00000000000E+00 -0.45593999997E+02  0.45594000000E+02  0.51100000000E-03 0. -1.
    9900012    2    1    2    0    0  0.55022274497E+00 -0.22652562014E+00  0.10192877329E+01  0.90007743075E+02  0.90000004484E+02 0.  0.
        -12    1    1    2    0    0 -0.55022274497E+00  0.22652562014E+00 -0.10192877329E+01  0.11802569246E+01  0.00000000000E+00 0.  1.
         11    1    3    3    0    0 -0.48848136198E+01 -0.48529217063E+00  0.79837522539E+01  0.93721509219E+01  0.51100000000E-03 0. -1.
        -11    1    3    3    0    0  0.31156196591E+02 -0.23626557760E+02 -0.19072345253E+02  0.43504909738E+02  0.51100000000E-03 0.  1.
         12    1    3    3    0    0 -0.25721160226E+02  0.23885324311E+02  0.12107880732E+02  0.37130682415E+02  0.00000000000E+00 0. -1.
</event>
<event>
 7    1  0.4359248E-015  0.9000778E+02  0.7816164E-02  0.1186339E+00
        -11   -1    0    0    0    0  0.00000000000E+00  0.00000000000E+00  0.45593999997E+02  0.45594000000E+02  0.51100000000E-03 0. -1.
         11   -1    0    0    0    0 -0.00000000000E+00 -0.00000000000E+00 -0.45593999997E+02  0.45594000000E+02  0.51100000000E-03 0.  1.
    9900012    2    1    2    0    0  0.10668398284E+01 -0.14367334662E+00  0.48387106034E+00  0.90007779490E+02  0.90000041379E+02 0.  0.
        -12    1    1    2    0    0 -0.10668398284E+01  0.14367334662E+00 -0.48387106034E+00  0.11802205104E+01  0.00000000000E+00 0.  1.
         11    1    3    3    0    0  0.11718664255E+02  0.49779611951E+00  0.39870222297E+01  0.12388350956E+02  0.51100000000E-03 0. -1.
        -11    1    3    3    0    0 -0.63869354281E+00 -0.28866859373E+02  0.23550730474E+02  0.37260440223E+02  0.51100000000E-03 0.  1.
         12    1    3    3    0    0 -0.10013130884E+02  0.28225389906E+02 -0.27053881643E+02  0.40358988310E+02  0.00000000000E+00 0. -1.
</event>
<event>
 7    1  0.4359248E-015  0.9000757E+02  0.7816164E-02  0.1186339E+00
        -11   -1    0    0    0    0  0.00000000000E+00  0.00000000000E+00  0.45593999997E+02  0.45594000000E+02  0.51100000000E-03 0.  1.
         11   -1    0    0    0    0 -0.00000000000E+00 -0.00000000000E+00 -0.45593999997E+02  0.45594000000E+02  0.51100000000E-03 0. -1.
    9900012    2    1    2    0    0 -0.10435508690E+01  0.14272991495E+00 -0.53296719703E+00  0.90007566064E+02  0.89999825136E+02 0.  0.
        -12    1    1    2    0    0  0.10435508690E+01 -0.14272991495E+00  0.53296719703E+00  0.11804339363E+01  0.00000000000E+00 0.  1.
         11    1    3    3    0    0 -0.10519561634E+01  0.65298686004E+01  0.44727920462E+01  0.79844639556E+01  0.51100000000E-03 0. -1.
        -11    1    3    3    0    0  0.21591976997E+02  0.22853984364E+02  0.20579030830E+02  0.37576782488E+02  0.51100000000E-03 0.  1.
         12    1    3    3    0    0 -0.21583571703E+02 -0.29241123050E+02 -0.25584790074E+02  0.44446319620E+02  0.00000000000E+00 0. -1.
</event>
<event>
 7    1  0.4359248E-015  0.9000774E+02  0.7816164E-02  0.1186339E+00
        -11   -1    0    0    0    0  0.00000000000E+00  0.00000000000E+00  0.45593999997E+02  0.45594000000E+02  0.51100000000E-03 0. -1.
         11   -1    0    0    0    0 -0.00000000000E+00 -0.00000000000E+00 -0.45593999997E+02  0.45594000000E+02  0.51100000000E-03 0.  1.
    9900012    2    1    2    0    0 -0.32070727036E+00  0.11035902633E+01  0.26879392030E+00  0.90007739523E+02  0.90000000884E+02 0.  0.
        -12    1    1    2    0    0  0.32070727036E+00 -0.11035902633E+01 -0.26879392030E+00  0.11802604773E+01  0.00000000000E+00 0.  1.
         11    1    3    3    0    0  0.77075337755E+01 -0.38166769185E+02  0.14507766763E+02  0.41552179770E+02  0.51100000000E-03 0. -1.
        -11    1    3    3    0    0  0.69594912822E+01  0.41608878669E+01 -0.18050647209E+01  0.83069709073E+01  0.51100000000E-03 0.  1.
        -12    1    3    3    0    0 -0.14987732328E+02  0.35109471582E+02 -0.12433908122E+02  0.40148588845E+02  0.00000000000E+00 0.  1.
</event>
<event>
 7    1  0.4359248E-015  0.9000754E+02  0.7816164E-02  0.1186339E+00
        -11   -1    0    0    0    0  0.00000000000E+00  0.00000000000E+00  0.45593999997E+02  0.45594000000E+02  0.51100000000E-03 0. -1.
         11   -1    0    0    0    0 -0.00000000000E+00 -0.00000000000E+00 -0.45593999997E+02  0.45594000000E+02  0.51100000000E-03 0.  1.
    9900012    2    1    2    0    0 -0.39094268551E-01 -0.11778832808E+01  0.67374050405E-01  0.90007543882E+02  0.89999802661E+02 0.  0.
        -12    1    1    2    0    0  0.39094268551E-01  0.11778832808E+01 -0.67374050405E-01  0.11804561184E+01  0.00000000000E+00 0.  1.
         11    1    3    3    0    0  0.11494740863E+02  0.33190219748E+02 -0.12190308628E+02  0.37179609723E+02  0.51100000000E-03 0. -1.
        -11    1    3    3    0    0  0.92829714434E+01  0.75374364133E+00  0.70263230152E+01  0.11666657776E+02  0.51100000000E-03 0.  1.
        -12    1    3    3    0    0 -0.20816806575E+02 -0.35121846670E+02  0.52313596635E+01  0.41161276382E+02  0.00000000000E+00 0.  1.
</event>
<event>
 7    1  0.4359248E-015  0.9000777E+02  0.7816164E-02  0.1186339E+00
        -11   -1    0    0    0    0  0.00000000000E+00  0.00000000000E+00  0.45593999997E+02  0.45594000000E+02  0.51100000000E-03 0.  1.
         11   -1    0    0    0    0 -0.00000000000E+00 -0.00000000000E+00 -0.45593999997E+02  0.45594000000E+02  0.51100000000E-03 0. -1.
    9900012    2    1    2    0    0 -0.10078240739E+01 -0.58052791854E+00 -0.20057422251E+00  0.90007766105E+02  0.90000027818E+02 0.  0.
        -12    1    1    2    0    0  0.10078240739E+01  0.58052791854E+00  0.20057422251E+00  0.11802338950E+01  0.00000000000E+00 0.  1.
         11    1    3    3    0    0 -0.24883221762E+01  0.69202569748E+01 -0.53711510534E+01  0.91066441541E+01  0.51100000000E-03 0. -1.
        -11    1    3    3    0    0  0.36944890537E+02  0.13696766525E+02  0.16932998168E+01  0.39438478857E+02  0.51100000000E-03 0.  1.
         12    1    3    3    0    0 -0.35464392435E+02 -0.21197551419E+02  0.34772770140E+01  0.41462643094E+02  0.00000000000E+00 0. -1.
</event>
<event>
 7    1  0.4359248E-015  0.9000770E+02  0.7816164E-02  0.1186339E+00
        -11   -1    0    0    0    0  0.00000000000E+00  0.00000000000E+00  0.45593999997E+02  0.45594000000E+02  0.51100000000E-03 0.  1.
         11   -1    0    0    0    0 -0.00000000000E+00 -0.00000000000E+00 -0.45593999997E+02  0.45594000000E+02  0.51100000000E-03 0. -1.
    9900012    2    1    2    0    0  0.74933201659E+00  0.72823945358E+00 -0.54889037700E+00  0.90007698420E+02  0.89999959240E+02 0.  0.
        -12    1    1    2    0    0 -0.74933201659E+00 -0.72823945358E+00  0.54889037700E+00  0.11803015796E+01  0.00000000000E+00 0.  1.
         11    1    3    3    0    0  0.17415230809E+02 -0.23762404447E+02 -0.25602919526E+02  0.39031418342E+02  0.51100000000E-03 0. -1.
        -11    1    3    3    0    0  0.31074693349E+01  0.10609986912E+02 -0.52349842023E+01  0.12232466955E+02  0.51100000000E-03 0.  1.
        -12    1    3    3    0    0 -0.19773368128E+02  0.13880656989E+02  0.30289013352E+02  0.38743813124E+02  0.00000000000E+00 0.  1.
</event>
<event>
 7    1  0.4359248E-015  0.9000783E+02  0.7816164E-02  0.1186339E+00
        -11   -1    0    0    0    0  0.00000000000E+00  0.00000000000E+00  0.45593999997E+02  0.45594000000E+02  0.51100000000E-03 0.  1.
         11   -1    0    0    0    0 -0.00000000000E+00 -0.00000000000E+00 -0.45593999997E+02  0.45594000000E+02  0.51100000000E-03 0. -1.
    9900012    2    1    2    0    0 -0.26057920255E+00 -0.10073569723E+01 -0.55689718571E+00  0.90007828798E+02  0.90000091338E+02 0.  0.
        -12    1    1    2    0    0  0.26057920255E+00  0.10073569723E+01  0.55689718571E+00  0.11801712019E+01  0.00000000000E+00 0.  1.
         11    1    3    3    0    0 -0.22258059376E+02  0.10912044440E+02 -0.26115271203E+02  0.36006961984E+02  0.51100000000E-03 0. -1.
        -11    1    3    3    0    0  0.79149200762E+00  0.25869812720E+01 -0.98715151689E+01  0.10235513846E+02  0.51100000000E-03 0.  1.
        -12    1    3    3    0    0  0.21205988166E+02 -0.14506382684E+02  0.35429889186E+02  0.43765352968E+02  0.00000000000E+00 0.  1.
</event>
<event>
 7    1  0.4359248E-015  0.9000774E+02  0.7816164E-02  0.1186339E+00
        -11   -1    0    0    0    0  0.00000000000E+00  0.00000000000E+00  0.45593999997E+02  0.45594000000E+02  0.51100000000E-03 0.  1.
         11   -1    0    0    0    0 -0.00000000000E+00 -0.00000000000E+00 -0.45593999997E+02  0.45594000000E+02  0.51100000000E-03 0. -1.
    9900012    2    1    2    0    0  0.80258035804E+00  0.36705132009E+00 -0.78367201052E+00  0.90007744213E+02  0.90000005637E+02 0.  0.
        -12    1    1    2    0    0 -0.80258035804E+00 -0.36705132009E+00  0.78367201052E+00  0.11802557870E+01  0.00000000000E+00 0.  1.
         11    1    3    3    0    0  0.13679737035E+02 -0.28397187841E+02 -0.23253443997E+02  0.39169607358E+02  0.51100000000E-03 0. -1.
        -11    1    3    3    0    0 -0.91154578671E+01  0.17865490072E+01 -0.62965786420E+01  0.11221864031E+02  0.51100000000E-03 0.  1.
        -12    1    3    3    0    0 -0.37616988102E+01  0.26977690154E+02  0.28766350628E+02  0.39616272824E+02  0.00000000000E+00 0.  1.
</event>
<event>
 7    1  0.4359248E-015  0.9000761E+02  0.7816164E-02  0.1186339E+00
        -11   -1    0    0    0    0  0.00000000000E+00  0.00000000000E+00  0.45593999997E+02  0.45594000000E+02  0.51100000000E-03 0. -1.
         11   -1    0    0    0    0 -0.00000000000E+00 -0.00000000000E+00 -0.45593999997E+02  0.45594000000E+02  0.51100000000E-03 0.  1.
    9900012    2    1    2    0    0 -0.10443526093E+01  0.12843927166E+00 -0.53493925588E+00  0.90007606410E+02  0.89999866015E+02 0.  0.
        -12    1    1    2    0    0  0.10443526093E+01 -0.12843927166E+00  0.53493925588E+00  0.11803935897E+01  0.00000000000E+00 0.  1.
         11    1    3    3    0    0 -0.17173862060E+02  0.13917158255E+02 -0.30840428316E+02  0.37944180725E+02  0.51100000000E-03 0. -1.
        -11    1    3    3    0    0  0.15474973401E+01  0.88803177534E+01 -0.27380134209E+01  0.94208019390E+01  0.51100000000E-03 0.  1.
        -12    1    3    3    0    0  0.14582012110E+02 -0.22669036737E+02  0.33043502481E+02  0.42642623746E+02  0.00000000000E+00 0.  1.
</event>
<event>
 7    1  0.4359248E-015  0.9000741E+02  0.7816164E-02  0.1186340E+00
        -11   -1    0    0    0    0  0.00000000000E+00  0.00000000000E+00  0.45593999997E+02  0.45594000000E+02  0.51100000000E-03 0.  1.
         11   -1    0    0    0    0 -0.00000000000E+00 -0.00000000000E+00 -0.45593999997E+02  0.45594000000E+02  0.51100000000E-03 0. -1.
    9900012    2    1    2    0    0  0.65892102157E+00  0.38682975020E+00  0.89998811275E+00  0.90007409990E+02  0.89999667001E+02 0.  0.
        -12    1    1    2    0    0 -0.65892102157E+00 -0.38682975020E+00 -0.89998811275E+00  0.11805900099E+01  0.00000000000E+00 0.  1.
         11    1    3    3    0    0 -0.81174701494E+01 -0.24445867387E+01  0.41104501683E+01  0.94215246535E+01  0.51100000000E-03 0. -1.
        -11    1    3    3    0    0  0.23621623168E+02  0.45213737052E+01  0.33334332961E+02  0.41104764389E+02  0.51100000000E-03 0.  1.
         12    1    3    3    0    0 -0.14845231997E+02 -0.16899572162E+01 -0.36544795017E+02  0.39481120947E+02  0.00000000000E+00 0. -1.
</event>
<event>
 7    1  0.4359248E-015  0.9000779E+02  0.7816164E-02  0.1186339E+00
        -11   -1    0    0    0    0  0.00000000000E+00  0.00000000000E+00  0.45593999997E+02  0.45594000000E+02  0.51100000000E-03 0.  1.
         11   -1    0    0    0    0 -0.00000000000E+00 -0.00000000000E+00 -0.45593999997E+02  0.45594000000E+02  0.51100000000E-03 0. -1.
    9900012    2    1    2    0    0 -0.86441145752E+00 -0.85988302420E-01  0.79892753044E+00  0.90007793935E+02  0.90000056015E+02 0.  0.
        -12    1    1    2    0    0  0.86441145752E+00  0.85988302420E-01 -0.79892753044E+00  0.11802060646E+01  0.00000000000E+00 0.  1.
         11    1    3    3    0    0  0.76493121474E+01 -0.32023820060E+01  0.27204582608E+01  0.87274349181E+01  0.51100000000E-03 0. -1.
        -11    1    3    3    0    0 -0.11702782329E+02 -0.19892556028E+02  0.32434863132E+02  0.39808155524E+02  0.51100000000E-03 0.  1.
         12    1    3    3    0    0  0.31890587241E+01  0.23008949732E+02 -0.34356393863E+02  0.41472203493E+02  0.00000000000E+00 0. -1.
</event>
<event>
 7    1  0.4359248E-015  0.9000772E+02  0.7816164E-02  0.1186339E+00
        -11   -1    0    0    0    0  0.00000000000E+00  0.00000000000E+00  0.45593999997E+02  0.45594000000E+02  0.51100000000E-03 0.  1.
         11   -1    0    0    0    0 -0.00000000000E+00 -0.00000000000E+00 -0.45593999997E+02  0.45594000000E+02  0.51100000000E-03 0. -1.
    9900012    2    1    2    0    0 -0.38231396875E+00  0.77095610591E+00  0.80779022409E+00  0.90007719383E+02  0.89999980479E+02 0.  0.
        -12    1    1    2    0    0  0.38231396875E+00 -0.77095610591E+00 -0.80779022409E+00  0.11802806167E+01  0.00000000000E+00 0.  1.
         11    1    3    3    0    0  0.13869462339E+01 -0.16667189121E+01 -0.31612653067E+02  0.31686927998E+02  0.51100000000E-03 0. -1.
        -11    1    3    3    0    0 -0.70429007568E+01 -0.13976055461E+02 -0.55616318506E+01  0.16609163929E+02  0.51100000000E-03 0.  1.
        -12    1    3    3    0    0  0.52736405542E+01  0.16413730479E+02  0.37982075142E+02  0.41711627456E+02  0.00000000000E+00 0.  1.
</event>
<event>
 7    1  0.4359248E-015  0.9000772E+02  0.7816164E-02  0.1186339E+00
        -11   -1    0    0    0    0  0.00000000000E+00  0.00000000000E+00  0.45593999997E+02  0.45594000000E+02  0.51100000000E-03 0. -1.
         11   -1    0    0    0    0 -0.00000000000E+00 -0.00000000000E+00 -0.45593999997E+02  0.45594000000E+02  0.51100000000E-03 0.  1.
    9900012    2    1    2    0    0  0.46641515828E+00 -0.72055795405E-01  0.10818197016E+01  0.90007716558E+02  0.89999977616E+02 0.  0.
        -12    1    1    2    0    0 -0.46641515828E+00  0.72055795405E-01 -0.10818197016E+01  0.11802834423E+01  0.00000000000E+00 0.  1.
         11    1    3    3    0    0  0.23199997459E+02  0.67694385298E+01 -0.27047882443E+02  0.36271933021E+02  0.51100000000E-03 0. -1.
        -11    1    3    3    0    0  0.68509737812E+01 -0.50701211828E+01 -0.45143575904E+01  0.96447599905E+01  0.51100000000E-03 0.  1.
        -12    1    3    3    0    0 -0.29584556082E+02 -0.17713731424E+01  0.32644059735E+02  0.44091023547E+02  0.00000000000E+00 0.  1.
</event>
<event>
 7    1  0.4359248E-015  0.9000790E+02  0.7816164E-02  0.1186339E+00
        -11   -1    0    0    0    0  0.00000000000E+00  0.00000000000E+00  0.45593999997E+02  0.45594000000E+02  0.51100000000E-03 0. -1.
         11   -1    0    0    0    0 -0.00000000000E+00 -0.00000000000E+00 -0.45593999997E+02  0.45594000000E+02  0.51100000000E-03 0.  1.
    9900012    2    1    2    0    0  0.92043211673E+00  0.48818340727E+00  0.55418638747E+00  0.90007897940E+02  0.90000161392E+02 0.  0.
        -12    1    1    2    0    0 -0.92043211673E+00 -0.48818340727E+00 -0.55418638747E+00  0.11801020603E+01  0.00000000000E+00 0.  1.
         11    1    3    3    0    0  0.31248665114E+01  0.21153680963E+02  0.24728411902E+02  0.32691548823E+02  0.51100000000E-03 0. -1.
        -11    1    3    3    0    0  0.13071774879E+02 -0.30899141023E+02 -0.14659988291E+02  0.36613432937E+02  0.51100000000E-03 0.  1.
         12    1    3    3    0    0 -0.15276209274E+02  0.10233643467E+02 -0.95142372238E+01  0.20702916180E+02  0.00000000000E+00 0. -1.
</event>
<event>
 7    1  0.4359248E-015  0.9000767E+02  0.7816164E-02  0.1186339E+00
        -11   -1    0    0    0    0  0.00000000000E+00  0.00000000000E+00  0.45593999997E+02  0.45594000000E+02  0.51100000000E-03 0.  1.
         11   -1    0    0    0    0 -0.00000000000E+00 -0.00000000000E+00 -0.45593999997E+02  0.45594000000E+02  0.51100000000E-03 0. -1.
    9900012    2    1    2    0    0  0.49898404506E+00 -0.59334501206E-01 -0.10680262393E+01  0.90007667120E+02  0.89999927526E+02 0.  0.
        -12    1    1    2    0    0 -0.49898404506E+00  0.59334501206E-01  0.10680262393E+01  0.11803328802E+01  0.00000000000E+00 0.  1.
         11    1    3    3    0    0  0.41462202732E+02 -0.94770771181E+00 -0.63965200466E+01  0.41963411137E+02  0.51100000000E-03 0. -1.
        -11    1    3    3    0    0 -0.39055027335E+01  0.89472123926E+01  0.11033121416E+00  0.97630801716E+01  0.51100000000E-03 0.  1.
        -12    1    3    3    0    0 -0.37057715953E+02 -0.80588391820E+01  0.52181625931E+01  0.38281175811E+02  0.00000000000E+00 0.  1.
</event>
<event>
 7    1  0.4359248E-015  0.9000768E+02  0.7816164E-02  0.1186339E+00
        -11   -1    0    0    0    0  0.00000000000E+00  0.00000000000E+00  0.45593999997E+02  0.45594000000E+02  0.51100000000E-03 0. -1.
         11   -1    0    0    0    0 -0.00000000000E+00 -0.00000000000E+00 -0.45593999997E+02  0.45594000000E+02  0.51100000000E-03 0.  1.
    9900012    2    1    2    0    0 -0.80148019871E+00  0.74806874881E+00  0.43724759375E+00  0.90007676815E+02  0.89999937349E+02 0.  0.
        -12    1    1    2    0    0  0.80148019871E+00 -0.74806874881E+00 -0.43724759375E+00  0.11803231846E+01  0.00000000000E+00 0.  1.
         11    1    3    3    0    0  0.20021238463E+02  0.39497256880E+01  0.30093031398E+02  0.36359879834E+02  0.51100000000E-03 0. -1.
        -11    1    3    3    0    0 -0.23945005974E-01  0.74054667104E+01  0.69985753110E+01  0.10189286884E+02  0.51100000000E-03 0.  1.
        -12    1    3    3    0    0 -0.20798773656E+02 -0.10607123650E+02 -0.36654359115E+02  0.43458510097E+02  0.00000000000E+00 0.  1.
</event>
<event>
 7    1  0.4359248E-015  0.9000774E+02  0.7816164E-02  0.1186339E+00
        -11   -1    0    0    0    0  0.00000000000E+00  0.00000000000E+00  0.45593999997E+02  0.45594000000E+02  0.51100000000E-03 0. -1.
         11   -1    0    0    0    0 -0.00000000000E+00 -0.00000000000E+00 -0.45593999997E+02  0.45594000000E+02  0.51100000000E-03 0.  1.
    9900012    2    1    2    0    0  0.70904642845E+00 -0.89855587988E+00 -0.28785112936E+00  0.90007742494E+02  0.90000003895E+02 0.  0.
        -12    1    1    2    0    0 -0.70904642845E+00  0.89855587988E+00  0.28785112936E+00  0.11802575056E+01  0.00000000000E+00 0.  1.
         11    1    3    3    0    0 -0.22038751969E+02 -0.21000461549E+02 -0.12367013753E+02  0.32858317107E+02  0.51100000000E-03 0. -1.
        -11    1    3    3    0    0 -0.88957155790E+01 -0.91220020722E+01  0.18201356569E+01  0.12870803065E+02  0.51100000000E-03 0.  1.
        -12    1    3    3    0    0  0.31643513977E+02  0.29223907742E+02  0.10259026967E+02  0.44278622323E+02  0.00000000000E+00 0.  1.
</event>
<event>
 7    1  0.4359248E-015  0.9000789E+02  0.7816164E-02  0.1186339E+00
        -11   -1    0    0    0    0  0.00000000000E+00  0.00000000000E+00  0.45593999997E+02  0.45594000000E+02  0.51100000000E-03 0.  1.
         11   -1    0    0    0    0 -0.00000000000E+00 -0.00000000000E+00 -0.45593999997E+02  0.45594000000E+02  0.51100000000E-03 0. -1.
    9900012    2    1    2    0    0  0.20455390602E+00  0.10800662250E+01 -0.42926320734E+00  0.90007893118E+02  0.90000156507E+02 0.  0.
        -12    1    1    2    0    0 -0.20455390602E+00 -0.10800662250E+01  0.42926320734E+00  0.11801068816E+01  0.00000000000E+00 0.  1.
         11    1    3    3    0    0 -0.30438955511E+02  0.11628780620E+02 -0.24096414007E+02  0.40526481707E+02  0.51100000000E-03 0. -1.
        -11    1    3    3    0    0  0.45177872078E+01  0.66263886744E+01 -0.28232946986E+01  0.85023773931E+01  0.51100000000E-03 0.  1.
        -12    1    3    3    0    0  0.26125722209E+02 -0.17175103069E+02  0.26490445498E+02  0.40979034018E+02  0.00000000000E+00 0.  1.
</event>
<event>
 7    1  0.4359248E-015  0.9000773E+02  0.7816164E-02  0.1186339E+00
        -11   -1    0    0    0    0  0.00000000000E+00  0.00000000000E+00  0.45593999997E+02  0.45594000000E+02  0.51100000000E-03 0.  1.
         11   -1    0    0    0    0 -0.00000000000E+00 -0.00000000000E+00 -0.45593999997E+02  0.45594000000E+02  0.51100000000E-03 0. -1.
    9900012    2    1    2    0    0 -0.90930102942E+00 -0.60471952107E+00 -0.44778783865E+00  0.90007733924E+02  0.89999995212E+02 0.  0.
        -12    1    1    2    0    0  0.90930102942E+00  0.60471952107E+00  0.44778783865E+00  0.11802660758E+01  0.00000000000E+00 0.  1.
         11    1    3    3    0    0 -0.94679988698E+01 -0.33747502121E+02 -0.93515636565E+01  0.36276557790E+02  0.51100000000E-03 0. -1.
        -11    1    3    3    0    0  0.64443061124E+01 -0.81957471893E+01  0.64632101138E+01  0.12266720772E+02  0.51100000000E-03 0.  1.
        -12    1    3    3    0    0  0.21143917279E+01  0.41338529789E+02  0.24405657040E+01  0.41464455362E+02  0.00000000000E+00 0.  1.
</event>
<event>
 7    1  0.4359248E-015  0.9000780E+02  0.7816164E-02  0.1186339E+00
        -11   -1    0    0    0    0  0.00000000000E+00  0.00000000000E+00  0.45593999997E+02  0.45594000000E+02  0.51100000000E-03 0.  1.
         11   -1    0    0    0    0 -0.00000000000E+00 -0.00000000000E+00 -0.45593999997E+02  0.45594000000E+02  0.51100000000E-03 0. -1.
    9900012    2    1    2    0    0 -0.68517415116E+00 -0.53832310943E+00  0.79600592869E+00  0.90007796278E+02  0.90000058389E+02 0.  0.
        -12    1    1    2    0    0  0.68517415116E+00  0.53832310943E+00 -0.79600592869E+00  0.11802037223E+01  0.00000000000E+00 0.  1.
         11    1    3    3    0    0  0.55562906754E+01 -0.10161351504E+01 -0.15813558915E+02  0.16792067846E+02  0.51100000000E-03 0. -1.
        -11    1    3    3    0    0  0.13450968704E+02 -0.30935998020E+02  0.36072876512E+01  0.33926052777E+02  0.51100000000E-03 0.  1.
         12    1    3    3    0    0 -0.19692433530E+02  0.31413810061E+02  0.13002277193E+02  0.39289675655E+02  0.00000000000E+00 0. -1.
</event>
<event>
 7    1  0.4359248E-015  0.9000770E+02  0.7816164E-02  0.1186339E+00
        -11   -1    0    0    0    0  0.00000000000E+00  0.00000000000E+00  0.45593999997E+02  0.45594000000E+02  0.51100000000E-03 0. -1.
         11   -1    0    0    0    0 -0.00000000000E+00 -0.00000000000E+00 -0.45593999997E+02  0.45594000000E+02  0.51100000000E-03 0.  1.
    9900012    2    1    2    0    0 -0.91914739775E+00 -0.37893889329E+00  0.63615008239E+00  0.90007697687E+02  0.89999958496E+02 0.  0.
        -12    1    1    2    0    0  0.91914739775E+00  0.37893889329E+00 -0.63615008239E+00  0.11803023134E+01  0.00000000000E+00 0.  1.
         11    1    3    3    0    0  0.29944748397E+02 -0.85434959339E+01  0.21247172852E+01  0.31212076238E+02  0.51100000000E-03 0. -1.
        -11    1    3    3    0    0  0.84683881123E+01 -0.11244355862E+02  0.38964850467E+01  0.14605880047E+02  0.51100000000E-03 0.  1.
        -12    1    3    3    0    0 -0.39332283907E+02  0.19408912903E+02 -0.53850522495E+01  0.44189741401E+02  0.00000000000E+00 0.  1.
</event>
<event>
 7    1  0.4359248E-015  0.9000770E+02  0.7816164E-02  0.1186339E+00
        -11   -1    0    0    0    0  0.00000000000E+00  0.00000000000E+00  0.45593999997E+02  0.45594000000E+02  0.51100000000E-03 0.  1.
         11   -1    0    0    0    0 -0.00000000000E+00 -0.00000000000E+00 -0.45593999997E+02  0.45594000000E+02  0.51100000000E-03 0. -1.
    9900012    2    1    2    0    0 -0.26247401848E+00 -0.10685974136E+01 -0.42699646560E+00  0.90007695368E+02  0.89999956147E+02 0.  0.
        -12    1    1    2    0    0  0.26247401848E+00  0.10685974136E+01  0.42699646560E+00  0.11803046320E+01  0.00000000000E+00 0.  1.
         11    1    3    3    0    0 -0.35700062621E+02 -0.16877719637E+02 -0.10687154764E+02  0.40909255291E+02  0.51100000000E-03 0. -1.
        -11    1    3    3    0    0  0.10429728449E+00  0.12689702449E+01  0.10811663714E+02  0.10886378458E+02  0.51100000000E-03 0.  1.
        -12    1    3    3    0    0  0.35333291318E+02  0.14540151979E+02 -0.55150541580E+00  0.38212061619E+02  0.00000000000E+00 0.  1.
</event>
<event>
 7    1  0.4359248E-015  0.9000774E+02  0.7816164E-02  0.1186339E+00
        -11   -1    0    0    0    0  0.00000000000E+00  0.00000000000E+00  0.45593999997E+02  0.45594000000E+02  0.51100000000E-03 0.  1.
         11   -1    0    0    0    0 -0.00000000000E+00 -0.00000000000E+00 -0.45593999997E+02  0.45594000000E+02  0.51100000000E-03 0. -1.
    9900012    2    1    2    0    0 -0.15187044451E-01 -0.56335259894E+00 -0.10370204610E+01  0.90007742302E+02  0.90000003700E+02 0.  0.
        -12    1    1    2    0    0  0.15187044451E-01  0.56335259894E+00  0.10370204610E+01  0.11802576980E+01  0.00000000000E+00 0.  1.
         11    1    3    3    0    0 -0.30477182591E+00  0.80095303973E+01  0.39699139424E+01  0.89445894273E+01  0.51100000000E-03 0. -1.
        -11    1    3    3    0    0 -0.11813999799E+01 -0.30891264301E+02  0.27653897769E+02  0.41477752809E+02  0.51100000000E-03 0.  1.
         12    1    3    3    0    0  0.14709847613E+01  0.22318381304E+02 -0.32660832172E+02  0.39585400066E+02  0.00000000000E+00 0. -1.
</event>
<event>
 7    1  0.4967745E-015  0.9000758E+02  0.7816164E-02  0.1186339E+00
        -11   -1    0    0    0    0  0.00000000000E+00  0.00000000000E+00  0.45593999997E+02  0.45594000000E+02  0.51100000000E-03 0. -1.
         11   -1    0    0    0    0 -0.00000000000E+00 -0.00000000000E+00 -0.45593999997E+02  0.45594000000E+02  0.51100000000E-03 0.  1.
    9900012    2    1    2    0    0 -0.26754701591E+00  0.94012683943E+00  0.66179395874E+00  0.90007580107E+02  0.89999839364E+02 0.  0.
        -12    1    1    2    0    0  0.26754701591E+00 -0.94012683943E+00 -0.66179395874E+00  0.11804198930E+01  0.00000000000E+00 0.  1.
         11    1    3    3    0    0 -0.48170407707E+00  0.26395687869E+02  0.28888526416E+02  0.39134528688E+02  0.51100000000E-03 0. -1.
        -11    1    3    3    0    0  0.63875559592E+01  0.61680465070E+01 -0.14892366002E+01  0.90035267955E+01  0.51100000000E-03 0.  1.
        -12    1    3    3    0    0 -0.61733988980E+01 -0.31623607536E+02 -0.26737495857E+02  0.41869524624E+02  0.00000000000E+00 0.  1.
</event>
<event>
 7    1  0.4359248E-015  0.9000774E+02  0.7816164E-02  0.1186339E+00
        -11   -1    0    0    0    0  0.00000000000E+00  0.00000000000E+00  0.45593999997E+02  0.45594000000E+02  0.51100000000E-03 0. -1.
         11   -1    0    0    0    0 -0.00000000000E+00 -0.00000000000E+00 -0.45593999997E+02  0.45594000000E+02  0.51100000000E-03 0.  1.
    9900012    2    1    2    0    0 -0.10681141628E+01  0.42747087441E+00 -0.26345749182E+00  0.90007741951E+02  0.90000003344E+02 0.  0.
        -12    1    1    2    0    0  0.10681141628E+01 -0.42747087441E+00  0.26345749182E+00  0.11802580494E+01  0.00000000000E+00 0.  1.
         11    1    3    3    0    0  0.45315694710E+01  0.57056534671E+01  0.32097366650E+02  0.32913987140E+02  0.51100000000E-03 0. -1.
        -11    1    3    3    0    0 -0.71077427968E+01 -0.10997046800E+02  0.86275548040E+01  0.15680872046E+02  0.51100000000E-03 0.  1.
        -12    1    3    3    0    0  0.15080591630E+01  0.57188642069E+01 -0.40988378945E+02  0.41412882764E+02  0.00000000000E+00 0.  1.
</event>
<event>
 7    1  0.4359248E-015  0.9000773E+02  0.7816164E-02  0.1186339E+00
        -11   -1    0    0    0    0  0.00000000000E+00  0.00000000000E+00  0.45593999997E+02  0.45594000000E+02  0.51100000000E-03 0.  1.
         11   -1    0    0    0    0 -0.00000000000E+00 -0.00000000000E+00 -0.45593999997E+02  0.45594000000E+02  0.51100000000E-03 0. -1.
    9900012    2    1    2    0    0 -0.10631174367E+01 -0.29292403405E+00 -0.42073158395E+00  0.90007729590E+02  0.89999990821E+02 0.  0.
        -12    1    1    2    0    0  0.10631174367E+01  0.29292403405E+00  0.42073158395E+00  0.11802704096E+01  0.00000000000E+00 0.  1.
         11    1    3    3    0    0 -0.29981134348E+02 -0.35049385719E+01 -0.21613508780E+02  0.37125419502E+02  0.51100000000E-03 0. -1.
        -11    1    3    3    0    0 -0.41199347237E+01  0.10958386434E+02  0.13900411443E+02  0.18173649439E+02  0.51100000000E-03 0.  1.
        -12    1    3    3    0    0  0.33037951635E+02 -0.77463718966E+01  0.72923657527E+01  0.34708660650E+02  0.00000000000E+00 0.  1.
</event>
<event>
 7    1  0.4359248E-015  0.9000772E+02  0.7816164E-02  0.1186339E+00
        -11   -1    0    0    0    0  0.00000000000E+00  0.00000000000E+00  0.45593999997E+02  0.45594000000E+02  0.51100000000E-03 0.  1.
         11   -1    0    0    0    0 -0.00000000000E+00 -0.00000000000E+00 -0.45593999997E+02  0.45594000000E+02  0.51100000000E-03 0. -1.
    9900012    2    1    2    0    0  0.18705098363E+00  0.65930892381E+00 -0.96092979958E+00  0.90007719352E+02  0.89999980448E+02 0.  0.
        -12    1    1    2    0    0 -0.18705098363E+00 -0.65930892381E+00  0.96092979958E+00  0.11802806476E+01  0.00000000000E+00 0.  1.
         11    1    3    3    0    0 -0.10452066074E+02 -0.32967293152E+02 -0.19970103792E+02  0.39936113340E+02  0.51100000000E-03 0. -1.
        -11    1    3    3    0    0 -0.78724954161E-01 -0.33760069171E+01  0.99357415538E+01  0.10493930665E+02  0.51100000000E-03 0.  1.
        -12    1    3    3    0    0  0.10717842012E+02  0.37002608993E+02  0.90734324385E+01  0.39577675347E+02  0.00000000000E+00 0.  1.
</event>
<event>
 7    1  0.4359248E-015  0.9000797E+02  0.7816164E-02  0.1186339E+00
        -11   -1    0    0    0    0  0.00000000000E+00  0.00000000000E+00  0.45593999997E+02  0.45594000000E+02  0.51100000000E-03 0.  1.
         11   -1    0    0    0    0 -0.00000000000E+00 -0.00000000000E+00 -0.45593999997E+02  0.45594000000E+02  0.51100000000E-03 0. -1.
    9900012    2    1    2    0    0 -0.35735092543E+00  0.85342060664E+00  0.73242604624E+00  0.90007968505E+02  0.90000232889E+02 0.  0.
        -12    1    1    2    0    0  0.35735092543E+00 -0.85342060664E+00 -0.73242604624E+00  0.11800314949E+01  0.00000000000E+00 0.  1.
         11    1    3    3    0    0  0.31584728826E+01  0.51681349246E+01 -0.24762974828E+02  0.25492949852E+02  0.51100000000E-03 0. -1.
        -11    1    3    3    0    0  0.21711457667E+02  0.97763557661E+01 -0.29187618760E+01  0.23989241282E+02  0.51100000000E-03 0.  1.
        -12    1    3    3    0    0 -0.25227281476E+02 -0.14091070084E+02  0.28414162751E+02  0.40525777372E+02  0.00000000000E+00 0.  1.
</event>
<event>
 7    1  0.4359248E-015  0.9000781E+02  0.7816164E-02  0.1186339E+00
        -11   -1    0    0    0    0  0.00000000000E+00  0.00000000000E+00  0.45593999997E+02  0.45594000000E+02  0.51100000000E-03 0. -1.
         11   -1    0    0    0    0 -0.00000000000E+00 -0.00000000000E+00 -0.45593999997E+02  0.45594000000E+02  0.51100000000E-03 0.  1.
    9900012    2    1    2    0    0  0.12184475882E+00 -0.11558233686E+01 -0.20514586216E+00  0.90007805682E+02  0.90000067916E+02 0.  0.
        -12    1    1    2    0    0 -0.12184475882E+00  0.11558233686E+01  0.20514586216E+00  0.11801943185E+01  0.00000000000E+00 0.  1.
         11    1    3    3    0    0 -0.30527994308E+01  0.17493572398E+02 -0.47641513412E+01  0.18385913028E+02  0.51100000000E-03 0. -1.
        -11    1    3    3    0    0 -0.16594739576E+01  0.16563493823E+02  0.25437532580E+02  0.30400184957E+02  0.51100000000E-03 0.  1.
         12    1    3    3    0    0  0.48341181472E+01 -0.35212889589E+02 -0.20878527101E+02  0.41221707696E+02  0.00000000000E+00 0. -1.
</event>
<event>
 7    1  0.4359248E-015  0.9000773E+02  0.7816164E-02  0.1186339E+00
        -11   -1    0    0    0    0  0.00000000000E+00  0.00000000000E+00  0.45593999997E+02  0.45594000000E+02  0.51100000000E-03 0.  1.
         11   -1    0    0    0    0 -0.00000000000E+00 -0.00000000000E+00 -0.45593999997E+02  0.45594000000E+02  0.51100000000E-03 0. -1.
    9900012    2    1    2    0    0 -0.11197427842E+01  0.32682063182E+00 -0.18000081259E+00  0.90007730573E+02  0.89999991816E+02 0.  0.
        -12    1    1    2    0    0  0.11197427842E+01 -0.32682063182E+00  0.18000081259E+00  0.11802694272E+01  0.00000000000E+00 0.  1.
         11    1    3    3    0    0 -0.13514368364E+02  0.24486269776E+02 -0.30656330911E+02  0.41497303347E+02  0.51100000000E-03 0. -1.
        -11    1    3    3    0    0  0.52495420718E-01  0.54165086462E+01  0.24852479931E+01  0.59596794823E+01  0.51100000000E-03 0.  1.
        -12    1    3    3    0    0  0.12342130159E+02 -0.29575957791E+02  0.27991082106E+02  0.42550747744E+02  0.00000000000E+00 0.  1.
</event>
<event>
 7    1  0.4359248E-015  0.9000771E+02  0.7816164E-02  0.1186339E+00
        -11   -1    0    0    0    0  0.00000000000E+00  0.00000000000E+00  0.45593999997E+02  0.45594000000E+02  0.51100000000E-03 0.  1.
         11   -1    0    0    0    0 -0.00000000000E+00 -0.00000000000E+00 -0.45593999997E+02  0.45594000000E+02  0.51100000000E-03 0. -1.
    9900012    2    1    2    0    0 -0.37411793397E+00  0.89386761591E+00 -0.67388712798E+00  0.90007708763E+02  0.89999969718E+02 0.  0.
        -12    1    1    2    0    0  0.37411793397E+00 -0.89386761591E+00  0.67388712798E+00  0.11802912372E+01  0.00000000000E+00 0.  1.
         11    1    3    3    0    0 -0.29351008214E+02  0.17238866411E+02 -0.13940099827E+02  0.36782965918E+02  0.51100000000E-03 0. -1.
        -11    1    3    3    0    0 -0.89751949760E+01  0.21252090389E+01  0.37549889596E+01  0.99584426826E+01  0.51100000000E-03 0.  1.
        -12    1    3    3    0    0  0.37952085256E+02 -0.18470207834E+02  0.95112237393E+01  0.43266300162E+02  0.00000000000E+00 0.  1.
</event>
<event>
 7    1  0.4359248E-015  0.9000775E+02  0.7816164E-02  0.1186339E+00
        -11   -1    0    0    0    0  0.00000000000E+00  0.00000000000E+00  0.45593999997E+02  0.45594000000E+02  0.51100000000E-03 0. -1.
         11   -1    0    0    0    0 -0.00000000000E+00 -0.00000000000E+00 -0.45593999997E+02  0.45594000000E+02  0.51100000000E-03 0.  1.
    9900012    2    1    2    0    0  0.38524983763E+00  0.10805862961E+01 -0.27730642493E+00  0.90007752977E+02  0.90000014517E+02 0.  0.
        -12    1    1    2    0    0 -0.38524983763E+00 -0.10805862961E+01  0.27730642493E+00  0.11802470225E+01  0.00000000000E+00 0.  1.
         11    1    3    3    0    0  0.92009193323E+01 -0.37434436229E+01 -0.97227928416E+00  0.99807621945E+01  0.51100000000E-03 0. -1.
        -11    1    3    3    0    0 -0.84656681522E+00 -0.43438323409E+01 -0.38622798747E+02  0.38875521065E+02  0.51100000000E-03 0.  1.
         12    1    3    3    0    0 -0.79691026794E+01  0.91678622599E+01  0.39317771606E+02  0.41151469718E+02  0.00000000000E+00 0. -1.
</event>
<event>
 7    1  0.4359248E-015  0.9000779E+02  0.7816164E-02  0.1186339E+00
        -11   -1    0    0    0    0  0.00000000000E+00  0.00000000000E+00  0.45593999997E+02  0.45594000000E+02  0.51100000000E-03 0.  1.
         11   -1    0    0    0    0 -0.00000000000E+00 -0.00000000000E+00 -0.45593999997E+02  0.45594000000E+02  0.51100000000E-03 0. -1.
    9900012    2    1    2    0    0 -0.19560053997E+00 -0.54987687491E+00 -0.10258067530E+01  0.90007786611E+02  0.90000048594E+02 0.  0.
        -12    1    1    2    0    0  0.19560053997E+00  0.54987687491E+00  0.10258067530E+01  0.11802133889E+01  0.00000000000E+00 0.  1.
         11    1    3    3    0    0  0.20712597240E+02  0.24131429061E+02 -0.74643164800E+01  0.32665785980E+02  0.51100000000E-03 0. -1.
        -11    1    3    3    0    0  0.98488784477E+01  0.57484737987E+01  0.81904950784E+01  0.14040283743E+02  0.51100000000E-03 0.  1.
        -12    1    3    3    0    0 -0.30757076228E+02 -0.30429779734E+02 -0.17519853514E+01  0.43301716888E+02  0.00000000000E+00 0.  1.
</event>
<event>
 7    1  0.4359248E-015  0.9000758E+02  0.7816164E-02  0.1186339E+00
        -11   -1    0    0    0    0  0.00000000000E+00  0.00000000000E+00  0.45593999997E+02  0.45594000000E+02  0.51100000000E-03 0. -1.
         11   -1    0    0    0    0 -0.00000000000E+00 -0.00000000000E+00 -0.45593999997E+02  0.45594000000E+02  0.51100000000E-03 0.  1.
    9900012    2    1    2    0    0 -0.11065505063E+01 -0.34407314598E+00  0.22482296602E+00  0.90007582396E+02  0.89999841684E+02 0.  0.
        -12    1    1    2    0    0  0.11065505063E+01  0.34407314598E+00 -0.22482296602E+00  0.11804176036E+01  0.00000000000E+00 0.  1.
         11    1    3    3    0    0 -0.23301865725E+02  0.13289225505E+02  0.30260034665E+02  0.40438226457E+02  0.51100000000E-03 0. -1.
        -11    1    3    3    0    0  0.80501216537E+01 -0.18919557434E+01  0.52410721738E+01  0.97904439617E+01  0.51100000000E-03 0.  1.
        -12    1    3    3    0    0  0.14145193565E+02 -0.11741342908E+02 -0.35276283873E+02  0.39778911978E+02  0.00000000000E+00 0.  1.
</event>
<event>
 7    1  0.4359248E-015  0.9000775E+02  0.7816164E-02  0.1186339E+00
        -11   -1    0    0    0    0  0.00000000000E+00  0.00000000000E+00  0.45593999997E+02  0.45594000000E+02  0.51100000000E-03 0.  1.
         11   -1    0    0    0    0 -0.00000000000E+00 -0.00000000000E+00 -0.45593999997E+02  0.45594000000E+02  0.51100000000E-03 0. -1.
    9900012    2    1    2    0    0  0.89674605981E-01 -0.61934241612E+00 -0.10006786330E+01  0.90007752445E+02  0.90000013978E+02 0.  0.
        -12    1    1    2    0    0 -0.89674605981E-01  0.61934241612E+00  0.10006786330E+01  0.11802475545E+01  0.00000000000E+00 0.  1.
         11    1    3    3    0    0  0.51477023410E+01  0.92115400349E+01 -0.38808913042E+01  0.11243336995E+02  0.51100000000E-03 0. -1.
        -11    1    3    3    0    0  0.34915952734E+02  0.64175658972E+01 -0.24010917968E+00  0.35501641653E+02  0.51100000000E-03 0.  1.
         12    1    3    3    0    0 -0.39973980469E+02 -0.16248448348E+02  0.31203218508E+01  0.43262773798E+02  0.00000000000E+00 0. -1.
</event>
<event>
 7    1  0.4359248E-015  0.9000789E+02  0.7816164E-02  0.1186339E+00
        -11   -1    0    0    0    0  0.00000000000E+00  0.00000000000E+00  0.45593999997E+02  0.45594000000E+02  0.51100000000E-03 0.  1.
         11   -1    0    0    0    0 -0.00000000000E+00 -0.00000000000E+00 -0.45593999997E+02  0.45594000000E+02  0.51100000000E-03 0. -1.
    9900012    2    1    2    0    0 -0.71270169044E-01  0.11384251444E+01  0.30260969157E+00  0.90007888195E+02  0.90000151519E+02 0.  0.
        -12    1    1    2    0    0  0.71270169044E-01 -0.11384251444E+01 -0.30260969157E+00  0.11801118048E+01  0.00000000000E+00 0.  1.
         11    1    3    3    0    0  0.97162319469E+01  0.17637094680E+01  0.22007547820E+01  0.10117270195E+02  0.51100000000E-03 0. -1.
        -11    1    3    3    0    0  0.78844705364E+01 -0.37487524795E+02  0.42837422684E+01  0.38546463379E+02  0.51100000000E-03 0.  1.
         12    1    3    3    0    0 -0.17671972652E+02  0.36862240472E+02 -0.61818873589E+01  0.41344154621E+02  0.00000000000E+00 0. -1.
</event>
<event>
 7    1  0.4359248E-015  0.9000774E+02  0.7816164E-02  0.1186339E+00
        -11   -1    0    0    0    0  0.00000000000E+00  0.00000000000E+00  0.45593999997E+02  0.45594000000E+02  0.51100000000E-03 0.  1.
         11   -1    0    0    0    0 -0.00000000000E+00 -0.00000000000E+00 -0.45593999997E+02  0.45594000000E+02  0.51100000000E-03 0. -1.
    9900012    2    1    2    0    0  0.91528543250E+00 -0.29140252345E+00 -0.68581935796E+00  0.90007741111E+02  0.90000002494E+02 0.  0.
        -12    1    1    2    0    0 -0.91528543250E+00  0.29140252345E+00  0.68581935796E+00  0.11802588891E+01  0.00000000000E+00 0.  1.
         11    1    3    3    0    0  0.38534683394E+02 -0.16700455896E+02 -0.14138516671E+02  0.44313933534E+02  0.51100000000E-03 0. -1.
        -11    1    3    3    0    0 -0.51080204265E+01  0.28484556951E+01  0.82092924609E+01  0.10079586078E+02  0.51100000000E-03 0.  1.
        -12    1    3    3    0    0 -0.32511377534E+02  0.13560597677E+02  0.52434048517E+01  0.35614221499E+02  0.00000000000E+00 0.  1.
</event>
<event>
 7    1  0.4359248E-015  0.9000771E+02  0.7816164E-02  0.1186339E+00
        -11   -1    0    0    0    0  0.00000000000E+00  0.00000000000E+00  0.45593999997E+02  0.45594000000E+02  0.51100000000E-03 0. -1.
         11   -1    0    0    0    0 -0.00000000000E+00 -0.00000000000E+00 -0.45593999997E+02  0.45594000000E+02  0.51100000000E-03 0.  1.
    9900012    2    1    2    0    0  0.20968818450E+00  0.10249537495E+01  0.54643971968E+00  0.90007705253E+02  0.89999966162E+02 0.  0.
        -12    1    1    2    0    0 -0.20968818450E+00 -0.10249537495E+01 -0.54643971968E+00  0.11802947473E+01  0.00000000000E+00 0.  1.
         11    1    3    3    0    0  0.12678693000E+01 -0.32759675319E+01 -0.72810798914E+01  0.80841561389E+01  0.51100000000E-03 0. -1.
        -11    1    3    3    0    0  0.12219268481E+02 -0.33692471655E+02 -0.11001324797E+02  0.37490296291E+02  0.51100000000E-03 0.  1.
         12    1    3    3    0    0 -0.13277449597E+02  0.37993392937E+02  0.18828844408E+02  0.44433252822E+02  0.00000000000E+00 0. -1.
</event>
<event>
 7    1  0.4359248E-015  0.9000702E+02  0.7816164E-02  0.1186340E+00
        -11   -1    0    0    0    0  0.00000000000E+00  0.00000000000E+00  0.45593999997E+02  0.45594000000E+02  0.51100000000E-03 0.  1.
         11   -1    0    0    0    0 -0.00000000000E+00 -0.00000000000E+00 -0.45593999997E+02  0.45594000000E+02  0.51100000000E-03 0. -1.
    9900012    2    1    2    0    0 -0.13138311718E+00  0.11427025728E+01  0.26774155510E+00  0.90007018953E+02  0.89999270800E+02 0.  0.
        -12    1    1    2    0    0  0.13138311718E+00 -0.11427025728E+01 -0.26774155510E+00  0.11809810471E+01  0.00000000000E+00 0.  1.
         11    1    3    3    0    0  0.15327798671E+02 -0.17229673750E+02 -0.28461246052E+02  0.36631210692E+02  0.51100000000E-03 0. -1.
        -11    1    3    3    0    0 -0.31700546004E+01  0.11891553245E+02 -0.76112715419E+01  0.14470305439E+02  0.51100000000E-03 0.  1.
        -12    1    3    3    0    0 -0.12289127188E+02  0.64808230776E+01  0.36340259149E+02  0.38905502822E+02  0.00000000000E+00 0.  1.
</event>
<event>
 7    1  0.4359248E-015  0.9000775E+02  0.7816164E-02  0.1186339E+00
        -11   -1    0    0    0    0  0.00000000000E+00  0.00000000000E+00  0.45593999997E+02  0.45594000000E+02  0.51100000000E-03 0. -1.
         11   -1    0    0    0    0 -0.00000000000E+00 -0.00000000000E+00 -0.45593999997E+02  0.45594000000E+02  0.51100000000E-03 0.  1.
    9900012    2    1    2    0    0 -0.22223917956E+00  0.29433029979E+00  0.11211506624E+01  0.90007746050E+02  0.90000007498E+02 0.  0.
        -12    1    1    2    0    0  0.22223917956E+00 -0.29433029979E+00 -0.11211506624E+01  0.11802539498E+01  0.00000000000E+00 0.  1.
         11    1    3    3    0    0 -0.10339288566E+02 -0.15701923600E+02  0.18761860181E+02  0.26560472332E+02  0.51100000000E-03 0. -1.
        -11    1    3    3    0    0 -0.12904768944E+02  0.15101993435E+02  0.14003582111E+02  0.24304394241E+02  0.51100000000E-03 0.  1.
         12    1    3    3    0    0  0.23021818330E+02  0.89426046432E+00 -0.31644291630E+02  0.39142879477E+02  0.00000000000E+00 0. -1.
</event>
<event>
 7    1  0.4359248E-015  0.9000757E+02  0.7816164E-02  0.1186339E+00
        -11   -1    0    0    0    0  0.00000000000E+00  0.00000000000E+00  0.45593999997E+02  0.45594000000E+02  0.51100000000E-03 0. -1.
         11   -1    0    0    0    0 -0.00000000000E+00 -0.00000000000E+00 -0.45593999997E+02  0.45594000000E+02  0.51100000000E-03 0.  1.
    9900012    2    1    2    0    0 -0.86891282958E+00 -0.75597556579E+00 -0.25866793779E+00  0.90007568865E+02  0.89999827974E+02 0.  0.
        -12    1    1    2    0    0  0.86891282958E+00  0.75597556579E+00  0.25866793779E+00  0.11804311346E+01  0.00000000000E+00 0.  1.
         11    1    3    3    0    0 -0.16469110228E+02  0.24997465663E+02  0.18414404277E+02  0.35145343453E+02  0.51100000000E-03 0. -1.
        -11    1    3    3    0    0  0.46368358053E+01  0.10076282111E+02  0.31115931050E+01  0.11520144069E+02  0.51100000000E-03 0.  1.
        -12    1    3    3    0    0  0.10963361593E+02 -0.35829723340E+02 -0.21784665320E+02  0.43342081343E+02  0.00000000000E+00 0.  1.
</event>
<event>
 7    1  0.4359248E-015  0.9000771E+02  0.7816164E-02  0.1186339E+00
        -11   -1    0    0    0    0  0.00000000000E+00  0.00000000000E+00  0.45593999997E+02  0.45594000000E+02  0.51100000000E-03 0.  1.
         11   -1    0    0    0    0 -0.00000000000E+00 -0.00000000000E+00 -0.45593999997E+02  0.45594000000E+02  0.51100000000E-03 0. -1.
    9900012    2    1    2    0    0  0.23507358603E+00  0.27645296025E+00 -0.11231165903E+01  0.90007713295E+02  0.89999974311E+02 0.  0.
        -12    1    1    2    0    0 -0.23507358603E+00 -0.27645296025E+00  0.11231165903E+01  0.11802867047E+01  0.00000000000E+00 0.  1.
         11    1    3    3    0    0  0.85244437689E+01 -0.44319117422E+01  0.41866452652E+01  0.10480266318E+02  0.51100000000E-03 0. -1.
        -11    1    3    3    0    0  0.13290545900E+01 -0.22100508199E+01  0.36234778672E+02  0.36326435229E+02  0.51100000000E-03 0.  1.
         12    1    3    3    0    0 -0.96184247729E+01  0.69184155223E+01 -0.41544540528E+02  0.43201011749E+02  0.00000000000E+00 0. -1.
</event>
<event>
 7    1  0.5084990E-015  0.9000773E+02  0.7816164E-02  0.1186339E+00
        -11   -1    0    0    0    0  0.00000000000E+00  0.00000000000E+00  0.45593999997E+02  0.45594000000E+02  0.51100000000E-03 0. -1.
         11   -1    0    0    0    0 -0.00000000000E+00 -0.00000000000E+00 -0.45593999997E+02  0.45594000000E+02  0.51100000000E-03 0.  1.
    9900012    2    1    2    0    0 -0.17515265116E+00  0.49306565097E+00  0.10579450871E+01  0.90007728847E+02  0.89999990068E+02 0.  0.
        -12    1    1    2    0    0  0.17515265116E+00 -0.49306565097E+00 -0.10579450871E+01  0.11802711531E+01  0.00000000000E+00 0.  1.
         11    1    3    3    0    0  0.20539695331E+01 -0.93284155508E+01  0.35173941101E+02  0.36447829296E+02  0.51100000000E-03 0. -1.
        -11    1    3    3    0    0  0.96375106451E+01  0.72321555263E+00  0.55668680855E+01  0.11153235975E+02  0.51100000000E-03 0.  1.
        -12    1    3    3    0    0 -0.11866632829E+02  0.90982656492E+01 -0.39682864099E+02  0.42406663576E+02  0.00000000000E+00 0.  1.
</event>
<event>
 7    1  0.4359248E-015  0.9000739E+02  0.7816164E-02  0.1186340E+00
        -11   -1    0    0    0    0  0.00000000000E+00  0.00000000000E+00  0.45593999997E+02  0.45594000000E+02  0.51100000000E-03 0. -1.
         11   -1    0    0    0    0 -0.00000000000E+00 -0.00000000000E+00 -0.45593999997E+02  0.45594000000E+02  0.51100000000E-03 0.  1.
    9900012    2    1    2    0    0  0.11220517994E+01 -0.30026585695E+00 -0.21138106042E+00  0.90007389235E+02  0.89999645972E+02 0.  0.
        -12    1    1    2    0    0 -0.11220517994E+01  0.30026585695E+00  0.21138106042E+00  0.11806107648E+01  0.00000000000E+00 0.  1.
         11    1    3    3    0    0  0.28711960327E+02 -0.16501476303E+02 -0.24009598808E+02  0.40903987839E+02  0.51100000000E-03 0. -1.
        -11    1    3    3    0    0  0.58549415570E+01  0.16695440307E+01  0.59165318291E+01  0.84895857998E+01  0.51100000000E-03 0.  1.
        -12    1    3    3    0    0 -0.33444850084E+02  0.14531666415E+02  0.17881685919E+02  0.40613815596E+02  0.00000000000E+00 0.  1.
</event>
<event>
 7    1  0.4359248E-015  0.9000773E+02  0.7816164E-02  0.1186339E+00
        -11   -1    0    0    0    0  0.00000000000E+00  0.00000000000E+00  0.45593999997E+02  0.45594000000E+02  0.51100000000E-03 0.  1.
         11   -1    0    0    0    0 -0.00000000000E+00 -0.00000000000E+00 -0.45593999997E+02  0.45594000000E+02  0.51100000000E-03 0. -1.
    9900012    2    1    2    0    0  0.84304173129E+00  0.43179826667E-01 -0.82488892401E+00  0.90007734947E+02  0.89999996248E+02 0.  0.
        -12    1    1    2    0    0 -0.84304173129E+00 -0.43179826667E-01  0.82488892401E+00  0.11802650529E+01  0.00000000000E+00 0.  1.
         11    1    3    3    0    0  0.78786548985E+01 -0.31467347679E+01  0.52003242046E+01  0.99508047315E+01  0.51100000000E-03 0. -1.
        -11    1    3    3    0    0  0.97401012484E+01 -0.31189795114E+02 -0.21148089360E+02  0.38921903543E+02  0.51100000000E-03 0.  1.
         12    1    3    3    0    0 -0.16775714416E+02  0.34379709709E+02  0.15122876232E+02  0.41135026672E+02  0.00000000000E+00 0. -1.
</event>
<event>
 7    1  0.4359248E-015  0.9000769E+02  0.7816164E-02  0.1186339E+00
        -11   -1    0    0    0    0  0.00000000000E+00  0.00000000000E+00  0.45593999997E+02  0.45594000000E+02  0.51100000000E-03 0. -1.
         11   -1    0    0    0    0 -0.00000000000E+00 -0.00000000000E+00 -0.45593999997E+02  0.45594000000E+02  0.51100000000E-03 0.  1.
    9900012    2    1    2    0    0 -0.99342976362E+00 -0.64235486836E-01 -0.63411684442E+00  0.90007689420E+02  0.89999950120E+02 0.  0.
        -12    1    1    2    0    0  0.99342976362E+00  0.64235486836E-01  0.63411684442E+00  0.11803105801E+01  0.00000000000E+00 0.  1.
         11    1    3    3    0    0 -0.10143007814E+02 -0.46615995127E+00 -0.97094273793E-01  0.10154178459E+02  0.51100000000E-03 0. -1.
        -11    1    3    3    0    0  0.46758350865E+01  0.66122638961E+00 -0.39929087631E+02  0.40207371133E+02  0.51100000000E-03 0.  1.
         12    1    3    3    0    0  0.44737429637E+01 -0.25930192518E+00  0.39392065060E+02  0.39646139829E+02  0.00000000000E+00 0. -1.
</event>
<event>
 7    1  0.4359248E-015  0.9000772E+02  0.7816164E-02  0.1186339E+00
        -11   -1    0    0    0    0  0.00000000000E+00  0.00000000000E+00  0.45593999997E+02  0.45594000000E+02  0.51100000000E-03 0.  1.
         11   -1    0    0    0    0 -0.00000000000E+00 -0.00000000000E+00 -0.45593999997E+02  0.45594000000E+02  0.51100000000E-03 0. -1.
    9900012    2    1    2    0    0 -0.62352321822E+00  0.16669651095E+00 -0.98817937910E+00  0.90007717231E+02  0.89999978298E+02 0.  0.
        -12    1    1    2    0    0  0.62352321822E+00 -0.16669651095E+00  0.98817937910E+00  0.11802827694E+01  0.00000000000E+00 0.  1.
         11    1    3    3    0    0  0.57739618949E+01 -0.10325046577E+02 -0.37421962593E+02  0.39247273884E+02  0.51100000000E-03 0. -1.
        -11    1    3    3    0    0 -0.18173608336E+01 -0.10455628097E+02  0.29766915915E+01  0.11021962275E+02  0.51100000000E-03 0.  1.
        -12    1    3    3    0    0 -0.45801242795E+01  0.20947371186E+02  0.33457091622E+02  0.39738481071E+02  0.00000000000E+00 0.  1.
</event>
<event>
 7    1  0.4359248E-015  0.9000772E+02  0.7816164E-02  0.1186339E+00
        -11   -1    0    0    0    0  0.00000000000E+00  0.00000000000E+00  0.45593999997E+02  0.45594000000E+02  0.51100000000E-03 0. -1.
         11   -1    0    0    0    0 -0.00000000000E+00 -0.00000000000E+00 -0.45593999997E+02  0.45594000000E+02  0.51100000000E-03 0.  1.
    9900012    2    1    2    0    0 -0.56540688091E+00 -0.78804343568E-01  0.10330352630E+01  0.90007721677E+02  0.89999982803E+02 0.  0.
        -12    1    1    2    0    0  0.56540688091E+00  0.78804343568E-01 -0.10330352630E+01  0.11802783232E+01  0.00000000000E+00 0.  1.
         11    1    3    3    0    0 -0.33821131444E+02 -0.48057886868E+01  0.25023178383E+02  0.42345294823E+02  0.51100000000E-03 0. -1.
        -11    1    3    3    0    0  0.14494903312E+02 -0.16229429845E+01  0.22798043770E+01  0.14762576815E+02  0.51100000000E-03 0.  1.
        -12    1    3    3    0    0  0.18760821251E+02  0.63499273278E+01 -0.26269947497E+02  0.32899850039E+02  0.00000000000E+00 0.  1.
</event>
<event>
 7    1  0.4359248E-015  0.9000780E+02  0.7816164E-02  0.1186339E+00
        -11   -1    0    0    0    0  0.00000000000E+00  0.00000000000E+00  0.45593999997E+02  0.45594000000E+02  0.51100000000E-03 0.  1.
         11   -1    0    0    0    0 -0.00000000000E+00 -0.00000000000E+00 -0.45593999997E+02  0.45594000000E+02  0.51100000000E-03 0. -1.
    9900012    2    1    2    0    0  0.53232320319E+00  0.72401630553E+00 -0.76504581538E+00  0.90007803956E+02  0.90000066168E+02 0.  0.
        -12    1    1    2    0    0 -0.53232320319E+00 -0.72401630553E+00  0.76504581538E+00  0.11801960443E+01  0.00000000000E+00 0.  1.
         11    1    3    3    0    0  0.29091679891E+02 -0.11277335755E+02 -0.22209127738E+02  0.38298165697E+02  0.51100000000E-03 0. -1.
        -11    1    3    3    0    0  0.78891743324E+01  0.61708040925E+01  0.61596102508E+01  0.11758345696E+02  0.51100000000E-03 0.  1.
        -12    1    3    3    0    0 -0.36448531020E+02  0.58305479679E+01  0.15284471672E+02  0.39951292563E+02  0.00000000000E+00 0.  1.
</event>
<event>
 7    1  0.4359248E-015  0.9000782E+02  0.7816164E-02  0.1186339E+00
        -11   -1    0    0    0    0  0.00000000000E+00  0.00000000000E+00  0.45593999997E+02  0.45594000000E+02  0.51100000000E-03 0.  1.
         11   -1    0    0    0    0 -0.00000000000E+00 -0.00000000000E+00 -0.45593999997E+02  0.45594000000E+02  0.51100000000E-03 0. -1.
    9900012    2    1    2    0    0 -0.97353074412E+00  0.63010896861E+00 -0.21913093698E+00  0.90007822984E+02  0.90000085447E+02 0.  0.
        -12    1    1    2    0    0  0.97353074412E+00 -0.63010896861E+00  0.21913093698E+00  0.11801770162E+01  0.00000000000E+00 0.  1.
         11    1    3    3    0    0 -0.40332672053E+01 -0.11190888349E+01  0.67403402552E+01  0.79342164822E+01  0.51100000000E-03 0. -1.
        -11    1    3    3    0    0 -0.33384581516E+02 -0.18378990382E+02  0.57566943637E+01  0.38541628153E+02  0.51100000000E-03 0.  1.
         12    1    3    3    0    0  0.36444317977E+02  0.20128188186E+02 -0.12716165556E+02  0.43531978348E+02  0.00000000000E+00 0. -1.
</event>
<event>
 7    1  0.4359248E-015  0.9000779E+02  0.7816164E-02  0.1186339E+00
        -11   -1    0    0    0    0  0.00000000000E+00  0.00000000000E+00  0.45593999997E+02  0.45594000000E+02  0.51100000000E-03 0.  1.
         11   -1    0    0    0    0 -0.00000000000E+00 -0.00000000000E+00 -0.45593999997E+02  0.45594000000E+02  0.51100000000E-03 0. -1.
    9900012    2    1    2    0    0 -0.89221166713E+00 -0.68966443890E+00 -0.34815104364E+00  0.90007793304E+02  0.90000055375E+02 0.  0.
        -12    1    1    2    0    0  0.89221166713E+00  0.68966443890E+00  0.34815104364E+00  0.11802066965E+01  0.00000000000E+00 0.  1.
         11    1    3    3    0    0 -0.77541216815E+01  0.68990487557E+00 -0.52942598695E+01  0.94144335792E+01  0.51100000000E-03 0. -1.
        -11    1    3    3    0    0  0.31764387911E+00 -0.40169001333E+02  0.86194952144E+01  0.41084611033E+02  0.51100000000E-03 0.  1.
         12    1    3    3    0    0  0.65442661353E+01  0.38789432019E+02 -0.36733863886E+01  0.39508748691E+02  0.00000000000E+00 0. -1.
</event>
<event>
 7    1  0.4618432E-015  0.9000774E+02  0.7816164E-02  0.1186339E+00
        -11   -1    0    0    0    0  0.00000000000E+00  0.00000000000E+00  0.45593999997E+02  0.45594000000E+02  0.51100000000E-03 0. -1.
         11   -1    0    0    0    0 -0.00000000000E+00 -0.00000000000E+00 -0.45593999997E+02  0.45594000000E+02  0.51100000000E-03 0.  1.
    9900012    2    1    2    0    0 -0.59078451444E+00 -0.31655722442E+00  0.97148015518E+00  0.90007742185E+02  0.90000003581E+02 0.  0.
        -12    1    1    2    0    0  0.59078451444E+00  0.31655722442E+00 -0.97148015518E+00  0.11802578154E+01  0.00000000000E+00 0.  1.
         11    1    3    3    0    0 -0.78768017867E+01 -0.25834238694E+01 -0.33365658623E+01  0.89359250943E+01  0.51100000000E-03 0. -1.
        -11    1    3    3    0    0  0.41749149348E+00 -0.18510670940E+02 -0.32988467729E+02  0.37829330435E+02  0.51100000000E-03 0.  1.
         12    1    3    3    0    0  0.68685257787E+01  0.20777537585E+02  0.37296513746E+02  0.43242486655E+02  0.00000000000E+00 0. -1.
</event>
<event>
 7    1  0.4359248E-015  0.9000774E+02  0.7816164E-02  0.1186339E+00
        -11   -1    0    0    0    0  0.00000000000E+00  0.00000000000E+00  0.45593999997E+02  0.45594000000E+02  0.51100000000E-03 0.  1.
         11   -1    0    0    0    0 -0.00000000000E+00 -0.00000000000E+00 -0.45593999997E+02  0.45594000000E+02  0.51100000000E-03 0. -1.
    9900012    2    1    2    0    0 -0.22826045693E+00  0.77905376514E+00 -0.85673290581E+00  0.90007737793E+02  0.89999999132E+02 0.  0.
        -12    1    1    2    0    0  0.22826045693E+00 -0.77905376514E+00  0.85673290581E+00  0.11802622069E+01  0.00000000000E+00 0.  1.
         11    1    3    3    0    0 -0.45557618247E+01 -0.94925164687E+01 -0.52713185061E+01  0.11774957909E+02  0.51100000000E-03 0. -1.
        -11    1    3    3    0    0  0.28591792511E+01 -0.32344975182E+02  0.12567934016E+02  0.34818461930E+02  0.51100000000E-03 0.  1.
         12    1    3    3    0    0  0.14683221166E+01  0.42616545415E+02 -0.81533484158E+01  0.43414317954E+02  0.00000000000E+00 0. -1.
</event>
<event>
 7    1  0.4359248E-015  0.9000771E+02  0.7816164E-02  0.1186339E+00
        -11   -1    0    0    0    0  0.00000000000E+00  0.00000000000E+00  0.45593999997E+02  0.45594000000E+02  0.51100000000E-03 0. -1.
         11   -1    0    0    0    0 -0.00000000000E+00 -0.00000000000E+00 -0.45593999997E+02  0.45594000000E+02  0.51100000000E-03 0.  1.
    9900012    2    1    2    0    0 -0.86981038545E-01  0.79336376229E+00 -0.86953579468E+00  0.90007710096E+02  0.89999971069E+02 0.  0.
        -12    1    1    2    0    0  0.86981038545E-01 -0.79336376229E+00  0.86953579468E+00  0.11802899045E+01  0.00000000000E+00 0.  1.
         11    1    3    3    0    0  0.80370475234E+01  0.12112363694E+00 -0.49381516295E+01  0.94336708447E+01  0.51100000000E-03 0. -1.
        -11    1    3    3    0    0 -0.31747073860E+01  0.19695462546E+02 -0.33031436148E+02  0.38588415181E+02  0.51100000000E-03 0.  1.
         12    1    3    3    0    0 -0.49493211759E+01 -0.19023222421E+02  0.37100051983E+02  0.41985624070E+02  0.00000000000E+00 0. -1.
</event>
<event>
 7    1  0.4359248E-015  0.9000774E+02  0.7816164E-02  0.1186339E+00
        -11   -1    0    0    0    0  0.00000000000E+00  0.00000000000E+00  0.45593999997E+02  0.45594000000E+02  0.51100000000E-03 0.  1.
         11   -1    0    0    0    0 -0.00000000000E+00 -0.00000000000E+00 -0.45593999997E+02  0.45594000000E+02  0.51100000000E-03 0. -1.
    9900012    2    1    2    0    0  0.17929766299E+00  0.11443502611E+01 -0.22654000274E+00  0.90007743441E+02  0.90000004854E+02 0.  0.
        -12    1    1    2    0    0 -0.17929766299E+00 -0.11443502611E+01  0.22654000274E+00  0.11802565589E+01  0.00000000000E+00 0.  1.
         11    1    3    3    0    0 -0.37830340305E+02 -0.15220855701E+02  0.54938052116E+01  0.41145971757E+02  0.51100000000E-03 0. -1.
        -11    1    3    3    0    0  0.56610952103E+01 -0.64129835505E+01  0.13839776779E+01  0.86654342922E+01  0.51100000000E-03 0.  1.
        -12    1    3    3    0    0  0.32348542758E+02  0.22778189512E+02 -0.71043228922E+01  0.40196337392E+02  0.00000000000E+00 0.  1.
</event>
<event>
 7    1  0.4359248E-015  0.9000792E+02  0.7816164E-02  0.1186339E+00
        -11   -1    0    0    0    0  0.00000000000E+00  0.00000000000E+00  0.45593999997E+02  0.45594000000E+02  0.51100000000E-03 0.  1.
         11   -1    0    0    0    0 -0.00000000000E+00 -0.00000000000E+00 -0.45593999997E+02  0.45594000000E+02  0.51100000000E-03 0. -1.
    9900012    2    1    2    0    0  0.10750297429E+01  0.32545106764E+00 -0.36192055425E+00  0.90007917870E+02  0.90000181586E+02 0.  0.
        -12    1    1    2    0    0 -0.10750297429E+01 -0.32545106764E+00  0.36192055425E+00  0.11800821298E+01  0.00000000000E+00 0.  1.
         11    1    3    3    0    0  0.12880707154E+02 -0.33962358767E+01 -0.32875887856E+02  0.35472116338E+02  0.51100000000E-03 0. -1.
        -11    1    3    3    0    0 -0.23587756919E+01  0.12345526804E+01 -0.10291246472E+02  0.10630037502E+02  0.51100000000E-03 0.  1.
        -12    1    3    3    0    0 -0.94469017196E+01  0.24871342640E+01  0.42805213773E+02  0.43905764031E+02  0.00000000000E+00 0.  1.
</event>
<event>
 7    1  0.4359248E-015  0.9000784E+02  0.7816164E-02  0.1186339E+00
        -11   -1    0    0    0    0  0.00000000000E+00  0.00000000000E+00  0.45593999997E+02  0.45594000000E+02  0.51100000000E-03 0.  1.
         11   -1    0    0    0    0 -0.00000000000E+00 -0.00000000000E+00 -0.45593999997E+02  0.45594000000E+02  0.51100000000E-03 0. -1.
    9900012    2    1    2    0    0  0.52520572736E+00  0.95874839381E+00  0.44468770539E+00  0.90007836158E+02  0.90000098795E+02 0.  0.
        -12    1    1    2    0    0 -0.52520572736E+00 -0.95874839381E+00 -0.44468770539E+00  0.11801638420E+01  0.00000000000E+00 0.  1.
         11    1    3    3    0    0  0.96786336412E+00  0.25287332284E+02 -0.24341561939E+02  0.35112641191E+02  0.51100000000E-03 0. -1.
        -11    1    3    3    0    0  0.15711612187E+01  0.10465560259E+02 -0.22088762788E+01  0.10810903467E+02  0.51100000000E-03 0.  1.
        -12    1    3    3    0    0 -0.20138188555E+01 -0.34794144148E+02  0.26995125923E+02  0.44084291500E+02  0.00000000000E+00 0.  1.
</event>
<event>
 7    1  0.5451150E-015  0.9000775E+02  0.7816164E-02  0.1186339E+00
        -11   -1    0    0    0    0  0.00000000000E+00  0.00000000000E+00  0.45593999997E+02  0.45594000000E+02  0.51100000000E-03 0. -1.
         11   -1    0    0    0    0 -0.00000000000E+00 -0.00000000000E+00 -0.45593999997E+02  0.45594000000E+02  0.51100000000E-03 0.  1.
    9900012    2    1    2    0    0  0.16642942482E+00 -0.64252378400E+00  0.97593501312E+00  0.90007752265E+02  0.90000013795E+02 0.  0.
        -12    1    1    2    0    0 -0.16642942482E+00  0.64252378400E+00 -0.97593501312E+00  0.11802477351E+01  0.00000000000E+00 0.  1.
         11    1    3    3    0    0  0.23049805678E+02  0.32802117955E+02  0.64572846760E+00  0.40096002914E+02  0.51100000000E-03 0. -1.
        -11    1    3    3    0    0 -0.23614536984E+01  0.15545783642E+00  0.92454033653E+01  0.95434854407E+01  0.51100000000E-03 0.  1.
        -12    1    3    3    0    0 -0.20521922554E+02 -0.33600099576E+02 -0.89151968198E+01  0.40368263911E+02  0.00000000000E+00 0.  1.
</event>
<event>
 7    1  0.4359248E-015  0.9000775E+02  0.7816164E-02  0.1186339E+00
        -11   -1    0    0    0    0  0.00000000000E+00  0.00000000000E+00  0.45593999997E+02  0.45594000000E+02  0.51100000000E-03 0.  1.
         11   -1    0    0    0    0 -0.00000000000E+00 -0.00000000000E+00 -0.45593999997E+02  0.45594000000E+02  0.51100000000E-03 0. -1.
    9900012    2    1    2    0    0  0.80896498624E+00  0.21021172707E+00  0.83329323763E+00  0.90007749629E+02  0.90000011124E+02 0.  0.
        -12    1    1    2    0    0 -0.80896498624E+00 -0.21021172707E+00 -0.83329323763E+00  0.11802503713E+01  0.00000000000E+00 0.  1.
         11    1    3    3    0    0 -0.66733723106E+01  0.32056776329E+01 -0.28416893385E+01  0.79300356645E+01  0.51100000000E-03 0. -1.
        -11    1    3    3    0    0 -0.22102535188E+01 -0.19866107585E+02  0.37820531266E+02  0.42777798408E+02  0.51100000000E-03 0.  1.
         12    1    3    3    0    0  0.96925908156E+01  0.16870641679E+02 -0.34145548690E+02  0.39299915556E+02  0.00000000000E+00 0. -1.
</event>
<event>
 7    1  0.4359248E-015  0.9000769E+02  0.7816164E-02  0.1186339E+00
        -11   -1    0    0    0    0  0.00000000000E+00  0.00000000000E+00  0.45593999997E+02  0.45594000000E+02  0.51100000000E-03 0. -1.
         11   -1    0    0    0    0 -0.00000000000E+00 -0.00000000000E+00 -0.45593999997E+02  0.45594000000E+02  0.51100000000E-03 0.  1.
    9900012    2    1    2    0    0 -0.16049728253E+00  0.88833994811E+00  0.76040395318E+00  0.90007694356E+02  0.89999955122E+02 0.  0.
        -12    1    1    2    0    0  0.16049728253E+00 -0.88833994811E+00 -0.76040395318E+00  0.11803056439E+01  0.00000000000E+00 0.  1.
         11    1    3    3    0    0  0.84518620491E+01 -0.41208651274E+01  0.56400017848E+01  0.10964721697E+02  0.51100000000E-03 0. -1.
        -11    1    3    3    0    0  0.17892526134E+02  0.32047046275E+02  0.10500469874E+02  0.38176112089E+02  0.51100000000E-03 0.  1.
         12    1    3    3    0    0 -0.26504885466E+02 -0.27037841199E+02 -0.15380067705E+02  0.40866860570E+02  0.00000000000E+00 0. -1.
</event>
<event>
 7    1  0.4359248E-015  0.9000779E+02  0.7816164E-02  0.1186339E+00
        -11   -1    0    0    0    0  0.00000000000E+00  0.00000000000E+00  0.45593999997E+02  0.45594000000E+02  0.51100000000E-03 0.  1.
         11   -1    0    0    0    0 -0.00000000000E+00 -0.00000000000E+00 -0.45593999997E+02  0.45594000000E+02  0.51100000000E-03 0. -1.
    9900012    2    1    2    0    0 -0.45978707648E+00 -0.93363935756E+00 -0.55659811231E+00  0.90007793211E+02  0.90000055282E+02 0.  0.
        -12    1    1    2    0    0  0.45978707648E+00  0.93363935756E+00  0.55659811231E+00  0.11802067888E+01  0.00000000000E+00 0.  1.
         11    1    3    3    0    0 -0.96207735177E+01 -0.23035212635E+01 -0.15220762190E+01  0.10009106332E+02  0.51100000000E-03 0. -1.
        -11    1    3    3    0    0 -0.13664342493E+02  0.22984850149E+02  0.27868872455E+02  0.38622424112E+02  0.51100000000E-03 0.  1.
         12    1    3    3    0    0  0.22825328934E+02 -0.21614968243E+02 -0.26903394348E+02  0.41376262767E+02  0.00000000000E+00 0. -1.
</event>
<event>
 7    1  0.4359248E-015  0.9000767E+02  0.7816164E-02  0.1186339E+00
        -11   -1    0    0    0    0  0.00000000000E+00  0.00000000000E+00  0.45593999997E+02  0.45594000000E+02  0.51100000000E-03 0. -1.
         11   -1    0    0    0    0 -0.00000000000E+00 -0.00000000000E+00 -0.45593999997E+02  0.45594000000E+02  0.51100000000E-03 0.  1.
    9900012    2    1    2    0    0 -0.11658672450E+01 -0.73559886531E-01  0.16890851966E+00  0.90007666328E+02  0.89999926723E+02 0.  0.
        -12    1    1    2    0    0  0.11658672450E+01  0.73559886531E-01 -0.16890851966E+00  0.11803336722E+01  0.00000000000E+00 0.  1.
         11    1    3    3    0    0 -0.11199037073E+02  0.27374097052E+02 -0.32582503427E+02  0.44004308319E+02  0.51100000000E-03 0. -1.
        -11    1    3    3    0    0 -0.25934945478E+01 -0.68621783373E+00  0.33181476608E+01  0.42669910997E+01  0.51100000000E-03 0.  1.
        -12    1    3    3    0    0  0.12626664376E+02 -0.26761439105E+02  0.29433264286E+02  0.41736366909E+02  0.00000000000E+00 0.  1.
</event>
<event>
 7    1  0.4359248E-015  0.9000765E+02  0.7816164E-02  0.1186339E+00
        -11   -1    0    0    0    0  0.00000000000E+00  0.00000000000E+00  0.45593999997E+02  0.45594000000E+02  0.51100000000E-03 0.  1.
         11   -1    0    0    0    0 -0.00000000000E+00 -0.00000000000E+00 -0.45593999997E+02  0.45594000000E+02  0.51100000000E-03 0. -1.
    9900012    2    1    2    0    0  0.51514636220E+00  0.83521982091E+00 -0.65594425910E+00  0.90007648021E+02  0.89999908175E+02 0.  0.
        -12    1    1    2    0    0 -0.51514636220E+00 -0.83521982091E+00  0.65594425910E+00  0.11803519792E+01  0.00000000000E+00 0.  1.
         11    1    3    3    0    0  0.53326304896E+01 -0.67411134388E+01 -0.37882127324E+01  0.93930886454E+01  0.51100000000E-03 0. -1.
        -11    1    3    3    0    0 -0.56149770055E+00 -0.20429878734E+02 -0.30454595298E+02  0.36676662877E+02  0.51100000000E-03 0.  1.
         12    1    3    3    0    0 -0.42559864269E+01  0.28006211994E+02  0.33586863771E+02  0.43937896498E+02  0.00000000000E+00 0. -1.
</event>
<event>
 7    1  0.4359248E-015  0.9000766E+02  0.7816164E-02  0.1186339E+00
        -11   -1    0    0    0    0  0.00000000000E+00  0.00000000000E+00  0.45593999997E+02  0.45594000000E+02  0.51100000000E-03 0. -1.
         11   -1    0    0    0    0 -0.00000000000E+00 -0.00000000000E+00 -0.45593999997E+02  0.45594000000E+02  0.51100000000E-03 0.  1.
    9900012    2    1    2    0    0 -0.16828768395E+00  0.84836407546E+00  0.80321987023E+00  0.90007659156E+02  0.89999919456E+02 0.  0.
        -12    1    1    2    0    0  0.16828768395E+00 -0.84836407546E+00 -0.80321987023E+00  0.11803408444E+01  0.00000000000E+00 0.  1.
         11    1    3    3    0    0 -0.47140518010E+01 -0.85007711822E+01  0.32171288727E+01  0.10238911735E+02  0.51100000000E-03 0. -1.
        -11    1    3    3    0    0 -0.15470341810E+02  0.38063144997E+02  0.10589130857E+02  0.42429520093E+02  0.51100000000E-03 0.  1.
         12    1    3    3    0    0  0.20016105928E+02 -0.28714009739E+02 -0.13003039859E+02  0.37339227327E+02  0.00000000000E+00 0. -1.
</event>
<event>
 7    1  0.4359248E-015  0.9000772E+02  0.7816164E-02  0.1186339E+00
        -11   -1    0    0    0    0  0.00000000000E+00  0.00000000000E+00  0.45593999997E+02  0.45594000000E+02  0.51100000000E-03 0.  1.
         11   -1    0    0    0    0 -0.00000000000E+00 -0.00000000000E+00 -0.45593999997E+02  0.45594000000E+02  0.51100000000E-03 0. -1.
    9900012    2    1    2    0    0 -0.11752639700E+01  0.10753654249E+00  0.15897709813E-01  0.90007719421E+02  0.89999980518E+02 0.  0.
        -12    1    1    2    0    0  0.11752639700E+01 -0.10753654249E+00 -0.15897709813E-01  0.11802805787E+01  0.00000000000E+00 0.  1.
         11    1    3    3    0    0 -0.18350112187E+02  0.32718093995E+02  0.83501967499E+01  0.38430795958E+02  0.51100000000E-03 0. -1.
        -11    1    3    3    0    0 -0.86132943184E+01  0.74438795206E+00 -0.25962654895E+00  0.86492981591E+01  0.51100000000E-03 0.  1.
        -12    1    3    3    0    0  0.25788142535E+02 -0.33354945405E+02 -0.80746724911E+01  0.42927625304E+02  0.00000000000E+00 0.  1.
</event>
<event>
 7    1  0.4359248E-015  0.9000764E+02  0.7816164E-02  0.1186339E+00
        -11   -1    0    0    0    0  0.00000000000E+00  0.00000000000E+00  0.45593999997E+02  0.45594000000E+02  0.51100000000E-03 0.  1.
         11   -1    0    0    0    0 -0.00000000000E+00 -0.00000000000E+00 -0.45593999997E+02  0.45594000000E+02  0.51100000000E-03 0. -1.
    9900012    2    1    2    0    0 -0.58569195814E+00  0.63843457494E+00 -0.80163965347E+00  0.90007635687E+02  0.89999895678E+02 0.  0.
        -12    1    1    2    0    0  0.58569195814E+00 -0.63843457494E+00  0.80163965347E+00  0.11803643125E+01  0.00000000000E+00 0.  1.
         11    1    3    3    0    0  0.76716644324E+01 -0.32394486542E+01  0.66971605741E+01  0.10686459786E+02  0.51100000000E-03 0. -1.
        -11    1    3    3    0    0  0.74294213824E+01 -0.15991313783E+02  0.29572778521E+02  0.34430620795E+02  0.51100000000E-03 0.  1.
         12    1    3    3    0    0 -0.15686777773E+02  0.19869197013E+02 -0.37071578749E+02  0.44890555106E+02  0.00000000000E+00 0. -1.
</event>
<event>
 7    1  0.4359248E-015  0.9000771E+02  0.7816164E-02  0.1186339E+00
        -11   -1    0    0    0    0  0.00000000000E+00  0.00000000000E+00  0.45593999997E+02  0.45594000000E+02  0.51100000000E-03 0.  1.
         11   -1    0    0    0    0 -0.00000000000E+00 -0.00000000000E+00 -0.45593999997E+02  0.45594000000E+02  0.51100000000E-03 0. -1.
    9900012    2    1    2    0    0  0.69411864819E-02 -0.52083592220E+00 -0.10591352701E+01  0.90007709460E+02  0.89999970425E+02 0.  0.
        -12    1    1    2    0    0 -0.69411864819E-02  0.52083592220E+00  0.10591352701E+01  0.11802905397E+01  0.00000000000E+00 0.  1.
         11    1    3    3    0    0  0.98433253456E+01  0.30782068674E+02  0.78205095485E+01  0.33250371059E+02  0.51100000000E-03 0. -1.
        -11    1    3    3    0    0 -0.55323224155E+01 -0.81934949858E-01 -0.21951261934E+02  0.22637826870E+02  0.51100000000E-03 0.  1.
        -12    1    3    3    0    0 -0.43040617436E+01 -0.31220969646E+02  0.13071617115E+02  0.34119511531E+02  0.00000000000E+00 0.  1.
</event>
<event>
 7    1  0.4359248E-015  0.9000772E+02  0.7816164E-02  0.1186339E+00
        -11   -1    0    0    0    0  0.00000000000E+00  0.00000000000E+00  0.45593999997E+02  0.45594000000E+02  0.51100000000E-03 0.  1.
         11   -1    0    0    0    0 -0.00000000000E+00 -0.00000000000E+00 -0.45593999997E+02  0.45594000000E+02  0.51100000000E-03 0. -1.
    9900012    2    1    2    0    0 -0.83932842344E+00 -0.82589338468E+00 -0.80540703751E-01  0.90007720842E+02  0.89999981957E+02 0.  0.
        -12    1    1    2    0    0  0.83932842344E+00  0.82589338468E+00  0.80540703751E-01  0.11802791577E+01  0.00000000000E+00 0.  1.
         11    1    3    3    0    0 -0.16828740914E+02 -0.34612172739E+02 -0.61565940684E+01  0.38975795992E+02  0.51100000000E-03 0. -1.
        -11    1    3    3    0    0 -0.87008525877E+01  0.84202120126E+00  0.45010101489E+01  0.98322392199E+01  0.51100000000E-03 0.  1.
        -12    1    3    3    0    0  0.24690265079E+02  0.32944258153E+02  0.15750432158E+01  0.41199685630E+02  0.00000000000E+00 0.  1.
</event>
<event>
 7    1  0.4359248E-015  0.9000775E+02  0.7816164E-02  0.1186339E+00
        -11   -1    0    0    0    0  0.00000000000E+00  0.00000000000E+00  0.45593999997E+02  0.45594000000E+02  0.51100000000E-03 0. -1.
         11   -1    0    0    0    0 -0.00000000000E+00 -0.00000000000E+00 -0.45593999997E+02  0.45594000000E+02  0.51100000000E-03 0.  1.
    9900012    2    1    2    0    0 -0.63367389828E-01 -0.82716210207E+00  0.83951622299E+00  0.90007745766E+02  0.90000007210E+02 0.  0.
        -12    1    1    2    0    0  0.63367389828E-01  0.82716210207E+00 -0.83951622299E+00  0.11802542344E+01  0.00000000000E+00 0.  1.
         11    1    3    3    0    0  0.12739831744E+02 -0.18464300053E+02  0.11539619860E+02  0.25226900644E+02  0.51100000000E-03 0. -1.
        -11    1    3    3    0    0 -0.36753568572E+00  0.62004433847E+00 -0.33628952027E+02  0.33636675701E+02  0.51100000000E-03 0.  1.
         12    1    3    3    0    0 -0.12435663448E+02  0.17017093613E+02  0.22928848391E+02  0.31144169421E+02  0.00000000000E+00 0. -1.
</event>
<event>
 7    1  0.4359248E-015  0.9000771E+02  0.7816164E-02  0.1186339E+00
        -11   -1    0    0    0    0  0.00000000000E+00  0.00000000000E+00  0.45593999997E+02  0.45594000000E+02  0.51100000000E-03 0.  1.
         11   -1    0    0    0    0 -0.00000000000E+00 -0.00000000000E+00 -0.45593999997E+02  0.45594000000E+02  0.51100000000E-03 0. -1.
    9900012    2    1    2    0    0  0.30079078958E+00 -0.17259454671E+00 -0.11281943952E+01  0.90007709116E+02  0.89999970077E+02 0.  0.
        -12    1    1    2    0    0 -0.30079078958E+00  0.17259454671E+00  0.11281943952E+01  0.11802908836E+01  0.00000000000E+00 0.  1.
         11    1    3    3    0    0  0.66868178277E+01 -0.53592949134E+01  0.45165660503E+01  0.96868438501E+01  0.51100000000E-03 0. -1.
        -11    1    3    3    0    0 -0.35130901517E+01 -0.15229700586E+01  0.36928495098E+02  0.37126472909E+02  0.51100000000E-03 0.  1.
         12    1    3    3    0    0 -0.28729368864E+01  0.67096704253E+01 -0.42573255543E+02  0.43194392357E+02  0.00000000000E+00 0. -1.
</event>
<event>
 7    1  0.4359248E-015  0.9000775E+02  0.7816164E-02  0.1186339E+00
        -11   -1    0    0    0    0  0.00000000000E+00  0.00000000000E+00  0.45593999997E+02  0.45594000000E+02  0.51100000000E-03 0.  1.
         11   -1    0    0    0    0 -0.00000000000E+00 -0.00000000000E+00 -0.45593999997E+02  0.45594000000E+02  0.51100000000E-03 0. -1.
    9900012    2    1    2    0    0  0.67945315030E+00 -0.18200544708E+00 -0.94773957568E+00  0.90007748811E+02  0.90000010295E+02 0.  0.
        -12    1    1    2    0    0 -0.67945315030E+00  0.18200544708E+00  0.94773957568E+00  0.11802511892E+01  0.00000000000E+00 0.  1.
         11    1    3    3    0    0  0.22480954126E+02 -0.31192462993E+02 -0.11141400687E+02  0.40031161057E+02  0.51100000000E-03 0. -1.
        -11    1    3    3    0    0 -0.65407932269E+01 -0.35989360145E+01 -0.52436630880E+01  0.91230652368E+01  0.51100000000E-03 0.  1.
        -12    1    3    3    0    0 -0.15260707749E+02  0.34609393561E+02  0.15437324200E+02  0.40853522517E+02  0.00000000000E+00 0.  1.
</event>
<event>
 7    1  0.4359248E-015  0.9000771E+02  0.7816164E-02  0.1186339E+00
        -11   -1    0    0    0    0  0.00000000000E+00  0.00000000000E+00  0.45593999997E+02  0.45594000000E+02  0.51100000000E-03 0. -1.
         11   -1    0    0    0    0 -0.00000000000E+00 -0.00000000000E+00 -0.45593999997E+02  0.45594000000E+02  0.51100000000E-03 0.  1.
    9900012    2    1    2    0    0 -0.12380775525E+00  0.97443503951E+00  0.65438785822E+00  0.90007713816E+02  0.89999974839E+02 0.  0.
        -12    1    1    2    0    0  0.12380775525E+00 -0.97443503951E+00 -0.65438785822E+00  0.11802861837E+01  0.00000000000E+00 0.  1.
         11    1    3    3    0    0  0.33073589907E+01 -0.10705023778E+01  0.95191399782E+01  0.10134033009E+02  0.51100000000E-03 0. -1.
        -11    1    3    3    0    0  0.29555310443E+02  0.16038511661E+02 -0.23650718410E+02  0.41110907473E+02  0.51100000000E-03 0.  1.
         12    1    3    3    0    0 -0.32986477189E+02 -0.13993574243E+02  0.14785966290E+02  0.38762773335E+02  0.00000000000E+00 0. -1.
</event>
<event>
 7    1  0.4359248E-015  0.9000778E+02  0.7816164E-02  0.1186339E+00
        -11   -1    0    0    0    0  0.00000000000E+00  0.00000000000E+00  0.45593999997E+02  0.45594000000E+02  0.51100000000E-03 0.  1.
         11   -1    0    0    0    0 -0.00000000000E+00 -0.00000000000E+00 -0.45593999997E+02  0.45594000000E+02  0.51100000000E-03 0. -1.
    9900012    2    1    2    0    0  0.14677222574E+00  0.26974774938E+00 -0.11395681337E+01  0.90007779061E+02  0.90000040944E+02 0.  0.
        -12    1    1    2    0    0 -0.14677222574E+00 -0.26974774938E+00  0.11395681337E+01  0.11802209395E+01  0.00000000000E+00 0.  1.
         11    1    3    3    0    0  0.10060005513E+02  0.56693992201E+00 -0.39466845853E+01  0.10821342397E+02  0.51100000000E-03 0.  1.
        -11    1    3    3    0    0  0.28430971185E+02  0.20760934974E+02  0.39519935453E+01  0.35425341167E+02  0.51100000000E-03 0. -1.
         12    1    3    3    0    0 -0.38344204473E+02 -0.21058127146E+02 -0.11448770937E+01  0.43761095497E+02  0.00000000000E+00 0. -1.
</event>
<event>
 7    1  0.4359248E-015  0.9000769E+02  0.7816164E-02  0.1186339E+00
        -11   -1    0    0    0    0  0.00000000000E+00  0.00000000000E+00  0.45593999997E+02  0.45594000000E+02  0.51100000000E-03 0.  1.
         11   -1    0    0    0    0 -0.00000000000E+00 -0.00000000000E+00 -0.45593999997E+02  0.45594000000E+02  0.51100000000E-03 0. -1.
    9900012    2    1    2    0    0  0.80952823780E-01  0.10380829978E+01 -0.55585276573E+00  0.90007685649E+02  0.89999946300E+02 0.  0.
        -12    1    1    2    0    0 -0.80952823780E-01 -0.10380829978E+01  0.55585276573E+00  0.11803143510E+01  0.00000000000E+00 0.  1.
         11    1    3    3    0    0  0.84692361571E+01 -0.39234735149E+00 -0.42192416446E+01  0.94701582798E+01  0.51100000000E-03 0. -1.
        -11    1    3    3    0    0  0.19196583714E+02  0.31821813235E+02  0.11185620361E+02  0.38810497638E+02  0.51100000000E-03 0.  1.
         12    1    3    3    0    0 -0.27584867047E+02 -0.30391382885E+02 -0.75222314826E+01  0.41727029731E+02  0.00000000000E+00 0. -1.
</event>
<event>
 7    1  0.4359248E-015  0.9000736E+02  0.7816164E-02  0.1186340E+00
        -11   -1    0    0    0    0  0.00000000000E+00  0.00000000000E+00  0.45593999997E+02  0.45594000000E+02  0.51100000000E-03 0.  1.
         11   -1    0    0    0    0 -0.00000000000E+00 -0.00000000000E+00 -0.45593999997E+02  0.45594000000E+02  0.51100000000E-03 0. -1.
    9900012    2    1    2    0    0 -0.11624992626E+01  0.91715974686E-01 -0.18463847388E+00  0.90007361308E+02  0.89999617676E+02 0.  0.
        -12    1    1    2    0    0  0.11624992626E+01 -0.91715974686E-01  0.18463847388E+00  0.11806386922E+01  0.00000000000E+00 0.  1.
         11    1    3    3    0    0 -0.10183057655E+02 -0.21369849336E+01 -0.22075821795E+01  0.10636483777E+02  0.51100000000E-03 0. -1.
        -11    1    3    3    0    0 -0.53688813501E+01  0.89442622056E+01  0.38340061422E+02  0.39733927864E+02  0.51100000000E-03 0.  1.
         12    1    3    3    0    0  0.14389439742E+02 -0.67155612973E+01 -0.36317117717E+02  0.39636949667E+02  0.00000000000E+00 0. -1.
</event>
<event>
 7    1  0.4359248E-015  0.9000776E+02  0.7816164E-02  0.1186339E+00
        -11   -1    0    0    0    0  0.00000000000E+00  0.00000000000E+00  0.45593999997E+02  0.45594000000E+02  0.51100000000E-03 0.  1.
         11   -1    0    0    0    0 -0.00000000000E+00 -0.00000000000E+00 -0.45593999997E+02  0.45594000000E+02  0.51100000000E-03 0. -1.
    9900012    2    1    2    0    0  0.10107684469E+01  0.41472849275E+00  0.44644738972E+00  0.90007759411E+02  0.90000021035E+02 0.  0.
        -12    1    1    2    0    0 -0.10107684469E+01 -0.41472849275E+00 -0.44644738972E+00  0.11802405889E+01  0.00000000000E+00 0.  1.
         11    1    3    3    0    0  0.16767680093E+02  0.51873991207E+01 -0.32283907545E+02  0.36746631029E+02  0.51100000000E-03 0. -1.
        -11    1    3    3    0    0  0.79713160983E+01 -0.25259651221E+01 -0.41611210946E+01  0.93400914964E+01  0.51100000000E-03 0.  1.
        -12    1    3    3    0    0 -0.23728227744E+02 -0.22467055058E+01  0.36891476029E+02  0.43921036886E+02  0.00000000000E+00 0.  1.
</event>
<event>
 7    1  0.4359248E-015  0.9000768E+02  0.7816164E-02  0.1186339E+00
        -11   -1    0    0    0    0  0.00000000000E+00  0.00000000000E+00  0.45593999997E+02  0.45594000000E+02  0.51100000000E-03 0.  1.
         11   -1    0    0    0    0 -0.00000000000E+00 -0.00000000000E+00 -0.45593999997E+02  0.45594000000E+02  0.51100000000E-03 0. -1.
    9900012    2    1    2    0    0  0.11482576611E+00  0.11742252456E+01  0.34266942460E-01  0.90007676270E+02  0.89999936797E+02 0.  0.
        -12    1    1    2    0    0 -0.11482576611E+00 -0.11742252456E+01 -0.34266942460E-01  0.11803237299E+01  0.00000000000E+00 0.  1.
         11    1    3    3    0    0 -0.34066990229E+02 -0.42579417547E+01  0.14219337216E+02  0.37160186253E+02  0.51100000000E-03 0. -1.
        -11    1    3    3    0    0 -0.41934601042E+01 -0.33767599765E+01  0.64441084709E+01  0.83972703797E+01  0.51100000000E-03 0.  1.
        -12    1    3    3    0    0  0.38375276099E+02  0.88089269767E+01 -0.20629178744E+02  0.44450219638E+02  0.00000000000E+00 0.  1.
</event>
<event>
 7    1  0.4359248E-015  0.9000777E+02  0.7816164E-02  0.1186339E+00
        -11   -1    0    0    0    0  0.00000000000E+00  0.00000000000E+00  0.45593999997E+02  0.45594000000E+02  0.51100000000E-03 0.  1.
         11   -1    0    0    0    0 -0.00000000000E+00 -0.00000000000E+00 -0.45593999997E+02  0.45594000000E+02  0.51100000000E-03 0. -1.
    9900012    2    1    2    0    0 -0.78384361793E+00 -0.72533526182E+00 -0.50242567230E+00  0.90007765440E+02  0.90000027144E+02 0.  0.
        -12    1    1    2    0    0  0.78384361793E+00  0.72533526182E+00  0.50242567230E+00  0.11802345596E+01  0.00000000000E+00 0.  1.
         11    1    3    3    0    0  0.44177063351E+01 -0.34483138222E+02  0.14177720761E+02  0.37544782822E+02  0.51100000000E-03 0. -1.
        -11    1    3    3    0    0 -0.96853267295E+01 -0.41379068863E+01  0.21614532212E+01  0.10751730444E+02  0.51100000000E-03 0.  1.
        -12    1    3    3    0    0  0.44837767765E+01  0.37895709847E+02 -0.16841599655E+02  0.41711252174E+02  0.00000000000E+00 0.  1.
</event>
<event>
 7    1  0.4359248E-015  0.9000903E+02  0.7816164E-02  0.1186336E+00
        -11   -1    0    0    0    0  0.00000000000E+00  0.00000000000E+00  0.45593999997E+02  0.45594000000E+02  0.51100000000E-03 0. -1.
         11   -1    0    0    0    0 -0.00000000000E+00 -0.00000000000E+00 -0.45593999997E+02  0.45594000000E+02  0.51100000000E-03 0.  1.
    9900012    2    1    2    0    0  0.13515504284E+00 -0.11636523043E+01 -0.13274718690E+00  0.90009027826E+02  0.90001306184E+02 0.  0.
        -12    1    1    2    0    0 -0.13515504284E+00  0.11636523043E+01  0.13274718690E+00  0.11789721738E+01  0.00000000000E+00 0.  1.
         11    1    3    3    0    0  0.22019815764E+02 -0.54993336488E+01  0.13367907008E+02  0.26340385246E+02  0.51100000000E-03 0. -1.
        -11    1    3    3    0    0 -0.23921685502E+01  0.20732023816E+02 -0.27563513017E+02  0.34572916163E+02  0.51100000000E-03 0.  1.
         12    1    3    3    0    0 -0.19492492171E+02 -0.16396342471E+02  0.14062858822E+02  0.29095726417E+02  0.00000000000E+00 0. -1.
</event>
<event>
 7    1  0.4359248E-015  0.9000784E+02  0.7816164E-02  0.1186339E+00
        -11   -1    0    0    0    0  0.00000000000E+00  0.00000000000E+00  0.45593999997E+02  0.45594000000E+02  0.51100000000E-03 0. -1.
         11   -1    0    0    0    0 -0.00000000000E+00 -0.00000000000E+00 -0.45593999997E+02  0.45594000000E+02  0.51100000000E-03 0.  1.
    9900012    2    1    2    0    0  0.41779130181E+00  0.60930309352E+00 -0.92031529646E+00  0.90007838962E+02  0.90000101636E+02 0.  0.
        -12    1    1    2    0    0 -0.41779130181E+00 -0.60930309352E+00  0.92031529646E+00  0.11801610384E+01  0.00000000000E+00 0.  1.
         11    1    3    3    0    0  0.68292057334E+01 -0.39049150370E+01 -0.56510593375E+01  0.96861181230E+01  0.51100000000E-03 0. -1.
        -11    1    3    3    0    0  0.74541078472E+01  0.37463876910E+02  0.17952737961E+02  0.42206712706E+02  0.51100000000E-03 0.  1.
         12    1    3    3    0    0 -0.13865522279E+02 -0.32949658779E+02 -0.13221993920E+02  0.38115008133E+02  0.00000000000E+00 0. -1.
</event>
<event>
 7    1  0.4359248E-015  0.9000772E+02  0.7816164E-02  0.1186339E+00
        -11   -1    0    0    0    0  0.00000000000E+00  0.00000000000E+00  0.45593999997E+02  0.45594000000E+02  0.51100000000E-03 0. -1.
         11   -1    0    0    0    0 -0.00000000000E+00 -0.00000000000E+00 -0.45593999997E+02  0.45594000000E+02  0.51100000000E-03 0.  1.
    9900012    2    1    2    0    0  0.78373000906E+00 -0.82485202743E+00  0.31375424865E+00  0.90007722354E+02  0.89999983489E+02 0.  0.
        -12    1    1    2    0    0 -0.78373000906E+00  0.82485202743E+00 -0.31375424865E+00  0.11802776465E+01  0.00000000000E+00 0.  1.
         11    1    3    3    0    0  0.28536638500E+02  0.14053225472E+02  0.90912328490E+01  0.33082977466E+02  0.51100000000E-03 0. -1.
        -11    1    3    3    0    0  0.77220435710E+01  0.88288503498E+01 -0.80959005312E+01  0.14252093218E+02  0.51100000000E-03 0.  1.
        -12    1    3    3    0    0 -0.35474952062E+02 -0.23706927849E+02 -0.68157806915E+00  0.42672651670E+02  0.00000000000E+00 0.  1.
</event>
<event>
 7    1  0.4359248E-015  0.9000775E+02  0.7816164E-02  0.1186339E+00
        -11   -1    0    0    0    0  0.00000000000E+00  0.00000000000E+00  0.45593999997E+02  0.45594000000E+02  0.51100000000E-03 0. -1.
         11   -1    0    0    0    0 -0.00000000000E+00 -0.00000000000E+00 -0.45593999997E+02  0.45594000000E+02  0.51100000000E-03 0.  1.
    9900012    2    1    2    0    0  0.15936271025E+00 -0.11081479575E+01  0.37363659244E+00  0.90007748894E+02  0.90000010380E+02 0.  0.
        -12    1    1    2    0    0 -0.15936271025E+00  0.11081479575E+01 -0.37363659244E+00  0.11802511056E+01  0.00000000000E+00 0.  1.
         11    1    3    3    0    0  0.14091800410E+02  0.36560753573E+02  0.47430625064E+01  0.39468521416E+02  0.51100000000E-03 0. -1.
        -11    1    3    3    0    0 -0.52481683139E+00 -0.16543645971E+01 -0.11349258947E+02  0.11481203501E+02  0.51100000000E-03 0.  1.
        -12    1    3    3    0    0 -0.13407620868E+02 -0.36014536933E+02  0.69798330328E+01  0.39058023977E+02  0.00000000000E+00 0.  1.
</event>
<event>
 7    1  0.4359248E-015  0.9000777E+02  0.7816164E-02  0.1186339E+00
        -11   -1    0    0    0    0  0.00000000000E+00  0.00000000000E+00  0.45593999997E+02  0.45594000000E+02  0.51100000000E-03 0.  1.
         11   -1    0    0    0    0 -0.00000000000E+00 -0.00000000000E+00 -0.45593999997E+02  0.45594000000E+02  0.51100000000E-03 0. -1.
    9900012    2    1    2    0    0  0.11124906789E+01  0.28888843634E+00  0.26806526169E+00  0.90007766538E+02  0.90000028257E+02 0.  0.
        -12    1    1    2    0    0 -0.11124906789E+01 -0.28888843634E+00 -0.26806526169E+00  0.11802334615E+01  0.00000000000E+00 0.  1.
         11    1    3    3    0    0 -0.24935642673E+02  0.41457029566E+01  0.52576425250E+00  0.25283384995E+02  0.51100000000E-03 0. -1.
        -11    1    3    3    0    0  0.26044745969E+02  0.17438949924E+02  0.18456462022E+02  0.36374259548E+02  0.51100000000E-03 0.  1.
         12    1    3    3    0    0  0.33873820135E-02 -0.21295764444E+02 -0.18714161013E+02  0.28350121995E+02  0.00000000000E+00 0. -1.
</event>
<event>
 7    1  0.4359248E-015  0.9000776E+02  0.7816164E-02  0.1186339E+00
        -11   -1    0    0    0    0  0.00000000000E+00  0.00000000000E+00  0.45593999997E+02  0.45594000000E+02  0.51100000000E-03 0.  1.
         11   -1    0    0    0    0 -0.00000000000E+00 -0.00000000000E+00 -0.45593999997E+02  0.45594000000E+02  0.51100000000E-03 0. -1.
    9900012    2    1    2    0    0 -0.31730929634E+00 -0.11365998435E+01 -0.20648266452E-01  0.90007758184E+02  0.90000019792E+02 0.  0.
        -12    1    1    2    0    0  0.31730929634E+00  0.11365998435E+01  0.20648266452E-01  0.11802418162E+01  0.00000000000E+00 0.  1.
         11    1    3    3    0    0 -0.30500564142E+02  0.26914654742E+02 -0.93125522750E+01  0.41730165144E+02  0.51100000000E-03 0. -1.
        -11    1    3    3    0    0  0.85025288778E+01  0.33053574540E+01  0.32256222227E+01  0.96758991417E+01  0.51100000000E-03 0.  1.
        -12    1    3    3    0    0  0.21680725968E+02 -0.31356612039E+02  0.60662817859E+01  0.38601693898E+02  0.00000000000E+00 0.  1.
</event>
<event>
 7    1  0.4359248E-015  0.9000777E+02  0.7816164E-02  0.1186339E+00
        -11   -1    0    0    0    0  0.00000000000E+00  0.00000000000E+00  0.45593999997E+02  0.45594000000E+02  0.51100000000E-03 0.  1.
         11   -1    0    0    0    0 -0.00000000000E+00 -0.00000000000E+00 -0.45593999997E+02  0.45594000000E+02  0.51100000000E-03 0. -1.
    9900012    2    1    2    0    0 -0.15174370324E+00 -0.37278354288E+00 -0.11094853075E+01  0.90007766392E+02  0.90000028109E+02 0.  0.
        -12    1    1    2    0    0  0.15174370324E+00  0.37278354288E+00  0.11094853075E+01  0.11802336078E+01  0.00000000000E+00 0.  1.
         11    1    3    3    0    0  0.36499652501E+01 -0.25352822194E+01  0.69002250738E+01  0.82074970965E+01  0.51100000000E-03 0. -1.
        -11    1    3    3    0    0 -0.57452603593E+01  0.86688766423E+01  0.35896189839E+02  0.37372367922E+02  0.51100000000E-03 0.  1.
         12    1    3    3    0    0  0.19435514060E+01 -0.65063779658E+01 -0.43905900221E+02  0.44427901374E+02  0.00000000000E+00 0. -1.
</event>
<event>
 7    1  0.4359248E-015  0.9000776E+02  0.7816164E-02  0.1186339E+00
        -11   -1    0    0    0    0  0.00000000000E+00  0.00000000000E+00  0.45593999997E+02  0.45594000000E+02  0.51100000000E-03 0. -1.
         11   -1    0    0    0    0 -0.00000000000E+00 -0.00000000000E+00 -0.45593999997E+02  0.45594000000E+02  0.51100000000E-03 0.  1.
    9900012    2    1    2    0    0 -0.44625421657E+00  0.24988525356E+00  0.10636666040E+01  0.90007757605E+02  0.90000019206E+02 0.  0.
        -12    1    1    2    0    0  0.44625421657E+00 -0.24988525356E+00 -0.10636666040E+01  0.11802423947E+01  0.00000000000E+00 0.  1.
         11    1    3    3    0    0 -0.11062713472E+02 -0.36128013455E+02  0.20053544607E+01  0.37836998194E+02  0.51100000000E-03 0. -1.
        -11    1    3    3    0    0  0.19953692177E+01 -0.62443138262E+01 -0.53515265230E+01  0.84623749540E+01  0.51100000000E-03 0.  1.
        -12    1    3    3    0    0  0.86210900376E+01  0.42622212535E+02  0.44098386663E+01  0.43708384457E+02  0.00000000000E+00 0.  1.
</event>
<event>
 7    1  0.4359248E-015  0.9000772E+02  0.7816164E-02  0.1186339E+00
        -11   -1    0    0    0    0  0.00000000000E+00  0.00000000000E+00  0.45593999997E+02  0.45594000000E+02  0.51100000000E-03 0.  1.
         11   -1    0    0    0    0 -0.00000000000E+00 -0.00000000000E+00 -0.45593999997E+02  0.45594000000E+02  0.51100000000E-03 0. -1.
    9900012    2    1    2    0    0  0.11267207244E+01 -0.87598753950E-01 -0.34040931898E+00  0.90007723915E+02  0.89999985071E+02 0.  0.
        -12    1    1    2    0    0 -0.11267207244E+01  0.87598753950E-01  0.34040931898E+00  0.11802760851E+01  0.00000000000E+00 0.  1.
         11    1    3    3    0    0 -0.34802828320E+02  0.68571117791E+01  0.10253604921E+02  0.36924155443E+02  0.51100000000E-03 0. -1.
        -11    1    3    3    0    0 -0.17280691049E+01  0.10351927601E+02 -0.96370799448E+00  0.10539324516E+02  0.51100000000E-03 0.  1.
        -12    1    3    3    0    0  0.37657618149E+02 -0.17296638134E+02 -0.96303062455E+01  0.42544243956E+02  0.00000000000E+00 0.  1.
</event>
<event>
 7    1  0.4359248E-015  0.9000775E+02  0.7816164E-02  0.1186339E+00
        -11   -1    0    0    0    0  0.00000000000E+00  0.00000000000E+00  0.45593999997E+02  0.45594000000E+02  0.51100000000E-03 0. -1.
         11   -1    0    0    0    0 -0.00000000000E+00 -0.00000000000E+00 -0.45593999997E+02  0.45594000000E+02  0.51100000000E-03 0.  1.
    9900012    2    1    2    0    0  0.55033863511E-01  0.12704079311E-01  0.11788985452E+01  0.90007749222E+02  0.90000010711E+02 0.  0.
        -12    1    1    2    0    0 -0.55033863511E-01 -0.12704079311E-01 -0.11788985452E+01  0.11802507782E+01  0.00000000000E+00 0.  1.
         11    1    3    3    0    0  0.24280534130E+02 -0.28560871958E+02  0.27277570303E+01  0.37586013400E+02  0.51100000000E-03 0. -1.
        -11    1    3    3    0    0 -0.95463701262E+00 -0.78628183099E+01  0.39307166163E+01  0.88422721616E+01  0.51100000000E-03 0.  1.
        -12    1    3    3    0    0 -0.23270863254E+02  0.36436394347E+02 -0.54795751015E+01  0.43579463660E+02  0.00000000000E+00 0.  1.
</event>
<event>
 7    1  0.4359248E-015  0.9000779E+02  0.7816164E-02  0.1186339E+00
        -11   -1    0    0    0    0  0.00000000000E+00  0.00000000000E+00  0.45593999997E+02  0.45594000000E+02  0.51100000000E-03 0.  1.
         11   -1    0    0    0    0 -0.00000000000E+00 -0.00000000000E+00 -0.45593999997E+02  0.45594000000E+02  0.51100000000E-03 0. -1.
    9900012    2    1    2    0    0  0.49466168562E+00  0.10368130022E+01 -0.27061655011E+00  0.90007786163E+02  0.90000048140E+02 0.  0.
        -12    1    1    2    0    0 -0.49466168562E+00 -0.10368130022E+01  0.27061655011E+00  0.11802138373E+01  0.00000000000E+00 0.  1.
         11    1    3    3    0    0  0.37448141666E+02 -0.10712097462E+02  0.77883933384E+01  0.39721170896E+02  0.51100000000E-03 0. -1.
        -11    1    3    3    0    0  0.22431196304E+00 -0.69971330710E+01  0.23214466605E+01  0.73755882429E+01  0.51100000000E-03 0.  1.
        -12    1    3    3    0    0 -0.37177791944E+02  0.18746043535E+02 -0.10380456549E+02  0.42911027024E+02  0.00000000000E+00 0.  1.
</event>
<event>
 7    1  0.4359248E-015  0.9000771E+02  0.7816164E-02  0.1186339E+00
        -11   -1    0    0    0    0  0.00000000000E+00  0.00000000000E+00  0.45593999997E+02  0.45594000000E+02  0.51100000000E-03 0.  1.
         11   -1    0    0    0    0 -0.00000000000E+00 -0.00000000000E+00 -0.45593999997E+02  0.45594000000E+02  0.51100000000E-03 0. -1.
    9900012    2    1    2    0    0 -0.10023879390E+01  0.51873380699E-01 -0.62098347368E+00  0.90007706434E+02  0.89999967359E+02 0.  0.
        -12    1    1    2    0    0  0.10023879390E+01 -0.51873380699E-01  0.62098347368E+00  0.11802935662E+01  0.00000000000E+00 0.  1.
         11    1    3    3    0    0  0.35365899936E+01 -0.21573457411E+01  0.12070298047E+02  0.12761414680E+02  0.51100000000E-03 0. -1.
        -11    1    3    3    0    0 -0.36477427249E+02  0.14141725814E+02 -0.17418972975E+02  0.42825363133E+02  0.51100000000E-03 0.  1.
         12    1    3    3    0    0  0.31938449316E+02 -0.11932506692E+02  0.47276914543E+01  0.34420928621E+02  0.00000000000E+00 0. -1.
</event>
<event>
 7    1  0.4359248E-015  0.9000772E+02  0.7816164E-02  0.1186339E+00
        -11   -1    0    0    0    0  0.00000000000E+00  0.00000000000E+00  0.45593999997E+02  0.45594000000E+02  0.51100000000E-03 0.  1.
         11   -1    0    0    0    0 -0.00000000000E+00 -0.00000000000E+00 -0.45593999997E+02  0.45594000000E+02  0.51100000000E-03 0. -1.
    9900012    2    1    2    0    0 -0.91570981653E+00 -0.74349433305E+00 -0.41751518764E-01  0.90007723981E+02  0.89999985138E+02 0.  0.
        -12    1    1    2    0    0  0.91570981653E+00  0.74349433305E+00  0.41751518764E-01  0.11802760189E+01  0.00000000000E+00 0.  1.
         11    1    3    3    0    0 -0.43797102099E+01 -0.57558710711E+01  0.56163926342E+01  0.91572801525E+01  0.51100000000E-03 0. -1.
        -11    1    3    3    0    0 -0.30029229879E+02 -0.32134557177E+01  0.21400231138E+02  0.37014197787E+02  0.51100000000E-03 0.  1.
         12    1    3    3    0    0  0.33493230273E+02  0.82258324557E+01 -0.27058375291E+02  0.43836246042E+02  0.00000000000E+00 0. -1.
</event>
<event>
 7    1  0.4359248E-015  0.9000772E+02  0.7816164E-02  0.1186339E+00
        -11   -1    0    0    0    0  0.00000000000E+00  0.00000000000E+00  0.45593999997E+02  0.45594000000E+02  0.51100000000E-03 0.  1.
         11   -1    0    0    0    0 -0.00000000000E+00 -0.00000000000E+00 -0.45593999997E+02  0.45594000000E+02  0.51100000000E-03 0. -1.
    9900012    2    1    2    0    0 -0.38496597974E+00  0.47022180211E+00 -0.10118093208E+01  0.90007718063E+02  0.89999979142E+02 0.  0.
        -12    1    1    2    0    0  0.38496597974E+00 -0.47022180211E+00  0.10118093208E+01  0.11802819368E+01  0.00000000000E+00 0.  1.
         11    1    3    3    0    0  0.25979915174E+02 -0.28171596185E+02  0.82543322621E+00  0.38331138312E+02  0.51100000000E-03 0. -1.
        -11    1    3    3    0    0  0.72478396418E+01  0.44745822152E+01  0.47564378613E+01  0.97558580793E+01  0.51100000000E-03 0.  1.
        -12    1    3    3    0    0 -0.33612720796E+02  0.24167235771E+02 -0.65936804083E+01  0.41920721671E+02  0.00000000000E+00 0.  1.
</event>
<event>
 7    1  0.4359248E-015  0.9000773E+02  0.7816164E-02  0.1186339E+00
        -11   -1    0    0    0    0  0.00000000000E+00  0.00000000000E+00  0.45593999997E+02  0.45594000000E+02  0.51100000000E-03 0.  1.
         11   -1    0    0    0    0 -0.00000000000E+00 -0.00000000000E+00 -0.45593999997E+02  0.45594000000E+02  0.51100000000E-03 0. -1.
    9900012    2    1    2    0    0  0.94552718428E+00 -0.50288853832E-01 -0.70461749216E+00  0.90007730355E+02  0.89999991596E+02 0.  0.
        -12    1    1    2    0    0 -0.94552718428E+00  0.50288853832E-01  0.70461749216E+00  0.11802696452E+01  0.00000000000E+00 0.  1.
         11    1    3    3    0    0 -0.58832116007E+01  0.79821227131E+01 -0.26091969408E+01  0.10253505288E+02  0.51100000000E-03 0. -1.
        -11    1    3    3    0    0 -0.19036638334E+02  0.12358231227E+02 -0.27462178995E+02  0.35627107005E+02  0.51100000000E-03 0.  1.
         12    1    3    3    0    0  0.25865377119E+02 -0.20390642794E+02  0.29366758443E+02  0.44127118063E+02  0.00000000000E+00 0. -1.
</event>
<event>
 7    1  0.4359248E-015  0.9000772E+02  0.7816164E-02  0.1186339E+00
        -11   -1    0    0    0    0  0.00000000000E+00  0.00000000000E+00  0.45593999997E+02  0.45594000000E+02  0.51100000000E-03 0. -1.
         11   -1    0    0    0    0 -0.00000000000E+00 -0.00000000000E+00 -0.45593999997E+02  0.45594000000E+02  0.51100000000E-03 0.  1.
    9900012    2    1    2    0    0 -0.27770873887E+00 -0.80582228049E+00  0.81644780278E+00  0.90007720920E+02  0.89999982036E+02 0.  0.
        -12    1    1    2    0    0  0.27770873887E+00  0.80582228049E+00 -0.81644780278E+00  0.11802790797E+01  0.00000000000E+00 0.  1.
         11    1    3    3    0    0  0.60474565314E+01  0.24315181746E+02  0.41949412989E+01  0.25404671354E+02  0.51100000000E-03 0. -1.
        -11    1    3    3    0    0  0.22531928111E+02 -0.13408923019E+02 -0.16313145006E+02  0.30880506815E+02  0.51100000000E-03 0.  1.
         12    1    3    3    0    0 -0.28857093381E+02 -0.11712081008E+02  0.12934651509E+02  0.33722542751E+02  0.00000000000E+00 0. -1.
</event>
<event>
 7    1  0.4359248E-015  0.9000778E+02  0.7816164E-02  0.1186339E+00
        -11   -1    0    0    0    0  0.00000000000E+00  0.00000000000E+00  0.45593999997E+02  0.45594000000E+02  0.51100000000E-03 0.  1.
         11   -1    0    0    0    0 -0.00000000000E+00 -0.00000000000E+00 -0.45593999997E+02  0.45594000000E+02  0.51100000000E-03 0. -1.
    9900012    2    1    2    0    0  0.45532707180E+00  0.96573827059E+00  0.50294051124E+00  0.90007778704E+02  0.90000040583E+02 0.  0.
        -12    1    1    2    0    0 -0.45532707180E+00 -0.96573827059E+00 -0.50294051124E+00  0.11802212960E+01  0.00000000000E+00 0.  1.
         11    1    3    3    0    0  0.20890192088E+01  0.85380420976E+01 -0.63601127086E+01  0.10849571330E+02  0.51100000000E-03 0. -1.
        -11    1    3    3    0    0  0.30824439798E+02  0.10932311512E+02  0.21380859660E+02  0.39074322565E+02  0.51100000000E-03 0.  1.
         12    1    3    3    0    0 -0.32458131935E+02 -0.18504615339E+02 -0.14517806440E+02  0.40083884809E+02  0.00000000000E+00 0. -1.
</event>
<event>
 7    1  0.4359248E-015  0.9000780E+02  0.7816164E-02  0.1186339E+00
        -11   -1    0    0    0    0  0.00000000000E+00  0.00000000000E+00  0.45593999997E+02  0.45594000000E+02  0.51100000000E-03 0.  1.
         11   -1    0    0    0    0 -0.00000000000E+00 -0.00000000000E+00 -0.45593999997E+02  0.45594000000E+02  0.51100000000E-03 0. -1.
    9900012    2    1    2    0    0  0.76430123718E+00  0.66043989447E+00 -0.61036231465E+00  0.90007796886E+02  0.90000059005E+02 0.  0.
        -12    1    1    2    0    0 -0.76430123718E+00 -0.66043989447E+00  0.61036231465E+00  0.11802031141E+01  0.00000000000E+00 0.  1.
         11    1    3    3    0    0  0.73650890335E+01 -0.61968033727E+01 -0.62738037262E+01  0.11489365603E+02  0.51100000000E-03 0. -1.
        -11    1    3    3    0    0 -0.19062024756E+02 -0.32122070511E+02  0.39398239773E+01  0.37559425115E+02  0.51100000000E-03 0.  1.
         12    1    3    3    0    0  0.12461236959E+02  0.38979313778E+02  0.17236174342E+01  0.40959006168E+02  0.00000000000E+00 0. -1.
</event>
<event>
 7    1  0.4359248E-015  0.9000776E+02  0.7816164E-02  0.1186339E+00
        -11   -1    0    0    0    0  0.00000000000E+00  0.00000000000E+00  0.45593999997E+02  0.45594000000E+02  0.51100000000E-03 0.  1.
         11   -1    0    0    0    0 -0.00000000000E+00 -0.00000000000E+00 -0.45593999997E+02  0.45594000000E+02  0.51100000000E-03 0. -1.
    9900012    2    1    2    0    0 -0.52867192600E-01  0.37908752488E+00 -0.11164564748E+01  0.90007755385E+02  0.90000016956E+02 0.  0.
        -12    1    1    2    0    0  0.52867192600E-01 -0.37908752488E+00  0.11164564748E+01  0.11802446152E+01  0.00000000000E+00 0.  1.
         11    1    3    3    0    0  0.53168339253E+01 -0.19273977234E+01 -0.49313244871E+01  0.75034356419E+01  0.51100000000E-03 0. -1.
        -11    1    3    3    0    0  0.22904005210E+02 -0.14226652268E+02  0.30171457445E+02  0.40463661896E+02  0.51100000000E-03 0.  1.
         12    1    3    3    0    0 -0.28273706328E+02  0.16533137517E+02 -0.26356589433E+02  0.42040657847E+02  0.00000000000E+00 0. -1.
</event>
<event>
 7    1  0.4359248E-015  0.9000767E+02  0.7816164E-02  0.1186339E+00
        -11   -1    0    0    0    0  0.00000000000E+00  0.00000000000E+00  0.45593999997E+02  0.45594000000E+02  0.51100000000E-03 0.  1.
         11   -1    0    0    0    0 -0.00000000000E+00 -0.00000000000E+00 -0.45593999997E+02  0.45594000000E+02  0.51100000000E-03 0. -1.
    9900012    2    1    2    0    0 -0.55313369498E+00  0.10347014738E+01  0.12892799401E+00  0.90007666805E+02  0.89999927206E+02 0.  0.
        -12    1    1    2    0    0  0.55313369498E+00 -0.10347014738E+01 -0.12892799401E+00  0.11803331954E+01  0.00000000000E+00 0.  1.
         11    1    3    3    0    0  0.92395432991E+01  0.36694494232E+01 -0.38941619238E+01  0.10677008794E+02  0.51100000000E-03 0. -1.
        -11    1    3    3    0    0  0.15001557933E+02  0.20314524356E+02 -0.24448160254E+02  0.35148814779E+02  0.51100000000E-03 0.  1.
         12    1    3    3    0    0 -0.24794234927E+02 -0.22949272306E+02  0.28471250172E+02  0.44181843232E+02  0.00000000000E+00 0. -1.
</event>
<event>
 7    1  0.4359248E-015  0.9000774E+02  0.7816164E-02  0.1186339E+00
        -11   -1    0    0    0    0  0.00000000000E+00  0.00000000000E+00  0.45593999997E+02  0.45594000000E+02  0.51100000000E-03 0.  1.
         11   -1    0    0    0    0 -0.00000000000E+00 -0.00000000000E+00 -0.45593999997E+02  0.45594000000E+02  0.51100000000E-03 0. -1.
    9900012    2    1    2    0    0  0.47398816707E-01 -0.87750756156E+00 -0.78787568727E+00  0.90007739746E+02  0.90000001111E+02 0.  0.
        -12    1    1    2    0    0 -0.47398816707E-01  0.87750756156E+00  0.78787568727E+00  0.11802602539E+01  0.00000000000E+00 0.  1.
         11    1    3    3    0    0  0.30748886708E+02 -0.19895348487E+02  0.13495630601E+02  0.39031410054E+02  0.51100000000E-03 0. -1.
        -11    1    3    3    0    0  0.47628733638E+01  0.43563826948E+01 -0.10618244503E+02  0.12426188050E+02  0.51100000000E-03 0.  1.
        -12    1    3    3    0    0 -0.35464361255E+02  0.14661458231E+02 -0.36652617854E+01  0.38550141642E+02  0.00000000000E+00 0.  1.
</event>
<event>
 7    1  0.4359248E-015  0.9000766E+02  0.7816164E-02  0.1186339E+00
        -11   -1    0    0    0    0  0.00000000000E+00  0.00000000000E+00  0.45593999997E+02  0.45594000000E+02  0.51100000000E-03 0.  1.
         11   -1    0    0    0    0 -0.00000000000E+00 -0.00000000000E+00 -0.45593999997E+02  0.45594000000E+02  0.51100000000E-03 0. -1.
    9900012    2    1    2    0    0  0.10907470582E+01 -0.18745810733E+00 -0.41028708504E+00  0.90007658872E+02  0.89999919169E+02 0.  0.
        -12    1    1    2    0    0 -0.10907470582E+01  0.18745810733E+00  0.41028708504E+00  0.11803411282E+01  0.00000000000E+00 0.  1.
         11    1    3    3    0    0  0.96937779841E+00  0.30448115653E+01 -0.35690178915E+02  0.35832937949E+02  0.51100000000E-03 0. -1.
        -11    1    3    3    0    0  0.95166378428E+01  0.30719606170E+01 -0.58032548868E+01  0.11562054550E+02  0.51100000000E-03 0.  1.
        -12    1    3    3    0    0 -0.93952685831E+01 -0.63042302897E+01  0.41083146717E+02  0.42612666373E+02  0.00000000000E+00 0.  1.
</event>
<event>
 7    1  0.4359248E-015  0.9000764E+02  0.7816164E-02  0.1186339E+00
        -11   -1    0    0    0    0  0.00000000000E+00  0.00000000000E+00  0.45593999997E+02  0.45594000000E+02  0.51100000000E-03 0.  1.
         11   -1    0    0    0    0 -0.00000000000E+00 -0.00000000000E+00 -0.45593999997E+02  0.45594000000E+02  0.51100000000E-03 0. -1.
    9900012    2    1    2    0    0  0.88087962149E+00 -0.73480871112E+00  0.27812558361E+00  0.90007641330E+02  0.89999901396E+02 0.  0.
        -12    1    1    2    0    0 -0.88087962149E+00  0.73480871112E+00 -0.27812558361E+00  0.11803586700E+01  0.00000000000E+00 0.  1.
         11    1    3    3    0    0  0.16448814820E+02  0.36307033670E+02  0.11513378658E+02  0.41488818871E+02  0.51100000000E-03 0. -1.
        -11    1    3    3    0    0  0.61543533295E+01 -0.74053428874E+01  0.12525429671E+01  0.97099965154E+01  0.51100000000E-03 0.  1.
        -12    1    3    3    0    0 -0.21722288528E+02 -0.29636499494E+02 -0.12487796041E+02  0.38808825944E+02  0.00000000000E+00 0.  1.
</event>
<event>
 7    1  0.4359248E-015  0.9000774E+02  0.7816164E-02  0.1186339E+00
        -11   -1    0    0    0    0  0.00000000000E+00  0.00000000000E+00  0.45593999997E+02  0.45594000000E+02  0.51100000000E-03 0. -1.
         11   -1    0    0    0    0 -0.00000000000E+00 -0.00000000000E+00 -0.45593999997E+02  0.45594000000E+02  0.51100000000E-03 0.  1.
    9900012    2    1    2    0    0  0.61228395077E+00 -0.10035360440E+01  0.10500475256E+00  0.90007744847E+02  0.90000006279E+02 0.  0.
        -12    1    1    2    0    0 -0.61228395077E+00  0.10035360440E+01 -0.10500475256E+00  0.11802551530E+01  0.00000000000E+00 0.  1.
         11    1    3    3    0    0  0.63533956680E+01 -0.69376147021E+01  0.29583191959E+01  0.98614292572E+01  0.51100000000E-03 0. -1.
        -11    1    3    3    0    0 -0.65009762842E+00 -0.31152688189E+02 -0.21957428496E+02  0.38118778506E+02  0.51100000000E-03 0.  1.
         12    1    3    3    0    0 -0.50910140888E+01  0.37086766847E+02  0.19104114053E+02  0.42027537084E+02  0.00000000000E+00 0. -1.
</event>
<event>
 7    1  0.4359248E-015  0.9000772E+02  0.7816164E-02  0.1186339E+00
        -11   -1    0    0    0    0  0.00000000000E+00  0.00000000000E+00  0.45593999997E+02  0.45594000000E+02  0.51100000000E-03 0. -1.
         11   -1    0    0    0    0 -0.00000000000E+00 -0.00000000000E+00 -0.45593999997E+02  0.45594000000E+02  0.51100000000E-03 0.  1.
    9900012    2    1    2    0    0  0.79647297082E+00 -0.69883094311E+00  0.51993300587E+00  0.90007718588E+02  0.89999979674E+02 0.  0.
        -12    1    1    2    0    0 -0.79647297082E+00  0.69883094311E+00 -0.51993300587E+00  0.11802814117E+01  0.00000000000E+00 0.  1.
         11    1    3    3    0    0  0.74941574379E+00 -0.54836737631E+01  0.86839872116E+01  0.10297763643E+02  0.51100000000E-03 0. -1.
        -11    1    3    3    0    0  0.30208497941E+02  0.15488836912E+02  0.17951905024E+02  0.38402191487E+02  0.51100000000E-03 0.  1.
         12    1    3    3    0    0 -0.30161440714E+02 -0.10703994092E+02 -0.26115959230E+02  0.41307763458E+02  0.00000000000E+00 0. -1.
</event>
<event>
 7    1  0.4359248E-015  0.9000771E+02  0.7816164E-02  0.1186339E+00
        -11   -1    0    0    0    0  0.00000000000E+00  0.00000000000E+00  0.45593999997E+02  0.45594000000E+02  0.51100000000E-03 0. -1.
         11   -1    0    0    0    0 -0.00000000000E+00 -0.00000000000E+00 -0.45593999997E+02  0.45594000000E+02  0.51100000000E-03 0.  1.
    9900012    2    1    2    0    0  0.11792950421E+01 -0.44707616469E-01  0.18727511553E-01  0.90007709236E+02  0.89999970198E+02 0.  0.
        -12    1    1    2    0    0 -0.11792950421E+01  0.44707616469E-01 -0.18727511553E-01  0.11802907637E+01  0.00000000000E+00 0.  1.
         11    1    3    3    0    0 -0.71373959215E+01  0.10391891513E+02  0.80143406422E+00  0.12632344461E+02  0.51100000000E-03 0. -1.
        -11    1    3    3    0    0 -0.10030551870E+02  0.14576455599E+02 -0.29956243832E+02  0.34791688281E+02  0.51100000000E-03 0.  1.
         12    1    3    3    0    0  0.18347242833E+02 -0.25013054729E+02  0.29173537279E+02  0.42583676495E+02  0.00000000000E+00 0. -1.
</event>
<event>
 7    1  0.4359248E-015  0.9000778E+02  0.7816164E-02  0.1186339E+00
        -11   -1    0    0    0    0  0.00000000000E+00  0.00000000000E+00  0.45593999997E+02  0.45594000000E+02  0.51100000000E-03 0.  1.
         11   -1    0    0    0    0 -0.00000000000E+00 -0.00000000000E+00 -0.45593999997E+02  0.45594000000E+02  0.51100000000E-03 0. -1.
    9900012    2    1    2    0    0 -0.86431413403E+00 -0.41069201049E+00 -0.69080718495E+00  0.90007779081E+02  0.90000040965E+02 0.  0.
        -12    1    1    2    0    0  0.86431413403E+00  0.41069201049E+00  0.69080718495E+00  0.11802209185E+01  0.00000000000E+00 0.  1.
         11    1    3    3    0    0 -0.11784136044E+02 -0.18835860327E+02 -0.30323203495E+02  0.37591916246E+02  0.51100000000E-03 0. -1.
        -11    1    3    3    0    0 -0.69954568782E+01  0.59535705354E+00 -0.56516145419E+01  0.90128582673E+01  0.51100000000E-03 0.  1.
        -12    1    3    3    0    0  0.17915278788E+02  0.17829811263E+02  0.35284010852E+02  0.43403004568E+02  0.00000000000E+00 0.  1.
</event>
<event>
 7    1  0.4359248E-015  0.9000769E+02  0.7816164E-02  0.1186339E+00
        -11   -1    0    0    0    0  0.00000000000E+00  0.00000000000E+00  0.45593999997E+02  0.45594000000E+02  0.51100000000E-03 0. -1.
         11   -1    0    0    0    0 -0.00000000000E+00 -0.00000000000E+00 -0.45593999997E+02  0.45594000000E+02  0.51100000000E-03 0.  1.
    9900012    2    1    2    0    0  0.65608380032E+00 -0.13774255543E+00  0.97144518432E+00  0.90007692959E+02  0.89999953706E+02 0.  0.
        -12    1    1    2    0    0 -0.65608380032E+00  0.13774255543E+00 -0.97144518432E+00  0.11803070409E+01  0.00000000000E+00 0.  1.
         11    1    3    3    0    0 -0.11312954809E+02 -0.32849517065E+02 -0.14550128887E+02  0.37666695751E+02  0.51100000000E-03 0. -1.
        -11    1    3    3    0    0 -0.10863545673E+02  0.14280106329E+01  0.10952902213E+01  0.11011607507E+02  0.51100000000E-03 0.  1.
        -12    1    3    3    0    0  0.22832584283E+02  0.31283763877E+02  0.14426283850E+02  0.41329389701E+02  0.00000000000E+00 0.  1.
</event>
<event>
 7    1  0.4359248E-015  0.9000770E+02  0.7816164E-02  0.1186339E+00
        -11   -1    0    0    0    0  0.00000000000E+00  0.00000000000E+00  0.45593999997E+02  0.45594000000E+02  0.51100000000E-03 0. -1.
         11   -1    0    0    0    0 -0.00000000000E+00 -0.00000000000E+00 -0.45593999997E+02  0.45594000000E+02  0.51100000000E-03 0.  1.
    9900012    2    1    2    0    0  0.22207323810E+00  0.93382149380E+00  0.68684868595E+00  0.90007703333E+02  0.89999964217E+02 0.  0.
        -12    1    1    2    0    0 -0.22207323810E+00 -0.93382149380E+00 -0.68684868595E+00  0.11802966673E+01  0.00000000000E+00 0.  1.
         11    1    3    3    0    0 -0.47691389256E+01  0.47409402897E+01 -0.54643686969E+01  0.86649019867E+01  0.51100000000E-03 0. -1.
        -11    1    3    3    0    0  0.22546917056E+02  0.26487069206E+02  0.23786070090E+02  0.42139120001E+02  0.51100000000E-03 0.  1.
         12    1    3    3    0    0 -0.17555704892E+02 -0.30294188002E+02 -0.17634852708E+02  0.39203681345E+02  0.00000000000E+00 0. -1.
</event>
<event>
 7    1  0.4359248E-015  0.9000775E+02  0.7816164E-02  0.1186339E+00
        -11   -1    0    0    0    0  0.00000000000E+00  0.00000000000E+00  0.45593999997E+02  0.45594000000E+02  0.51100000000E-03 0. -1.
         11   -1    0    0    0    0 -0.00000000000E+00 -0.00000000000E+00 -0.45593999997E+02  0.45594000000E+02  0.51100000000E-03 0.  1.
    9900012    2    1    2    0    0  0.46974484392E-01 -0.36909595913E+00  0.11200726417E+01  0.90007745302E+02  0.90000006740E+02 0.  0.
        -12    1    1    2    0    0 -0.46974484392E-01  0.36909595913E+00 -0.11200726417E+01  0.11802546979E+01  0.00000000000E+00 0.  1.
         11    1    3    3    0    0 -0.57313802033E+01  0.38932081079E+02 -0.22795814094E-01  0.39351698515E+02  0.51100000000E-03 0. -1.
        -11    1    3    3    0    0  0.62629640524E+01  0.31829553646E+01  0.39801873273E+01  0.80745163939E+01  0.51100000000E-03 0.  1.
        -12    1    3    3    0    0 -0.48460936465E+00 -0.42484132402E+02 -0.28373188715E+01  0.42581530393E+02  0.00000000000E+00 0.  1.
</event>
<event>
 7    1  0.4359248E-015  0.9000776E+02  0.7816164E-02  0.1186339E+00
        -11   -1    0    0    0    0  0.00000000000E+00  0.00000000000E+00  0.45593999997E+02  0.45594000000E+02  0.51100000000E-03 0.  1.
         11   -1    0    0    0    0 -0.00000000000E+00 -0.00000000000E+00 -0.45593999997E+02  0.45594000000E+02  0.51100000000E-03 0. -1.
    9900012    2    1    2    0    0  0.11589538804E+00  0.74169614046E-01 -0.11721952745E+01  0.90007756536E+02  0.90000018122E+02 0.  0.
        -12    1    1    2    0    0 -0.11589538804E+00 -0.74169614046E-01  0.11721952745E+01  0.11802434640E+01  0.00000000000E+00 0.  1.
         11    1    3    3    0    0 -0.24090926598E+02 -0.30264993793E+02 -0.47264384683E+01  0.38970268340E+02  0.51100000000E-03 0. -1.
        -11    1    3    3    0    0  0.46111667809E+01  0.82105388125E+01 -0.13841147071E+02  0.16740763399E+02  0.51100000000E-03 0.  1.
        -12    1    3    3    0    0  0.19595655205E+02  0.22128624595E+02  0.17395390264E+02  0.34296724797E+02  0.00000000000E+00 0.  1.
</event>
<event>
 7    1  0.4359248E-015  0.9000778E+02  0.7816164E-02  0.1186339E+00
        -11   -1    0    0    0    0  0.00000000000E+00  0.00000000000E+00  0.45593999997E+02  0.45594000000E+02  0.51100000000E-03 0.  1.
         11   -1    0    0    0    0 -0.00000000000E+00 -0.00000000000E+00 -0.45593999997E+02  0.45594000000E+02  0.51100000000E-03 0. -1.
    9900012    2    1    2    0    0  0.59192305607E+00 -0.98908586032E+00 -0.25350232891E+00  0.90007776642E+02  0.90000038494E+02 0.  0.
        -12    1    1    2    0    0 -0.59192305607E+00  0.98908586032E+00  0.25350232891E+00  0.11802233577E+01  0.00000000000E+00 0.  1.
         11    1    3    3    0    0  0.96069358794E+01  0.20358197464E+02 -0.31970993078E+02  0.39101071848E+02  0.51100000000E-03 0. -1.
        -11    1    3    3    0    0 -0.49220910929E+01  0.73859670605E+01  0.14874045497E+01  0.89995479165E+01  0.51100000000E-03 0.  1.
        -12    1    3    3    0    0 -0.40929217304E+01 -0.28733250385E+02  0.30230086200E+02  0.41907156878E+02  0.00000000000E+00 0.  1.
</event>
<event>
 7    1  0.4359248E-015  0.9000771E+02  0.7816164E-02  0.1186339E+00
        -11   -1    0    0    0    0  0.00000000000E+00  0.00000000000E+00  0.45593999997E+02  0.45594000000E+02  0.51100000000E-03 0.  1.
         11   -1    0    0    0    0 -0.00000000000E+00 -0.00000000000E+00 -0.45593999997E+02  0.45594000000E+02  0.51100000000E-03 0. -1.
    9900012    2    1    2    0    0  0.10909428417E+01 -0.33917262897E+00  0.29648249886E+00  0.90007705025E+02  0.89999965931E+02 0.  0.
        -12    1    1    2    0    0 -0.10909428417E+01  0.33917262897E+00 -0.29648249886E+00  0.11802949751E+01  0.00000000000E+00 0.  1.
         11    1    3    3    0    0 -0.75493698165E+01  0.34566280491E+01  0.58448357278E+01  0.10153982817E+02  0.51100000000E-03 0. -1.
        -11    1    3    3    0    0 -0.21687944515E+02  0.27509181219E+02  0.39245388517E+01  0.35249453813E+02  0.51100000000E-03 0.  1.
         12    1    3    3    0    0  0.30328257173E+02 -0.31304981897E+02 -0.94728920807E+01  0.44604268396E+02  0.00000000000E+00 0. -1.
</event>
<event>
 7    1  0.4359248E-015  0.9000774E+02  0.7816164E-02  0.1186339E+00
        -11   -1    0    0    0    0  0.00000000000E+00  0.00000000000E+00  0.45593999997E+02  0.45594000000E+02  0.51100000000E-03 0.  1.
         11   -1    0    0    0    0 -0.00000000000E+00 -0.00000000000E+00 -0.45593999997E+02  0.45594000000E+02  0.51100000000E-03 0. -1.
    9900012    2    1    2    0    0  0.29674353687E+00 -0.42866172043E+00 -0.10588740654E+01  0.90007736519E+02  0.89999997842E+02 0.  0.
        -12    1    1    2    0    0 -0.29674353687E+00  0.42866172043E+00  0.10588740654E+01  0.11802634805E+01  0.00000000000E+00 0.  1.
         11    1    3    3    0    0  0.20762912541E+02 -0.16346166713E+02  0.22351461337E+02  0.34610454021E+02  0.51100000000E-03 0. -1.
        -11    1    3    3    0    0  0.39607391568E+01 -0.73146051722E+01  0.63222682882E+01  0.10448061067E+02  0.51100000000E-03 0.  1.
        -12    1    3    3    0    0 -0.24426908161E+02  0.23232110165E+02 -0.29732603690E+02  0.44949221431E+02  0.00000000000E+00 0.  1.
</event>
<event>
 7    1  0.4359248E-015  0.9000769E+02  0.7816164E-02  0.1186339E+00
        -11   -1    0    0    0    0  0.00000000000E+00  0.00000000000E+00  0.45593999997E+02  0.45594000000E+02  0.51100000000E-03 0.  1.
         11   -1    0    0    0    0 -0.00000000000E+00 -0.00000000000E+00 -0.45593999997E+02  0.45594000000E+02  0.51100000000E-03 0. -1.
    9900012    2    1    2    0    0  0.79343829225E+00  0.50549346416E+00 -0.71278932863E+00  0.90007687926E+02  0.89999948606E+02 0.  0.
        -12    1    1    2    0    0 -0.79343829225E+00 -0.50549346416E+00  0.71278932863E+00  0.11803120744E+01  0.00000000000E+00 0.  1.
         11    1    3    3    0    0 -0.21907109382E+02 -0.14967093823E+02 -0.32821253167E+02  0.42203909756E+02  0.51100000000E-03 0. -1.
        -11    1    3    3    0    0  0.10840732266E+02  0.42206381527E+01 -0.15547580369E+00  0.11634407397E+02  0.51100000000E-03 0.  1.
        -12    1    3    3    0    0  0.11859815408E+02  0.11251949135E+02  0.32263939642E+02  0.36169370772E+02  0.00000000000E+00 0.  1.
</event>
<event>
 7    1  0.4359248E-015  0.9000823E+02  0.7816164E-02  0.1186338E+00
        -11   -1    0    0    0    0  0.00000000000E+00  0.00000000000E+00  0.45593999997E+02  0.45594000000E+02  0.51100000000E-03 0.  1.
         11   -1    0    0    0    0 -0.00000000000E+00 -0.00000000000E+00 -0.45593999997E+02  0.45594000000E+02  0.51100000000E-03 0. -1.
    9900012    2    1    2    0    0 -0.97264464350E-01 -0.11480995522E+01 -0.25349528816E+00  0.90008231879E+02  0.90000499739E+02 0.  0.
        -12    1    1    2    0    0  0.97264464350E-01  0.11480995522E+01  0.25349528816E+00  0.11797681209E+01  0.00000000000E+00 0.  1.
         11    1    3    3    0    0  0.36913201415E+02 -0.31603491608E+01  0.68089428475E+01  0.37668739672E+02  0.51100000000E-03 0. -1.
        -11    1    3    3    0    0  0.71825602185E+01  0.38137695717E+00 -0.34265377317E+01  0.79671689302E+01  0.51100000000E-03 0.  1.
        -12    1    3    3    0    0 -0.44193026098E+02  0.16308726513E+01 -0.36359004040E+01  0.44372323277E+02  0.00000000000E+00 0.  1.
</event>
<event>
 7    1  0.4359248E-015  0.9000742E+02  0.7816164E-02  0.1186340E+00
        -11   -1    0    0    0    0  0.00000000000E+00  0.00000000000E+00  0.45593999997E+02  0.45594000000E+02  0.51100000000E-03 0.  1.
         11   -1    0    0    0    0 -0.00000000000E+00 -0.00000000000E+00 -0.45593999997E+02  0.45594000000E+02  0.51100000000E-03 0. -1.
    9900012    2    1    2    0    0 -0.57443032115E+00  0.81156802347E+00 -0.63652090124E+00  0.90007418911E+02  0.89999676040E+02 0.  0.
        -12    1    1    2    0    0  0.57443032115E+00 -0.81156802347E+00  0.63652090124E+00  0.11805810892E+01  0.00000000000E+00 0.  1.
         11    1    3    3    0    0  0.18635808248E+01  0.34708484384E+01  0.79006104244E+01  0.88283275717E+01  0.51100000000E-03 0. -1.
        -11    1    3    3    0    0  0.34871842060E+02 -0.14795550892E+02 -0.16207245074E+02  0.41202287412E+02  0.51100000000E-03 0.  1.
         12    1    3    3    0    0 -0.37309853206E+02  0.12136270477E+02  0.76701137479E+01  0.39976803927E+02  0.00000000000E+00 0. -1.
</event>
<event>
 7    1  0.4359248E-015  0.9000752E+02  0.7816164E-02  0.1186339E+00
        -11   -1    0    0    0    0  0.00000000000E+00  0.00000000000E+00  0.45593999997E+02  0.45594000000E+02  0.51100000000E-03 0. -1.
         11   -1    0    0    0    0 -0.00000000000E+00 -0.00000000000E+00 -0.45593999997E+02  0.45594000000E+02  0.51100000000E-03 0.  1.
    9900012    2    1    2    0    0  0.50523310270E+00  0.30643138698E+00  0.10219433541E+01  0.90007521749E+02  0.89999780235E+02 0.  0.
        -12    1    1    2    0    0 -0.50523310270E+00 -0.30643138698E+00 -0.10219433541E+01  0.11804782514E+01  0.00000000000E+00 0.  1.
         11    1    3    3    0    0  0.75756285321E+01  0.88186073710E-01 -0.56633028498E+01  0.94589071181E+01  0.51100000000E-03 0. -1.
        -11    1    3    3    0    0  0.13188232605E+02 -0.31960425851E+02 -0.13953337776E+02  0.37283963512E+02  0.51100000000E-03 0.  1.
         12    1    3    3    0    0 -0.20258628034E+02  0.32178671164E+02  0.20638583980E+02  0.43264651119E+02  0.00000000000E+00 0. -1.
</event>
<event>
 7    1  0.4359248E-015  0.9000783E+02  0.7816164E-02  0.1186339E+00
        -11   -1    0    0    0    0  0.00000000000E+00  0.00000000000E+00  0.45593999997E+02  0.45594000000E+02  0.51100000000E-03 0.  1.
         11   -1    0    0    0    0 -0.00000000000E+00 -0.00000000000E+00 -0.45593999997E+02  0.45594000000E+02  0.51100000000E-03 0. -1.
    9900012    2    1    2    0    0 -0.10425763641E+01  0.27455929219E+00 -0.48005526852E+00  0.90007829953E+02  0.90000092508E+02 0.  0.
        -12    1    1    2    0    0  0.10425763641E+01 -0.27455929219E+00  0.48005526852E+00  0.11801700474E+01  0.00000000000E+00 0.  1.
         11    1    3    3    0    0  0.21310092882E+02 -0.11818699337E+02 -0.27607821011E+02  0.36823816938E+02  0.51100000000E-03 0. -1.
        -11    1    3    3    0    0  0.96813890984E+01  0.81942821865E+00 -0.50085710495E-02  0.97160065267E+01  0.51100000000E-03 0.  1.
        -12    1    3    3    0    0 -0.32034058344E+02  0.11273830410E+02  0.27132774313E+02  0.43468006488E+02  0.00000000000E+00 0.  1.
</event>
<event>
 7    1  0.4359248E-015  0.9000673E+02  0.7816164E-02  0.1186341E+00
        -11   -1    0    0    0    0  0.00000000000E+00  0.00000000000E+00  0.45593999997E+02  0.45594000000E+02  0.51100000000E-03 0.  1.
         11   -1    0    0    0    0 -0.00000000000E+00 -0.00000000000E+00 -0.45593999997E+02  0.45594000000E+02  0.51100000000E-03 0. -1.
    9900012    2    1    2    0    0  0.60851139825E+00 -0.10014705300E+01 -0.14891895509E+00  0.90006726874E+02  0.89998974862E+02 0.  0.
        -12    1    1    2    0    0 -0.60851139825E+00  0.10014705300E+01  0.14891895509E+00  0.11812731265E+01  0.00000000000E+00 0.  1.
         11    1    3    3    0    0 -0.20572645944E+02 -0.90460091929E+01  0.30275883419E+02  0.37705346578E+02  0.51100000000E-03 0. -1.
        -11    1    3    3    0    0 -0.83018011845E+01  0.42383978561E+01  0.59069889693E+00  0.93398525011E+01  0.51100000000E-03 0.  1.
        -12    1    3    3    0    0  0.29482958527E+02  0.38061408068E+01 -0.31015501271E+02  0.42961527795E+02  0.00000000000E+00 0.  1.
</event>
<event>
 7    1  0.4359248E-015  0.9000777E+02  0.7816164E-02  0.1186339E+00
        -11   -1    0    0    0    0  0.00000000000E+00  0.00000000000E+00  0.45593999997E+02  0.45594000000E+02  0.51100000000E-03 0.  1.
         11   -1    0    0    0    0 -0.00000000000E+00 -0.00000000000E+00 -0.45593999997E+02  0.45594000000E+02  0.51100000000E-03 0. -1.
    9900012    2    1    2    0    0  0.86873960693E+00 -0.68679612843E+00 -0.40808610690E+00  0.90007774726E+02  0.90000036552E+02 0.  0.
        -12    1    1    2    0    0 -0.86873960693E+00  0.68679612843E+00  0.40808610690E+00  0.11802252740E+01  0.00000000000E+00 0.  1.
         11    1    3    3    0    0  0.70596782966E+01 -0.39136515056E+01  0.48519484874E+01  0.94179153821E+01  0.51100000000E-03 0. -1.
        -11    1    3    3    0    0  0.13906030113E+02  0.35870948780E+02  0.93056224234E+01  0.39581526611E+02  0.51100000000E-03 0.  1.
         12    1    3    3    0    0 -0.20096968803E+02 -0.32644093403E+02 -0.14565657018E+02  0.41008332733E+02  0.00000000000E+00 0. -1.
</event>
<event>
 7    1  0.4359248E-015  0.9000780E+02  0.7816164E-02  0.1186339E+00
        -11   -1    0    0    0    0  0.00000000000E+00  0.00000000000E+00  0.45593999997E+02  0.45594000000E+02  0.51100000000E-03 0. -1.
         11   -1    0    0    0    0 -0.00000000000E+00 -0.00000000000E+00 -0.45593999997E+02  0.45594000000E+02  0.51100000000E-03 0.  1.
    9900012    2    1    2    0    0  0.63810356056E+00 -0.21809453650E+00  0.96856688426E+00  0.90007803749E+02  0.90000065959E+02 0.  0.
        -12    1    1    2    0    0 -0.63810356056E+00  0.21809453650E+00 -0.96856688426E+00  0.11801962507E+01  0.00000000000E+00 0.  1.
         11    1    3    3    0    0  0.33755947021E+01 -0.18440532770E+01  0.39463611958E+02  0.39650622203E+02  0.51100000000E-03 0. -1.
        -11    1    3    3    0    0 -0.15412248692E+00  0.64973359249E+01  0.39169467265E+01  0.75882540667E+01  0.51100000000E-03 0.  1.
        -12    1    3    3    0    0 -0.25833686546E+01 -0.48713771844E+01 -0.42411991800E+02  0.42768927479E+02  0.00000000000E+00 0.  1.
</event>
<event>
 7    1  0.4359248E-015  0.9000784E+02  0.7816164E-02  0.1186339E+00
        -11   -1    0    0    0    0  0.00000000000E+00  0.00000000000E+00  0.45593999997E+02  0.45594000000E+02  0.51100000000E-03 0.  1.
         11   -1    0    0    0    0 -0.00000000000E+00 -0.00000000000E+00 -0.45593999997E+02  0.45594000000E+02  0.51100000000E-03 0. -1.
    9900012    2    1    2    0    0  0.45557517817E+00  0.10797785461E+01 -0.13892335286E+00  0.90007843167E+02  0.90000105897E+02 0.  0.
        -12    1    1    2    0    0 -0.45557517817E+00 -0.10797785461E+01  0.13892335286E+00  0.11801568326E+01  0.00000000000E+00 0.  1.
         11    1    3    3    0    0  0.32425428946E+02 -0.78305359470E+01 -0.19938082464E+02  0.38861972005E+02  0.51100000000E-03 0. -1.
        -11    1    3    3    0    0  0.82224812450E+00  0.78378794823E+01 -0.55881798083E+01  0.96610662242E+01  0.51100000000E-03 0.  1.
        -12    1    3    3    0    0 -0.32792101892E+02  0.10724350108E+01  0.25387338919E+02  0.41484804938E+02  0.00000000000E+00 0.  1.
</event>
<event>
 7    1  0.4359248E-015  0.9000770E+02  0.7816164E-02  0.1186339E+00
        -11   -1    0    0    0    0  0.00000000000E+00  0.00000000000E+00  0.45593999997E+02  0.45594000000E+02  0.51100000000E-03 0.  1.
         11   -1    0    0    0    0 -0.00000000000E+00 -0.00000000000E+00 -0.45593999997E+02  0.45594000000E+02  0.51100000000E-03 0. -1.
    9900012    2    1    2    0    0  0.49453905569E+00  0.35839903929E-01 -0.10711028389E+01  0.90007697213E+02  0.89999958017E+02 0.  0.
        -12    1    1    2    0    0 -0.49453905569E+00 -0.35839903929E-01  0.10711028389E+01  0.11803027865E+01  0.00000000000E+00 0.  1.
         11    1    3    3    0    0 -0.20835136524E+01  0.36650994050E+01  0.44521621503E+01  0.61315357670E+01  0.51100000000E-03 0. -1.
        -11    1    3    3    0    0 -0.21652121866E+02  0.24836566098E+02  0.20062415781E+02  0.38576805519E+02  0.51100000000E-03 0.  1.
         12    1    3    3    0    0  0.24230174574E+02 -0.28465825599E+02 -0.25585680771E+02  0.45299355927E+02  0.00000000000E+00 0. -1.
</event>
<event>
 7    1  0.4359248E-015  0.9000774E+02  0.7816164E-02  0.1186339E+00
        -11   -1    0    0    0    0  0.00000000000E+00  0.00000000000E+00  0.45593999997E+02  0.45594000000E+02  0.51100000000E-03 0.  1.
         11   -1    0    0    0    0 -0.00000000000E+00 -0.00000000000E+00 -0.45593999997E+02  0.45594000000E+02  0.51100000000E-03 0. -1.
    9900012    2    1    2    0    0  0.49389331948E+00  0.10456464857E+01  0.23600439111E+00  0.90007743563E+02  0.90000004978E+02 0.  0.
        -12    1    1    2    0    0 -0.49389331948E+00 -0.10456464857E+01 -0.23600439111E+00  0.11802564368E+01  0.00000000000E+00 0.  1.
         11    1    3    3    0    0 -0.49586135970E+01 -0.80492541873E+01 -0.15588099745E+00  0.94552969770E+01  0.51100000000E-03 0. -1.
        -11    1    3    3    0    0 -0.16120811601E+00 -0.24262190833E+02  0.27884761847E+02  0.36962681662E+02  0.51100000000E-03 0.  1.
         12    1    3    3    0    0  0.56137150325E+01  0.33357091506E+02 -0.27492876458E+02  0.43589764925E+02  0.00000000000E+00 0. -1.
</event>
<event>
 7    1  0.4359248E-015  0.9000771E+02  0.7816164E-02  0.1186339E+00
        -11   -1    0    0    0    0  0.00000000000E+00  0.00000000000E+00  0.45593999997E+02  0.45594000000E+02  0.51100000000E-03 0.  1.
         11   -1    0    0    0    0 -0.00000000000E+00 -0.00000000000E+00 -0.45593999997E+02  0.45594000000E+02  0.51100000000E-03 0. -1.
    9900012    2    1    2    0    0  0.91273304376E+00 -0.25077257784E+00 -0.70506094919E+00  0.90007712138E+02  0.89999973138E+02 0.  0.
        -12    1    1    2    0    0 -0.91273304376E+00  0.25077257784E+00  0.70506094919E+00  0.11802878619E+01  0.00000000000E+00 0.  1.
         11    1    3    3    0    0  0.40482574103E+01  0.68011381113E+01 -0.49467960315E+01  0.93335233919E+01  0.51100000000E-03 0. -1.
        -11    1    3    3    0    0  0.34985907821E+02  0.97043615733E+01  0.12154898158E+02  0.38287464386E+02  0.51100000000E-03 0.  1.
         12    1    3    3    0    0 -0.38121432187E+02 -0.16756272262E+02 -0.79131630754E+01  0.42386724360E+02  0.00000000000E+00 0. -1.
</event>
<event>
 7    1  0.4359248E-015  0.9000775E+02  0.7816164E-02  0.1186339E+00
        -11   -1    0    0    0    0  0.00000000000E+00  0.00000000000E+00  0.45593999997E+02  0.45594000000E+02  0.51100000000E-03 0. -1.
         11   -1    0    0    0    0 -0.00000000000E+00 -0.00000000000E+00 -0.45593999997E+02  0.45594000000E+02  0.51100000000E-03 0.  1.
    9900012    2    1    2    0    0 -0.40592878191E+00  0.75025038368E+00  0.81567928916E+00  0.90007751502E+02  0.90000013022E+02 0.  0.
        -12    1    1    2    0    0  0.40592878191E+00 -0.75025038368E+00 -0.81567928916E+00  0.11802484980E+01  0.00000000000E+00 0.  1.
         11    1    3    3    0    0  0.15448649973E+00  0.57073342147E+01 -0.66757635715E+01  0.87842671545E+01  0.51100000000E-03 0. -1.
        -11    1    3    3    0    0 -0.36724382695E+02 -0.17408471731E+02 -0.50917872688E+01  0.40959265987E+02  0.51100000000E-03 0.  1.
         12    1    3    3    0    0  0.36163967413E+02  0.12451387900E+02  0.12583230129E+02  0.40264218361E+02  0.00000000000E+00 0. -1.
</event>
<event>
 7    1  0.4359248E-015  0.9000787E+02  0.7816164E-02  0.1186339E+00
        -11   -1    0    0    0    0  0.00000000000E+00  0.00000000000E+00  0.45593999997E+02  0.45594000000E+02  0.51100000000E-03 0.  1.
         11   -1    0    0    0    0 -0.00000000000E+00 -0.00000000000E+00 -0.45593999997E+02  0.45594000000E+02  0.51100000000E-03 0. -1.
    9900012    2    1    2    0    0 -0.48132408872E-01 -0.55256096370E+00 -0.10416649053E+01  0.90007870294E+02  0.90000133382E+02 0.  0.
        -12    1    1    2    0    0  0.48132408872E-01  0.55256096370E+00  0.10416649053E+01  0.11801297057E+01  0.00000000000E+00 0.  1.
         11    1    3    3    0    0 -0.23558285354E+02 -0.18818683225E+02 -0.18331363509E+02  0.35287030698E+02  0.51100000000E-03 0. -1.
        -11    1    3    3    0    0 -0.55600338680E+01 -0.70482504380E+01 -0.49158602034E+01  0.10235110779E+02  0.51100000000E-03 0.  1.
        -12    1    3    3    0    0  0.29070186813E+02  0.25314372700E+02  0.22205558807E+02  0.44485728818E+02  0.00000000000E+00 0.  1.
</event>
<event>
 7    1  0.4359248E-015  0.9000772E+02  0.7816164E-02  0.1186339E+00
        -11   -1    0    0    0    0  0.00000000000E+00  0.00000000000E+00  0.45593999997E+02  0.45594000000E+02  0.51100000000E-03 0.  1.
         11   -1    0    0    0    0 -0.00000000000E+00 -0.00000000000E+00 -0.45593999997E+02  0.45594000000E+02  0.51100000000E-03 0. -1.
    9900012    2    1    2    0    0 -0.10401350622E+01  0.14510329964E+00 -0.53864339483E+00  0.90007715025E+02  0.89999976063E+02 0.  0.
        -12    1    1    2    0    0  0.10401350622E+01 -0.14510329964E+00  0.53864339483E+00  0.11802849749E+01  0.00000000000E+00 0.  1.
         11    1    3    3    0    0 -0.41721134603E+01 -0.10052482854E+02 -0.99483503954E+00  0.10929256117E+02  0.51100000000E-03 0. -1.
        -11    1    3    3    0    0  0.34359879184E+02  0.28958537172E+01 -0.21110871008E+02  0.40430881035E+02  0.51100000000E-03 0.  1.
         12    1    3    3    0    0 -0.31227900786E+02  0.73017324361E+01  0.21567062652E+02  0.38647577874E+02  0.00000000000E+00 0. -1.
</event>
<event>
 7    1  0.4359248E-015  0.9000782E+02  0.7816164E-02  0.1186339E+00
        -11   -1    0    0    0    0  0.00000000000E+00  0.00000000000E+00  0.45593999997E+02  0.45594000000E+02  0.51100000000E-03 0.  1.
         11   -1    0    0    0    0 -0.00000000000E+00 -0.00000000000E+00 -0.45593999997E+02  0.45594000000E+02  0.51100000000E-03 0. -1.
    9900012    2    1    2    0    0  0.57200376106E+00  0.10321077320E+01 -0.19471774645E-01  0.90007824664E+02  0.90000087150E+02 0.  0.
        -12    1    1    2    0    0 -0.57200376106E+00 -0.10321077320E+01  0.19471774645E-01  0.11801753358E+01  0.00000000000E+00 0.  1.
         11    1    3    3    0    0  0.29652793920E+02 -0.26122588075E+02 -0.14043777462E+01  0.39543015465E+02  0.51100000000E-03 0. -1.
        -11    1    3    3    0    0 -0.28723606775E+01 -0.39270434771E+01 -0.74131556608E+01  0.88671868958E+01  0.51100000000E-03 0.  1.
        -12    1    3    3    0    0 -0.26208429481E+02  0.31081739284E+02  0.87980616323E+01  0.41597622303E+02  0.00000000000E+00 0.  1.
</event>
<event>
 7    1  0.4359248E-015  0.9000777E+02  0.7816164E-02  0.1186339E+00
        -11   -1    0    0    0    0  0.00000000000E+00  0.00000000000E+00  0.45593999997E+02  0.45594000000E+02  0.51100000000E-03 0. -1.
         11   -1    0    0    0    0 -0.00000000000E+00 -0.00000000000E+00 -0.45593999997E+02  0.45594000000E+02  0.51100000000E-03 0.  1.
    9900012    2    1    2    0    0 -0.10929588288E+01  0.36883295521E+00  0.24966838092E+00  0.90007775000E+02  0.90000036830E+02 0.  0.
        -12    1    1    2    0    0  0.10929588288E+01 -0.36883295521E+00 -0.24966838092E+00  0.11802250000E+01  0.00000000000E+00 0.  1.
         11    1    3    3    0    0 -0.34784099809E+00  0.99461833556E+01  0.35212976967E+01  0.10556850593E+02  0.51100000000E-03 0. -1.
        -11    1    3    3    0    0 -0.26567999607E+02  0.18313064616E+02  0.16894674050E+02  0.36423302297E+02  0.51100000000E-03 0.  1.
         12    1    3    3    0    0  0.25822881776E+02 -0.27890415016E+02 -0.20166303366E+02  0.43027622110E+02  0.00000000000E+00 0. -1.
</event>
<event>
 7    1  0.4359248E-015  0.9000762E+02  0.7816164E-02  0.1186339E+00
        -11   -1    0    0    0    0  0.00000000000E+00  0.00000000000E+00  0.45593999997E+02  0.45594000000E+02  0.51100000000E-03 0.  1.
         11   -1    0    0    0    0 -0.00000000000E+00 -0.00000000000E+00 -0.45593999997E+02  0.45594000000E+02  0.51100000000E-03 0. -1.
    9900012    2    1    2    0    0  0.92547811368E+00 -0.73129416769E+00 -0.44780163745E-01  0.90007616096E+02  0.89999875828E+02 0.  0.
        -12    1    1    2    0    0 -0.92547811368E+00  0.73129416769E+00  0.44780163745E-01  0.11803839044E+01  0.00000000000E+00 0.  1.
         11    1    3    3    0    0  0.11866760966E+01 -0.94987160632E+01  0.21479532605E+00  0.95749644543E+01  0.51100000000E-03 0. -1.
        -11    1    3    3    0    0 -0.24344629547E+02 -0.26643836515E+02 -0.78643006774E+01  0.36937815818E+02  0.51100000000E-03 0.  1.
         12    1    3    3    0    0  0.24083431564E+02  0.35411258411E+02  0.76047251876E+01  0.43494835823E+02  0.00000000000E+00 0. -1.
</event>
<event>
 7    1  0.4359248E-015  0.9000763E+02  0.7816164E-02  0.1186339E+00
        -11   -1    0    0    0    0  0.00000000000E+00  0.00000000000E+00  0.45593999997E+02  0.45594000000E+02  0.51100000000E-03 0. -1.
         11   -1    0    0    0    0 -0.00000000000E+00 -0.00000000000E+00 -0.45593999997E+02  0.45594000000E+02  0.51100000000E-03 0.  1.
    9900012    2    1    2    0    0  0.99034455114E+00  0.62428772274E+00  0.15085005973E+00  0.90007630045E+02  0.89999889961E+02 0.  0.
        -12    1    1    2    0    0 -0.99034455114E+00 -0.62428772274E+00 -0.15085005973E+00  0.11803699553E+01  0.00000000000E+00 0.  1.
         11    1    3    3    0    0 -0.33439509043E+01  0.13564034821E+02 -0.52040793003E+01  0.14907967330E+02  0.51100000000E-03 0. -1.
        -11    1    3    3    0    0 -0.30559259591E+02 -0.22703895338E+02 -0.20164807081E+01  0.38123502003E+02  0.51100000000E-03 0.  1.
         12    1    3    3    0    0  0.34893555046E+02  0.97641482394E+01  0.73714100681E+01  0.36976160712E+02  0.00000000000E+00 0. -1.
</event>
<event>
 7    1  0.4359248E-015  0.9000775E+02  0.7816164E-02  0.1186339E+00
        -11   -1    0    0    0    0  0.00000000000E+00  0.00000000000E+00  0.45593999997E+02  0.45594000000E+02  0.51100000000E-03 0. -1.
         11   -1    0    0    0    0 -0.00000000000E+00 -0.00000000000E+00 -0.45593999997E+02  0.45594000000E+02  0.51100000000E-03 0.  1.
    9900012    2    1    2    0    0  0.55931798351E+00 -0.71234821082E+00  0.75678140178E+00  0.90007748048E+02  0.90000009522E+02 0.  0.
        -12    1    1    2    0    0 -0.55931798351E+00  0.71234821082E+00 -0.75678140178E+00  0.11802519520E+01  0.00000000000E+00 0.  1.
         11    1    3    3    0    0  0.31655298037E+02  0.46047728050E+01  0.12194408460E+02  0.34233980551E+02  0.51100000000E-03 0. -1.
        -11    1    3    3    0    0  0.82501478358E+01  0.79869346091E+01  0.28839215621E+01  0.11839470748E+02  0.51100000000E-03 0.  1.
        -12    1    3    3    0    0 -0.39346127889E+02 -0.13304055625E+02 -0.14321548620E+02  0.43934296749E+02  0.00000000000E+00 0.  1.
</event>
<event>
 7    1  0.4359248E-015  0.9000778E+02  0.7816164E-02  0.1186339E+00
        -11   -1    0    0    0    0  0.00000000000E+00  0.00000000000E+00  0.45593999997E+02  0.45594000000E+02  0.51100000000E-03 0.  1.
         11   -1    0    0    0    0 -0.00000000000E+00 -0.00000000000E+00 -0.45593999997E+02  0.45594000000E+02  0.51100000000E-03 0. -1.
    9900012    2    1    2    0    0 -0.26778098060E+00 -0.94128614243E+00 -0.65968599221E+00  0.90007783128E+02  0.90000045066E+02 0.  0.
        -12    1    1    2    0    0  0.26778098060E+00  0.94128614243E+00  0.65968599221E+00  0.11802168715E+01  0.00000000000E+00 0.  1.
         11    1    3    3    0    0  0.57666042701E+00  0.43011102822E+01  0.11100662715E+02  0.11918758320E+02  0.51100000000E-03 0. -1.
        -11    1    3    3    0    0  0.59301202929E+01 -0.10477068833E+02  0.31639646409E+02  0.33852659027E+02  0.51100000000E-03 0.  1.
         12    1    3    3    0    0 -0.67745617005E+01  0.52346724082E+01 -0.43399995117E+02  0.44236365782E+02  0.00000000000E+00 0. -1.
</event>
<event>
 7    1  0.4359248E-015  0.9000778E+02  0.7816164E-02  0.1186339E+00
        -11   -1    0    0    0    0  0.00000000000E+00  0.00000000000E+00  0.45593999997E+02  0.45594000000E+02  0.51100000000E-03 0. -1.
         11   -1    0    0    0    0 -0.00000000000E+00 -0.00000000000E+00 -0.45593999997E+02  0.45594000000E+02  0.51100000000E-03 0.  1.
    9900012    2    1    2    0    0  0.34446930895E+00  0.42641951046E+00  0.10451929077E+01  0.90007779293E+02  0.90000041179E+02 0.  0.
        -12    1    1    2    0    0 -0.34446930895E+00 -0.42641951046E+00 -0.10451929077E+01  0.11802207074E+01  0.00000000000E+00 0.  1.
         11    1    3    3    0    0  0.22403919442E+02  0.26491520548E+02 -0.76782587452E+01  0.35534376665E+02  0.51100000000E-03 0. -1.
        -11    1    3    3    0    0  0.33807274039E+01  0.86083431976E+01  0.67005655885E+01  0.11420616002E+02  0.51100000000E-03 0.  1.
        -12    1    3    3    0    0 -0.25440177537E+02 -0.34673444236E+02  0.20228860644E+01  0.43052786626E+02  0.00000000000E+00 0.  1.
</event>
<event>
 7    1  0.4359248E-015  0.9000771E+02  0.7816164E-02  0.1186339E+00
        -11   -1    0    0    0    0  0.00000000000E+00  0.00000000000E+00  0.45593999997E+02  0.45594000000E+02  0.51100000000E-03 0.  1.
         11   -1    0    0    0    0 -0.00000000000E+00 -0.00000000000E+00 -0.45593999997E+02  0.45594000000E+02  0.51100000000E-03 0. -1.
    9900012    2    1    2    0    0 -0.89755272264E+00  0.73933950946E+00  0.20211372696E+00  0.90007714544E+02  0.89999975575E+02 0.  0.
        -12    1    1    2    0    0  0.89755272264E+00 -0.73933950946E+00 -0.20211372696E+00  0.11802854565E+01  0.00000000000E+00 0.  1.
         11    1    3    3    0    0  0.15449258227E+01 -0.29843531105E+01  0.12521920978E+02  0.12965016951E+02  0.51100000000E-03 0. -1.
        -11    1    3    3    0    0 -0.67285473656E+01 -0.24474952940E+02  0.21170317885E+02  0.33052670553E+02  0.51100000000E-03 0.  1.
         12    1    3    3    0    0  0.42860688203E+01  0.28198645560E+02 -0.33490125136E+02  0.43990027040E+02  0.00000000000E+00 0. -1.
</event>
<event>
 7    1  0.5931978E-015  0.9000769E+02  0.7816164E-02  0.1186339E+00
        -11   -1    0    0    0    0  0.00000000000E+00  0.00000000000E+00  0.45593999997E+02  0.45594000000E+02  0.51100000000E-03 0.  1.
         11   -1    0    0    0    0 -0.00000000000E+00 -0.00000000000E+00 -0.45593999997E+02  0.45594000000E+02  0.51100000000E-03 0. -1.
    9900012    2    1    2    0    0 -0.10387748230E+01  0.41587525921E+00  0.37565830923E+00  0.90007693036E+02  0.89999953784E+02 0.  0.
        -12    1    1    2    0    0  0.10387748230E+01 -0.41587525921E+00 -0.37565830923E+00  0.11803069641E+01  0.00000000000E+00 0.  1.
         11    1    3    3    0    0  0.69246259208E+01 -0.28497614412E+02  0.29182486344E+02  0.41372478543E+02  0.51100000000E-03 0. -1.
        -11    1    3    3    0    0 -0.49782494343E+01  0.77364471614E+01  0.35403013436E+01  0.98574497704E+01  0.51100000000E-03 0.  1.
        -12    1    3    3    0    0 -0.29851513095E+01  0.21177042510E+02 -0.32347129379E+02  0.38777764722E+02  0.00000000000E+00 0.  1.
</event>
<event>
 7    1  0.4359248E-015  0.9000790E+02  0.7816164E-02  0.1186339E+00
        -11   -1    0    0    0    0  0.00000000000E+00  0.00000000000E+00  0.45593999997E+02  0.45594000000E+02  0.51100000000E-03 0. -1.
         11   -1    0    0    0    0 -0.00000000000E+00 -0.00000000000E+00 -0.45593999997E+02  0.45594000000E+02  0.51100000000E-03 0.  1.
    9900012    2    1    2    0    0  0.43464825420E+00 -0.10889005764E+01 -0.13425177276E+00  0.90007895298E+02  0.90000158715E+02 0.  0.
        -12    1    1    2    0    0 -0.43464825420E+00  0.10889005764E+01  0.13425177276E+00  0.11801047024E+01  0.00000000000E+00 0.  1.
         11    1    3    3    0    0 -0.16212621921E+02  0.33838124864E+02  0.29130410269E+01  0.37634473719E+02  0.51100000000E-03 0. -1.
        -11    1    3    3    0    0 -0.71640410016E+00  0.64943018974E+01 -0.35932664281E+01  0.74565914367E+01  0.51100000000E-03 0.  1.
        -12    1    3    3    0    0  0.17363674275E+02 -0.41421327338E+02  0.54597362847E+00  0.44916830141E+02  0.00000000000E+00 0.  1.
</event>
<event>
 7    1  0.4359248E-015  0.9000779E+02  0.7816164E-02  0.1186339E+00
        -11   -1    0    0    0    0  0.00000000000E+00  0.00000000000E+00  0.45593999997E+02  0.45594000000E+02  0.51100000000E-03 0. -1.
         11   -1    0    0    0    0 -0.00000000000E+00 -0.00000000000E+00 -0.45593999997E+02  0.45594000000E+02  0.51100000000E-03 0.  1.
    9900012    2    1    2    0    0 -0.15424001681E+00 -0.71504218929E+00  0.92618381672E+00  0.90007791638E+02  0.90000053688E+02 0.  0.
        -12    1    1    2    0    0  0.15424001681E+00  0.71504218929E+00 -0.92618381672E+00  0.11802083619E+01  0.00000000000E+00 0.  1.
         11    1    3    3    0    0 -0.86413693227E+01  0.53520542323E+01  0.36058177687E+01  0.10785159726E+02  0.51100000000E-03 0. -1.
        -11    1    3    3    0    0 -0.33553090300E+02 -0.44501049614E+00 -0.12284949317E+02  0.35734127707E+02  0.51100000000E-03 0.  1.
         12    1    3    3    0    0  0.42040219606E+02 -0.56220859254E+01  0.96053153649E+01  0.43488504204E+02  0.00000000000E+00 0. -1.
</event>
<event>
 7    1  0.4702385E-015  0.9000775E+02  0.7816164E-02  0.1186339E+00
        -11   -1    0    0    0    0  0.00000000000E+00  0.00000000000E+00  0.45593999997E+02  0.45594000000E+02  0.51100000000E-03 0. -1.
         11   -1    0    0    0    0 -0.00000000000E+00 -0.00000000000E+00 -0.45593999997E+02  0.45594000000E+02  0.51100000000E-03 0.  1.
    9900012    2    1    2    0    0  0.41628276435E+00 -0.87873656068E-01  0.11009000048E+01  0.90007748357E+02  0.90000009836E+02 0.  0.
        -12    1    1    2    0    0 -0.41628276435E+00  0.87873656068E-01 -0.11009000048E+01  0.11802516426E+01  0.00000000000E+00 0.  1.
         11    1    3    3    0    0  0.28188995808E+02  0.12236011719E+02  0.24711324581E+02  0.39433349215E+02  0.51100000000E-03 0. -1.
        -11    1    3    3    0    0 -0.47579877568E+01  0.78355909106E+01  0.33849497074E+01  0.97720426316E+01  0.51100000000E-03 0.  1.
        -12    1    3    3    0    0 -0.23014725287E+02 -0.20159476286E+02 -0.26995374283E+02  0.40802356511E+02  0.00000000000E+00 0.  1.
</event>
<event>
 7    1  0.4359248E-015  0.9000761E+02  0.7816164E-02  0.1186339E+00
        -11   -1    0    0    0    0  0.00000000000E+00  0.00000000000E+00  0.45593999997E+02  0.45594000000E+02  0.51100000000E-03 0.  1.
         11   -1    0    0    0    0 -0.00000000000E+00 -0.00000000000E+00 -0.45593999997E+02  0.45594000000E+02  0.51100000000E-03 0. -1.
    9900012    2    1    2    0    0  0.11128717071E+00  0.10635048293E+01  0.49990406366E+00  0.90007605393E+02  0.89999864984E+02 0.  0.
        -12    1    1    2    0    0 -0.11128717071E+00 -0.10635048293E+01 -0.49990406366E+00  0.11803946074E+01  0.00000000000E+00 0.  1.
         11    1    3    3    0    0  0.37110226590E+01  0.85376296618E+01  0.30481171272E+01  0.97956024674E+01  0.51100000000E-03 0. -1.
        -11    1    3    3    0    0 -0.20367903424E+02 -0.27606761028E+01  0.33997420369E+02  0.39727791462E+02  0.51100000000E-03 0.  1.
         12    1    3    3    0    0  0.16768167935E+02 -0.47134487297E+01 -0.36545633433E+02  0.40484211463E+02  0.00000000000E+00 0. -1.
</event>
<event>
 7    1  0.4359248E-015  0.9000779E+02  0.7816164E-02  0.1186339E+00
        -11   -1    0    0    0    0  0.00000000000E+00  0.00000000000E+00  0.45593999997E+02  0.45594000000E+02  0.51100000000E-03 0.  1.
         11   -1    0    0    0    0 -0.00000000000E+00 -0.00000000000E+00 -0.45593999997E+02  0.45594000000E+02  0.51100000000E-03 0. -1.
    9900012    2    1    2    0    0  0.53837097161E+00 -0.45991463460E+00 -0.94421126106E+00  0.90007788290E+02  0.90000050296E+02 0.  0.
        -12    1    1    2    0    0 -0.53837097161E+00  0.45991463460E+00  0.94421126106E+00  0.11802117097E+01  0.00000000000E+00 0.  1.
         11    1    3    3    0    0  0.85605838347E+01  0.87265878128E+01 -0.36153615871E+02  0.38164392715E+02  0.51100000000E-03 0. -1.
        -11    1    3    3    0    0 -0.69335123330E+01  0.66737037095E+01 -0.33064096514E+01  0.10175669979E+02  0.51100000000E-03 0.  1.
        -12    1    3    3    0    0 -0.10887005301E+01 -0.15860206157E+02  0.38515814262E+02  0.41667725597E+02  0.00000000000E+00 0.  1.
</event>
<event>
 7    1  0.4359248E-015  0.9000766E+02  0.7816164E-02  0.1186339E+00
        -11   -1    0    0    0    0  0.00000000000E+00  0.00000000000E+00  0.45593999997E+02  0.45594000000E+02  0.51100000000E-03 0.  1.
         11   -1    0    0    0    0 -0.00000000000E+00 -0.00000000000E+00 -0.45593999997E+02  0.45594000000E+02  0.51100000000E-03 0. -1.
    9900012    2    1    2    0    0 -0.10845091733E+00  0.87633987998E-01 -0.11720734458E+01  0.90007662133E+02  0.89999922473E+02 0.  0.
        -12    1    1    2    0    0  0.10845091733E+00 -0.87633987998E-01  0.11720734458E+01  0.11803378668E+01  0.00000000000E+00 0.  1.
         11    1    3    3    0    0 -0.72490889006E+01  0.80506388042E+01 -0.22979346946E+02  0.25404969226E+02  0.51100000000E-03 0. -1.
        -11    1    3    3    0    0 -0.65374531241E+00 -0.21605399887E+01 -0.20789487978E+02  0.20911674409E+02  0.51100000000E-03 0.  1.
        -12    1    3    3    0    0  0.77943832957E+01 -0.58024648275E+01  0.42596761477E+02  0.43691018498E+02  0.00000000000E+00 0.  1.
</event>
<event>
 7    1  0.4359248E-015  0.9000760E+02  0.7816164E-02  0.1186339E+00
        -11   -1    0    0    0    0  0.00000000000E+00  0.00000000000E+00  0.45593999997E+02  0.45594000000E+02  0.51100000000E-03 0. -1.
         11   -1    0    0    0    0 -0.00000000000E+00 -0.00000000000E+00 -0.45593999997E+02  0.45594000000E+02  0.51100000000E-03 0.  1.
    9900012    2    1    2    0    0 -0.78416979714E+00  0.21548478636E+00  0.85555622828E+00  0.90007604971E+02  0.89999864557E+02 0.  0.
        -12    1    1    2    0    0  0.78416979714E+00 -0.21548478636E+00 -0.85555622828E+00  0.11803950286E+01  0.00000000000E+00 0.  1.
         11    1    3    3    0    0 -0.13703469862E+01  0.90439390847E+01  0.51805957515E+01  0.10512338352E+02  0.51100000000E-03 0. -1.
        -11    1    3    3    0    0 -0.30078686475E+02 -0.26727230696E+02  0.95814263289E+01  0.41362736509E+02  0.51100000000E-03 0.  1.
         12    1    3    3    0    0  0.30664863664E+02  0.17898776398E+02 -0.13906465852E+02  0.38132530110E+02  0.00000000000E+00 0. -1.
</event>
<event>
 7    1  0.4359248E-015  0.9000764E+02  0.7816164E-02  0.1186339E+00
        -11   -1    0    0    0    0  0.00000000000E+00  0.00000000000E+00  0.45593999997E+02  0.45594000000E+02  0.51100000000E-03 0.  1.
         11   -1    0    0    0    0 -0.00000000000E+00 -0.00000000000E+00 -0.45593999997E+02  0.45594000000E+02  0.51100000000E-03 0. -1.
    9900012    2    1    2    0    0  0.37363431077E+00  0.22847573089E-01 -0.11194297110E+01  0.90007640950E+02  0.89999901010E+02 0.  0.
        -12    1    1    2    0    0 -0.37363431077E+00 -0.22847573089E-01  0.11194297110E+01  0.11803590504E+01  0.00000000000E+00 0.  1.
         11    1    3    3    0    0  0.81978611342E+00 -0.48201130043E+01  0.80554324421E+01  0.94231380514E+01  0.51100000000E-03 0. -1.
        -11    1    3    3    0    0  0.95692538105E+00 -0.18383184619E+02  0.29896543924E+02  0.35109265470E+02  0.51100000000E-03 0.  1.
         12    1    3    3    0    0 -0.14030771837E+01  0.23226145197E+02 -0.39071406078E+02  0.45475237428E+02  0.00000000000E+00 0. -1.
</event>
<event>
 7    1  0.4359248E-015  0.9000775E+02  0.7816164E-02  0.1186339E+00
        -11   -1    0    0    0    0  0.00000000000E+00  0.00000000000E+00  0.45593999997E+02  0.45594000000E+02  0.51100000000E-03 0.  1.
         11   -1    0    0    0    0 -0.00000000000E+00 -0.00000000000E+00 -0.45593999997E+02  0.45594000000E+02  0.51100000000E-03 0. -1.
    9900012    2    1    2    0    0 -0.62761518619E+00  0.98746707838E+00  0.15494060012E+00  0.90007746365E+02  0.90000007817E+02 0.  0.
        -12    1    1    2    0    0  0.62761518619E+00 -0.98746707838E+00 -0.15494060012E+00  0.11802536348E+01  0.00000000000E+00 0.  1.
         11    1    3    3    0    0  0.11345260849E+01 -0.94276642520E+01  0.24148681584E+01  0.97979381081E+01  0.51100000000E-03 0. -1.
        -11    1    3    3    0    0 -0.17317858190E+02 -0.27184245847E+02  0.15556978115E+02  0.35789817028E+02  0.51100000000E-03 0.  1.
         12    1    3    3    0    0  0.15555716919E+02  0.37599377178E+02 -0.17816905674E+02  0.44419991229E+02  0.00000000000E+00 0. -1.
</event>
<event>
 7    1  0.4359248E-015  0.9000774E+02  0.7816164E-02  0.1186339E+00
        -11   -1    0    0    0    0  0.00000000000E+00  0.00000000000E+00  0.45593999997E+02  0.45594000000E+02  0.51100000000E-03 0.  1.
         11   -1    0    0    0    0 -0.00000000000E+00 -0.00000000000E+00 -0.45593999997E+02  0.45594000000E+02  0.51100000000E-03 0. -1.
    9900012    2    1    2    0    0  0.11057431674E+01 -0.40101796829E+00 -0.97681061895E-01  0.90007735219E+02  0.89999996524E+02 0.  0.
        -12    1    1    2    0    0 -0.11057431674E+01  0.40101796829E+00  0.97681061895E-01  0.11802647809E+01  0.00000000000E+00 0.  1.
         11    1    3    3    0    0 -0.48260491241E+00  0.35295153470E+02 -0.12867293178E+02  0.37570573591E+02  0.51100000000E-03 0. -1.
        -11    1    3    3    0    0  0.54487087497E+01  0.61474779593E+01  0.52481821872E+01  0.97479910151E+01  0.51100000000E-03 0.  1.
        -12    1    3    3    0    0 -0.38603606699E+01 -0.41843649398E+02  0.75214299292E+01  0.42689170613E+02  0.00000000000E+00 0.  1.
</event>
<event>
 7    1  0.4359248E-015  0.9000771E+02  0.7816164E-02  0.1186339E+00
        -11   -1    0    0    0    0  0.00000000000E+00  0.00000000000E+00  0.45593999997E+02  0.45594000000E+02  0.51100000000E-03 0.  1.
         11   -1    0    0    0    0 -0.00000000000E+00 -0.00000000000E+00 -0.45593999997E+02  0.45594000000E+02  0.51100000000E-03 0. -1.
    9900012    2    1    2    0    0 -0.87543442537E+00 -0.78247195029E+00 -0.12011306080E+00  0.90007714046E+02  0.89999975071E+02 0.  0.
        -12    1    1    2    0    0  0.87543442537E+00  0.78247195029E+00  0.12011306080E+00  0.11802859541E+01  0.00000000000E+00 0.  1.
         11    1    3    3    0    0 -0.10868422516E+02 -0.82714936245E+01 -0.56524609131E+01  0.14781425148E+02  0.51100000000E-03 0. -1.
        -11    1    3    3    0    0 -0.54079716585E+01  0.38174369813E+02  0.11809945241E+02  0.40323733396E+02  0.51100000000E-03 0.  1.
         12    1    3    3    0    0  0.15400959749E+02 -0.30685348139E+02 -0.62775973883E+01  0.34902555502E+02  0.00000000000E+00 0. -1.
</event>
<event>
 7    1  0.4359248E-015  0.9000778E+02  0.7816164E-02  0.1186339E+00
        -11   -1    0    0    0    0  0.00000000000E+00  0.00000000000E+00  0.45593999997E+02  0.45594000000E+02  0.51100000000E-03 0.  1.
         11   -1    0    0    0    0 -0.00000000000E+00 -0.00000000000E+00 -0.45593999997E+02  0.45594000000E+02  0.51100000000E-03 0. -1.
    9900012    2    1    2    0    0 -0.50443902007E+00  0.49993357942E+00 -0.94262057793E+00  0.90007777198E+02  0.90000039057E+02 0.  0.
        -12    1    1    2    0    0  0.50443902007E+00 -0.49993357942E+00  0.94262057793E+00  0.11802228022E+01  0.00000000000E+00 0.  1.
         11    1    3    3    0    0  0.28484022735E+01  0.96759929540E+01 -0.82553963219E+01  0.13034178296E+02  0.51100000000E-03 0. -1.
        -11    1    3    3    0    0 -0.10429218184E+02  0.32594030379E+02  0.20587530432E+01  0.34283784397E+02  0.51100000000E-03 0.  1.
         12    1    3    3    0    0  0.70763768902E+01 -0.41770089753E+02  0.52540227008E+01  0.42689814505E+02  0.00000000000E+00 0. -1.
</event>
<event>
 7    1  0.4359248E-015  0.9000756E+02  0.7816164E-02  0.1186339E+00
        -11   -1    0    0    0    0  0.00000000000E+00  0.00000000000E+00  0.45593999997E+02  0.45594000000E+02  0.51100000000E-03 0.  1.
         11   -1    0    0    0    0 -0.00000000000E+00 -0.00000000000E+00 -0.45593999997E+02  0.45594000000E+02  0.51100000000E-03 0. -1.
    9900012    2    1    2    0    0  0.37960407387E+00  0.10847868228E+01 -0.26938054416E+00  0.90007564664E+02  0.89999823718E+02 0.  0.
        -12    1    1    2    0    0 -0.37960407387E+00 -0.10847868228E+01  0.26938054416E+00  0.11804353355E+01  0.00000000000E+00 0.  1.
         11    1    3    3    0    0  0.61429163356E+01  0.29379504215E+01  0.88724236792E+01  0.11184224425E+02  0.51100000000E-03 0. -1.
        -11    1    3    3    0    0  0.25367044327E+02 -0.15499259213E+02  0.18498958632E+02  0.35013218143E+02  0.51100000000E-03 0.  1.
         12    1    3    3    0    0 -0.31130356589E+02  0.13646095614E+02 -0.27640762855E+02  0.43810122096E+02  0.00000000000E+00 0. -1.
</event>
<event>
 7    1  0.4359248E-015  0.9000774E+02  0.7816164E-02  0.1186339E+00
        -11   -1    0    0    0    0  0.00000000000E+00  0.00000000000E+00  0.45593999997E+02  0.45594000000E+02  0.51100000000E-03 0.  1.
         11   -1    0    0    0    0 -0.00000000000E+00 -0.00000000000E+00 -0.45593999997E+02  0.45594000000E+02  0.51100000000E-03 0. -1.
    9900012    2    1    2    0    0  0.42417719394E+00 -0.59944546028E+00 -0.92398615198E+00  0.90007740893E+02  0.90000002272E+02 0.  0.
        -12    1    1    2    0    0 -0.42417719394E+00  0.59944546028E+00  0.92398615198E+00  0.11802591075E+01  0.00000000000E+00 0.  1.
         11    1    3    3    0    0  0.41944409417E+00  0.12399141749E+02 -0.58179834962E+01  0.13702685199E+02  0.51100000000E-03 0. -1.
        -11    1    3    3    0    0  0.31280359040E+02 -0.29906645140E+01  0.22874279992E+02  0.38866921943E+02  0.51100000000E-03 0.  1.
         12    1    3    3    0    0 -0.31275625940E+02 -0.10007922695E+02 -0.17980282648E+02  0.37438133750E+02  0.00000000000E+00 0. -1.
</event>
<event>
 7    1  0.4359248E-015  0.9000775E+02  0.7816164E-02  0.1186339E+00
        -11   -1    0    0    0    0  0.00000000000E+00  0.00000000000E+00  0.45593999997E+02  0.45594000000E+02  0.51100000000E-03 0. -1.
         11   -1    0    0    0    0 -0.00000000000E+00 -0.00000000000E+00 -0.45593999997E+02  0.45594000000E+02  0.51100000000E-03 0.  1.
    9900012    2    1    2    0    0 -0.57926981055E+00 -0.89204004045E+00  0.51157627842E+00  0.90007746114E+02  0.90000007563E+02 0.  0.
        -12    1    1    2    0    0  0.57926981055E+00  0.89204004045E+00 -0.51157627842E+00  0.11802538862E+01  0.00000000000E+00 0.  1.
         11    1    3    3    0    0  0.20919385946E+02  0.27700661914E+02  0.76829715957E+01  0.35552432148E+02  0.51100000000E-03 0. -1.
        -11    1    3    3    0    0  0.53730398209E+01  0.68643743480E+01 -0.46856391929E+01  0.98966866684E+01  0.51100000000E-03 0.  1.
        -12    1    3    3    0    0 -0.26871695577E+02 -0.35457076303E+02 -0.24857561244E+01  0.44558627297E+02  0.00000000000E+00 0.  1.
</event>
<event>
 7    1  0.4359248E-015  0.9000816E+02  0.7816164E-02  0.1186338E+00
        -11   -1    0    0    0    0  0.00000000000E+00  0.00000000000E+00  0.45593999997E+02  0.45594000000E+02  0.51100000000E-03 0.  1.
         11   -1    0    0    0    0 -0.00000000000E+00 -0.00000000000E+00 -0.45593999997E+02  0.45594000000E+02  0.51100000000E-03 0. -1.
    9900012    2    1    2    0    0  0.97745597954E+00 -0.64558564184E+00 -0.14082114611E+00  0.90008156109E+02  0.90000422968E+02 0.  0.
        -12    1    1    2    0    0 -0.97745597954E+00  0.64558564184E+00  0.14082114611E+00  0.11798438914E+01  0.00000000000E+00 0.  1.
         11    1    3    3    0    0 -0.92942714066E+01 -0.12800213550E+01 -0.69693325741E+01  0.11687323579E+02  0.51100000000E-03 0. -1.
        -11    1    3    3    0    0 -0.24045431106E+02 -0.89010122465E+01 -0.20983021418E+02  0.33131525232E+02  0.51100000000E-03 0.  1.
         12    1    3    3    0    0  0.34317158492E+02  0.95354479597E+01  0.27811532846E+02  0.45189307298E+02  0.00000000000E+00 0. -1.
</event>
<event>
 7    1  0.4359248E-015  0.9000753E+02  0.7816164E-02  0.1186339E+00
        -11   -1    0    0    0    0  0.00000000000E+00  0.00000000000E+00  0.45593999997E+02  0.45594000000E+02  0.51100000000E-03 0.  1.
         11   -1    0    0    0    0 -0.00000000000E+00 -0.00000000000E+00 -0.45593999997E+02  0.45594000000E+02  0.51100000000E-03 0. -1.
    9900012    2    1    2    0    0  0.61568725138E+00  0.96533321928E+00  0.28735246715E+00  0.90007529562E+02  0.89999788151E+02 0.  0.
        -12    1    1    2    0    0 -0.61568725138E+00 -0.96533321928E+00 -0.28735246715E+00  0.11804704385E+01  0.00000000000E+00 0.  1.
         11    1    3    3    0    0  0.16326456724E+01 -0.13207001970E+02 -0.34969631100E+02  0.37416113273E+02  0.51100000000E-03 0. -1.
        -11    1    3    3    0    0 -0.14727266088E+02  0.68089850978E+01  0.26218481575E+01  0.16435593464E+02  0.51100000000E-03 0.  1.
        -12    1    3    3    0    0  0.13710307667E+02  0.73633500915E+01  0.32635135410E+02  0.36155822824E+02  0.00000000000E+00 0.  1.
</event>
<event>
 7    1  0.4359248E-015  0.9000790E+02  0.7816164E-02  0.1186339E+00
        -11   -1    0    0    0    0  0.00000000000E+00  0.00000000000E+00  0.45593999997E+02  0.45594000000E+02  0.51100000000E-03 0.  1.
         11   -1    0    0    0    0 -0.00000000000E+00 -0.00000000000E+00 -0.45593999997E+02  0.45594000000E+02  0.51100000000E-03 0. -1.
    9900012    2    1    2    0    0 -0.38722377338E+00 -0.10176353170E+00 -0.11101115576E+01  0.90007895879E+02  0.90000159304E+02 0.  0.
        -12    1    1    2    0    0  0.38722377338E+00  0.10176353170E+00  0.11101115576E+01  0.11801041214E+01  0.00000000000E+00 0.  1.
         11    1    3    3    0    0  0.22703101753E+02  0.17961243133E+02 -0.24219641102E+02  0.37744245912E+02  0.51100000000E-03 0. -1.
        -11    1    3    3    0    0 -0.50962564367E+00 -0.33582921229E+01 -0.94253344245E+01  0.10018721154E+02  0.51100000000E-03 0.  1.
        -12    1    3    3    0    0 -0.22580699883E+02 -0.14704714542E+02  0.32534863969E+02  0.42244928813E+02  0.00000000000E+00 0.  1.
</event>
<event>
 7    1  0.4359248E-015  0.9000688E+02  0.7816164E-02  0.1186341E+00
        -11   -1    0    0    0    0  0.00000000000E+00  0.00000000000E+00  0.45593999997E+02  0.45594000000E+02  0.51100000000E-03 0.  1.
         11   -1    0    0    0    0 -0.00000000000E+00 -0.00000000000E+00 -0.45593999997E+02  0.45594000000E+02  0.51100000000E-03 0. -1.
    9900012    2    1    2    0    0 -0.10443535417E+01  0.20905459832E+00 -0.51055763164E+00  0.90006878821E+02  0.89999128817E+02 0.  0.
        -12    1    1    2    0    0  0.10443535417E+01 -0.20905459832E+00  0.51055763164E+00  0.11811211794E+01  0.00000000000E+00 0.  1.
         11    1    3    3    0    0 -0.29066720389E+02 -0.31950553542E+02 -0.51086173784E+00  0.43196910604E+02  0.51100000000E-03 0. -1.
        -11    1    3    3    0    0  0.18066398014E+02  0.63724164350E+01 -0.48250921792E+00  0.19163382891E+02  0.51100000000E-03 0.  1.
        -12    1    3    3    0    0  0.99559688331E+01  0.25787191705E+02  0.48281332413E+00  0.27646585325E+02  0.00000000000E+00 0.  1.
</event>
<event>
 7    1  0.4359248E-015  0.9000776E+02  0.7816164E-02  0.1186339E+00
        -11   -1    0    0    0    0  0.00000000000E+00  0.00000000000E+00  0.45593999997E+02  0.45594000000E+02  0.51100000000E-03 0.  1.
         11   -1    0    0    0    0 -0.00000000000E+00 -0.00000000000E+00 -0.45593999997E+02  0.45594000000E+02  0.51100000000E-03 0. -1.
    9900012    2    1    2    0    0  0.56733912101E+00 -0.10348470340E+01 -0.13510811069E-01  0.90007760785E+02  0.90000022428E+02 0.  0.
        -12    1    1    2    0    0 -0.56733912101E+00  0.10348470340E+01  0.13510811069E-01  0.11802392148E+01  0.00000000000E+00 0.  1.
         11    1    3    3    0    0 -0.17831102617E+02 -0.16635989495E+02 -0.25567025990E+02  0.35332381539E+02  0.51100000000E-03 0. -1.
        -11    1    3    3    0    0  0.51044836699E+01 -0.28551797570E+00 -0.11297886888E+02  0.12400787170E+02  0.51100000000E-03 0.  1.
        -12    1    3    3    0    0  0.13293958068E+02  0.15886660437E+02  0.36851402066E+02  0.42274592076E+02  0.00000000000E+00 0.  1.
</event>
<event>
 7    1  0.4359248E-015  0.9000774E+02  0.7816164E-02  0.1186339E+00
        -11   -1    0    0    0    0  0.00000000000E+00  0.00000000000E+00  0.45593999997E+02  0.45594000000E+02  0.51100000000E-03 0. -1.
         11   -1    0    0    0    0 -0.00000000000E+00 -0.00000000000E+00 -0.45593999997E+02  0.45594000000E+02  0.51100000000E-03 0.  1.
    9900012    2    1    2    0    0 -0.75392840045E+00  0.29678727508E+00  0.85820405721E+00  0.90007743704E+02  0.90000005121E+02 0.  0.
        -12    1    1    2    0    0  0.75392840045E+00 -0.29678727508E+00 -0.85820405721E+00  0.11802562957E+01  0.00000000000E+00 0.  1.
         11    1    3    3    0    0  0.25740981203E+02  0.62359433584E+01  0.14141976626E+02  0.30024666626E+02  0.51100000000E-03 0. -1.
        -11    1    3    3    0    0  0.10495836652E+02 -0.39546298215E+00  0.11140436697E+02  0.15311051827E+02  0.51100000000E-03 0.  1.
        -12    1    3    3    0    0 -0.36990746256E+02 -0.55436931012E+01 -0.24424209266E+02  0.44672025251E+02  0.00000000000E+00 0.  1.
</event>
<event>
 7    1  0.4359248E-015  0.9000776E+02  0.7816164E-02  0.1186339E+00
        -11   -1    0    0    0    0  0.00000000000E+00  0.00000000000E+00  0.45593999997E+02  0.45594000000E+02  0.51100000000E-03 0. -1.
         11   -1    0    0    0    0 -0.00000000000E+00 -0.00000000000E+00 -0.45593999997E+02  0.45594000000E+02  0.51100000000E-03 0.  1.
    9900012    2    1    2    0    0  0.99648594054E+00  0.27450844256E-01 -0.63184506986E+00  0.90007760206E+02  0.90000021841E+02 0.  0.
        -12    1    1    2    0    0 -0.99648594054E+00 -0.27450844256E-01  0.63184506986E+00  0.11802397938E+01  0.00000000000E+00 0.  1.
         11    1    3    3    0    0  0.27443848764E+02 -0.24416476054E+02 -0.14826557565E+02  0.39612573097E+02  0.51100000000E-03 0. -1.
        -11    1    3    3    0    0 -0.79239681492E+01 -0.18615533127E+01 -0.79182413561E+01  0.11355756179E+02  0.51100000000E-03 0.  1.
        -12    1    3    3    0    0 -0.18523394674E+02  0.26305480210E+02  0.22112953851E+02  0.39039430930E+02  0.00000000000E+00 0.  1.
</event>
<event>
 7    1  0.4359248E-015  0.9000774E+02  0.7816164E-02  0.1186339E+00
        -11   -1    0    0    0    0  0.00000000000E+00  0.00000000000E+00  0.45593999997E+02  0.45594000000E+02  0.51100000000E-03 0.  1.
         11   -1    0    0    0    0 -0.00000000000E+00 -0.00000000000E+00 -0.45593999997E+02  0.45594000000E+02  0.51100000000E-03 0. -1.
    9900012    2    1    2    0    0 -0.64811712628E+00  0.95708178186E+00  0.23865774550E+00  0.90007737798E+02  0.89999999137E+02 0.  0.
        -12    1    1    2    0    0  0.64811712628E+00 -0.95708178186E+00 -0.23865774550E+00  0.11802622022E+01  0.00000000000E+00 0.  1.
         11    1    3    3    0    0 -0.92575901805E+00 -0.67372446089E+01 -0.67155332536E+01  0.95575039535E+01  0.51100000000E-03 0. -1.
        -11    1    3    3    0    0 -0.20263958965E+02  0.28527789381E+01  0.37853854332E+02  0.43031159276E+02  0.51100000000E-03 0.  1.
         12    1    3    3    0    0  0.20541600857E+02  0.48415474526E+01 -0.30899663332E+02  0.37419074568E+02  0.00000000000E+00 0. -1.
</event>
<event>
 7    1  0.4359248E-015  0.9000775E+02  0.7816164E-02  0.1186339E+00
        -11   -1    0    0    0    0  0.00000000000E+00  0.00000000000E+00  0.45593999997E+02  0.45594000000E+02  0.51100000000E-03 0. -1.
         11   -1    0    0    0    0 -0.00000000000E+00 -0.00000000000E+00 -0.45593999997E+02  0.45594000000E+02  0.51100000000E-03 0.  1.
    9900012    2    1    2    0    0 -0.11513404644E+00  0.50710656098E+00  0.10595167125E+01  0.90007750629E+02  0.90000012138E+02 0.  0.
        -12    1    1    2    0    0  0.11513404644E+00 -0.50710656098E+00 -0.10595167125E+01  0.11802493706E+01  0.00000000000E+00 0.  1.
         11    1    3    3    0    0 -0.55687951878E+00 -0.10283216897E+02  0.25332593564E+01  0.10605284898E+02  0.51100000000E-03 0. -1.
        -11    1    3    3    0    0  0.39118694174E+02  0.22706250123E+01 -0.56050334570E+01  0.39583385051E+02  0.51100000000E-03 0.  1.
         12    1    3    3    0    0 -0.38676948701E+02  0.85196984453E+01  0.41312908131E+01  0.39819080680E+02  0.00000000000E+00 0. -1.
</event>
<event>
 7    1  0.4359248E-015  0.9000779E+02  0.7816164E-02  0.1186339E+00
        -11   -1    0    0    0    0  0.00000000000E+00  0.00000000000E+00  0.45593999997E+02  0.45594000000E+02  0.51100000000E-03 0. -1.
         11   -1    0    0    0    0 -0.00000000000E+00 -0.00000000000E+00 -0.45593999997E+02  0.45594000000E+02  0.51100000000E-03 0.  1.
    9900012    2    1    2    0    0  0.14841653424E+00 -0.29121541056E+00  0.11340507119E+01  0.90007786079E+02  0.90000048055E+02 0.  0.
        -12    1    1    2    0    0 -0.14841653424E+00  0.29121541056E+00 -0.11340507119E+01  0.11802139214E+01  0.00000000000E+00 0.  1.
         11    1    3    3    0    0  0.36551466667E+02 -0.25185725321E+01  0.46784511664E+01  0.36935630883E+02  0.51100000000E-03 0. -1.
        -11    1    3    3    0    0  0.61574448300E+01  0.74015362189E+01 -0.33616088834E+01  0.10197905657E+02  0.51100000000E-03 0.  1.
        -12    1    3    3    0    0 -0.42560494963E+02 -0.51741790973E+01 -0.18279157106E+00  0.42874249540E+02  0.00000000000E+00 0.  1.
</event>
<event>
 7    1  0.4359248E-015  0.9000775E+02  0.7816164E-02  0.1186339E+00
        -11   -1    0    0    0    0  0.00000000000E+00  0.00000000000E+00  0.45593999997E+02  0.45594000000E+02  0.51100000000E-03 0. -1.
         11   -1    0    0    0    0 -0.00000000000E+00 -0.00000000000E+00 -0.45593999997E+02  0.45594000000E+02  0.51100000000E-03 0.  1.
    9900012    2    1    2    0    0 -0.86792586301E+00 -0.77913162412E+00 -0.18071274658E+00  0.90007746431E+02  0.90000007883E+02 0.  0.
        -12    1    1    2    0    0  0.86792586301E+00  0.77913162412E+00  0.18071274658E+00  0.11802535694E+01  0.00000000000E+00 0.  1.
         11    1    3    3    0    0 -0.19593886679E+02  0.30615150578E+02  0.66922950794E+01  0.36959364900E+02  0.51100000000E-03 0. -1.
        -11    1    3    3    0    0 -0.83974339888E+01 -0.32392509906E+01  0.71708630878E+01  0.11507863497E+02  0.51100000000E-03 0.  1.
        -12    1    3    3    0    0  0.27123394805E+02 -0.28155031211E+02 -0.14043870914E+02  0.41540518034E+02  0.00000000000E+00 0.  1.
</event>
<event>
 7    1  0.4359248E-015  0.9000742E+02  0.7816164E-02  0.1186340E+00
        -11   -1    0    0    0    0  0.00000000000E+00  0.00000000000E+00  0.45593999997E+02  0.45594000000E+02  0.51100000000E-03 0.  1.
         11   -1    0    0    0    0 -0.00000000000E+00 -0.00000000000E+00 -0.45593999997E+02  0.45594000000E+02  0.51100000000E-03 0. -1.
    9900012    2    1    2    0    0  0.25261369392E+00 -0.89668409089E+00 -0.72519728771E+00  0.90007420844E+02  0.89999677999E+02 0.  0.
        -12    1    1    2    0    0 -0.25261369392E+00  0.89668409089E+00  0.72519728771E+00  0.11805791559E+01  0.00000000000E+00 0.  1.
         11    1    3    3    0    0 -0.23705269687E+02  0.69631080261E+01 -0.18434088953E+02  0.30825968275E+02  0.51100000000E-03 0. -1.
        -11    1    3    3    0    0 -0.81668880735E+01  0.10857651282E+02 -0.62454693269E+01  0.14953011053E+02  0.51100000000E-03 0.  1.
        -12    1    3    3    0    0  0.32124771454E+02 -0.18717443399E+02  0.23954360993E+02  0.44228441516E+02  0.00000000000E+00 0.  1.
</event>
<event>
 7    1  0.4359248E-015  0.9000773E+02  0.7816164E-02  0.1186339E+00
        -11   -1    0    0    0    0  0.00000000000E+00  0.00000000000E+00  0.45593999997E+02  0.45594000000E+02  0.51100000000E-03 0. -1.
         11   -1    0    0    0    0 -0.00000000000E+00 -0.00000000000E+00 -0.45593999997E+02  0.45594000000E+02  0.51100000000E-03 0.  1.
    9900012    2    1    2    0    0 -0.88149375945E+00  0.12862794973E-01  0.78475545608E+00  0.90007729766E+02  0.89999990999E+02 0.  0.
        -12    1    1    2    0    0  0.88149375945E+00 -0.12862794973E-01 -0.78475545608E+00  0.11802702340E+01  0.00000000000E+00 0.  1.
         11    1    3    3    0    0 -0.21334957359E+02  0.29936249557E+02  0.15438869558E+02  0.39871269562E+02  0.51100000000E-03 0. -1.
        -11    1    3    3    0    0  0.12086105538E+02 -0.38095065558E+01  0.76386596745E+01  0.14796466104E+02  0.51100000000E-03 0.  1.
        -12    1    3    3    0    0  0.83673580608E+01 -0.26113880206E+02 -0.22292773776E+02  0.35339994100E+02  0.00000000000E+00 0.  1.
</event>
<event>
 7    1  0.4359248E-015  0.9000800E+02  0.7816164E-02  0.1186339E+00
        -11   -1    0    0    0    0  0.00000000000E+00  0.00000000000E+00  0.45593999997E+02  0.45594000000E+02  0.51100000000E-03 0.  1.
         11   -1    0    0    0    0 -0.00000000000E+00 -0.00000000000E+00 -0.45593999997E+02  0.45594000000E+02  0.51100000000E-03 0. -1.
    9900012    2    1    2    0    0 -0.41815215767E+00 -0.99728151659E-01 -0.10989080951E+01  0.90008001723E+02  0.90000266546E+02 0.  0.
        -12    1    1    2    0    0  0.41815215767E+00  0.99728151659E-01  0.10989080951E+01  0.11799982765E+01  0.00000000000E+00 0.  1.
         11    1    3    3    0    0 -0.97651965370E+01  0.14528901627E+02 -0.30470323815E+02  0.35140982905E+02  0.51100000000E-03 0. -1.
        -11    1    3    3    0    0 -0.18115548216E+01  0.10534927577E+02 -0.41720127568E+01  0.11474847303E+02  0.51100000000E-03 0.  1.
        -12    1    3    3    0    0  0.11158599201E+02 -0.25163557355E+02  0.33543428477E+02  0.43392171516E+02  0.00000000000E+00 0.  1.
</event>
<event>
 7    1  0.4359248E-015  0.9000772E+02  0.7816164E-02  0.1186339E+00
        -11   -1    0    0    0    0  0.00000000000E+00  0.00000000000E+00  0.45593999997E+02  0.45594000000E+02  0.51100000000E-03 0. -1.
         11   -1    0    0    0    0 -0.00000000000E+00 -0.00000000000E+00 -0.45593999997E+02  0.45594000000E+02  0.51100000000E-03 0.  1.
    9900012    2    1    2    0    0  0.10261646027E+01  0.37177712015E+00  0.44924195526E+00  0.90007724459E+02  0.89999985622E+02 0.  0.
        -12    1    1    2    0    0 -0.10261646027E+01 -0.37177712015E+00 -0.44924195526E+00  0.11802755413E+01  0.00000000000E+00 0.  1.
         11    1    3    3    0    0  0.11305522220E+01 -0.74638600243E+00 -0.78406717275E+01  0.79568444619E+01  0.51100000000E-03 0. -1.
        -11    1    3    3    0    0  0.72453261302E+01 -0.14196104496E+02 -0.33413824252E+02  0.37020369866E+02  0.51100000000E-03 0.  1.
         12    1    3    3    0    0 -0.73497137495E+01  0.15314267619E+02  0.41703737935E+02  0.45030510131E+02  0.00000000000E+00 0. -1.
</event>
<event>
 7    1  0.4359248E-015  0.9000776E+02  0.7816164E-02  0.1186339E+00
        -11   -1    0    0    0    0  0.00000000000E+00  0.00000000000E+00  0.45593999997E+02  0.45594000000E+02  0.51100000000E-03 0.  1.
         11   -1    0    0    0    0 -0.00000000000E+00 -0.00000000000E+00 -0.45593999997E+02  0.45594000000E+02  0.51100000000E-03 0. -1.
    9900012    2    1    2    0    0  0.10626415862E+00 -0.93208222795E+00  0.71617223255E+00  0.90007757644E+02  0.90000019245E+02 0.  0.
        -12    1    1    2    0    0 -0.10626415862E+00  0.93208222795E+00 -0.71617223255E+00  0.11802423555E+01  0.00000000000E+00 0.  1.
         11    1    3    3    0    0  0.16775841155E+02  0.18704944206E+02 -0.40699320545E+01  0.25453253847E+02  0.51100000000E-03 0. -1.
        -11    1    3    3    0    0  0.10629846586E+02 -0.19392848809E+02  0.22865352203E+02  0.31810384389E+02  0.51100000000E-03 0.  1.
         12    1    3    3    0    0 -0.27299423582E+02 -0.24417762494E+00 -0.18079247916E+02  0.32744119408E+02  0.00000000000E+00 0. -1.
</event>
<event>
 7    1  0.4359248E-015  0.9000775E+02  0.7816164E-02  0.1186339E+00
        -11   -1    0    0    0    0  0.00000000000E+00  0.00000000000E+00  0.45593999997E+02  0.45594000000E+02  0.51100000000E-03 0. -1.
         11   -1    0    0    0    0 -0.00000000000E+00 -0.00000000000E+00 -0.45593999997E+02  0.45594000000E+02  0.51100000000E-03 0.  1.
    9900012    2    1    2    0    0  0.93491483515E+00  0.62929145308E+00 -0.35060758499E+00  0.90007746146E+02  0.90000007595E+02 0.  0.
        -12    1    1    2    0    0 -0.93491483515E+00 -0.62929145308E+00  0.35060758499E+00  0.11802538543E+01  0.00000000000E+00 0.  1.
         11    1    3    3    0    0  0.28641056713E+01  0.67292932106E+01 -0.85258299341E+00  0.73629740209E+01  0.51100000000E-03 0. -1.
        -11    1    3    3    0    0 -0.30585147722E+02  0.53512559890E+01 -0.27122255059E+02  0.41227465622E+02  0.51100000000E-03 0.  1.
         12    1    3    3    0    0  0.28655956886E+02 -0.11451257746E+02  0.27624230467E+02  0.41417306503E+02  0.00000000000E+00 0. -1.
</event>
<event>
 7    1  0.4359248E-015  0.9000730E+02  0.7816164E-02  0.1186340E+00
        -11   -1    0    0    0    0  0.00000000000E+00  0.00000000000E+00  0.45593999997E+02  0.45594000000E+02  0.51100000000E-03 0. -1.
         11   -1    0    0    0    0 -0.00000000000E+00 -0.00000000000E+00 -0.45593999997E+02  0.45594000000E+02  0.51100000000E-03 0.  1.
    9900012    2    1    2    0    0 -0.28441366987E+00  0.11025796944E+01 -0.31222386827E+00  0.90007298149E+02  0.89999553683E+02 0.  0.
        -12    1    1    2    0    0  0.28441366987E+00 -0.11025796944E+01  0.31222386827E+00  0.11807018514E+01  0.00000000000E+00 0.  1.
         11    1    3    3    0    0  0.25701795880E+02 -0.26890454696E+01  0.34148498053E+02  0.42824446249E+02  0.51100000000E-03 0. -1.
        -11    1    3    3    0    0 -0.27892021395E+01 -0.61280290856E+01 -0.49435198707E+01  0.83528903993E+01  0.51100000000E-03 0.  1.
        -12    1    3    3    0    0 -0.23197007410E+02  0.99196542496E+01 -0.29517202051E+02  0.38829961500E+02  0.00000000000E+00 0.  1.
</event>
<event>
 7    1  0.4359248E-015  0.9000770E+02  0.7816164E-02  0.1186339E+00
        -11   -1    0    0    0    0  0.00000000000E+00  0.00000000000E+00  0.45593999997E+02  0.45594000000E+02  0.51100000000E-03 0.  1.
         11   -1    0    0    0    0 -0.00000000000E+00 -0.00000000000E+00 -0.45593999997E+02  0.45594000000E+02  0.51100000000E-03 0. -1.
    9900012    2    1    2    0    0  0.58620180863E-01  0.11768905356E+01  0.67742237329E-01  0.90007704838E+02  0.89999965742E+02 0.  0.
        -12    1    1    2    0    0 -0.58620180863E-01 -0.11768905356E+01 -0.67742237329E-01  0.11802951618E+01  0.00000000000E+00 0.  1.
         11    1    3    3    0    0 -0.45513685107E+01 -0.46967945454E+01  0.79575430760E+01  0.10300355644E+02  0.51100000000E-03 0. -1.
        -11    1    3    3    0    0 -0.30520830608E+02 -0.15196956288E+02  0.92091414928E+01  0.35316807170E+02  0.51100000000E-03 0.  1.
         12    1    3    3    0    0  0.35130819299E+02  0.21070641369E+02 -0.17098942331E+02  0.44390542024E+02  0.00000000000E+00 0. -1.
</event>
<event>
 7    1  0.4359248E-015  0.9000740E+02  0.7816164E-02  0.1186340E+00
        -11   -1    0    0    0    0  0.00000000000E+00  0.00000000000E+00  0.45593999997E+02  0.45594000000E+02  0.51100000000E-03 0.  1.
         11   -1    0    0    0    0 -0.00000000000E+00 -0.00000000000E+00 -0.45593999997E+02  0.45594000000E+02  0.51100000000E-03 0. -1.
    9900012    2    1    2    0    0  0.10494046910E+01  0.36710349640E+00 -0.39724410016E+00  0.90007399281E+02  0.89999656151E+02 0.  0.
        -12    1    1    2    0    0 -0.10494046910E+01 -0.36710349640E+00  0.39724410016E+00  0.11806007189E+01  0.00000000000E+00 0.  1.
         11    1    3    3    0    0  0.28144909272E+01  0.19309366836E+01 -0.70773599880E+01  0.78574105350E+01  0.51100000000E-03 0. -1.
        -11    1    3    3    0    0 -0.40781046613E+01 -0.41164521773E+02  0.92888277040E+01  0.42396121412E+02  0.51100000000E-03 0.  1.
         12    1    3    3    0    0  0.23130184250E+01  0.39600688585E+02 -0.26087118161E+01  0.39753867334E+02  0.00000000000E+00 0. -1.
</event>
<event>
 7    1  0.1049386E-014  0.9000814E+02  0.7816164E-02  0.1186338E+00
        -11   -1    0    0    0    0  0.00000000000E+00  0.00000000000E+00  0.45593999997E+02  0.45594000000E+02  0.51100000000E-03 0. -1.
         11   -1    0    0    0    0 -0.00000000000E+00 -0.00000000000E+00 -0.45593999997E+02  0.45594000000E+02  0.51100000000E-03 0.  1.
    9900012    2    1    2    0    0  0.15795274798E-01 -0.96346527633E+00  0.68084451696E+00  0.90008142345E+02  0.90000409023E+02 0.  0.
        -12    1    1    2    0    0 -0.15795274798E-01  0.96346527633E+00 -0.68084451696E+00  0.11798576548E+01  0.00000000000E+00 0.  1.
         11    1    3    3    0    0  0.67039978210E+01 -0.97674978957E+01  0.38654745934E+02  0.40429407434E+02  0.51100000000E-03 0. -1.
        -11    1    3    3    0    0  0.87305537767E+01 -0.28894094919E+01 -0.31164078084E+01  0.97099564545E+01  0.51100000000E-03 0.  1.
        -12    1    3    3    0    0 -0.15418756323E+02  0.11693442111E+02 -0.34857493609E+02  0.39868778457E+02  0.00000000000E+00 0.  1.
</event>
<event>
 7    1  0.4359248E-015  0.9000760E+02  0.7816164E-02  0.1186339E+00
        -11   -1    0    0    0    0  0.00000000000E+00  0.00000000000E+00  0.45593999997E+02  0.45594000000E+02  0.51100000000E-03 0.  1.
         11   -1    0    0    0    0 -0.00000000000E+00 -0.00000000000E+00 -0.45593999997E+02  0.45594000000E+02  0.51100000000E-03 0. -1.
    9900012    2    1    2    0    0 -0.11543705991E+01  0.96937622738E-01  0.22668338823E+00  0.90007595942E+02  0.89999855408E+02 0.  0.
        -12    1    1    2    0    0  0.11543705991E+01 -0.96937622738E-01 -0.22668338823E+00  0.11804040585E+01  0.00000000000E+00 0.  1.
         11    1    3    3    0    0 -0.85999957848E+01  0.39723232987E+00  0.28015942766E+01  0.90535436031E+01  0.51100000000E-03 0. -1.
        -11    1    3    3    0    0  0.18831252079E+02 -0.23680914717E+02  0.27715916344E+02  0.41031375747E+02  0.51100000000E-03 0.  1.
         12    1    3    3    0    0 -0.11385626893E+02  0.23380620010E+02 -0.30290827232E+02  0.39922676591E+02  0.00000000000E+00 0. -1.
</event>
<event>
 7    1  0.8879555E-015  0.9000768E+02  0.7816164E-02  0.1186339E+00
        -11   -1    0    0    0    0  0.00000000000E+00  0.00000000000E+00  0.45593999997E+02  0.45594000000E+02  0.51100000000E-03 0. -1.
         11   -1    0    0    0    0 -0.00000000000E+00 -0.00000000000E+00 -0.45593999997E+02  0.45594000000E+02  0.51100000000E-03 0.  1.
    9900012    2    1    2    0    0  0.30186671114E+00  0.85863108738E+00  0.75152754785E+00  0.90007676099E+02  0.89999936624E+02 0.  0.
        -12    1    1    2    0    0 -0.30186671114E+00 -0.85863108738E+00 -0.75152754785E+00  0.11803239008E+01  0.00000000000E+00 0.  1.
         11    1    3    3    0    0  0.48157901982E+01 -0.30163699287E+02  0.27778683193E+02  0.41287962290E+02  0.51100000000E-03 0. -1.
        -11    1    3    3    0    0 -0.43035346454E+01  0.83517266664E+01  0.40671272869E+01  0.10237835386E+02  0.51100000000E-03 0.  1.
        -12    1    3    3    0    0 -0.21038884166E+00  0.22670603708E+02 -0.31094282932E+02  0.38481878423E+02  0.00000000000E+00 0.  1.
</event>
<event>
 7    1  0.4359248E-015  0.9000771E+02  0.7816164E-02  0.1186339E+00
        -11   -1    0    0    0    0  0.00000000000E+00  0.00000000000E+00  0.45593999997E+02  0.45594000000E+02  0.51100000000E-03 0.  1.
         11   -1    0    0    0    0 -0.00000000000E+00 -0.00000000000E+00 -0.45593999997E+02  0.45594000000E+02  0.51100000000E-03 0. -1.
    9900012    2    1    2    0    0 -0.49783524469E+00  0.48275314405E+00 -0.95508818268E+00  0.90007710220E+02  0.89999971195E+02 0.  0.
        -12    1    1    2    0    0  0.49783524469E+00 -0.48275314405E+00  0.95508818268E+00  0.11802897804E+01  0.00000000000E+00 0.  1.
         11    1    3    3    0    0 -0.18169906428E+02 -0.30002531892E+02 -0.12674461554E+02  0.37295299912E+02  0.51100000000E-03 0. -1.
        -11    1    3    3    0    0 -0.10751386469E+01 -0.22155094245E+01 -0.92544988055E+01  0.95765418352E+01  0.51100000000E-03 0.  1.
        -12    1    3    3    0    0  0.18747209830E+02  0.32700794461E+02  0.20973872177E+02  0.43135868473E+02  0.00000000000E+00 0.  1.
</event>
<event>
 7    1  0.4359248E-015  0.9000778E+02  0.7816164E-02  0.1186339E+00
        -11   -1    0    0    0    0  0.00000000000E+00  0.00000000000E+00  0.45593999997E+02  0.45594000000E+02  0.51100000000E-03 0.  1.
         11   -1    0    0    0    0 -0.00000000000E+00 -0.00000000000E+00 -0.45593999997E+02  0.45594000000E+02  0.51100000000E-03 0. -1.
    9900012    2    1    2    0    0  0.82347350624E+00 -0.47866716721E+00 -0.69692059630E+00  0.90007775788E+02  0.90000037629E+02 0.  0.
        -12    1    1    2    0    0 -0.82347350624E+00  0.47866716721E+00  0.69692059630E+00  0.11802242117E+01  0.00000000000E+00 0.  1.
         11    1    3    3    0    0  0.63982282541E+01 -0.57839622951E+01 -0.34755775168E+02  0.35809990958E+02  0.51100000000E-03 0. -1.
        -11    1    3    3    0    0 -0.58877491560E+01 -0.40574929718E+01 -0.82192322103E+01  0.10894247001E+02  0.51100000000E-03 0.  1.
        -12    1    3    3    0    0  0.31299440816E+00  0.93627880997E+01  0.42278086782E+02  0.43303537829E+02  0.00000000000E+00 0.  1.
</event>
<event>
 7    1  0.4359248E-015  0.9000775E+02  0.7816164E-02  0.1186339E+00
        -11   -1    0    0    0    0  0.00000000000E+00  0.00000000000E+00  0.45593999997E+02  0.45594000000E+02  0.51100000000E-03 0.  1.
         11   -1    0    0    0    0 -0.00000000000E+00 -0.00000000000E+00 -0.45593999997E+02  0.45594000000E+02  0.51100000000E-03 0. -1.
    9900012    2    1    2    0    0  0.49767458868E+00  0.93095250212E+00 -0.52785192874E+00  0.90007754171E+02  0.90000015726E+02 0.  0.
        -12    1    1    2    0    0 -0.49767458868E+00 -0.93095250212E+00  0.52785192874E+00  0.11802458287E+01  0.00000000000E+00 0.  1.
         11    1    3    3    0    0  0.13318319161E+02  0.10715651748E+02 -0.33706614995E+02  0.37793368629E+02  0.51100000000E-03 0. -1.
        -11    1    3    3    0    0 -0.55039337922E+01  0.10554685498E+02 -0.81385920862E+00  0.11931346958E+02  0.51100000000E-03 0.  1.
        -12    1    3    3    0    0 -0.73167107797E+01 -0.20339384744E+02  0.33992622275E+02  0.40283038584E+02  0.00000000000E+00 0.  1.
</event>
<event>
 7    1  0.4359248E-015  0.9000774E+02  0.7816164E-02  0.1186339E+00
        -11   -1    0    0    0    0  0.00000000000E+00  0.00000000000E+00  0.45593999997E+02  0.45594000000E+02  0.51100000000E-03 0. -1.
         11   -1    0    0    0    0 -0.00000000000E+00 -0.00000000000E+00 -0.45593999997E+02  0.45594000000E+02  0.51100000000E-03 0.  1.
    9900012    2    1    2    0    0  0.27376299402E+00 -0.83285410851E+00  0.79020940905E+00  0.90007736024E+02  0.89999997339E+02 0.  0.
        -12    1    1    2    0    0 -0.27376299402E+00  0.83285410851E+00 -0.79020940905E+00  0.11802639760E+01  0.00000000000E+00 0.  1.
         11    1    3    3    0    0 -0.33436625551E+01  0.39456125850E+02  0.14411264647E+02  0.42138468118E+02  0.51100000000E-03 0. -1.
        -11    1    3    3    0    0 -0.72416446666E+01 -0.46517858847E+01 -0.19023697154E+01  0.88147342666E+01  0.51100000000E-03 0.  1.
        -12    1    3    3    0    0  0.10859070216E+02 -0.35637194074E+02 -0.11718685523E+02  0.39054533639E+02  0.00000000000E+00 0.  1.
</event>
<event>
 7    1  0.4359248E-015  0.9000783E+02  0.7816164E-02  0.1186339E+00
        -11   -1    0    0    0    0  0.00000000000E+00  0.00000000000E+00  0.45593999997E+02  0.45594000000E+02  0.51100000000E-03 0. -1.
         11   -1    0    0    0    0 -0.00000000000E+00 -0.00000000000E+00 -0.45593999997E+02  0.45594000000E+02  0.51100000000E-03 0.  1.
    9900012    2    1    2    0    0 -0.49833996560E+00 -0.24971697263E+00  0.10402381522E+01  0.90007831918E+02  0.90000094500E+02 0.  0.
        -12    1    1    2    0    0  0.49833996560E+00  0.24971697263E+00 -0.10402381522E+01  0.11801680817E+01  0.00000000000E+00 0.  1.
         11    1    3    3    0    0 -0.63734422896E+01  0.57191096175E+01  0.95798290777E+01  0.12849206468E+02  0.51100000000E-03 0. -1.
        -11    1    3    3    0    0 -0.24573925531E+02  0.83293187391E+01 -0.28098876526E+02  0.38246597613E+02  0.51100000000E-03 0.  1.
         12    1    3    3    0    0  0.30449027855E+02 -0.14298145329E+02  0.19559285601E+02  0.38912027837E+02  0.00000000000E+00 0. -1.
</event>
<event>
 7    1  0.4359248E-015  0.9000780E+02  0.7816164E-02  0.1186339E+00
        -11   -1    0    0    0    0  0.00000000000E+00  0.00000000000E+00  0.45593999997E+02  0.45594000000E+02  0.51100000000E-03 0.  1.
         11   -1    0    0    0    0 -0.00000000000E+00 -0.00000000000E+00 -0.45593999997E+02  0.45594000000E+02  0.51100000000E-03 0. -1.
    9900012    2    1    2    0    0 -0.65584992864E+00  0.69923951292E+00 -0.68833666641E+00  0.90007795614E+02  0.90000057717E+02 0.  0.
        -12    1    1    2    0    0  0.65584992864E+00 -0.69923951292E+00  0.68833666641E+00  0.11802043855E+01  0.00000000000E+00 0.  1.
         11    1    3    3    0    0 -0.81734389270E+01 -0.12243226294E+02  0.37040781822E+01  0.15179653798E+02  0.51100000000E-03 0. -1.
        -11    1    3    3    0    0  0.66151155875E-01 -0.30191314809E+02 -0.69493399622E+01  0.30980852023E+02  0.51100000000E-03 0.  1.
         12    1    3    3    0    0  0.74514378425E+01  0.43133780617E+02  0.25569251135E+01  0.43847289794E+02  0.00000000000E+00 0. -1.
</event>
<event>
 7    1  0.4359248E-015  0.9000775E+02  0.7816164E-02  0.1186339E+00
        -11   -1    0    0    0    0  0.00000000000E+00  0.00000000000E+00  0.45593999997E+02  0.45594000000E+02  0.51100000000E-03 0. -1.
         11   -1    0    0    0    0 -0.00000000000E+00 -0.00000000000E+00 -0.45593999997E+02  0.45594000000E+02  0.51100000000E-03 0.  1.
    9900012    2    1    2    0    0  0.11219302912E+01 -0.13817193185E+00 -0.33938391200E+00  0.90007745578E+02  0.90000007020E+02 0.  0.
        -12    1    1    2    0    0 -0.11219302912E+01  0.13817193185E+00  0.33938391200E+00  0.11802544220E+01  0.00000000000E+00 0.  1.
         11    1    3    3    0    0  0.19852079508E+02 -0.26373729920E+02  0.27866328848E+02  0.43199664055E+02  0.51100000000E-03 0. -1.
        -11    1    3    3    0    0 -0.93232256135E+01 -0.28397685045E-01 -0.88370533694E+01  0.12845888633E+02  0.51100000000E-03 0.  1.
        -12    1    3    3    0    0 -0.94069236035E+01  0.26263955674E+02 -0.19368659390E+02  0.33962192890E+02  0.00000000000E+00 0.  1.
</event>
<event>
 7    1  0.4359248E-015  0.9000813E+02  0.7816164E-02  0.1186338E+00
        -11   -1    0    0    0    0  0.00000000000E+00  0.00000000000E+00  0.45593999997E+02  0.45594000000E+02  0.51100000000E-03 0.  1.
         11   -1    0    0    0    0 -0.00000000000E+00 -0.00000000000E+00 -0.45593999997E+02  0.45594000000E+02  0.51100000000E-03 0. -1.
    9900012    2    1    2    0    0 -0.88802823754E+00 -0.41183849480E+00  0.65869814227E+00  0.90008132067E+02  0.90000398610E+02 0.  0.
        -12    1    1    2    0    0  0.88802823754E+00  0.41183849480E+00 -0.65869814227E+00  0.11798679329E+01  0.00000000000E+00 0.  1.
         11    1    3    3    0    0  0.64504153813E+01 -0.13257620274E+01  0.57188234944E+01  0.87218373045E+01  0.51100000000E-03 0. -1.
        -11    1    3    3    0    0 -0.14514294768E+02  0.85080562645E+01  0.35562599048E+02  0.39341456828E+02  0.51100000000E-03 0.  1.
         12    1    3    3    0    0  0.71758511493E+01 -0.75941327319E+01 -0.40622724400E+02  0.41944837935E+02  0.00000000000E+00 0. -1.
</event>
<event>
 7    1  0.4742413E-015  0.9000764E+02  0.7816164E-02  0.1186339E+00
        -11   -1    0    0    0    0  0.00000000000E+00  0.00000000000E+00  0.45593999997E+02  0.45594000000E+02  0.51100000000E-03 0. -1.
         11   -1    0    0    0    0 -0.00000000000E+00 -0.00000000000E+00 -0.45593999997E+02  0.45594000000E+02  0.51100000000E-03 0.  1.
    9900012    2    1    2    0    0  0.91319315586E+00  0.74618519764E+00  0.50436626984E-01  0.90007636521E+02  0.89999896523E+02 0.  0.
        -12    1    1    2    0    0 -0.91319315586E+00 -0.74618519764E+00 -0.50436626984E-01  0.11803634789E+01  0.00000000000E+00 0.  1.
         11    1    3    3    0    0  0.28285831950E+02  0.17156779460E+01  0.22863483740E+02  0.36411134683E+02  0.51100000000E-03 0. -1.
        -11    1    3    3    0    0  0.71515509228E+01  0.55397706041E+01  0.35031377179E+01  0.97008099187E+01  0.51100000000E-03 0.  1.
        -12    1    3    3    0    0 -0.34524189717E+02 -0.65092633524E+01 -0.26316184831E+02  0.43895691919E+02  0.00000000000E+00 0.  1.
</event>
<event>
 7    1  0.4359248E-015  0.9000800E+02  0.7816164E-02  0.1186339E+00
        -11   -1    0    0    0    0  0.00000000000E+00  0.00000000000E+00  0.45593999997E+02  0.45594000000E+02  0.51100000000E-03 0. -1.
         11   -1    0    0    0    0 -0.00000000000E+00 -0.00000000000E+00 -0.45593999997E+02  0.45594000000E+02  0.51100000000E-03 0.  1.
    9900012    2    1    2    0    0 -0.75775195082E+00 -0.37740409969E+00  0.82206138946E+00  0.90007997118E+02  0.90000261880E+02 0.  0.
        -12    1    1    2    0    0  0.75775195082E+00  0.37740409969E+00 -0.82206138946E+00  0.11800028820E+01  0.00000000000E+00 0.  1.
         11    1    3    3    0    0 -0.26729544480E+01  0.36925856866E+02 -0.14450493151E+02  0.39742676600E+02  0.51100000000E-03 0. -1.
        -11    1    3    3    0    0  0.16381321882E+01  0.41874642391E+01  0.64228975717E+01  0.78404047917E+01  0.51100000000E-03 0.  1.
        -12    1    3    3    0    0  0.27707030898E+00 -0.41490725204E+02  0.88496569688E+01  0.42424915727E+02  0.00000000000E+00 0.  1.
</event>
<event>
 7    1  0.4359248E-015  0.9000774E+02  0.7816164E-02  0.1186339E+00
        -11   -1    0    0    0    0  0.00000000000E+00  0.00000000000E+00  0.45593999997E+02  0.45594000000E+02  0.51100000000E-03 0.  1.
         11   -1    0    0    0    0 -0.00000000000E+00 -0.00000000000E+00 -0.45593999997E+02  0.45594000000E+02  0.51100000000E-03 0. -1.
    9900012    2    1    2    0    0 -0.49169681932E+00  0.25960811922E+00 -0.10410872185E+01  0.90007735312E+02  0.89999996618E+02 0.  0.
        -12    1    1    2    0    0  0.49169681932E+00 -0.25960811922E+00  0.10410872185E+01  0.11802646882E+01  0.00000000000E+00 0.  1.
         11    1    3    3    0    0  0.22996160651E+01 -0.51107177703E+01  0.62832579438E+01  0.84194418357E+01  0.51100000000E-03 0. -1.
        -11    1    3    3    0    0  0.29337000277E+02 -0.15722943261E+02  0.15683017679E+02  0.36794395957E+02  0.51100000000E-03 0.  1.
         12    1    3    3    0    0 -0.32128313161E+02  0.21093269151E+02 -0.23007362842E+02  0.44793897519E+02  0.00000000000E+00 0. -1.
</event>
<event>
 7    1  0.4359248E-015  0.9000790E+02  0.7816164E-02  0.1186339E+00
        -11   -1    0    0    0    0  0.00000000000E+00  0.00000000000E+00  0.45593999997E+02  0.45594000000E+02  0.51100000000E-03 0.  1.
         11   -1    0    0    0    0 -0.00000000000E+00 -0.00000000000E+00 -0.45593999997E+02  0.45594000000E+02  0.51100000000E-03 0. -1.
    9900012    2    1    2    0    0 -0.33832262164E+00  0.10579546319E+01 -0.39864068984E+00  0.90007896361E+02  0.90000159793E+02 0.  0.
        -12    1    1    2    0    0  0.33832262164E+00 -0.10579546319E+01  0.39864068984E+00  0.11801036391E+01  0.00000000000E+00 0.  1.
         11    1    3    3    0    0  0.10765048660E+02 -0.13235629579E+01  0.21902985218E+00  0.10848320879E+02  0.51100000000E-03 0. -1.
        -11    1    3    3    0    0  0.34305223979E+01 -0.22735086223E+02  0.29456778313E+02  0.37367825979E+02  0.51100000000E-03 0.  1.
         12    1    3    3    0    0 -0.14533893680E+02  0.25116603813E+02 -0.30074448856E+02  0.41791749503E+02  0.00000000000E+00 0. -1.
</event>
<event>
 7    1  0.4359248E-015  0.9000778E+02  0.7816164E-02  0.1186339E+00
        -11   -1    0    0    0    0  0.00000000000E+00  0.00000000000E+00  0.45593999997E+02  0.45594000000E+02  0.51100000000E-03 0.  1.
         11   -1    0    0    0    0 -0.00000000000E+00 -0.00000000000E+00 -0.45593999997E+02  0.45594000000E+02  0.51100000000E-03 0. -1.
    9900012    2    1    2    0    0 -0.49312398149E+00  0.34969059485E+00  0.10136368127E+01  0.90007782070E+02  0.90000043994E+02 0.  0.
        -12    1    1    2    0    0  0.49312398149E+00 -0.34969059485E+00 -0.10136368127E+01  0.11802179295E+01  0.00000000000E+00 0.  1.
         11    1    3    3    0    0 -0.12468881424E+02  0.69009521914E+01  0.60516837612E+01  0.15482862194E+02  0.51100000000E-03 0. -1.
        -11    1    3    3    0    0 -0.92533889478E+00 -0.14098414477E+01  0.33509511837E+02  0.33551919301E+02  0.51100000000E-03 0.  1.
         12    1    3    3    0    0  0.12901096338E+02 -0.51414201489E+01 -0.38547558785E+02  0.40973000575E+02  0.00000000000E+00 0. -1.
</event>
<event>
 7    1  0.4359248E-015  0.9000772E+02  0.7816164E-02  0.1186339E+00
        -11   -1    0    0    0    0  0.00000000000E+00  0.00000000000E+00  0.45593999997E+02  0.45594000000E+02  0.51100000000E-03 0.  1.
         11   -1    0    0    0    0 -0.00000000000E+00 -0.00000000000E+00 -0.45593999997E+02  0.45594000000E+02  0.51100000000E-03 0. -1.
    9900012    2    1    2    0    0 -0.48168685031E+00  0.52365181040E+00 -0.94171422324E+00  0.90007720746E+02  0.89999981859E+02 0.  0.
        -12    1    1    2    0    0  0.48168685031E+00 -0.52365181040E+00  0.94171422324E+00  0.11802792545E+01  0.00000000000E+00 0.  1.
         11    1    3    3    0    0  0.26017033486E+02  0.29171845228E+02 -0.10684345771E+02  0.40522065967E+02  0.51100000000E-03 0. -1.
        -11    1    3    3    0    0 -0.82685755110E+01  0.61206868504E+00 -0.72833292482E+01  0.11035889373E+02  0.51100000000E-03 0.  1.
        -12    1    3    3    0    0 -0.18230144826E+02 -0.29260262103E+02  0.17025960796E+02  0.38449765405E+02  0.00000000000E+00 0.  1.
</event>
<event>
 7    1  0.4359248E-015  0.9000777E+02  0.7816164E-02  0.1186339E+00
        -11   -1    0    0    0    0  0.00000000000E+00  0.00000000000E+00  0.45593999997E+02  0.45594000000E+02  0.51100000000E-03 0. -1.
         11   -1    0    0    0    0 -0.00000000000E+00 -0.00000000000E+00 -0.45593999997E+02  0.45594000000E+02  0.51100000000E-03 0.  1.
    9900012    2    1    2    0    0 -0.85880117952E+00  0.71920552444E+00  0.37167212735E+00  0.90007772809E+02  0.90000034610E+02 0.  0.
        -12    1    1    2    0    0  0.85880117952E+00 -0.71920552444E+00 -0.37167212735E+00  0.11802271911E+01  0.00000000000E+00 0.  1.
         11    1    3    3    0    0  0.10689030278E+02 -0.24338193987E+02  0.32553666116E+02  0.42027898266E+02  0.51100000000E-03 0. -1.
        -11    1    3    3    0    0 -0.47995821005E+01 -0.33621718140E+01 -0.87595169982E+01  0.10538943303E+02  0.51100000000E-03 0.  1.
        -12    1    3    3    0    0 -0.67482493573E+01  0.28419571326E+02 -0.23422476990E+02  0.37440931239E+02  0.00000000000E+00 0.  1.
</event>
<event>
 7    1  0.4359248E-015  0.9000759E+02  0.7816164E-02  0.1186339E+00
        -11   -1    0    0    0    0  0.00000000000E+00  0.00000000000E+00  0.45593999997E+02  0.45594000000E+02  0.51100000000E-03 0.  1.
         11   -1    0    0    0    0 -0.00000000000E+00 -0.00000000000E+00 -0.45593999997E+02  0.45594000000E+02  0.51100000000E-03 0. -1.
    9900012    2    1    2    0    0 -0.52651547387E+00  0.79743616503E+00 -0.69299484962E+00  0.90007591239E+02  0.89999850643E+02 0.  0.
        -12    1    1    2    0    0  0.52651547387E+00 -0.79743616503E+00  0.69299484962E+00  0.11804087610E+01  0.00000000000E+00 0.  1.
         11    1    3    3    0    0 -0.70712688465E+01 -0.71440559522E+01  0.93232502553E+00  0.10095028913E+02  0.51100000000E-03 0. -1.
        -11    1    3    3    0    0  0.75413337508E+01  0.18182642073E+02  0.35932355732E+02  0.40970896698E+02  0.51100000000E-03 0.  1.
         12    1    3    3    0    0 -0.99658037822E+00 -0.10241149955E+02 -0.37557675607E+02  0.38941665628E+02  0.00000000000E+00 0. -1.
</event>
<event>
 7    1  0.4359248E-015  0.9000765E+02  0.7816164E-02  0.1186339E+00
        -11   -1    0    0    0    0  0.00000000000E+00  0.00000000000E+00  0.45593999997E+02  0.45594000000E+02  0.51100000000E-03 0. -1.
         11   -1    0    0    0    0 -0.00000000000E+00 -0.00000000000E+00 -0.45593999997E+02  0.45594000000E+02  0.51100000000E-03 0.  1.
    9900012    2    1    2    0    0 -0.26207179135E+00  0.82095993889E+00  0.80657752000E+00  0.90007650839E+02  0.89999911030E+02 0.  0.
        -12    1    1    2    0    0  0.26207179135E+00 -0.82095993889E+00 -0.80657752000E+00  0.11803491606E+01  0.00000000000E+00 0.  1.
         11    1    3    3    0    0  0.41836097763E+00 -0.81446461836E+01  0.19225240177E+02  0.20883489830E+02  0.51100000000E-03 0. -1.
        -11    1    3    3    0    0  0.23578999426E+02 -0.17859755741E+02 -0.13874972560E+02  0.32671929126E+02  0.51100000000E-03 0.  1.
         12    1    3    3    0    0 -0.24259432195E+02  0.26825361863E+02 -0.45436900976E+01  0.36452231883E+02  0.00000000000E+00 0. -1.
</event>
<event>
 7    1  0.4359248E-015  0.9000754E+02  0.7816164E-02  0.1186339E+00
        -11   -1    0    0    0    0  0.00000000000E+00  0.00000000000E+00  0.45593999997E+02  0.45594000000E+02  0.51100000000E-03 0. -1.
         11   -1    0    0    0    0 -0.00000000000E+00 -0.00000000000E+00 -0.45593999997E+02  0.45594000000E+02  0.51100000000E-03 0.  1.
    9900012    2    1    2    0    0 -0.59376248381E-02  0.87458625960E+00  0.79280895920E+00  0.90007541434E+02  0.89999800180E+02 0.  0.
        -12    1    1    2    0    0  0.59376248381E-02 -0.87458625960E+00 -0.79280895920E+00  0.11804585663E+01  0.00000000000E+00 0.  1.
         11    1    3    3    0    0  0.38787292741E+01 -0.93684388517E+01  0.24899977217E+02  0.26885331558E+02  0.51100000000E-03 0. -1.
        -11    1    3    3    0    0 -0.93903961911E+01  0.32333995144E+02 -0.63830167251E+01  0.34269661296E+02  0.51100000000E-03 0.  1.
         12    1    3    3    0    0  0.55057292922E+01 -0.22090970032E+02 -0.17724151533E+02  0.28852548580E+02  0.00000000000E+00 0. -1.
</event>
<event>
 7    1  0.4359248E-015  0.9000774E+02  0.7816164E-02  0.1186339E+00
        -11   -1    0    0    0    0  0.00000000000E+00  0.00000000000E+00  0.45593999997E+02  0.45594000000E+02  0.51100000000E-03 0.  1.
         11   -1    0    0    0    0 -0.00000000000E+00 -0.00000000000E+00 -0.45593999997E+02  0.45594000000E+02  0.51100000000E-03 0. -1.
    9900012    2    1    2    0    0 -0.10600404155E+01 -0.13386395358E+00  0.50141414035E+00  0.90007736732E+02  0.89999998057E+02 0.  0.
        -12    1    1    2    0    0  0.10600404155E+01  0.13386395358E+00 -0.50141414035E+00  0.11802632675E+01  0.00000000000E+00 0.  1.
         11    1    3    3    0    0  0.24279307942E+01  0.34323206593E+02 -0.95778598980E+01  0.35717121374E+02  0.51100000000E-03 0. -1.
        -11    1    3    3    0    0 -0.32229524197E+01  0.91681425498E+01  0.16287202053E+01  0.98536790024E+01  0.51100000000E-03 0.  1.
        -12    1    3    3    0    0 -0.26501878993E+00 -0.43625213096E+02  0.84505538331E+01  0.44436936356E+02  0.00000000000E+00 0.  1.
</event>
<event>
 7    1  0.4359248E-015  0.9000781E+02  0.7816164E-02  0.1186339E+00
        -11   -1    0    0    0    0  0.00000000000E+00  0.00000000000E+00  0.45593999997E+02  0.45594000000E+02  0.51100000000E-03 0.  1.
         11   -1    0    0    0    0 -0.00000000000E+00 -0.00000000000E+00 -0.45593999997E+02  0.45594000000E+02  0.51100000000E-03 0. -1.
    9900012    2    1    2    0    0  0.42115440616E+00  0.72999753403E+00 -0.82619083442E+00  0.90007805640E+02  0.90000067874E+02 0.  0.
        -12    1    1    2    0    0 -0.42115440616E+00 -0.72999753403E+00  0.82619083442E+00  0.11801943604E+01  0.00000000000E+00 0.  1.
         11    1    3    3    0    0  0.37540723689E+02  0.33444502723E+01 -0.20763476782E+01  0.37746556169E+02  0.51100000000E-03 0. -1.
        -11    1    3    3    0    0  0.27838110978E+01  0.97812568974E+01  0.24462453227E+01  0.10459766114E+02  0.51100000000E-03 0.  1.
        -12    1    3    3    0    0 -0.39903380380E+02 -0.12395709636E+02 -0.11960884789E+01  0.41801483356E+02  0.00000000000E+00 0.  1.
</event>
<event>
 7    1  0.4359248E-015  0.9000771E+02  0.7816164E-02  0.1186339E+00
        -11   -1    0    0    0    0  0.00000000000E+00  0.00000000000E+00  0.45593999997E+02  0.45594000000E+02  0.51100000000E-03 0.  1.
         11   -1    0    0    0    0 -0.00000000000E+00 -0.00000000000E+00 -0.45593999997E+02  0.45594000000E+02  0.51100000000E-03 0. -1.
    9900012    2    1    2    0    0 -0.29038460752E+00 -0.29427840806E+00 -0.11055149928E+01  0.90007709188E+02  0.89999970149E+02 0.  0.
        -12    1    1    2    0    0  0.29038460752E+00  0.29427840806E+00  0.11055149928E+01  0.11802908121E+01  0.00000000000E+00 0.  1.
         11    1    3    3    0    0  0.37367414462E+01  0.36909893991E+02  0.41226398302E+01  0.37326929562E+02  0.51100000000E-03 0. -1.
        -11    1    3    3    0    0 -0.83341263735E+01  0.49363290151E+01  0.14608686193E+01  0.97958738221E+01  0.51100000000E-03 0.  1.
        -12    1    3    3    0    0  0.43070003198E+01 -0.42140501414E+02 -0.66890234422E+01  0.42884905804E+02  0.00000000000E+00 0.  1.
</event>
<event>
 7    1  0.4359248E-015  0.9000776E+02  0.7816164E-02  0.1186339E+00
        -11   -1    0    0    0    0  0.00000000000E+00  0.00000000000E+00  0.45593999997E+02  0.45594000000E+02  0.51100000000E-03 0. -1.
         11   -1    0    0    0    0 -0.00000000000E+00 -0.00000000000E+00 -0.45593999997E+02  0.45594000000E+02  0.51100000000E-03 0.  1.
    9900012    2    1    2    0    0  0.99867939942E+00  0.56057016864E+00  0.28526950857E+00  0.90007755047E+02  0.90000016614E+02 0.  0.
        -12    1    1    2    0    0 -0.99867939942E+00 -0.56057016864E+00 -0.28526950857E+00  0.11802449531E+01  0.00000000000E+00 0.  1.
         11    1    3    3    0    0  0.25756712801E+02 -0.25573902379E+02  0.16312869222E+02  0.39793748752E+02  0.51100000000E-03 0. -1.
        -11    1    3    3    0    0  0.61347845572E+01  0.33377657439E+01  0.27110449216E+01  0.74917305446E+01  0.51100000000E-03 0.  1.
        -12    1    3    3    0    0 -0.30892817959E+02  0.22796706804E+02 -0.18738644635E+02  0.42722275750E+02  0.00000000000E+00 0.  1.
</event>
<event>
 7    1  0.4359248E-015  0.9000770E+02  0.7816164E-02  0.1186339E+00
        -11   -1    0    0    0    0  0.00000000000E+00  0.00000000000E+00  0.45593999997E+02  0.45594000000E+02  0.51100000000E-03 0.  1.
         11   -1    0    0    0    0 -0.00000000000E+00 -0.00000000000E+00 -0.45593999997E+02  0.45594000000E+02  0.51100000000E-03 0. -1.
    9900012    2    1    2    0    0 -0.26650093365E+00 -0.10080755375E+01 -0.55305118754E+00  0.90007701456E+02  0.89999962315E+02 0.  0.
        -12    1    1    2    0    0  0.26650093365E+00  0.10080755375E+01  0.55305118754E+00  0.11802985440E+01  0.00000000000E+00 0.  1.
         11    1    3    3    0    0  0.24629520355E+01 -0.81843548111E+01  0.38323544448E+01  0.93667890579E+01  0.51100000000E-03 0. -1.
        -11    1    3    3    0    0 -0.19240370961E+02 -0.27637890615E+02  0.15737881581E+02  0.37171572327E+02  0.51100000000E-03 0.  1.
         12    1    3    3    0    0  0.16510917991E+02  0.34814169888E+02 -0.20123287214E+02  0.43469340071E+02  0.00000000000E+00 0. -1.
</event>
<event>
 7    1  0.4359248E-015  0.9000776E+02  0.7816164E-02  0.1186339E+00
        -11   -1    0    0    0    0  0.00000000000E+00  0.00000000000E+00  0.45593999997E+02  0.45594000000E+02  0.51100000000E-03 0.  1.
         11   -1    0    0    0    0 -0.00000000000E+00 -0.00000000000E+00 -0.45593999997E+02  0.45594000000E+02  0.51100000000E-03 0. -1.
    9900012    2    1    2    0    0  0.93052851766E+00 -0.71412833226E+00 -0.13079375948E+00  0.90007758667E+02  0.90000020281E+02 0.  0.
        -12    1    1    2    0    0 -0.93052851766E+00  0.71412833226E+00  0.13079375948E+00  0.11802413332E+01  0.00000000000E+00 0.  1.
         11    1    3    3    0    0  0.84055479887E+01  0.32742077506E+01 -0.20295088736E+01  0.92462197634E+01  0.51100000000E-03 0. -1.
        -11    1    3    3    0    0  0.36312926645E+02 -0.42967408080E+01  0.47823797623E+01  0.36877659627E+02  0.51100000000E-03 0.  1.
         12    1    3    3    0    0 -0.43787946116E+02  0.30840472515E+00 -0.28836646481E+01  0.43883879276E+02  0.00000000000E+00 0. -1.
</event>
<event>
 7    1  0.4845669E-015  0.9000766E+02  0.7816164E-02  0.1186339E+00
        -11   -1    0    0    0    0  0.00000000000E+00  0.00000000000E+00  0.45593999997E+02  0.45594000000E+02  0.51100000000E-03 0. -1.
         11   -1    0    0    0    0 -0.00000000000E+00 -0.00000000000E+00 -0.45593999997E+02  0.45594000000E+02  0.51100000000E-03 0.  1.
    9900012    2    1    2    0    0  0.82578095424E-02 -0.46118455984E+00  0.10864789692E+01  0.90007662785E+02  0.89999923134E+02 0.  0.
        -12    1    1    2    0    0 -0.82578095424E-02  0.46118455984E+00 -0.10864789692E+01  0.11803372146E+01  0.00000000000E+00 0.  1.
         11    1    3    3    0    0  0.87703515139E+01  0.21797422124E+01 -0.11338378375E+00  0.90378757423E+01  0.51100000000E-03 0. -1.
        -11    1    3    3    0    0  0.37795781289E+01 -0.73574555263E+01 -0.38339562079E+02  0.39221669818E+02  0.51100000000E-03 0.  1.
         12    1    3    3    0    0 -0.12541671833E+02  0.47165287540E+01  0.39539424831E+02  0.41748117225E+02  0.00000000000E+00 0. -1.
</event>
<event>
 7    1  0.4359248E-015  0.9000773E+02  0.7816164E-02  0.1186339E+00
        -11   -1    0    0    0    0  0.00000000000E+00  0.00000000000E+00  0.45593999997E+02  0.45594000000E+02  0.51100000000E-03 0. -1.
         11   -1    0    0    0    0 -0.00000000000E+00 -0.00000000000E+00 -0.45593999997E+02  0.45594000000E+02  0.51100000000E-03 0.  1.
    9900012    2    1    2    0    0 -0.24061523464E+00  0.98015457454E+00  0.61190732739E+00  0.90007733395E+02  0.89999994676E+02 0.  0.
        -12    1    1    2    0    0  0.24061523464E+00 -0.98015457454E+00 -0.61190732739E+00  0.11802666048E+01  0.00000000000E+00 0.  1.
         11    1    3    3    0    0 -0.40820382047E+01 -0.10629136616E+02 -0.93315387369E+01  0.14721385687E+02  0.51100000000E-03 0. -1.
        -11    1    3    3    0    0  0.61542153380E+01  0.27974078230E+02 -0.24106508925E+02  0.37437243383E+02  0.51100000000E-03 0.  1.
         12    1    3    3    0    0 -0.23127923680E+01 -0.16364787040E+02  0.34049954990E+02  0.37849104325E+02  0.00000000000E+00 0. -1.
</event>
<event>
 7    1  0.4359248E-015  0.9000778E+02  0.7816164E-02  0.1186339E+00
        -11   -1    0    0    0    0  0.00000000000E+00  0.00000000000E+00  0.45593999997E+02  0.45594000000E+02  0.51100000000E-03 0.  1.
         11   -1    0    0    0    0 -0.00000000000E+00 -0.00000000000E+00 -0.45593999997E+02  0.45594000000E+02  0.51100000000E-03 0. -1.
    9900012    2    1    2    0    0 -0.18014261769E+00  0.67668584658E+00 -0.95003721915E+00  0.90007777218E+02  0.90000039077E+02 0.  0.
        -12    1    1    2    0    0  0.18014261769E+00 -0.67668584658E+00  0.95003721915E+00  0.11802227821E+01  0.00000000000E+00 0.  1.
         11    1    3    3    0    0 -0.30724676048E+01 -0.55195967704E+01 -0.88784266286E+01  0.10896442784E+02  0.51100000000E-03 0. -1.
        -11    1    3    3    0    0 -0.24113111613E+02 -0.22498042245E+02 -0.11823408704E+02  0.35034226838E+02  0.51100000000E-03 0.  1.
         12    1    3    3    0    0  0.27005436600E+02  0.28694324862E+02  0.19751798114E+02  0.44077107595E+02  0.00000000000E+00 0. -1.
</event>
<event>
 7    1  0.4359248E-015  0.9000789E+02  0.7816164E-02  0.1186339E+00
        -11   -1    0    0    0    0  0.00000000000E+00  0.00000000000E+00  0.45593999997E+02  0.45594000000E+02  0.51100000000E-03 0.  1.
         11   -1    0    0    0    0 -0.00000000000E+00 -0.00000000000E+00 -0.45593999997E+02  0.45594000000E+02  0.51100000000E-03 0. -1.
    9900012    2    1    2    0    0  0.47629038338E+00  0.10216804567E+01  0.34925646521E+00  0.90007888326E+02  0.90000151652E+02 0.  0.
        -12    1    1    2    0    0 -0.47629038338E+00 -0.10216804567E+01 -0.34925646521E+00  0.11801116741E+01  0.00000000000E+00 0.  1.
         11    1    3    3    0    0  0.57899005256E+01  0.63361037421E+01  0.13673999666E+01  0.86913141502E+01  0.51100000000E-03 0. -1.
        -11    1    3    3    0    0 -0.37369951140E+02 -0.11776607678E+01  0.20351799239E+02  0.42568719332E+02  0.51100000000E-03 0.  1.
         12    1    3    3    0    0  0.32056340997E+02 -0.41367625177E+01 -0.21369942740E+02  0.38747854844E+02  0.00000000000E+00 0. -1.
</event>
<event>
 7    1  0.4359248E-015  0.9000775E+02  0.7816164E-02  0.1186339E+00
        -11   -1    0    0    0    0  0.00000000000E+00  0.00000000000E+00  0.45593999997E+02  0.45594000000E+02  0.51100000000E-03 0. -1.
         11   -1    0    0    0    0 -0.00000000000E+00 -0.00000000000E+00 -0.45593999997E+02  0.45594000000E+02  0.51100000000E-03 0.  1.
    9900012    2    1    2    0    0 -0.45847076923E+00  0.90632124129E+00  0.60115440323E+00  0.90007745682E+02  0.90000007125E+02 0.  0.
        -12    1    1    2    0    0  0.45847076923E+00 -0.90632124129E+00 -0.60115440323E+00  0.11802543180E+01  0.00000000000E+00 0.  1.
         11    1    3    3    0    0  0.76319650545E+01  0.39204916499E+01 -0.20762985207E+01  0.88276928571E+01  0.51100000000E-03 0. -1.
        -11    1    3    3    0    0  0.11951044289E+02 -0.38527055431E+02  0.22334443346E+01  0.40399872941E+02  0.51100000000E-03 0.  1.
         12    1    3    3    0    0 -0.20041480113E+02  0.35512885022E+02  0.44400858926E+00  0.40780179884E+02  0.00000000000E+00 0. -1.
</event>
<event>
 7    1  0.4359248E-015  0.9000753E+02  0.7816164E-02  0.1186339E+00
        -11   -1    0    0    0    0  0.00000000000E+00  0.00000000000E+00  0.45593999997E+02  0.45594000000E+02  0.51100000000E-03 0.  1.
         11   -1    0    0    0    0 -0.00000000000E+00 -0.00000000000E+00 -0.45593999997E+02  0.45594000000E+02  0.51100000000E-03 0. -1.
    9900012    2    1    2    0    0 -0.48042256711E-01  0.10884421877E+01 -0.45440755767E+00  0.90007533701E+02  0.89999792346E+02 0.  0.
        -12    1    1    2    0    0  0.48042256711E-01 -0.10884421877E+01  0.45440755767E+00  0.11804662989E+01  0.00000000000E+00 0.  1.
         11    1    3    3    0    0  0.34410383560E+02 -0.29369027131E+01  0.13712476604E+02  0.37158201103E+02  0.51100000000E-03 0. -1.
        -11    1    3    3    0    0  0.43078637062E+01  0.81729142233E+01  0.37135880954E+01  0.99571558899E+01  0.51100000000E-03 0.  1.
        -12    1    3    3    0    0 -0.38766289523E+02 -0.41475693225E+01 -0.17880472257E+02  0.42892176709E+02  0.00000000000E+00 0.  1.
</event>
<event>
 7    1  0.4359248E-015  0.9000763E+02  0.7816164E-02  0.1186339E+00
        -11   -1    0    0    0    0  0.00000000000E+00  0.00000000000E+00  0.45593999997E+02  0.45594000000E+02  0.51100000000E-03 0. -1.
         11   -1    0    0    0    0 -0.00000000000E+00 -0.00000000000E+00 -0.45593999997E+02  0.45594000000E+02  0.51100000000E-03 0.  1.
    9900012    2    1    2    0    0  0.89126092631E+00 -0.15390007720E-01 -0.77375110411E+00  0.90007629862E+02  0.89999889776E+02 0.  0.
        -12    1    1    2    0    0 -0.89126092631E+00  0.15390007720E-01  0.77375110411E+00  0.11803701378E+01  0.00000000000E+00 0.  1.
         11    1    3    3    0    0  0.10013780825E+01 -0.56254831618E+01 -0.57349249298E+01  0.80955656429E+01  0.51100000000E-03 0. -1.
        -11    1    3    3    0    0 -0.15258240725E+02 -0.68469539925E+01 -0.34224659761E+02  0.38092283011E+02  0.51100000000E-03 0.  1.
         12    1    3    3    0    0  0.15148123569E+02  0.12457047147E+02  0.39185833586E+02  0.43819781208E+02  0.00000000000E+00 0. -1.
</event>
<event>
 7    1  0.4359248E-015  0.9000790E+02  0.7816164E-02  0.1186339E+00
        -11   -1    0    0    0    0  0.00000000000E+00  0.00000000000E+00  0.45593999997E+02  0.45594000000E+02  0.51100000000E-03 0. -1.
         11   -1    0    0    0    0 -0.00000000000E+00 -0.00000000000E+00 -0.45593999997E+02  0.45594000000E+02  0.51100000000E-03 0.  1.
    9900012    2    1    2    0    0 -0.87252636118E+00  0.78528605855E+00 -0.12106937346E+00  0.90007900751E+02  0.90000164241E+02 0.  0.
        -12    1    1    2    0    0  0.87252636118E+00 -0.78528605855E+00  0.12106937346E+00  0.11800992492E+01  0.00000000000E+00 0.  1.
         11    1    3    3    0    0 -0.31343611422E+02 -0.30485675511E+02 -0.37665776313E+01  0.43886051265E+02  0.51100000000E-03 0. -1.
        -11    1    3    3    0    0  0.75635248541E+01  0.29880547601E+01  0.52680348556E+01  0.96895598955E+01  0.51100000000E-03 0.  1.
        -12    1    3    3    0    0  0.22907560207E+02  0.28282906809E+02 -0.16225265978E+01  0.36432289590E+02  0.00000000000E+00 0.  1.
</event>
<event>
 7    1  0.4359248E-015  0.9000776E+02  0.7816164E-02  0.1186339E+00
        -11   -1    0    0    0    0  0.00000000000E+00  0.00000000000E+00  0.45593999997E+02  0.45594000000E+02  0.51100000000E-03 0.  1.
         11   -1    0    0    0    0 -0.00000000000E+00 -0.00000000000E+00 -0.45593999997E+02  0.45594000000E+02  0.51100000000E-03 0. -1.
    9900012    2    1    2    0    0  0.31308485918E+00  0.11344141576E+01 -0.89745079233E-01  0.90007757741E+02  0.90000019344E+02 0.  0.
        -12    1    1    2    0    0 -0.31308485918E+00 -0.11344141576E+01  0.89745079233E-01  0.11802422587E+01  0.00000000000E+00 0.  1.
         11    1    3    3    0    0 -0.47546414544E+01  0.49072703897E+01  0.98834032711E+01  0.12015389237E+02  0.51100000000E-03 0. -1.
        -11    1    3    3    0    0 -0.11308952887E+02 -0.33477082504E+02  0.12298265780E+02  0.37414633632E+02  0.51100000000E-03 0.  1.
         12    1    3    3    0    0  0.16376679201E+02  0.29704226271E+02 -0.22271414130E+02  0.40577734872E+02  0.00000000000E+00 0. -1.
</event>
<event>
 7    1  0.4359248E-015  0.9000765E+02  0.7816164E-02  0.1186339E+00
        -11   -1    0    0    0    0  0.00000000000E+00  0.00000000000E+00  0.45593999997E+02  0.45594000000E+02  0.51100000000E-03 0. -1.
         11   -1    0    0    0    0 -0.00000000000E+00 -0.00000000000E+00 -0.45593999997E+02  0.45594000000E+02  0.51100000000E-03 0.  1.
    9900012    2    1    2    0    0 -0.84966088704E-01  0.83286485174E+00  0.83206639670E+00  0.90007653616E+02  0.89999913844E+02 0.  0.
        -12    1    1    2    0    0  0.84966088704E-01 -0.83286485174E+00 -0.83206639670E+00  0.11803463839E+01  0.00000000000E+00 0.  1.
         11    1    3    3    0    0  0.41139932310E+01  0.32297015787E+01  0.36926736496E+02  0.37295305081E+02  0.51100000000E-03 0. -1.
        -11    1    3    3    0    0 -0.42226109854E+01  0.15742089252E+02 -0.56057653283E+01  0.17235672970E+02  0.51100000000E-03 0.  1.
        -12    1    3    3    0    0  0.23651665759E-01 -0.18138925979E+02 -0.30488904771E+02  0.35476675565E+02  0.00000000000E+00 0.  1.
</event>
<event>
 7    1  0.4359248E-015  0.9000772E+02  0.7816164E-02  0.1186339E+00
        -11   -1    0    0    0    0  0.00000000000E+00  0.00000000000E+00  0.45593999997E+02  0.45594000000E+02  0.51100000000E-03 0. -1.
         11   -1    0    0    0    0 -0.00000000000E+00 -0.00000000000E+00 -0.45593999997E+02  0.45594000000E+02  0.51100000000E-03 0.  1.
    9900012    2    1    2    0    0  0.11195488360E+01 -0.36670040884E+00 -0.72145538376E-01  0.90007718777E+02  0.89999979865E+02 0.  0.
        -12    1    1    2    0    0 -0.11195488360E+01  0.36670040884E+00  0.72145538376E-01  0.11802812228E+01  0.00000000000E+00 0.  1.
         11    1    3    3    0    0 -0.62029541574E+01  0.47961062824E+01  0.49960431914E+01  0.92972965738E+01  0.51100000000E-03 0. -1.
        -11    1    3    3    0    0 -0.33037564831E+02  0.39235230573E+01 -0.17394970820E+02  0.37542772050E+02  0.51100000000E-03 0.  1.
         12    1    3    3    0    0  0.40360067824E+02 -0.90863297485E+01  0.12326782090E+02  0.43167650153E+02  0.00000000000E+00 0. -1.
</event>
<event>
 7    1  0.4359248E-015  0.9000763E+02  0.7816164E-02  0.1186339E+00
        -11   -1    0    0    0    0  0.00000000000E+00  0.00000000000E+00  0.45593999997E+02  0.45594000000E+02  0.51100000000E-03 0. -1.
         11   -1    0    0    0    0 -0.00000000000E+00 -0.00000000000E+00 -0.45593999997E+02  0.45594000000E+02  0.51100000000E-03 0.  1.
    9900012    2    1    2    0    0  0.64608634101E+00  0.69378668577E+00  0.70321393699E+00  0.90007628293E+02  0.89999888186E+02 0.  0.
        -12    1    1    2    0    0 -0.64608634101E+00 -0.69378668577E+00 -0.70321393699E+00  0.11803717070E+01  0.00000000000E+00 0.  1.
         11    1    3    3    0    0 -0.20665968565E+02  0.33826825621E+02 -0.19569134784E+01  0.39688359741E+02  0.51100000000E-03 0. -1.
        -11    1    3    3    0    0 -0.53468527894E+01 -0.83259087548E+00  0.62709469634E+01  0.82829233001E+01  0.51100000000E-03 0.  1.
        -12    1    3    3    0    0  0.26658907695E+02 -0.32300448059E+02 -0.36108195480E+01  0.42036345252E+02  0.00000000000E+00 0.  1.
</event>
<event>
 7    1  0.4359248E-015  0.9000782E+02  0.7816164E-02  0.1186339E+00
        -11   -1    0    0    0    0  0.00000000000E+00  0.00000000000E+00  0.45593999997E+02  0.45594000000E+02  0.51100000000E-03 0.  1.
         11   -1    0    0    0    0 -0.00000000000E+00 -0.00000000000E+00 -0.45593999997E+02  0.45594000000E+02  0.51100000000E-03 0. -1.
    9900012    2    1    2    0    0  0.30681509944E+00  0.11275166528E+01 -0.16549593507E+00  0.90007822805E+02  0.90000085266E+02 0.  0.
        -12    1    1    2    0    0 -0.30681509944E+00 -0.11275166528E+01  0.16549593507E+00  0.11801771952E+01  0.00000000000E+00 0.  1.
         11    1    3    3    0    0 -0.22308376944E+01  0.38035092336E+02 -0.10550883340E+02  0.39534365119E+02  0.51100000000E-03 0. -1.
        -11    1    3    3    0    0  0.11950141602E+02 -0.12836638711E+01 -0.57143180901E+00  0.12032464910E+02  0.51100000000E-03 0.  1.
        -12    1    3    3    0    0 -0.94124888079E+01 -0.35623911812E+02  0.10956819214E+02  0.38440992776E+02  0.00000000000E+00 0.  1.
</event>
<event>
 7    1  0.4359248E-015  0.9000783E+02  0.7816164E-02  0.1186339E+00
        -11   -1    0    0    0    0  0.00000000000E+00  0.00000000000E+00  0.45593999997E+02  0.45594000000E+02  0.51100000000E-03 0. -1.
         11   -1    0    0    0    0 -0.00000000000E+00 -0.00000000000E+00 -0.45593999997E+02  0.45594000000E+02  0.51100000000E-03 0.  1.
    9900012    2    1    2    0    0  0.79510633584E+00 -0.86999405486E+00 -0.60992463926E-01  0.90007828902E+02  0.90000091443E+02 0.  0.
        -12    1    1    2    0    0 -0.79510633584E+00  0.86999405486E+00  0.60992463926E-01  0.11801710984E+01  0.00000000000E+00 0.  1.
         11    1    3    3    0    0  0.35526432160E+02 -0.15697891034E+02  0.75599878145E+01  0.39568985088E+02  0.51100000000E-03 0. -1.
        -11    1    3    3    0    0 -0.24221229078E+01 -0.28846141713E+00  0.10254029219E+02  0.10540161520E+02  0.51100000000E-03 0.  1.
        -12    1    3    3    0    0 -0.32309202916E+02  0.15116358396E+02 -0.17875009498E+02  0.39898682294E+02  0.00000000000E+00 0.  1.
</event>
<event>
 7    1  0.4359248E-015  0.9000775E+02  0.7816164E-02  0.1186339E+00
        -11   -1    0    0    0    0  0.00000000000E+00  0.00000000000E+00  0.45593999997E+02  0.45594000000E+02  0.51100000000E-03 0. -1.
         11   -1    0    0    0    0 -0.00000000000E+00 -0.00000000000E+00 -0.45593999997E+02  0.45594000000E+02  0.51100000000E-03 0.  1.
    9900012    2    1    2    0    0  0.77498687156E-01  0.10357251278E+01  0.56058388425E+00  0.90007751349E+02  0.90000012867E+02 0.  0.
        -12    1    1    2    0    0 -0.77498687156E-01 -0.10357251278E+01 -0.56058388425E+00  0.11802486510E+01  0.00000000000E+00 0.  1.
         11    1    3    3    0    0  0.93426776853E+01 -0.33750042054E+02  0.98472329526E+01  0.36377451286E+02  0.51100000000E-03 0. -1.
        -11    1    3    3    0    0 -0.45144777786E+01 -0.79361190238E+01  0.16438789860E+01  0.92771134064E+01  0.51100000000E-03 0.  1.
        -12    1    3    3    0    0 -0.47507012196E+01  0.42721886206E+02 -0.10930528054E+02  0.44353186657E+02  0.00000000000E+00 0.  1.
</event>
<event>
 7    1  0.4359248E-015  0.9000770E+02  0.7816164E-02  0.1186339E+00
        -11   -1    0    0    0    0  0.00000000000E+00  0.00000000000E+00  0.45593999997E+02  0.45594000000E+02  0.51100000000E-03 0.  1.
         11   -1    0    0    0    0 -0.00000000000E+00 -0.00000000000E+00 -0.45593999997E+02  0.45594000000E+02  0.51100000000E-03 0. -1.
    9900012    2    1    2    0    0  0.16438744388E-02  0.11116350385E+01 -0.39668934630E+00  0.90007704444E+02  0.89999965343E+02 0.  0.
        -12    1    1    2    0    0 -0.16438744388E-02 -0.11116350385E+01  0.39668934630E+00  0.11802955556E+01  0.00000000000E+00 0.  1.
         11    1    3    3    0    0 -0.75763111275E+01 -0.45220336853E+01  0.38750393443E+01  0.96366596460E+01  0.51100000000E-03 0. -1.
        -11    1    3    3    0    0  0.19054609789E+02 -0.23231288210E+02  0.23933649129E+02  0.38413415196E+02  0.51100000000E-03 0.  1.
         12    1    3    3    0    0 -0.11476654787E+02  0.28864956934E+02 -0.28205377819E+02  0.41957629602E+02  0.00000000000E+00 0. -1.
</event>
<event>
 7    1  0.4359248E-015  0.9000777E+02  0.7816164E-02  0.1186339E+00
        -11   -1    0    0    0    0  0.00000000000E+00  0.00000000000E+00  0.45593999997E+02  0.45594000000E+02  0.51100000000E-03 0.  1.
         11   -1    0    0    0    0 -0.00000000000E+00 -0.00000000000E+00 -0.45593999997E+02  0.45594000000E+02  0.51100000000E-03 0. -1.
    9900012    2    1    2    0    0 -0.23142542140E+00 -0.20893009943E+00 -0.11382980758E+01  0.90007774589E+02  0.90000036413E+02 0.  0.
        -12    1    1    2    0    0  0.23142542140E+00  0.20893009943E+00  0.11382980758E+01  0.11802254113E+01  0.00000000000E+00 0.  1.
         11    1    3    3    0    0 -0.10458304360E+02 -0.10135743682E+01 -0.35262987014E+02  0.36795131695E+02  0.51100000000E-03 0. -1.
        -11    1    3    3    0    0 -0.76372956009E+01  0.37998537097E+01 -0.51484385295E+01  0.99636133940E+01  0.51100000000E-03 0.  1.
        -12    1    3    3    0    0  0.17864174539E+02 -0.29952094410E+01  0.39273127468E+02  0.43249029499E+02  0.00000000000E+00 0.  1.
</event>
<event>
 7    1  0.4359248E-015  0.9000807E+02  0.7816164E-02  0.1186338E+00
        -11   -1    0    0    0    0  0.00000000000E+00  0.00000000000E+00  0.45593999997E+02  0.45594000000E+02  0.51100000000E-03 0. -1.
         11   -1    0    0    0    0 -0.00000000000E+00 -0.00000000000E+00 -0.45593999997E+02  0.45594000000E+02  0.51100000000E-03 0.  1.
    9900012    2    1    2    0    0 -0.87062639301E+00  0.73378593466E+00 -0.30952833170E+00  0.90008067840E+02  0.90000333535E+02 0.  0.
        -12    1    1    2    0    0  0.87062639301E+00 -0.73378593466E+00  0.30952833170E+00  0.11799321600E+01  0.00000000000E+00 0.  1.
         11    1    3    3    0    0 -0.50232702454E+01 -0.20839669480E+01  0.73844671687E+01  0.91709605727E+01  0.51100000000E-03 0. -1.
        -11    1    3    3    0    0 -0.18326759816E+02 -0.31531660721E+02  0.71865428815E+01  0.37172061444E+02  0.51100000000E-03 0.  1.
         12    1    3    3    0    0  0.22479403668E+02  0.34349413604E+02 -0.14880538382E+02  0.43665045823E+02  0.00000000000E+00 0. -1.
</event>
<event>
 7    1  0.4359248E-015  0.9000779E+02  0.7816164E-02  0.1186339E+00
        -11   -1    0    0    0    0  0.00000000000E+00  0.00000000000E+00  0.45593999997E+02  0.45594000000E+02  0.51100000000E-03 0.  1.
         11   -1    0    0    0    0 -0.00000000000E+00 -0.00000000000E+00 -0.45593999997E+02  0.45594000000E+02  0.51100000000E-03 0. -1.
    9900012    2    1    2    0    0  0.11337338739E+01  0.29258254984E+00 -0.14811601654E+00  0.90007790104E+02  0.90000052133E+02 0.  0.
        -12    1    1    2    0    0 -0.11337338739E+01 -0.29258254984E+00  0.14811601654E+00  0.11802098964E+01  0.00000000000E+00 0.  1.
         11    1    3    3    0    0 -0.14073346343E+02 -0.43435170309E+01 -0.11402133378E+01  0.14772450853E+02  0.51100000000E-03 0. -1.
        -11    1    3    3    0    0 -0.19164005669E+01 -0.27099821982E+02  0.20686678514E+02  0.34146912170E+02  0.51100000000E-03 0.  1.
         12    1    3    3    0    0  0.17123480784E+02  0.31735921563E+02 -0.19694581192E+02  0.41088427080E+02  0.00000000000E+00 0. -1.
</event>
<event>
 7    1  0.4359248E-015  0.9000765E+02  0.7816164E-02  0.1186339E+00
        -11   -1    0    0    0    0  0.00000000000E+00  0.00000000000E+00  0.45593999997E+02  0.45594000000E+02  0.51100000000E-03 0.  1.
         11   -1    0    0    0    0 -0.00000000000E+00 -0.00000000000E+00 -0.45593999997E+02  0.45594000000E+02  0.51100000000E-03 0. -1.
    9900012    2    1    2    0    0  0.82695217997E+00 -0.57597214483E-01 -0.84027705851E+00  0.90007647137E+02  0.89999907279E+02 0.  0.
        -12    1    1    2    0    0 -0.82695217997E+00  0.57597214483E-01  0.84027705851E+00  0.11803528634E+01  0.00000000000E+00 0.  1.
         11    1    3    3    0    0 -0.60748978116E+01 -0.12106740734E+01  0.45501848281E+01  0.76859805727E+01  0.51100000000E-03 0. -1.
        -11    1    3    3    0    0 -0.92452101467E+01 -0.12614518337E+02  0.34086442946E+02  0.37503140888E+02  0.51100000000E-03 0.  1.
         12    1    3    3    0    0  0.16147060138E+02  0.13767595196E+02 -0.39476904833E+02  0.44818525676E+02  0.00000000000E+00 0. -1.
</event>
<event>
 7    1  0.4359248E-015  0.9000775E+02  0.7816164E-02  0.1186339E+00
        -11   -1    0    0    0    0  0.00000000000E+00  0.00000000000E+00  0.45593999997E+02  0.45594000000E+02  0.51100000000E-03 0. -1.
         11   -1    0    0    0    0 -0.00000000000E+00 -0.00000000000E+00 -0.45593999997E+02  0.45594000000E+02  0.51100000000E-03 0.  1.
    9900012    2    1    2    0    0  0.10072678762E+00 -0.52403773260E+00  0.10527227710E+01  0.90007751440E+02  0.90000012959E+02 0.  0.
        -12    1    1    2    0    0 -0.10072678762E+00  0.52403773260E+00 -0.10527227710E+01  0.11802485600E+01  0.00000000000E+00 0.  1.
         11    1    3    3    0    0  0.62196685569E+01 -0.60187595224E+01 -0.38054604160E+01  0.94546957849E+01  0.51100000000E-03 0. -1.
        -11    1    3    3    0    0 -0.32859922441E+02 -0.96296175332E+01 -0.21195754965E+02  0.40271131912E+02  0.51100000000E-03 0.  1.
         12    1    3    3    0    0  0.26740980672E+02  0.15124339323E+02  0.26053938152E+02  0.40281923743E+02  0.00000000000E+00 0. -1.
</event>
<event>
 7    1  0.4359248E-015  0.9000771E+02  0.7816164E-02  0.1186339E+00
        -11   -1    0    0    0    0  0.00000000000E+00  0.00000000000E+00  0.45593999997E+02  0.45594000000E+02  0.51100000000E-03 0.  1.
         11   -1    0    0    0    0 -0.00000000000E+00 -0.00000000000E+00 -0.45593999997E+02  0.45594000000E+02  0.51100000000E-03 0. -1.
    9900012    2    1    2    0    0 -0.43132766616E+00  0.10983426282E+01 -0.26236427815E-01  0.90007708326E+02  0.89999969276E+02 0.  0.
        -12    1    1    2    0    0  0.43132766616E+00 -0.10983426282E+01  0.26236427815E-01  0.11802916736E+01  0.00000000000E+00 0.  1.
         11    1    3    3    0    0  0.98145847727E+01  0.70529891389E+01 -0.37046292665E+02  0.38967916682E+02  0.51100000000E-03 0. -1.
        -11    1    3    3    0    0 -0.58323656540E+01 -0.53706591208E+01 -0.46107129590E+01  0.91716488575E+01  0.51100000000E-03 0.  1.
        -12    1    3    3    0    0 -0.44135467848E+01 -0.58398738985E+00  0.41630769197E+02  0.41868142787E+02  0.00000000000E+00 0.  1.
</event>
<event>
 7    1  0.4359248E-015  0.9000769E+02  0.7816164E-02  0.1186339E+00
        -11   -1    0    0    0    0  0.00000000000E+00  0.00000000000E+00  0.45593999997E+02  0.45594000000E+02  0.51100000000E-03 0. -1.
         11   -1    0    0    0    0 -0.00000000000E+00 -0.00000000000E+00 -0.45593999997E+02  0.45594000000E+02  0.51100000000E-03 0.  1.
    9900012    2    1    2    0    0  0.97345028694E+00 -0.66612381614E+00 -0.42529551672E-01  0.90007688532E+02  0.89999949220E+02 0.  0.
        -12    1    1    2    0    0 -0.97345028694E+00  0.66612381614E+00  0.42529551672E-01  0.11803114684E+01  0.00000000000E+00 0.  1.
         11    1    3    3    0    0 -0.76500305573E+01  0.64471657782E+01 -0.80700647374E+00  0.10036940461E+02  0.51100000000E-03 0. -1.
        -11    1    3    3    0    0 -0.22102241653E+02 -0.23205307371E+02 -0.21649421072E+02  0.38674187895E+02  0.51100000000E-03 0.  1.
         12    1    3    3    0    0  0.30725722497E+02  0.16092017777E+02  0.22413897995E+02  0.41296560176E+02  0.00000000000E+00 0. -1.
</event>
<event>
 7    1  0.4359248E-015  0.9000765E+02  0.7816164E-02  0.1186339E+00
        -11   -1    0    0    0    0  0.00000000000E+00  0.00000000000E+00  0.45593999997E+02  0.45594000000E+02  0.51100000000E-03 0.  1.
         11   -1    0    0    0    0 -0.00000000000E+00 -0.00000000000E+00 -0.45593999997E+02  0.45594000000E+02  0.51100000000E-03 0. -1.
    9900012    2    1    2    0    0 -0.70210563383E+00 -0.35278969307E+00 -0.88079987988E+00  0.90007652036E+02  0.89999912242E+02 0.  0.
        -12    1    1    2    0    0  0.70210563383E+00  0.35278969307E+00  0.88079987988E+00  0.11803479644E+01  0.00000000000E+00 0.  1.
         11    1    3    3    0    0  0.85241487736E+01 -0.65179592370E+00  0.66585880418E+01  0.10836177611E+02  0.51100000000E-03 0. -1.
        -11    1    3    3    0    0  0.63289416006E+01  0.10778186867E+02  0.32574094638E+02  0.34889775804E+02  0.51100000000E-03 0.  1.
         12    1    3    3    0    0 -0.15555196008E+02 -0.10479180637E+02 -0.40113482560E+02  0.44281698621E+02  0.00000000000E+00 0. -1.
</event>
<event>
 7    1  0.4722382E-015  0.9000770E+02  0.7816164E-02  0.1186339E+00
        -11   -1    0    0    0    0  0.00000000000E+00  0.00000000000E+00  0.45593999997E+02  0.45594000000E+02  0.51100000000E-03 0. -1.
         11   -1    0    0    0    0 -0.00000000000E+00 -0.00000000000E+00 -0.45593999997E+02  0.45594000000E+02  0.51100000000E-03 0.  1.
    9900012    2    1    2    0    0 -0.33733263510E+00 -0.90404323783E+00  0.67971995573E+00  0.90007700589E+02  0.89999961436E+02 0.  0.
        -12    1    1    2    0    0  0.33733263510E+00  0.90404323783E+00 -0.67971995573E+00  0.11802994115E+01  0.00000000000E+00 0.  1.
         11    1    3    3    0    0  0.63229971141E+01 -0.54767419335E+01 -0.45873071120E+01  0.95403554186E+01  0.51100000000E-03 0. -1.
        -11    1    3    3    0    0 -0.71230831440E+01 -0.17435451441E+02 -0.32030881106E+02  0.37157914704E+02  0.51100000000E-03 0.  1.
         12    1    3    3    0    0  0.46275339479E+00  0.22008150137E+02  0.37297908174E+02  0.43309430466E+02  0.00000000000E+00 0. -1.
</event>
<event>
 7    1  0.4359248E-015  0.9000693E+02  0.7816164E-02  0.1186341E+00
        -11   -1    0    0    0    0  0.00000000000E+00  0.00000000000E+00  0.45593999997E+02  0.45594000000E+02  0.51100000000E-03 0.  1.
         11   -1    0    0    0    0 -0.00000000000E+00 -0.00000000000E+00 -0.45593999997E+02  0.45594000000E+02  0.51100000000E-03 0. -1.
    9900012    2    1    2    0    0  0.11513896847E+01  0.15154053496E+00  0.21507684214E+00  0.90006932353E+02  0.89999183056E+02 0.  0.
        -12    1    1    2    0    0 -0.11513896847E+01 -0.15154053496E+00 -0.21507684214E+00  0.11810676474E+01  0.00000000000E+00 0.  1.
         11    1    3    3    0    0 -0.36622183389E+02  0.13026065079E+02 -0.17723988989E+02  0.42720047678E+02  0.51100000000E-03 0. -1.
        -11    1    3    3    0    0  0.14976003060E+01 -0.48991221388E+01  0.67930061270E+01  0.85081805876E+01  0.51100000000E-03 0.  1.
        -12    1    3    3    0    0  0.36275972768E+02 -0.79754024056E+01  0.11146059704E+02  0.38778704087E+02  0.00000000000E+00 0.  1.
</event>
<event>
 7    1  0.4359248E-015  0.9000774E+02  0.7816164E-02  0.1186339E+00
        -11   -1    0    0    0    0  0.00000000000E+00  0.00000000000E+00  0.45593999997E+02  0.45594000000E+02  0.51100000000E-03 0.  1.
         11   -1    0    0    0    0 -0.00000000000E+00 -0.00000000000E+00 -0.45593999997E+02  0.45594000000E+02  0.51100000000E-03 0. -1.
    9900012    2    1    2    0    0  0.44023794103E+00 -0.50846547353E+00 -0.96988381058E+00  0.90007736814E+02  0.89999998140E+02 0.  0.
        -12    1    1    2    0    0 -0.44023794103E+00  0.50846547353E+00  0.96988381058E+00  0.11802631861E+01  0.00000000000E+00 0.  1.
         11    1    3    3    0    0 -0.25637108992E+02 -0.36734229498E+01 -0.24448263305E+02  0.35615628206E+02  0.51100000000E-03 0. -1.
        -11    1    3    3    0    0 -0.55939087615E+01 -0.33102944478E+01 -0.72877471002E+01  0.97653019728E+01  0.51100000000E-03 0.  1.
        -12    1    3    3    0    0  0.31671255695E+02  0.64752519241E+01  0.30766126595E+02  0.44626806635E+02  0.00000000000E+00 0.  1.
</event>
<event>
 7    1  0.4359248E-015  0.9000782E+02  0.7816164E-02  0.1186339E+00
        -11   -1    0    0    0    0  0.00000000000E+00  0.00000000000E+00  0.45593999997E+02  0.45594000000E+02  0.51100000000E-03 0. -1.
         11   -1    0    0    0    0 -0.00000000000E+00 -0.00000000000E+00 -0.45593999997E+02  0.45594000000E+02  0.51100000000E-03 0.  1.
    9900012    2    1    2    0    0 -0.11753252484E+01 -0.46885154667E-01 -0.96054924593E-01  0.90007824502E+02  0.90000086986E+02 0.  0.
        -12    1    1    2    0    0  0.11753252484E+01  0.46885154667E-01  0.96054924593E-01  0.11801754978E+01  0.00000000000E+00 0.  1.
         11    1    3    3    0    0  0.73962835334E+01  0.55547598835E+01 -0.37542236940E+01  0.99827132221E+01  0.51100000000E-03 0. -1.
        -11    1    3    3    0    0  0.25162355151E+02 -0.26436907863E+02  0.13932122311E+02  0.39066075391E+02  0.51100000000E-03 0.  1.
         12    1    3    3    0    0 -0.33733963933E+02  0.20835262825E+02 -0.10273953542E+02  0.40959035889E+02  0.00000000000E+00 0. -1.
</event>
<event>
 7    1  0.4359248E-015  0.9000770E+02  0.7816164E-02  0.1186339E+00
        -11   -1    0    0    0    0  0.00000000000E+00  0.00000000000E+00  0.45593999997E+02  0.45594000000E+02  0.51100000000E-03 0. -1.
         11   -1    0    0    0    0 -0.00000000000E+00 -0.00000000000E+00 -0.45593999997E+02  0.45594000000E+02  0.51100000000E-03 0.  1.
    9900012    2    1    2    0    0 -0.75998919470E-01 -0.84468297654E+00  0.82087663383E+00  0.90007701896E+02  0.89999962761E+02 0.  0.
        -12    1    1    2    0    0  0.75998919470E-01  0.84468297654E+00 -0.82087663383E+00  0.11802981041E+01  0.00000000000E+00 0.  1.
         11    1    3    3    0    0  0.56885637322E+01  0.47404204364E+00  0.84311398260E+01  0.10181777459E+02  0.51100000000E-03 0. -1.
        -11    1    3    3    0    0  0.18933705314E+02 -0.30522025347E+02 -0.18024207382E+02  0.40186456428E+02  0.51100000000E-03 0.  1.
         12    1    3    3    0    0 -0.24698267965E+02  0.29203300327E+02  0.10413944189E+02  0.39639468009E+02  0.00000000000E+00 0. -1.
</event>
<event>
 7    1  0.4359248E-015  0.9000760E+02  0.7816164E-02  0.1186339E+00
        -11   -1    0    0    0    0  0.00000000000E+00  0.00000000000E+00  0.45593999997E+02  0.45594000000E+02  0.51100000000E-03 0. -1.
         11   -1    0    0    0    0 -0.00000000000E+00 -0.00000000000E+00 -0.45593999997E+02  0.45594000000E+02  0.51100000000E-03 0.  1.
    9900012    2    1    2    0    0  0.50259721360E-01 -0.15899238728E+00  0.11685589264E+01  0.90007604057E+02  0.89999863630E+02 0.  0.
        -12    1    1    2    0    0 -0.50259721360E-01  0.15899238728E+00 -0.11685589264E+01  0.11803959434E+01  0.00000000000E+00 0.  1.
         11    1    3    3    0    0 -0.37843901613E+01 -0.69091457087E+01 -0.42826062971E+01  0.89665277713E+01  0.51100000000E-03 0. -1.
        -11    1    3    3    0    0 -0.19402648820E+02 -0.20005862465E+02 -0.22570732006E+02  0.35862727974E+02  0.51100000000E-03 0.  1.
         12    1    3    3    0    0  0.23237298703E+02  0.26756015786E+02  0.28021897230E+02  0.45178348311E+02  0.00000000000E+00 0. -1.
</event>
<event>
 7    1  0.4359248E-015  0.9000774E+02  0.7816164E-02  0.1186339E+00
        -11   -1    0    0    0    0  0.00000000000E+00  0.00000000000E+00  0.45593999997E+02  0.45594000000E+02  0.51100000000E-03 0.  1.
         11   -1    0    0    0    0 -0.00000000000E+00 -0.00000000000E+00 -0.45593999997E+02  0.45594000000E+02  0.51100000000E-03 0. -1.
    9900012    2    1    2    0    0  0.84803324957E-01  0.49896109091E+00  0.10662361145E+01  0.90007740187E+02  0.90000001558E+02 0.  0.
        -12    1    1    2    0    0 -0.84803324957E-01 -0.49896109091E+00 -0.10662361145E+01  0.11802598130E+01  0.00000000000E+00 0.  1.
         11    1    3    3    0    0  0.10184385143E+02 -0.60593684003E+01 -0.59534324196E+00  0.11865583845E+02  0.51100000000E-03 0. -1.
        -11    1    3    3    0    0 -0.21607472304E+02  0.33731754534E+02 -0.16684361094E+02  0.43394493068E+02  0.51100000000E-03 0.  1.
         12    1    3    3    0    0  0.11507890486E+02 -0.27173425043E+02  0.18345940450E+02  0.34747663274E+02  0.00000000000E+00 0. -1.
</event>
<event>
 7    1  0.4359248E-015  0.9000780E+02  0.7816164E-02  0.1186339E+00
        -11   -1    0    0    0    0  0.00000000000E+00  0.00000000000E+00  0.45593999997E+02  0.45594000000E+02  0.51100000000E-03 0. -1.
         11   -1    0    0    0    0 -0.00000000000E+00 -0.00000000000E+00 -0.45593999997E+02  0.45594000000E+02  0.51100000000E-03 0.  1.
    9900012    2    1    2    0    0  0.23818003800E+00  0.19901534464E+00  0.11386571048E+01  0.90007797966E+02  0.90000060100E+02 0.  0.
        -12    1    1    2    0    0 -0.23818003800E+00 -0.19901534464E+00 -0.11386571048E+01  0.11802020336E+01  0.00000000000E+00 0.  1.
         11    1    3    3    0    0  0.17923565488E+01  0.23082686409E+00 -0.11465687943E+02  0.11607231509E+02  0.51100000000E-03 0. -1.
        -11    1    3    3    0    0 -0.23334286250E+02 -0.23503308366E+02 -0.14779949573E+02  0.36267634725E+02  0.51100000000E-03 0.  1.
         12    1    3    3    0    0  0.21780109739E+02  0.23471496846E+02  0.27384294621E+02  0.42132931732E+02  0.00000000000E+00 0. -1.
</event>
<event>
 7    1  0.4359248E-015  0.9000775E+02  0.7816164E-02  0.1186339E+00
        -11   -1    0    0    0    0  0.00000000000E+00  0.00000000000E+00  0.45593999997E+02  0.45594000000E+02  0.51100000000E-03 0. -1.
         11   -1    0    0    0    0 -0.00000000000E+00 -0.00000000000E+00 -0.45593999997E+02  0.45594000000E+02  0.51100000000E-03 0.  1.
    9900012    2    1    2    0    0 -0.11141465391E+01 -0.36609841209E+00 -0.13281065658E+00  0.90007750353E+02  0.90000011858E+02 0.  0.
        -12    1    1    2    0    0  0.11141465391E+01  0.36609841209E+00  0.13281065658E+00  0.11802496466E+01  0.00000000000E+00 0.  1.
         11    1    3    3    0    0  0.38387560502E+02 -0.42136179157E+00 -0.32451820046E+01  0.38526790076E+02  0.51100000000E-03 0. -1.
        -11    1    3    3    0    0  0.51788916817E+01 -0.45515194271E-01  0.43791022281E+01  0.67822951328E+01  0.51100000000E-03 0.  1.
        -12    1    3    3    0    0 -0.44680598723E+02  0.10077857375E+00 -0.12667308801E+01  0.44698665144E+02  0.00000000000E+00 0.  1.
</event>
<event>
 7    1  0.4359248E-015  0.9000763E+02  0.7816164E-02  0.1186339E+00
        -11   -1    0    0    0    0  0.00000000000E+00  0.00000000000E+00  0.45593999997E+02  0.45594000000E+02  0.51100000000E-03 0.  1.
         11   -1    0    0    0    0 -0.00000000000E+00 -0.00000000000E+00 -0.45593999997E+02  0.45594000000E+02  0.51100000000E-03 0. -1.
    9900012    2    1    2    0    0  0.13851758651E+00 -0.56309444923E+00 -0.10281103294E+01  0.90007630003E+02  0.89999889919E+02 0.  0.
        -12    1    1    2    0    0 -0.13851758651E+00  0.56309444923E+00  0.10281103294E+01  0.11803699970E+01  0.00000000000E+00 0.  1.
         11    1    3    3    0    0 -0.29620015017E+02 -0.28968206448E+01 -0.27077907378E+02  0.40236176852E+02  0.51100000000E-03 0. -1.
        -11    1    3    3    0    0 -0.45380429145E+01 -0.50909754728E+01  0.72815891497E+01  0.99766430008E+01  0.51100000000E-03 0.  1.
        -12    1    3    3    0    0  0.34296575518E+02  0.74247016683E+01  0.18768207899E+02  0.39794810150E+02  0.00000000000E+00 0.  1.
</event>
<event>
 7    1  0.4359248E-015  0.9000798E+02  0.7816164E-02  0.1186339E+00
        -11   -1    0    0    0    0  0.00000000000E+00  0.00000000000E+00  0.45593999997E+02  0.45594000000E+02  0.51100000000E-03 0.  1.
         11   -1    0    0    0    0 -0.00000000000E+00 -0.00000000000E+00 -0.45593999997E+02  0.45594000000E+02  0.51100000000E-03 0. -1.
    9900012    2    1    2    0    0 -0.26138018960E+00  0.46239577196E+00 -0.10537216141E+01  0.90007975130E+02  0.90000239602E+02 0.  0.
        -12    1    1    2    0    0  0.26138018960E+00 -0.46239577196E+00  0.10537216141E+01  0.11800248699E+01  0.00000000000E+00 0.  1.
         11    1    3    3    0    0 -0.14337586817E+02 -0.71713475099E+00 -0.40349645258E+02  0.42827264105E+02  0.51100000000E-03 0. -1.
        -11    1    3    3    0    0  0.10312272687E+02  0.56557119809E+00  0.30979565914E+01  0.10782401127E+02  0.51100000000E-03 0.  1.
        -12    1    3    3    0    0  0.37639339407E+01  0.61395932486E+00  0.36197967052E+02  0.36398309899E+02  0.00000000000E+00 0.  1.
</event>
<event>
 7    1  0.4359248E-015  0.9000773E+02  0.7816164E-02  0.1186339E+00
        -11   -1    0    0    0    0  0.00000000000E+00  0.00000000000E+00  0.45593999997E+02  0.45594000000E+02  0.51100000000E-03 0. -1.
         11   -1    0    0    0    0 -0.00000000000E+00 -0.00000000000E+00 -0.45593999997E+02  0.45594000000E+02  0.51100000000E-03 0.  1.
    9900012    2    1    2    0    0  0.58925177903E+00 -0.38912360245E+00  0.94572288224E+00  0.90007734518E+02  0.89999995814E+02 0.  0.
        -12    1    1    2    0    0 -0.58925177903E+00  0.38912360245E+00 -0.94572288224E+00  0.11802654816E+01  0.00000000000E+00 0.  1.
         11    1    3    3    0    0  0.55941577410E+01 -0.57082198079E+01 -0.97220524645E+01  0.12585574226E+02  0.51100000000E-03 0. -1.
        -11    1    3    3    0    0 -0.75403212562E+01 -0.83804349341E+01 -0.31265067331E+02  0.33235411383E+02  0.51100000000E-03 0.  1.
         12    1    3    3    0    0  0.25354152942E+01  0.13699531139E+02  0.41932842678E+02  0.44186748910E+02  0.00000000000E+00 0. -1.
</event>
<event>
 7    1  0.4359248E-015  0.9000789E+02  0.7816164E-02  0.1186339E+00
        -11   -1    0    0    0    0  0.00000000000E+00  0.00000000000E+00  0.45593999997E+02  0.45594000000E+02  0.51100000000E-03 0.  1.
         11   -1    0    0    0    0 -0.00000000000E+00 -0.00000000000E+00 -0.45593999997E+02  0.45594000000E+02  0.51100000000E-03 0. -1.
    9900012    2    1    2    0    0  0.66937694341E+00 -0.63624870006E-01 -0.96982105431E+00  0.90007887084E+02  0.90000150394E+02 0.  0.
        -12    1    1    2    0    0 -0.66937694341E+00  0.63624870006E-01  0.96982105431E+00  0.11801129157E+01  0.00000000000E+00 0.  1.
         11    1    3    3    0    0 -0.72661618032E+01  0.61856572202E+01 -0.43516252234E+00  0.95524253087E+01  0.51100000000E-03 0. -1.
        -11    1    3    3    0    0 -0.18664700057E+02  0.24624558102E+02  0.17919824800E+02  0.35719182676E+02  0.51100000000E-03 0.  1.
         12    1    3    3    0    0  0.26600238803E+02 -0.30873840193E+02 -0.18454483332E+02  0.44736279099E+02  0.00000000000E+00 0. -1.
</event>
<event>
 7    1  0.4359248E-015  0.9000775E+02  0.7816164E-02  0.1186339E+00
        -11   -1    0    0    0    0  0.00000000000E+00  0.00000000000E+00  0.45593999997E+02  0.45594000000E+02  0.51100000000E-03 0. -1.
         11   -1    0    0    0    0 -0.00000000000E+00 -0.00000000000E+00 -0.45593999997E+02  0.45594000000E+02  0.51100000000E-03 0.  1.
    9900012    2    1    2    0    0  0.29059672097E+00  0.19315613010E+00  0.11274895528E+01  0.90007750689E+02  0.90000012198E+02 0.  0.
        -12    1    1    2    0    0 -0.29059672097E+00 -0.19315613010E+00 -0.11274895528E+01  0.11802493112E+01  0.00000000000E+00 0.  1.
         11    1    3    3    0    0 -0.61985252231E+01  0.30127635446E+01 -0.53407529043E+01  0.87190653721E+01  0.51100000000E-03 0. -1.
        -11    1    3    3    0    0  0.19463917035E+02 -0.31456722532E+02 -0.18294760177E+02  0.41268240924E+02  0.51100000000E-03 0.  1.
         12    1    3    3    0    0 -0.12974795091E+02  0.28637115117E+02  0.24763002635E+02  0.40020444392E+02  0.00000000000E+00 0. -1.
</event>
<event>
 7    1  0.4359248E-015  0.9000766E+02  0.7816164E-02  0.1186339E+00
        -11   -1    0    0    0    0  0.00000000000E+00  0.00000000000E+00  0.45593999997E+02  0.45594000000E+02  0.51100000000E-03 0.  1.
         11   -1    0    0    0    0 -0.00000000000E+00 -0.00000000000E+00 -0.45593999997E+02  0.45594000000E+02  0.51100000000E-03 0. -1.
    9900012    2    1    2    0    0 -0.55965765232E+00 -0.75516132397E+00 -0.71394186354E+00  0.90007661787E+02  0.89999922122E+02 0.  0.
        -12    1    1    2    0    0  0.55965765232E+00  0.75516132397E+00  0.71394186354E+00  0.11803382132E+01  0.00000000000E+00 0.  1.
         11    1    3    3    0    0  0.24077728132E+01  0.34414719706E+02 -0.15308205359E+02  0.37742700671E+02  0.51100000000E-03 0. -1.
        -11    1    3    3    0    0  0.11101939549E+02  0.75886884668E+00  0.63381941945E+01  0.12806312880E+02  0.51100000000E-03 0.  1.
        -12    1    3    3    0    0 -0.14069370014E+02 -0.35928749876E+02  0.82560693013E+01  0.39458648236E+02  0.00000000000E+00 0.  1.
</event>
<event>
 7    1  0.4359248E-015  0.9000785E+02  0.7816164E-02  0.1186339E+00
        -11   -1    0    0    0    0  0.00000000000E+00  0.00000000000E+00  0.45593999997E+02  0.45594000000E+02  0.51100000000E-03 0. -1.
         11   -1    0    0    0    0 -0.00000000000E+00 -0.00000000000E+00 -0.45593999997E+02  0.45594000000E+02  0.51100000000E-03 0.  1.
    9900012    2    1    2    0    0  0.93167904559E+00  0.67686221968E+00 -0.25803299804E+00  0.90007851985E+02  0.90000114831E+02 0.  0.
        -12    1    1    2    0    0 -0.93167904559E+00 -0.67686221968E+00  0.25803299804E+00  0.11801480147E+01  0.00000000000E+00 0.  1.
         11    1    3    3    0    0  0.51536790791E+01  0.14708385609E+01  0.48979438159E+01  0.72604151401E+01  0.51100000000E-03 0. -1.
        -11    1    3    3    0    0  0.19596524856E+02 -0.26350641016E+02 -0.26159527640E+02  0.41984532330E+02  0.51100000000E-03 0.  1.
         12    1    3    3    0    0 -0.23818524889E+02  0.25556664675E+02  0.21003550826E+02  0.40762904515E+02  0.00000000000E+00 0. -1.
</event>
<event>
 7    1  0.4359248E-015  0.9000777E+02  0.7816164E-02  0.1186339E+00
        -11   -1    0    0    0    0  0.00000000000E+00  0.00000000000E+00  0.45593999997E+02  0.45594000000E+02  0.51100000000E-03 0.  1.
         11   -1    0    0    0    0 -0.00000000000E+00 -0.00000000000E+00 -0.45593999997E+02  0.45594000000E+02  0.51100000000E-03 0. -1.
    9900012    2    1    2    0    0  0.60700967376E+00 -0.19314216748E+00 -0.99357338437E+00  0.90007765824E+02  0.90000027533E+02 0.  0.
        -12    1    1    2    0    0 -0.60700967376E+00  0.19314216748E+00  0.99357338437E+00  0.11802341764E+01  0.00000000000E+00 0.  1.
         11    1    3    3    0    0 -0.12542021341E+02  0.57850312982E+01 -0.37919147592E+02  0.40356296173E+02  0.51100000000E-03 0. -1.
        -11    1    3    3    0    0  0.14984298932E+01 -0.87704959048E+01 -0.18321953445E+01  0.90842627991E+01  0.51100000000E-03 0.  1.
        -12    1    3    3    0    0  0.11650601122E+02  0.27923224391E+01  0.38757769552E+02  0.40567206852E+02  0.00000000000E+00 0.  1.
</event>
<event>
 7    1  0.4359248E-015  0.9000777E+02  0.7816164E-02  0.1186339E+00
        -11   -1    0    0    0    0  0.00000000000E+00  0.00000000000E+00  0.45593999997E+02  0.45594000000E+02  0.51100000000E-03 0.  1.
         11   -1    0    0    0    0 -0.00000000000E+00 -0.00000000000E+00 -0.45593999997E+02  0.45594000000E+02  0.51100000000E-03 0. -1.
    9900012    2    1    2    0    0  0.78595478186E+00  0.22903669471E+00 -0.85015955066E+00  0.90007765283E+02  0.90000026984E+02 0.  0.
        -12    1    1    2    0    0 -0.78595478186E+00 -0.22903669471E+00  0.85015955066E+00  0.11802347174E+01  0.00000000000E+00 0.  1.
         11    1    3    3    0    0 -0.23724018566E+02  0.25435640285E+02 -0.10280222858E+02  0.36269599335E+02  0.51100000000E-03 0. -1.
        -11    1    3    3    0    0 -0.13464527365E+01  0.69425162574E+01  0.10274163700E+02  0.12472766612E+02  0.51100000000E-03 0.  1.
        -12    1    3    3    0    0  0.25856426085E+02 -0.32149119848E+02 -0.84410039270E+00  0.41265399336E+02  0.00000000000E+00 0.  1.
</event>
<event>
 7    1  0.4359248E-015  0.9000776E+02  0.7816164E-02  0.1186339E+00
        -11   -1    0    0    0    0  0.00000000000E+00  0.00000000000E+00  0.45593999997E+02  0.45594000000E+02  0.51100000000E-03 0. -1.
         11   -1    0    0    0    0 -0.00000000000E+00 -0.00000000000E+00 -0.45593999997E+02  0.45594000000E+02  0.51100000000E-03 0.  1.
    9900012    2    1    2    0    0  0.66055681487E+00  0.55157612573E+00  0.80770457771E+00  0.90007763493E+02  0.90000025171E+02 0.  0.
        -12    1    1    2    0    0 -0.66055681487E+00 -0.55157612573E+00 -0.80770457771E+00  0.11802365072E+01  0.00000000000E+00 0.  1.
         11    1    3    3    0    0 -0.30232821977E+01 -0.67069280132E+01  0.64675064250E+01  0.97954968348E+01  0.51100000000E-03 0. -1.
        -11    1    3    3    0    0 -0.16958233528E+02 -0.26444118485E+02 -0.21033408450E+02  0.37805784718E+02  0.51100000000E-03 0.  1.
         12    1    3    3    0    0  0.20642072541E+02  0.33702622624E+02  0.15373606603E+02  0.42406481940E+02  0.00000000000E+00 0. -1.
</event>
<event>
 7    1  0.4359248E-015  0.9000786E+02  0.7816164E-02  0.1186339E+00
        -11   -1    0    0    0    0  0.00000000000E+00  0.00000000000E+00  0.45593999997E+02  0.45594000000E+02  0.51100000000E-03 0. -1.
         11   -1    0    0    0    0 -0.00000000000E+00 -0.00000000000E+00 -0.45593999997E+02  0.45594000000E+02  0.51100000000E-03 0.  1.
    9900012    2    1    2    0    0  0.11172997076E+01 -0.37270637235E+00  0.73848223683E-01  0.90007863467E+02  0.90000126465E+02 0.  0.
        -12    1    1    2    0    0 -0.11172997076E+01  0.37270637235E+00 -0.73848223683E-01  0.11801365331E+01  0.00000000000E+00 0.  1.
         11    1    3    3    0    0  0.65345074594E+01  0.51207724275E+01 -0.71981655942E+01  0.10987979167E+02  0.51100000000E-03 0. -1.
        -11    1    3    3    0    0  0.16283281119E+02  0.10735611075E+01  0.37696287112E+02  0.41076852846E+02  0.51100000000E-03 0.  1.
         12    1    3    3    0    0 -0.21700488871E+02 -0.65670399074E+01 -0.30424273294E+02  0.37943031453E+02  0.00000000000E+00 0. -1.
</event>
<event>
 7    1  0.4359248E-015  0.9000811E+02  0.7816164E-02  0.1186338E+00
        -11   -1    0    0    0    0  0.00000000000E+00  0.00000000000E+00  0.45593999997E+02  0.45594000000E+02  0.51100000000E-03 0.  1.
         11   -1    0    0    0    0 -0.00000000000E+00 -0.00000000000E+00 -0.45593999997E+02  0.45594000000E+02  0.51100000000E-03 0. -1.
    9900012    2    1    2    0    0  0.53850788194E+00  0.29676840381E+00 -0.10070120685E+01  0.90008112069E+02  0.90000378347E+02 0.  0.
        -12    1    1    2    0    0 -0.53850788194E+00 -0.29676840381E+00  0.10070120685E+01  0.11798879313E+01  0.00000000000E+00 0.  1.
         11    1    3    3    0    0  0.18701039347E+01  0.79454920596E+01  0.51102089394E+01  0.96302839242E+01  0.51100000000E-03 0. -1.
        -11    1    3    3    0    0 -0.17854295860E+02 -0.14942896691E+02  0.31194217497E+02  0.38924866701E+02  0.51100000000E-03 0.  1.
         12    1    3    3    0    0  0.16522699807E+02  0.72941730352E+01 -0.37311438505E+02  0.41452961444E+02  0.00000000000E+00 0. -1.
</event>
<event>
 7    1  0.4359248E-015  0.9000766E+02  0.7816164E-02  0.1186339E+00
        -11   -1    0    0    0    0  0.00000000000E+00  0.00000000000E+00  0.45593999997E+02  0.45594000000E+02  0.51100000000E-03 0.  1.
         11   -1    0    0    0    0 -0.00000000000E+00 -0.00000000000E+00 -0.45593999997E+02  0.45594000000E+02  0.51100000000E-03 0. -1.
    9900012    2    1    2    0    0 -0.81274610809E+00 -0.57859469883E+00 -0.63076986445E+00  0.90007661623E+02  0.89999921957E+02 0.  0.
        -12    1    1    2    0    0  0.81274610809E+00  0.57859469883E+00  0.63076986445E+00  0.11803383767E+01  0.00000000000E+00 0.  1.
         11    1    3    3    0    0 -0.82820742462E+00 -0.21169789561E+02 -0.31426629509E+02  0.37900909753E+02  0.51100000000E-03 0. -1.
        -11    1    3    3    0    0  0.67536456118E+01 -0.70192304860E+01 -0.59822456743E+00  0.97590572577E+01  0.51100000000E-03 0.  1.
        -12    1    3    3    0    0 -0.67381842953E+01  0.27610425348E+02  0.31394084212E+02  0.42347694612E+02  0.00000000000E+00 0.  1.
</event>
<event>
 7    1  0.4359248E-015  0.9000776E+02  0.7816164E-02  0.1186339E+00
        -11   -1    0    0    0    0  0.00000000000E+00  0.00000000000E+00  0.45593999997E+02  0.45594000000E+02  0.51100000000E-03 0. -1.
         11   -1    0    0    0    0 -0.00000000000E+00 -0.00000000000E+00 -0.45593999997E+02  0.45594000000E+02  0.51100000000E-03 0.  1.
    9900012    2    1    2    0    0  0.30414143163E+00 -0.69079111789E+00  0.90733982367E+00  0.90007762763E+02  0.90000024432E+02 0.  0.
        -12    1    1    2    0    0 -0.30414143163E+00  0.69079111789E+00 -0.90733982367E+00  0.11802372366E+01  0.00000000000E+00 0.  1.
         11    1    3    3    0    0 -0.26787464641E+02  0.27720050670E+02 -0.10166845879E+02  0.39866454902E+02  0.51100000000E-03 0. -1.
        -11    1    3    3    0    0 -0.48541631496E+01 -0.36943997074E+01  0.73902178828E+01  0.95826306251E+01  0.51100000000E-03 0.  1.
        -12    1    3    3    0    0  0.31945769222E+02 -0.24716442080E+02  0.36839678200E+01  0.40558677237E+02  0.00000000000E+00 0.  1.
</event>
<event>
 7    1  0.4359248E-015  0.9000778E+02  0.7816164E-02  0.1186339E+00
        -11   -1    0    0    0    0  0.00000000000E+00  0.00000000000E+00  0.45593999997E+02  0.45594000000E+02  0.51100000000E-03 0. -1.
         11   -1    0    0    0    0 -0.00000000000E+00 -0.00000000000E+00 -0.45593999997E+02  0.45594000000E+02  0.51100000000E-03 0.  1.
    9900012    2    1    2    0    0  0.92508979946E+00 -0.13020115550E+00  0.72122666572E+00  0.90007783333E+02  0.90000045273E+02 0.  0.
        -12    1    1    2    0    0 -0.92508979946E+00  0.13020115550E+00 -0.72122666572E+00  0.11802166671E+01  0.00000000000E+00 0.  1.
         11    1    3    3    0    0 -0.64844909663E+01 -0.19497785657E+01 -0.62809015171E+01  0.92357990275E+01  0.51100000000E-03 0. -1.
        -11    1    3    3    0    0  0.23594631934E+02 -0.22334113147E+02 -0.22368216031E+02  0.39444345030E+02  0.51100000000E-03 0.  1.
         12    1    3    3    0    0 -0.16185051168E+02  0.24153690557E+02  0.29370344214E+02  0.41327639276E+02  0.00000000000E+00 0. -1.
</event>
<event>
 7    1  0.4359248E-015  0.9000772E+02  0.7816164E-02  0.1186339E+00
        -11   -1    0    0    0    0  0.00000000000E+00  0.00000000000E+00  0.45593999997E+02  0.45594000000E+02  0.51100000000E-03 0. -1.
         11   -1    0    0    0    0 -0.00000000000E+00 -0.00000000000E+00 -0.45593999997E+02  0.45594000000E+02  0.51100000000E-03 0.  1.
    9900012    2    1    2    0    0 -0.91273173949E+00  0.44467993351E+00 -0.60185638389E+00  0.90007724363E+02  0.89999985525E+02 0.  0.
        -12    1    1    2    0    0  0.91273173949E+00 -0.44467993351E+00  0.60185638389E+00  0.11802756366E+01  0.00000000000E+00 0.  1.
         11    1    3    3    0    0  0.73117765114E+01 -0.33168469805E+01 -0.57803891594E+01  0.98932526875E+01  0.51100000000E-03 0. -1.
        -11    1    3    3    0    0  0.28293965293E+02  0.15599579406E+02 -0.16232679021E+02  0.36157920544E+02  0.51100000000E-03 0.  1.
         12    1    3    3    0    0 -0.36518473544E+02 -0.11838052492E+02  0.21411211797E+02  0.43956551131E+02  0.00000000000E+00 0. -1.
</event>
<event>
 7    1  0.4359248E-015  0.9000773E+02  0.7816164E-02  0.1186339E+00
        -11   -1    0    0    0    0  0.00000000000E+00  0.00000000000E+00  0.45593999997E+02  0.45594000000E+02  0.51100000000E-03 0.  1.
         11   -1    0    0    0    0 -0.00000000000E+00 -0.00000000000E+00 -0.45593999997E+02  0.45594000000E+02  0.51100000000E-03 0. -1.
    9900012    2    1    2    0    0  0.33747892043E+00 -0.11095196054E+01  0.21935486586E+00  0.90007727856E+02  0.89999989064E+02 0.  0.
        -12    1    1    2    0    0 -0.33747892043E+00  0.11095196054E+01 -0.21935486586E+00  0.11802721439E+01  0.00000000000E+00 0.  1.
         11    1    3    3    0    0 -0.62414627133E+01 -0.85766143648E+01 -0.34165950569E+01  0.11143935248E+02  0.51100000000E-03 0. -1.
        -11    1    3    3    0    0 -0.24658096077E+02 -0.21896238633E+02  0.12170874773E+02  0.35151062024E+02  0.51100000000E-03 0.  1.
         12    1    3    3    0    0  0.31237037711E+02  0.29363333393E+02 -0.85349248501E+01  0.43712730584E+02  0.00000000000E+00 0. -1.
</event>
<event>
 7    1  0.4359248E-015  0.9000763E+02  0.7816164E-02  0.1186339E+00
        -11   -1    0    0    0    0  0.00000000000E+00  0.00000000000E+00  0.45593999997E+02  0.45594000000E+02  0.51100000000E-03 0.  1.
         11   -1    0    0    0    0 -0.00000000000E+00 -0.00000000000E+00 -0.45593999997E+02  0.45594000000E+02  0.51100000000E-03 0. -1.
    9900012    2    1    2    0    0  0.10864355646E+01  0.15302884231E+00 -0.43534233176E+00  0.90007625903E+02  0.89999885765E+02 0.  0.
        -12    1    1    2    0    0 -0.10864355646E+01 -0.15302884231E+00  0.43534233176E+00  0.11803740968E+01  0.00000000000E+00 0.  1.
         11    1    3    3    0    0  0.28149207620E+02 -0.67141313324E+01 -0.19055114367E+02  0.34649023550E+02  0.51100000000E-03 0. -1.
        -11    1    3    3    0    0 -0.16618841313E+01 -0.10946350186E+02 -0.86520951408E+01  0.14051448034E+02  0.51100000000E-03 0.  1.
        -12    1    3    3    0    0 -0.25400887924E+02  0.17813510360E+02  0.27271867176E+02  0.41307154319E+02  0.00000000000E+00 0.  1.
</event>
<event>
 7    1  0.4359248E-015  0.9000769E+02  0.7816164E-02  0.1186339E+00
        -11   -1    0    0    0    0  0.00000000000E+00  0.00000000000E+00  0.45593999997E+02  0.45594000000E+02  0.51100000000E-03 0. -1.
         11   -1    0    0    0    0 -0.00000000000E+00 -0.00000000000E+00 -0.45593999997E+02  0.45594000000E+02  0.51100000000E-03 0.  1.
    9900012    2    1    2    0    0 -0.45879004454E+00  0.10395297122E+01  0.31940956153E+00  0.90007689534E+02  0.89999950236E+02 0.  0.
        -12    1    1    2    0    0  0.45879004454E+00 -0.10395297122E+01 -0.31940956153E+00  0.11803104657E+01  0.00000000000E+00 0.  1.
         11    1    3    3    0    0  0.17968744415E+01  0.95638312649E+01 -0.68833705567E+01  0.11919581230E+02  0.51100000000E-03 0. -1.
        -11    1    3    3    0    0 -0.30711786365E+01 -0.28511166918E+02 -0.26402659303E+02  0.38979728011E+02  0.51100000000E-03 0.  1.
         12    1    3    3    0    0  0.81551415045E+00  0.19986865366E+02  0.33605439421E+02  0.39108380293E+02  0.00000000000E+00 0. -1.
</event>
<event>
 7    1  0.4359248E-015  0.9000767E+02  0.7816164E-02  0.1186339E+00
        -11   -1    0    0    0    0  0.00000000000E+00  0.00000000000E+00  0.45593999997E+02  0.45594000000E+02  0.51100000000E-03 0.  1.
         11   -1    0    0    0    0 -0.00000000000E+00 -0.00000000000E+00 -0.45593999997E+02  0.45594000000E+02  0.51100000000E-03 0. -1.
    9900012    2    1    2    0    0  0.28606329146E+00  0.11281825463E+01 -0.19636551358E+00  0.90007666369E+02  0.89999926766E+02 0.  0.
        -12    1    1    2    0    0 -0.28606329146E+00 -0.11281825463E+01  0.19636551358E+00  0.11803336305E+01  0.00000000000E+00 0.  1.
         11    1    3    3    0    0  0.87323253259E+01  0.34200748535E+01 -0.65045171400E+01  0.11413113558E+02  0.51100000000E-03 0. -1.
        -11    1    3    3    0    0 -0.98340606642E+01 -0.39601359406E+02  0.61080118884E+01  0.41258747260E+02  0.51100000000E-03 0.  1.
         12    1    3    3    0    0  0.13877986297E+01  0.37309467099E+02  0.20013973803E+00  0.37335805551E+02  0.00000000000E+00 0. -1.
</event>
<event>
 7    1  0.4359248E-015  0.9000784E+02  0.7816164E-02  0.1186339E+00
        -11   -1    0    0    0    0  0.00000000000E+00  0.00000000000E+00  0.45593999997E+02  0.45594000000E+02  0.51100000000E-03 0. -1.
         11   -1    0    0    0    0 -0.00000000000E+00 -0.00000000000E+00 -0.45593999997E+02  0.45594000000E+02  0.51100000000E-03 0.  1.
    9900012    2    1    2    0    0  0.83954431403E+00 -0.79976525777E+00  0.21983277480E+00  0.90007836633E+02  0.90000099277E+02 0.  0.
        -12    1    1    2    0    0 -0.83954431403E+00  0.79976525777E+00 -0.21983277480E+00  0.11801633665E+01  0.00000000000E+00 0.  1.
         11    1    3    3    0    0 -0.19680568477E+02 -0.29248090707E+02 -0.18145415851E+01  0.35299690466E+02  0.51100000000E-03 0. -1.
        -11    1    3    3    0    0  0.87997899579E+01 -0.10413945949E+02  0.35503013401E+01  0.14088690975E+02  0.51100000000E-03 0.  1.
        -12    1    3    3    0    0  0.11720322833E+02  0.38862271398E+02 -0.15159269801E+01  0.40619455192E+02  0.00000000000E+00 0.  1.
</event>
<event>
 7    1  0.4359248E-015  0.9000770E+02  0.7816164E-02  0.1186339E+00
        -11   -1    0    0    0    0  0.00000000000E+00  0.00000000000E+00  0.45593999997E+02  0.45594000000E+02  0.51100000000E-03 0. -1.
         11   -1    0    0    0    0 -0.00000000000E+00 -0.00000000000E+00 -0.45593999997E+02  0.45594000000E+02  0.51100000000E-03 0.  1.
    9900012    2    1    2    0    0 -0.60553965595E+00 -0.72147033878E+00  0.71126901661E+00  0.90007702860E+02  0.89999963738E+02 0.  0.
        -12    1    1    2    0    0  0.60553965595E+00  0.72147033878E+00 -0.71126901661E+00  0.11802971400E+01  0.00000000000E+00 0.  1.
         11    1    3    3    0    0  0.11246033405E+02  0.90509609822E+00  0.61922573508E+01  0.12869985146E+02  0.51100000000E-03 0. -1.
        -11    1    3    3    0    0 -0.24810456262E+02 -0.64989088233E+01  0.29752902704E+02  0.39281417686E+02  0.51100000000E-03 0.  1.
         12    1    3    3    0    0  0.12958883201E+02  0.48723423863E+01 -0.35233891038E+02  0.37856300029E+02  0.00000000000E+00 0. -1.
</event>
<event>
 7    1  0.4359248E-015  0.9000771E+02  0.7816164E-02  0.1186339E+00
        -11   -1    0    0    0    0  0.00000000000E+00  0.00000000000E+00  0.45593999997E+02  0.45594000000E+02  0.51100000000E-03 0.  1.
         11   -1    0    0    0    0 -0.00000000000E+00 -0.00000000000E+00 -0.45593999997E+02  0.45594000000E+02  0.51100000000E-03 0. -1.
    9900012    2    1    2    0    0 -0.34656857561E+00  0.17922653772E+00 -0.11139335657E+01  0.90007711934E+02  0.89999972932E+02 0.  0.
        -12    1    1    2    0    0  0.34656857561E+00 -0.17922653772E+00  0.11139335657E+01  0.11802880658E+01  0.00000000000E+00 0.  1.
         11    1    3    3    0    0  0.31138826342E+01 -0.17318225960E+02 -0.36175736085E+02  0.40228113267E+02  0.51100000000E-03 0. -1.
        -11    1    3    3    0    0 -0.38999758887E+01  0.11536925812E+02 -0.19105943140E+01  0.12327239757E+02  0.51100000000E-03 0.  1.
        -12    1    3    3    0    0  0.43952467890E+00  0.59605266854E+01  0.36972396834E+02  0.37452358910E+02  0.00000000000E+00 0.  1.
</event>
<event>
 7    1  0.4359248E-015  0.9000670E+02  0.7816164E-02  0.1186341E+00
        -11   -1    0    0    0    0  0.00000000000E+00  0.00000000000E+00  0.45593999997E+02  0.45594000000E+02  0.51100000000E-03 0.  1.
         11   -1    0    0    0    0 -0.00000000000E+00 -0.00000000000E+00 -0.45593999997E+02  0.45594000000E+02  0.51100000000E-03 0. -1.
    9900012    2    1    2    0    0  0.10288836618E+01 -0.17321744310E+00  0.55396203127E+00  0.90006695719E+02  0.89998943296E+02 0.  0.
        -12    1    1    2    0    0 -0.10288836618E+01  0.17321744310E+00 -0.55396203127E+00  0.11813042809E+01  0.00000000000E+00 0.  1.
         11    1    3    3    0    0 -0.37003710570E+01 -0.75656141024E+01 -0.32169597930E+02  0.33253786159E+02  0.51100000000E-03 0. -1.
        -11    1    3    3    0    0  0.51231817879E+01 -0.23606027970E+01 -0.10780583858E+02  0.12167186437E+02  0.51100000000E-03 0.  1.
        -12    1    3    3    0    0 -0.39392706913E+00  0.97529994563E+01  0.43504143819E+02  0.44585723123E+02  0.00000000000E+00 0.  1.
</event>
<event>
 7    1  0.4359248E-015  0.9000772E+02  0.7816164E-02  0.1186339E+00
        -11   -1    0    0    0    0  0.00000000000E+00  0.00000000000E+00  0.45593999997E+02  0.45594000000E+02  0.51100000000E-03 0. -1.
         11   -1    0    0    0    0 -0.00000000000E+00 -0.00000000000E+00 -0.45593999997E+02  0.45594000000E+02  0.51100000000E-03 0.  1.
    9900012    2    1    2    0    0  0.60471381941E+00 -0.57693225600E+00  0.83338495116E+00  0.90007720326E+02  0.89999981435E+02 0.  0.
        -12    1    1    2    0    0 -0.60471381941E+00  0.57693225600E+00 -0.83338495116E+00  0.11802796737E+01  0.00000000000E+00 0.  1.
         11    1    3    3    0    0  0.42747971453E+02  0.97651148655E+01 -0.17795989070E+01  0.43885231049E+02  0.51100000000E-03 0. -1.
        -11    1    3    3    0    0 -0.19701405955E+01  0.25749878934E+01  0.22065486770E+01  0.39218457316E+01  0.51100000000E-03 0.  1.
        -12    1    3    3    0    0 -0.40173117038E+02 -0.12917035015E+02  0.40643518113E+00  0.42200643546E+02  0.00000000000E+00 0.  1.
</event>
<event>
 7    1  0.4359248E-015  0.9000793E+02  0.7816164E-02  0.1186339E+00
        -11   -1    0    0    0    0  0.00000000000E+00  0.00000000000E+00  0.45593999997E+02  0.45594000000E+02  0.51100000000E-03 0. -1.
         11   -1    0    0    0    0 -0.00000000000E+00 -0.00000000000E+00 -0.45593999997E+02  0.45594000000E+02  0.51100000000E-03 0.  1.
    9900012    2    1    2    0    0  0.55082038893E+00 -0.46839319212E+00  0.93261609299E+00  0.90007928790E+02  0.90000192650E+02 0.  0.
        -12    1    1    2    0    0 -0.55082038893E+00  0.46839319212E+00 -0.93261609299E+00  0.11800712098E+01  0.00000000000E+00 0.  1.
         11    1    3    3    0    0  0.68292439135E+01 -0.60114682493E+01 -0.13704639480E+01  0.92007877182E+01  0.51100000000E-03 0. -1.
        -11    1    3    3    0    0  0.56962226244E+01 -0.20624730700E+02 -0.30444731565E+02  0.37211666840E+02  0.51100000000E-03 0.  1.
         12    1    3    3    0    0 -0.11974646149E+02  0.26167805757E+02  0.32747811606E+02  0.43595474232E+02  0.00000000000E+00 0. -1.
</event>
<event>
 7    1  0.4359248E-015  0.9000779E+02  0.7816164E-02  0.1186339E+00
        -11   -1    0    0    0    0  0.00000000000E+00  0.00000000000E+00  0.45593999997E+02  0.45594000000E+02  0.51100000000E-03 0.  1.
         11   -1    0    0    0    0 -0.00000000000E+00 -0.00000000000E+00 -0.45593999997E+02  0.45594000000E+02  0.51100000000E-03 0. -1.
    9900012    2    1    2    0    0 -0.51543448397E+00  0.10540518763E+01 -0.12724761808E+00  0.90007792382E+02  0.90000054441E+02 0.  0.
        -12    1    1    2    0    0  0.51543448397E+00 -0.10540518763E+01  0.12724761808E+00  0.11802076180E+01  0.00000000000E+00 0.  1.
         11    1    3    3    0    0 -0.19922025983E+01 -0.68403143053E+01 -0.70374408488E+01  0.10014207155E+02  0.51100000000E-03 0. -1.
        -11    1    3    3    0    0  0.17607719495E+02 -0.23136149155E+02  0.26986074275E+02  0.39668140725E+02  0.51100000000E-03 0.  1.
         12    1    3    3    0    0 -0.16130951381E+02  0.31030515337E+02 -0.20075881044E+02  0.40325444501E+02  0.00000000000E+00 0. -1.
</event>
<event>
 7    1  0.4359248E-015  0.9000817E+02  0.7816164E-02  0.1186338E+00
        -11   -1    0    0    0    0  0.00000000000E+00  0.00000000000E+00  0.45593999997E+02  0.45594000000E+02  0.51100000000E-03 0.  1.
         11   -1    0    0    0    0 -0.00000000000E+00 -0.00000000000E+00 -0.45593999997E+02  0.45594000000E+02  0.51100000000E-03 0. -1.
    9900012    2    1    2    0    0  0.25432948543E+00 -0.10071261226E+01 -0.55948389398E+00  0.90008165799E+02  0.90000432787E+02 0.  0.
        -12    1    1    2    0    0 -0.25432948543E+00  0.10071261226E+01  0.55948389398E+00  0.11798342009E+01  0.00000000000E+00 0.  1.
         11    1    3    3    0    0 -0.25723726169E+02 -0.20451474125E+02 -0.25178214441E+02  0.41399460921E+02  0.51100000000E-03 0. -1.
        -11    1    3    3    0    0  0.41524947596E+01 -0.66172930827E+01  0.32820292795E+01  0.84736944082E+01  0.51100000000E-03 0.  1.
        -12    1    3    3    0    0  0.21825560894E+02  0.26061641085E+02  0.21336701267E+02  0.40135010470E+02  0.00000000000E+00 0.  1.
</event>
<event>
 7    1  0.4359248E-015  0.9000741E+02  0.7816164E-02  0.1186340E+00
        -11   -1    0    0    0    0  0.00000000000E+00  0.00000000000E+00  0.45593999997E+02  0.45594000000E+02  0.51100000000E-03 0. -1.
         11   -1    0    0    0    0 -0.00000000000E+00 -0.00000000000E+00 -0.45593999997E+02  0.45594000000E+02  0.51100000000E-03 0.  1.
    9900012    2    1    2    0    0  0.11540757646E+01 -0.11323227834E+00  0.22154228863E+00  0.90007409722E+02  0.89999666730E+02 0.  0.
        -12    1    1    2    0    0 -0.11540757646E+01  0.11323227834E+00 -0.22154228863E+00  0.11805902781E+01  0.00000000000E+00 0.  1.
         11    1    3    3    0    0  0.22015807110E+01 -0.29633164487E+01  0.80513407500E+01  0.88573297407E+01  0.51100000000E-03 0. -1.
        -11    1    3    3    0    0  0.25555422362E+01 -0.35373568775E+02  0.12627693040E+02  0.37646763417E+02  0.51100000000E-03 0.  1.
         12    1    3    3    0    0 -0.36030471826E+01  0.38223652946E+02 -0.20457491501E+02  0.43503316564E+02  0.00000000000E+00 0. -1.
</event>
<event>
 7    1  0.4359248E-015  0.9000772E+02  0.7816164E-02  0.1186339E+00
        -11   -1    0    0    0    0  0.00000000000E+00  0.00000000000E+00  0.45593999997E+02  0.45594000000E+02  0.51100000000E-03 0.  1.
         11   -1    0    0    0    0 -0.00000000000E+00 -0.00000000000E+00 -0.45593999997E+02  0.45594000000E+02  0.51100000000E-03 0. -1.
    9900012    2    1    2    0    0  0.46510929854E+00 -0.10838762446E+01 -0.44196297367E-01  0.90007717116E+02  0.89999978182E+02 0.  0.
        -12    1    1    2    0    0 -0.46510929854E+00  0.10838762446E+01  0.44196297367E-01  0.11802828838E+01  0.00000000000E+00 0.  1.
         11    1    3    3    0    0  0.92429259515E+01  0.39390277145E+01 -0.35902033275E+01  0.10669450767E+02  0.51100000000E-03 0. -1.
        -11    1    3    3    0    0  0.10292846185E+02 -0.12834876091E+01  0.38212957645E+02  0.39595708799E+02  0.51100000000E-03 0.  1.
         12    1    3    3    0    0 -0.19070662838E+02 -0.37394163500E+01 -0.34666950615E+02  0.39742557550E+02  0.00000000000E+00 0. -1.
</event>
<event>
 7    1  0.4359248E-015  0.9000806E+02  0.7816164E-02  0.1186338E+00
        -11   -1    0    0    0    0  0.00000000000E+00  0.00000000000E+00  0.45593999997E+02  0.45594000000E+02  0.51100000000E-03 0.  1.
         11   -1    0    0    0    0 -0.00000000000E+00 -0.00000000000E+00 -0.45593999997E+02  0.45594000000E+02  0.51100000000E-03 0. -1.
    9900012    2    1    2    0    0 -0.26230565745E+00 -0.10107073670E+01 -0.54947186220E+00  0.90008062304E+02  0.90000327926E+02 0.  0.
        -12    1    1    2    0    0  0.26230565745E+00  0.10107073670E+01  0.54947186220E+00  0.11799376962E+01  0.00000000000E+00 0.  1.
         11    1    3    3    0    0 -0.91769962443E+01  0.26409175639E+01  0.14411082418E+02  0.17287886000E+02  0.51100000000E-03 0. -1.
        -11    1    3    3    0    0  0.28461077718E+02 -0.23651856873E+02  0.63674659536E+01  0.37549805610E+02  0.51100000000E-03 0.  1.
         12    1    3    3    0    0 -0.19546387131E+02  0.20000231942E+02 -0.21328020233E+02  0.35170370693E+02  0.00000000000E+00 0. -1.
</event>
<event>
 7    1  0.4359248E-015  0.9000777E+02  0.7816164E-02  0.1186339E+00
        -11   -1    0    0    0    0  0.00000000000E+00  0.00000000000E+00  0.45593999997E+02  0.45594000000E+02  0.51100000000E-03 0. -1.
         11   -1    0    0    0    0 -0.00000000000E+00 -0.00000000000E+00 -0.45593999997E+02  0.45594000000E+02  0.51100000000E-03 0.  1.
    9900012    2    1    2    0    0 -0.84856867670E+00  0.46401499031E+00  0.67643423459E+00  0.90007770368E+02  0.90000032137E+02 0.  0.
        -12    1    1    2    0    0  0.84856867670E+00 -0.46401499031E+00 -0.67643423459E+00  0.11802296319E+01  0.00000000000E+00 0.  1.
         11    1    3    3    0    0 -0.12785052706E+02  0.47209512493E+00  0.20819895896E+01  0.12962064936E+02  0.51100000000E-03 0. -1.
        -11    1    3    3    0    0  0.10646222186E+02  0.37182191770E+02  0.58970370146E+01  0.39123298397E+02  0.51100000000E-03 0.  1.
         12    1    3    3    0    0  0.12902618431E+01 -0.37190271905E+02 -0.73025923696E+01  0.37922407035E+02  0.00000000000E+00 0. -1.
</event>
<event>
 7    1  0.4359248E-015  0.9000775E+02  0.7816164E-02  0.1186339E+00
        -11   -1    0    0    0    0  0.00000000000E+00  0.00000000000E+00  0.45593999997E+02  0.45594000000E+02  0.51100000000E-03 0.  1.
         11   -1    0    0    0    0 -0.00000000000E+00 -0.00000000000E+00 -0.45593999997E+02  0.45594000000E+02  0.51100000000E-03 0. -1.
    9900012    2    1    2    0    0 -0.68404866706E+00  0.61110312521E+00 -0.74271825201E+00  0.90007745786E+02  0.90000007230E+02 0.  0.
        -12    1    1    2    0    0  0.68404866706E+00 -0.61110312521E+00  0.74271825201E+00  0.11802542143E+01  0.00000000000E+00 0.  1.
         11    1    3    3    0    0 -0.20020470768E+02 -0.64713839437E+01 -0.35477459632E+02  0.41247402368E+02  0.51100000000E-03 0. -1.
        -11    1    3    3    0    0  0.34281552502E+01  0.80824610508E+01 -0.17441616791E+01  0.89510069423E+01  0.51100000000E-03 0.  1.
        -12    1    3    3    0    0  0.15908266851E+02 -0.99997398187E+00  0.36478903059E+02  0.39809336475E+02  0.00000000000E+00 0.  1.
</event>
<event>
 7    1  0.4359248E-015  0.9000769E+02  0.7816164E-02  0.1186339E+00
        -11   -1    0    0    0    0  0.00000000000E+00  0.00000000000E+00  0.45593999997E+02  0.45594000000E+02  0.51100000000E-03 0.  1.
         11   -1    0    0    0    0 -0.00000000000E+00 -0.00000000000E+00 -0.45593999997E+02  0.45594000000E+02  0.51100000000E-03 0. -1.
    9900012    2    1    2    0    0  0.86145495894E+00  0.75911795103E+00 -0.27344219106E+00  0.90007688456E+02  0.89999949143E+02 0.  0.
        -12    1    1    2    0    0 -0.86145495894E+00 -0.75911795103E+00  0.27344219106E+00  0.11803115443E+01  0.00000000000E+00 0.  1.
         11    1    3    3    0    0 -0.70127524966E+01 -0.61881423338E+01 -0.12542199979E+01  0.94363590005E+01  0.51100000000E-03 0. -1.
        -11    1    3    3    0    0 -0.31593973575E+02 -0.13629600242E+02 -0.76095617188E+01  0.35239900665E+02  0.51100000000E-03 0.  1.
         12    1    3    3    0    0  0.39468181031E+02  0.20576860527E+02  0.85903395256E+01  0.45331428791E+02  0.00000000000E+00 0. -1.
</event>
<event>
 7    1  0.4359248E-015  0.9000775E+02  0.7816164E-02  0.1186339E+00
        -11   -1    0    0    0    0  0.00000000000E+00  0.00000000000E+00  0.45593999997E+02  0.45594000000E+02  0.51100000000E-03 0.  1.
         11   -1    0    0    0    0 -0.00000000000E+00 -0.00000000000E+00 -0.45593999997E+02  0.45594000000E+02  0.51100000000E-03 0. -1.
    9900012    2    1    2    0    0  0.11112540338E+01 -0.18064972268E+00  0.35422224108E+00  0.90007748651E+02  0.90000010133E+02 0.  0.
        -12    1    1    2    0    0 -0.11112540338E+01  0.18064972268E+00 -0.35422224108E+00  0.11802513487E+01  0.00000000000E+00 0.  1.
         11    1    3    3    0    0  0.26755379305E+01 -0.12703967075E+02 -0.10151913486E+02  0.16480613773E+02  0.51100000000E-03 0. -1.
        -11    1    3    3    0    0  0.85240443536E+01 -0.24910501652E+02 -0.11741346889E+02  0.28827966486E+02  0.51100000000E-03 0.  1.
        -12    1    3    3    0    0 -0.10088328250E+02  0.37433819004E+02  0.22247482617E+02  0.44699168392E+02  0.00000000000E+00 0.  1.
</event>
<event>
 7    1  0.4359248E-015  0.9000773E+02  0.7816164E-02  0.1186339E+00
        -11   -1    0    0    0    0  0.00000000000E+00  0.00000000000E+00  0.45593999997E+02  0.45594000000E+02  0.51100000000E-03 0.  1.
         11   -1    0    0    0    0 -0.00000000000E+00 -0.00000000000E+00 -0.45593999997E+02  0.45594000000E+02  0.51100000000E-03 0. -1.
    9900012    2    1    2    0    0 -0.80980395934E+00  0.81100030985E+00  0.28199926880E+00  0.90007734122E+02  0.89999995412E+02 0.  0.
        -12    1    1    2    0    0  0.80980395934E+00 -0.81100030985E+00 -0.28199926880E+00  0.11802658780E+01  0.00000000000E+00 0.  1.
         11    1    3    3    0    0  0.59769362208E+00 -0.42266302034E+01  0.80598611451E+01  0.91204716151E+01  0.51100000000E-03 0. -1.
        -11    1    3    3    0    0 -0.69267285509E+01  0.32137988898E+02  0.22531669743E+02  0.39856066545E+02  0.51100000000E-03 0.  1.
         12    1    3    3    0    0  0.55192309694E+01 -0.27100358385E+02 -0.30309531619E+02  0.41031195962E+02  0.00000000000E+00 0. -1.
</event>
<event>
 7    1  0.4359248E-015  0.9000774E+02  0.7816164E-02  0.1186339E+00
        -11   -1    0    0    0    0  0.00000000000E+00  0.00000000000E+00  0.45593999997E+02  0.45594000000E+02  0.51100000000E-03 0.  1.
         11   -1    0    0    0    0 -0.00000000000E+00 -0.00000000000E+00 -0.45593999997E+02  0.45594000000E+02  0.51100000000E-03 0. -1.
    9900012    2    1    2    0    0 -0.22840930971E+00  0.87532034128E-01 -0.11546375550E+01  0.90007737083E+02  0.89999998412E+02 0.  0.
        -12    1    1    2    0    0  0.22840930971E+00 -0.87532034128E-01  0.11546375550E+01  0.11802629170E+01  0.00000000000E+00 0.  1.
         11    1    3    3    0    0 -0.16535096869E+02  0.80807379582E+00  0.30010340539E+02  0.34273648059E+02  0.51100000000E-03 0. -1.
        -11    1    3    3    0    0 -0.68593874358E+01 -0.47876078680E+01  0.69974173100E+01  0.10905789030E+02  0.51100000000E-03 0.  1.
        -12    1    3    3    0    0  0.23166074995E+02  0.40670661063E+01 -0.38162395404E+02  0.44828299994E+02  0.00000000000E+00 0.  1.
</event>
<event>
 7    1  0.4359248E-015  0.9000779E+02  0.7816164E-02  0.1186339E+00
        -11   -1    0    0    0    0  0.00000000000E+00  0.00000000000E+00  0.45593999997E+02  0.45594000000E+02  0.51100000000E-03 0. -1.
         11   -1    0    0    0    0 -0.00000000000E+00 -0.00000000000E+00 -0.45593999997E+02  0.45594000000E+02  0.51100000000E-03 0.  1.
    9900012    2    1    2    0    0 -0.76212858349E+00  0.15253530330E-01  0.90101279435E+00  0.90007789551E+02  0.90000051573E+02 0.  0.
        -12    1    1    2    0    0  0.76212858349E+00 -0.15253530330E-01 -0.90101279435E+00  0.11802104488E+01  0.00000000000E+00 0.  1.
         11    1    3    3    0    0 -0.24304326580E+01 -0.12129014067E+02 -0.37559206805E+00  0.12375825419E+02  0.51100000000E-03 0. -1.
        -11    1    3    3    0    0 -0.23065658798E+02 -0.24117155026E+02  0.42320503550E+01  0.33638847079E+02  0.51100000000E-03 0.  1.
         12    1    3    3    0    0  0.24733962872E+02  0.36261422623E+02 -0.29554454926E+01  0.43993117053E+02  0.00000000000E+00 0. -1.
</event>
<event>
 7    1  0.5313239E-015  0.9000780E+02  0.7816164E-02  0.1186339E+00
        -11   -1    0    0    0    0  0.00000000000E+00  0.00000000000E+00  0.45593999997E+02  0.45594000000E+02  0.51100000000E-03 0. -1.
         11   -1    0    0    0    0 -0.00000000000E+00 -0.00000000000E+00 -0.45593999997E+02  0.45594000000E+02  0.51100000000E-03 0.  1.
    9900012    2    1    2    0    0  0.38050088736E+00  0.95426170648E+00  0.58093525044E+00  0.90007795740E+02  0.90000057844E+02 0.  0.
        -12    1    1    2    0    0 -0.38050088736E+00 -0.95426170648E+00 -0.58093525044E+00  0.11802042598E+01  0.00000000000E+00 0.  1.
         11    1    3    3    0    0 -0.18058812151E+02  0.31072862839E+02 -0.13484859284E+02  0.38385999159E+02  0.51100000000E-03 0. -1.
        -11    1    3    3    0    0  0.59873696900E+01  0.48000189680E+01 -0.57468790279E+01  0.95872517814E+01  0.51100000000E-03 0.  1.
        -12    1    3    3    0    0  0.12451943348E+02 -0.34918620100E+02  0.19812673562E+02  0.42034544800E+02  0.00000000000E+00 0.  1.
</event>
<event>
 7    1  0.4359248E-015  0.9000777E+02  0.7816164E-02  0.1186339E+00
        -11   -1    0    0    0    0  0.00000000000E+00  0.00000000000E+00  0.45593999997E+02  0.45594000000E+02  0.51100000000E-03 0. -1.
         11   -1    0    0    0    0 -0.00000000000E+00 -0.00000000000E+00 -0.45593999997E+02  0.45594000000E+02  0.51100000000E-03 0.  1.
    9900012    2    1    2    0    0  0.97151405628E+00  0.60583248108E+00  0.28649943215E+00  0.90007765074E+02  0.90000026773E+02 0.  0.
        -12    1    1    2    0    0 -0.97151405628E+00 -0.60583248108E+00 -0.28649943215E+00  0.11802349263E+01  0.00000000000E+00 0.  1.
         11    1    3    3    0    0  0.34447840533E+02  0.25828554598E+00  0.45186521321E+01  0.34743900848E+02  0.51100000000E-03 0. -1.
        -11    1    3    3    0    0  0.99939841887E+01 -0.52075716997E+01 -0.12551530275E+01  0.11339044596E+02  0.51100000000E-03 0.  1.
        -12    1    3    3    0    0 -0.43470310665E+02  0.55551186348E+01 -0.29769996725E+01  0.43924819629E+02  0.00000000000E+00 0.  1.
</event>
<event>
 7    1  0.6193944E-015  0.9000780E+02  0.7816164E-02  0.1186339E+00
        -11   -1    0    0    0    0  0.00000000000E+00  0.00000000000E+00  0.45593999997E+02  0.45594000000E+02  0.51100000000E-03 0.  1.
         11   -1    0    0    0    0 -0.00000000000E+00 -0.00000000000E+00 -0.45593999997E+02  0.45594000000E+02  0.51100000000E-03 0. -1.
    9900012    2    1    2    0    0 -0.73824313195E+00 -0.59262059470E+00 -0.70475405617E+00  0.90007796471E+02  0.90000058584E+02 0.  0.
        -12    1    1    2    0    0  0.73824313195E+00  0.59262059470E+00  0.70475405617E+00  0.11802035294E+01  0.00000000000E+00 0.  1.
         11    1    3    3    0    0 -0.42091118834E+01  0.82851797282E+01  0.14765651281E+01  0.94096264970E+01  0.51100000000E-03 0. -1.
        -11    1    3    3    0    0  0.38648771671E+01  0.11906674321E+02  0.35456258722E+02  0.37601229391E+02  0.51100000000E-03 0.  1.
         12    1    3    3    0    0 -0.39400841565E+00 -0.20784474644E+02 -0.37637577906E+02  0.42996940583E+02  0.00000000000E+00 0. -1.
</event>
<event>
 7    1  0.4359248E-015  0.9000770E+02  0.7816164E-02  0.1186339E+00
        -11   -1    0    0    0    0  0.00000000000E+00  0.00000000000E+00  0.45593999997E+02  0.45594000000E+02  0.51100000000E-03 0. -1.
         11   -1    0    0    0    0 -0.00000000000E+00 -0.00000000000E+00 -0.45593999997E+02  0.45594000000E+02  0.51100000000E-03 0.  1.
    9900012    2    1    2    0    0  0.20337080049E+00 -0.11498276113E+01 -0.17220222140E+00  0.90007696300E+02  0.89999957092E+02 0.  0.
        -12    1    1    2    0    0 -0.20337080049E+00  0.11498276113E+01  0.17220222140E+00  0.11803036996E+01  0.00000000000E+00 0.  1.
         11    1    3    3    0    0  0.36926474423E+01 -0.76253622277E+01 -0.57570792809E+01  0.10243327406E+02  0.51100000000E-03 0. -1.
        -11    1    3    3    0    0 -0.11647132964E+02 -0.34760446775E+02 -0.32742448262E+01  0.36805774624E+02  0.51100000000E-03 0.  1.
         12    1    3    3    0    0  0.81578563226E+01  0.41235981391E+02  0.88591218858E+01  0.42958594270E+02  0.00000000000E+00 0. -1.
</event>
<event>
 7    1  0.4359248E-015  0.9000772E+02  0.7816164E-02  0.1186339E+00
        -11   -1    0    0    0    0  0.00000000000E+00  0.00000000000E+00  0.45593999997E+02  0.45594000000E+02  0.51100000000E-03 0.  1.
         11   -1    0    0    0    0 -0.00000000000E+00 -0.00000000000E+00 -0.45593999997E+02  0.45594000000E+02  0.51100000000E-03 0. -1.
    9900012    2    1    2    0    0  0.40885126745E+00  0.37628444923E+00 -0.10413057197E+01  0.90007717429E+02  0.89999978499E+02 0.  0.
        -12    1    1    2    0    0 -0.40885126745E+00 -0.37628444923E+00  0.10413057197E+01  0.11802825710E+01  0.00000000000E+00 0.  1.
         11    1    3    3    0    0  0.36583337897E+01  0.20077000399E+01  0.11146220796E+02  0.11901785742E+02  0.51100000000E-03 0. -1.
        -11    1    3    3    0    0 -0.86174267539E+01  0.26395597778E+01  0.32073895852E+02  0.33316093935E+02  0.51100000000E-03 0.  1.
         12    1    3    3    0    0  0.53679442317E+01 -0.42709753684E+01 -0.44261422367E+02  0.44789837752E+02  0.00000000000E+00 0. -1.
</event>
<event>
 7    1  0.4359248E-015  0.9000776E+02  0.7816164E-02  0.1186339E+00
        -11   -1    0    0    0    0  0.00000000000E+00  0.00000000000E+00  0.45593999997E+02  0.45594000000E+02  0.51100000000E-03 0.  1.
         11   -1    0    0    0    0 -0.00000000000E+00 -0.00000000000E+00 -0.45593999997E+02  0.45594000000E+02  0.51100000000E-03 0. -1.
    9900012    2    1    2    0    0  0.89569506415E+00 -0.36151334510E+00  0.67824417501E+00  0.90007755658E+02  0.90000017232E+02 0.  0.
        -12    1    1    2    0    0 -0.89569506415E+00  0.36151334510E+00 -0.67824417501E+00  0.11802443423E+01  0.00000000000E+00 0.  1.
         11    1    3    3    0    0  0.23758772933E+02 -0.10145220917E+02 -0.28318216236E+02  0.38331790590E+02  0.51100000000E-03 0. -1.
        -11    1    3    3    0    0  0.26559710357E+01  0.71173722352E+01 -0.49920269838E+01  0.90901872008E+01  0.51100000000E-03 0.  1.
        -12    1    3    3    0    0 -0.25519048905E+02  0.26663353371E+01  0.33988487395E+02  0.42585777867E+02  0.00000000000E+00 0.  1.
</event>
<event>
 7    1  0.4359248E-015  0.9000759E+02  0.7816164E-02  0.1186339E+00
        -11   -1    0    0    0    0  0.00000000000E+00  0.00000000000E+00  0.45593999997E+02  0.45594000000E+02  0.51100000000E-03 0.  1.
         11   -1    0    0    0    0 -0.00000000000E+00 -0.00000000000E+00 -0.45593999997E+02  0.45594000000E+02  0.51100000000E-03 0. -1.
    9900012    2    1    2    0    0 -0.79973396449E+00 -0.20358170529E+00  0.84400699735E+00  0.90007590013E+02  0.89999849402E+02 0.  0.
        -12    1    1    2    0    0  0.79973396449E+00  0.20358170529E+00 -0.84400699735E+00  0.11804099865E+01  0.00000000000E+00 0.  1.
         11    1    3    3    0    0 -0.85935059782E+01 -0.36642682353E+02 -0.91595306974E+01  0.38735403933E+02  0.51100000000E-03 0. -1.
        -11    1    3    3    0    0  0.30759320250E+01  0.14713857626E+00 -0.93701483715E+01  0.98631986874E+01  0.51100000000E-03 0.  1.
        -12    1    3    3    0    0  0.47178399887E+01  0.36291962071E+02  0.19373686066E+02  0.41408987393E+02  0.00000000000E+00 0.  1.
</event>
<event>
 7    1  0.4359248E-015  0.9000769E+02  0.7816164E-02  0.1186339E+00
        -11   -1    0    0    0    0  0.00000000000E+00  0.00000000000E+00  0.45593999997E+02  0.45594000000E+02  0.51100000000E-03 0. -1.
         11   -1    0    0    0    0 -0.00000000000E+00 -0.00000000000E+00 -0.45593999997E+02  0.45594000000E+02  0.51100000000E-03 0.  1.
    9900012    2    1    2    0    0 -0.34325746124E+00 -0.11227222846E+01  0.12161348795E+00  0.90007694593E+02  0.89999955362E+02 0.  0.
        -12    1    1    2    0    0  0.34325746124E+00  0.11227222846E+01 -0.12161348795E+00  0.11803054069E+01  0.00000000000E+00 0.  1.
         11    1    3    3    0    0  0.27531730641E+02 -0.65166359238E+01  0.22372390737E+02  0.36069191887E+02  0.51100000000E-03 0. -1.
        -11    1    3    3    0    0  0.71392043236E+01 -0.50387316763E+00  0.53745673255E+01  0.89503128851E+01  0.51100000000E-03 0.  1.
        -12    1    3    3    0    0 -0.35014192426E+02  0.58977868068E+01 -0.27625344575E+02  0.44988189821E+02  0.00000000000E+00 0.  1.
</event>
<event>
 7    1  0.4359248E-015  0.9000787E+02  0.7816164E-02  0.1186339E+00
        -11   -1    0    0    0    0  0.00000000000E+00  0.00000000000E+00  0.45593999997E+02  0.45594000000E+02  0.51100000000E-03 0.  1.
         11   -1    0    0    0    0 -0.00000000000E+00 -0.00000000000E+00 -0.45593999997E+02  0.45594000000E+02  0.51100000000E-03 0. -1.
    9900012    2    1    2    0    0 -0.33734429855E+00  0.64953203867E+00 -0.92575133977E+00  0.90007869250E+02  0.90000132324E+02 0.  0.
        -12    1    1    2    0    0  0.33734429855E+00 -0.64953203867E+00  0.92575133977E+00  0.11801307504E+01  0.00000000000E+00 0.  1.
         11    1    3    3    0    0  0.11671901554E+02  0.22368908525E+02 -0.30508792298E+02  0.39590248322E+02  0.51100000000E-03 0. -1.
        -11    1    3    3    0    0 -0.47256436078E+01 -0.56350572684E+01 -0.67748158125E+01  0.99991853408E+01  0.51100000000E-03 0.  1.
        -12    1    3    3    0    0 -0.72836022445E+01 -0.16084319218E+02  0.36357856770E+02  0.40418435587E+02  0.00000000000E+00 0.  1.
</event>
<event>
 7    1  0.4359248E-015  0.9000779E+02  0.7816164E-02  0.1186339E+00
        -11   -1    0    0    0    0  0.00000000000E+00  0.00000000000E+00  0.45593999997E+02  0.45594000000E+02  0.51100000000E-03 0.  1.
         11   -1    0    0    0    0 -0.00000000000E+00 -0.00000000000E+00 -0.45593999997E+02  0.45594000000E+02  0.51100000000E-03 0. -1.
    9900012    2    1    2    0    0 -0.56290777530E+00 -0.68159312293E+00 -0.78196132306E+00  0.90007789061E+02  0.90000051077E+02 0.  0.
        -12    1    1    2    0    0  0.56290777530E+00  0.68159312293E+00  0.78196132306E+00  0.11802109386E+01  0.00000000000E+00 0.  1.
         11    1    3    3    0    0  0.14771937279E+00 -0.24612911144E+02 -0.32783864612E+02  0.40995109405E+02  0.51100000000E-03 0. -1.
        -11    1    3    3    0    0 -0.83730575330E+01  0.23097671970E+01 -0.10832902029E+01  0.87530928751E+01  0.51100000000E-03 0.  1.
        -12    1    3    3    0    0  0.76624303849E+01  0.21621550824E+02  0.33085193492E+02  0.40259586781E+02  0.00000000000E+00 0.  1.
</event>
<event>
 7    1  0.4359248E-015  0.9000761E+02  0.7816164E-02  0.1186339E+00
        -11   -1    0    0    0    0  0.00000000000E+00  0.00000000000E+00  0.45593999997E+02  0.45594000000E+02  0.51100000000E-03 0. -1.
         11   -1    0    0    0    0 -0.00000000000E+00 -0.00000000000E+00 -0.45593999997E+02  0.45594000000E+02  0.51100000000E-03 0.  1.
    9900012    2    1    2    0    0  0.22256707429E+00 -0.26070410538E+00  0.11295251306E+01  0.90007606102E+02  0.89999865703E+02 0.  0.
        -12    1    1    2    0    0 -0.22256707429E+00  0.26070410538E+00 -0.11295251306E+01  0.11803938977E+01  0.00000000000E+00 0.  1.
         11    1    3    3    0    0 -0.59242523738E+01  0.52070873760E+01 -0.50501880952E+01  0.93656246555E+01  0.51100000000E-03 0. -1.
        -11    1    3    3    0    0 -0.27296684332E+02 -0.28731197583E+02  0.18523601570E+01  0.39673945210E+02  0.51100000000E-03 0.  1.
         12    1    3    3    0    0  0.33443503780E+02  0.23263406101E+02  0.43273530687E+01  0.40968036237E+02  0.00000000000E+00 0. -1.
</event>
<event>
 7    1  0.4359248E-015  0.9000751E+02  0.7816164E-02  0.1186340E+00
        -11   -1    0    0    0    0  0.00000000000E+00  0.00000000000E+00  0.45593999997E+02  0.45594000000E+02  0.51100000000E-03 0. -1.
         11   -1    0    0    0    0 -0.00000000000E+00 -0.00000000000E+00 -0.45593999997E+02  0.45594000000E+02  0.51100000000E-03 0.  1.
    9900012    2    1    2    0    0 -0.10962669245E+01 -0.42749165924E+00 -0.94963306418E-01  0.90007505054E+02  0.89999763320E+02 0.  0.
        -12    1    1    2    0    0  0.10962669245E+01  0.42749165924E+00  0.94963306418E-01  0.11804949462E+01  0.00000000000E+00 0.  1.
         11    1    3    3    0    0  0.45226847080E+01 -0.35878631072E+00 -0.76926365720E+01  0.89308489112E+01  0.51100000000E-03 0. -1.
        -11    1    3    3    0    0 -0.34466253151E+02 -0.24439853704E+02  0.93419086898E+01  0.43272396670E+02  0.51100000000E-03 0.  1.
         12    1    3    3    0    0  0.28847301518E+02  0.24371148356E+02 -0.17442354242E+01  0.37804259473E+02  0.00000000000E+00 0. -1.
</event>
<event>
 7    1  0.4359248E-015  0.9000771E+02  0.7816164E-02  0.1186339E+00
        -11   -1    0    0    0    0  0.00000000000E+00  0.00000000000E+00  0.45593999997E+02  0.45594000000E+02  0.51100000000E-03 0.  1.
         11   -1    0    0    0    0 -0.00000000000E+00 -0.00000000000E+00 -0.45593999997E+02  0.45594000000E+02  0.51100000000E-03 0. -1.
    9900012    2    1    2    0    0 -0.48649772265E+00  0.83454558568E+00 -0.67818134972E+00  0.90007713462E+02  0.89999974480E+02 0.  0.
        -12    1    1    2    0    0  0.48649772265E+00 -0.83454558568E+00  0.67818134972E+00  0.11802865380E+01  0.00000000000E+00 0.  1.
         11    1    3    3    0    0  0.18053437492E+01 -0.87288189900E+01  0.44858145222E+01  0.99786812356E+01  0.51100000000E-03 0. -1.
        -11    1    3    3    0    0 -0.26635906140E+02 -0.17128958367E+02  0.18657627104E+02  0.36755676569E+02  0.51100000000E-03 0.  1.
         12    1    3    3    0    0  0.24344064668E+02  0.26692322943E+02 -0.23821622976E+02  0.43273355657E+02  0.00000000000E+00 0. -1.
</event>
<event>
 7    1  0.4359248E-015  0.9000772E+02  0.7816164E-02  0.1186339E+00
        -11   -1    0    0    0    0  0.00000000000E+00  0.00000000000E+00  0.45593999997E+02  0.45594000000E+02  0.51100000000E-03 0.  1.
         11   -1    0    0    0    0 -0.00000000000E+00 -0.00000000000E+00 -0.45593999997E+02  0.45594000000E+02  0.51100000000E-03 0. -1.
    9900012    2    1    2    0    0 -0.79977426997E+00 -0.86695963541E+00 -0.42334884440E-01  0.90007724551E+02  0.89999985715E+02 0.  0.
        -12    1    1    2    0    0  0.79977426997E+00  0.86695963541E+00  0.42334884440E-01  0.11802754487E+01  0.00000000000E+00 0.  1.
         11    1    3    3    0    0 -0.13902334293E+02  0.21380813953E+02 -0.29663495646E+02  0.39119522982E+02  0.51100000000E-03 0. -1.
        -11    1    3    3    0    0 -0.93883031291E+01  0.19101926596E+00  0.46467530070E+01  0.10477072004E+02  0.51100000000E-03 0.  1.
        -12    1    3    3    0    0  0.22490863152E+02 -0.22438792855E+02  0.24974407755E+02  0.40411129566E+02  0.00000000000E+00 0.  1.
</event>
<event>
 7    1  0.4359248E-015  0.9000774E+02  0.7816164E-02  0.1186339E+00
        -11   -1    0    0    0    0  0.00000000000E+00  0.00000000000E+00  0.45593999997E+02  0.45594000000E+02  0.51100000000E-03 0.  1.
         11   -1    0    0    0    0 -0.00000000000E+00 -0.00000000000E+00 -0.45593999997E+02  0.45594000000E+02  0.51100000000E-03 0. -1.
    9900012    2    1    2    0    0 -0.41383842582E+00  0.37530818988E-01 -0.11046890513E+01  0.90007742102E+02  0.90000003498E+02 0.  0.
        -12    1    1    2    0    0  0.41383842582E+00 -0.37530818988E-01  0.11046890513E+01  0.11802578977E+01  0.00000000000E+00 0.  1.
         11    1    3    3    0    0  0.33140471603E+01  0.92590226495E+01  0.52397258353E+00  0.98481955979E+01  0.51100000000E-03 0. -1.
        -11    1    3    3    0    0 -0.34013391634E+02  0.18318129818E+02  0.40033643461E+01  0.38839305051E+02  0.51100000000E-03 0.  1.
         12    1    3    3    0    0  0.30285506048E+02 -0.27539621649E+02 -0.56320259809E+01  0.41320241454E+02  0.00000000000E+00 0. -1.
</event>
<event>
 7    1  0.4359248E-015  0.9000775E+02  0.7816164E-02  0.1186339E+00
        -11   -1    0    0    0    0  0.00000000000E+00  0.00000000000E+00  0.45593999997E+02  0.45594000000E+02  0.51100000000E-03 0. -1.
         11   -1    0    0    0    0 -0.00000000000E+00 -0.00000000000E+00 -0.45593999997E+02  0.45594000000E+02  0.51100000000E-03 0.  1.
    9900012    2    1    2    0    0 -0.27252582451E+00 -0.10259136530E+01  0.51595765949E+00  0.90007753647E+02  0.90000015195E+02 0.  0.
        -12    1    1    2    0    0  0.27252582451E+00  0.10259136530E+01 -0.51595765949E+00  0.11802463534E+01  0.00000000000E+00 0.  1.
         11    1    3    3    0    0 -0.19890857786E+01  0.69452731622E+01  0.73419776128E+01  0.10300384316E+02  0.51100000000E-03 0. -1.
        -11    1    3    3    0    0 -0.68401023834E+01  0.31077478859E+02 -0.20038818470E+02  0.37605198295E+02  0.51100000000E-03 0.  1.
         12    1    3    3    0    0  0.85566623375E+01 -0.39048665674E+02  0.13212798516E+02  0.42102171036E+02  0.00000000000E+00 0. -1.
</event>
<event>
 7    1  0.4359248E-015  0.9000771E+02  0.7816164E-02  0.1186339E+00
        -11   -1    0    0    0    0  0.00000000000E+00  0.00000000000E+00  0.45593999997E+02  0.45594000000E+02  0.51100000000E-03 0.  1.
         11   -1    0    0    0    0 -0.00000000000E+00 -0.00000000000E+00 -0.45593999997E+02  0.45594000000E+02  0.51100000000E-03 0. -1.
    9900012    2    1    2    0    0 -0.35261530388E+00 -0.11256079975E+01  0.41967168224E-01  0.90007706748E+02  0.89999967678E+02 0.  0.
        -12    1    1    2    0    0  0.35261530388E+00  0.11256079975E+01 -0.41967168224E-01  0.11802932516E+01  0.00000000000E+00 0.  1.
         11    1    3    3    0    0  0.73088952832E+01 -0.15306286936E+01  0.53205966915E+01  0.91690525068E+01  0.51100000000E-03 0. -1.
        -11    1    3    3    0    0  0.11380694649E+02  0.11705944408E+02  0.32885902407E+02  0.36715554232E+02  0.51100000000E-03 0.  1.
         12    1    3    3    0    0 -0.19042205236E+02 -0.11300923711E+02 -0.38164531930E+02  0.44123100010E+02  0.00000000000E+00 0. -1.
</event>
<event>
 7    1  0.4359248E-015  0.9000768E+02  0.7816164E-02  0.1186339E+00
        -11   -1    0    0    0    0  0.00000000000E+00  0.00000000000E+00  0.45593999997E+02  0.45594000000E+02  0.51100000000E-03 0. -1.
         11   -1    0    0    0    0 -0.00000000000E+00 -0.00000000000E+00 -0.45593999997E+02  0.45594000000E+02  0.51100000000E-03 0.  1.
    9900012    2    1    2    0    0  0.17533605591E+00  0.64542118031E+00  0.97254609550E+00  0.90007679221E+02  0.89999939787E+02 0.  0.
        -12    1    1    2    0    0 -0.17533605591E+00 -0.64542118031E+00 -0.97254609550E+00  0.11803207786E+01  0.00000000000E+00 0.  1.
         11    1    3    3    0    0 -0.26600691007E+00 -0.10127763865E+02  0.11378856297E+01  0.10194956819E+02  0.51100000000E-03 0. -1.
        -11    1    3    3    0    0 -0.35174742032E+02 -0.36905731436E+01 -0.15253277862E+02  0.38516818313E+02  0.51100000000E-03 0.  1.
         12    1    3    3    0    0  0.35616084998E+02  0.14463758189E+02  0.15087938328E+02  0.41295904089E+02  0.00000000000E+00 0. -1.
</event>
<event>
 7    1  0.4359248E-015  0.9000727E+02  0.7816164E-02  0.1186340E+00
        -11   -1    0    0    0    0  0.00000000000E+00  0.00000000000E+00  0.45593999997E+02  0.45594000000E+02  0.51100000000E-03 0. -1.
         11   -1    0    0    0    0 -0.00000000000E+00 -0.00000000000E+00 -0.45593999997E+02  0.45594000000E+02  0.51100000000E-03 0.  1.
    9900012    2    1    2    0    0 -0.61376026447E+00  0.93654635818E+00  0.37457140417E+00  0.90007269514E+02  0.89999524671E+02 0.  0.
        -12    1    1    2    0    0  0.61376026447E+00 -0.93654635818E+00 -0.37457140417E+00  0.11807304858E+01  0.00000000000E+00 0.  1.
         11    1    3    3    0    0  0.33643075776E+01  0.33579395846E+02 -0.15472126447E+02  0.37125208254E+02  0.51100000000E-03 0. -1.
        -11    1    3    3    0    0  0.34412171530E+01  0.81687835784E+01  0.14967493645E+01  0.89895083051E+01  0.51100000000E-03 0.  1.
        -12    1    3    3    0    0 -0.74192849950E+01 -0.40811633066E+02  0.14349948487E+02  0.43892552955E+02  0.00000000000E+00 0.  1.
</event>
<event>
 7    1  0.4359248E-015  0.9000745E+02  0.7816164E-02  0.1186340E+00
        -11   -1    0    0    0    0  0.00000000000E+00  0.00000000000E+00  0.45593999997E+02  0.45594000000E+02  0.51100000000E-03 0.  1.
         11   -1    0    0    0    0 -0.00000000000E+00 -0.00000000000E+00 -0.45593999997E+02  0.45594000000E+02  0.51100000000E-03 0. -1.
    9900012    2    1    2    0    0 -0.42005203495E+00  0.10946555848E+01 -0.13774871034E+00  0.90007453826E+02  0.89999711416E+02 0.  0.
        -12    1    1    2    0    0  0.42005203495E+00 -0.10946555848E+01  0.13774871034E+00  0.11805461739E+01  0.00000000000E+00 0.  1.
         11    1    3    3    0    0 -0.32452140739E+02  0.45434623022E+01 -0.15766919864E+02  0.36364546614E+02  0.51100000000E-03 0. -1.
        -11    1    3    3    0    0 -0.65120426775E+01  0.86216883671E+01  0.18156036521E+01  0.10956122809E+02  0.51100000000E-03 0.  1.
        -12    1    3    3    0    0  0.38544131381E+02 -0.12070495084E+02  0.13813567501E+02  0.42686784402E+02  0.00000000000E+00 0.  1.
</event>
<event>
 7    1  0.4359248E-015  0.9000810E+02  0.7816164E-02  0.1186338E+00
        -11   -1    0    0    0    0  0.00000000000E+00  0.00000000000E+00  0.45593999997E+02  0.45594000000E+02  0.51100000000E-03 0. -1.
         11   -1    0    0    0    0 -0.00000000000E+00 -0.00000000000E+00 -0.45593999997E+02  0.45594000000E+02  0.51100000000E-03 0.  1.
    9900012    2    1    2    0    0  0.21081435676E+00  0.10048266204E+01  0.58141193699E+00  0.90008102093E+02  0.90000368240E+02 0.  0.
        -12    1    1    2    0    0 -0.21081435676E+00 -0.10048266204E+01 -0.58141193699E+00  0.11798979068E+01  0.00000000000E+00 0.  1.
         11    1    3    3    0    0 -0.23775073273E+02  0.17344606784E+02  0.23525292775E+02  0.37676635917E+02  0.51100000000E-03 0. -1.
        -11    1    3    3    0    0  0.30942095419E+01  0.10026265875E+02  0.17013944700E+01  0.10629905150E+02  0.51100000000E-03 0.  1.
        -12    1    3    3    0    0  0.20891678088E+02 -0.26366046039E+02 -0.24645275308E+02  0.41701561026E+02  0.00000000000E+00 0.  1.
</event>
<event>
 7    1  0.4359248E-015  0.9000771E+02  0.7816164E-02  0.1186339E+00
        -11   -1    0    0    0    0  0.00000000000E+00  0.00000000000E+00  0.45593999997E+02  0.45594000000E+02  0.51100000000E-03 0.  1.
         11   -1    0    0    0    0 -0.00000000000E+00 -0.00000000000E+00 -0.45593999997E+02  0.45594000000E+02  0.51100000000E-03 0. -1.
    9900012    2    1    2    0    0 -0.60422739166E+00 -0.10136954047E+01 -0.20107206194E-01  0.90007714690E+02  0.89999975723E+02 0.  0.
        -12    1    1    2    0    0  0.60422739166E+00  0.10136954047E+01  0.20107206194E-01  0.11802853104E+01  0.00000000000E+00 0.  1.
         11    1    3    3    0    0  0.13114472739E+01  0.38875303225E+02 -0.15261756268E+02  0.41784330788E+02  0.51100000000E-03 0. -1.
        -11    1    3    3    0    0  0.55939111075E+01 -0.37055397381E+01  0.82145405482E+01  0.10606674451E+02  0.51100000000E-03 0.  1.
        -12    1    3    3    0    0 -0.75095857731E+01 -0.36183458891E+02  0.70271085136E+01  0.37616709451E+02  0.00000000000E+00 0.  1.
</event>
<event>
 7    1  0.4359248E-015  0.9000775E+02  0.7816164E-02  0.1186339E+00
        -11   -1    0    0    0    0  0.00000000000E+00  0.00000000000E+00  0.45593999997E+02  0.45594000000E+02  0.51100000000E-03 0.  1.
         11   -1    0    0    0    0 -0.00000000000E+00 -0.00000000000E+00 -0.45593999997E+02  0.45594000000E+02  0.51100000000E-03 0. -1.
    9900012    2    1    2    0    0 -0.48171484322E+00  0.65909005643E+00 -0.85237585961E+00  0.90007748544E+02  0.90000010025E+02 0.  0.
        -12    1    1    2    0    0  0.48171484322E+00 -0.65909005643E+00  0.85237585961E+00  0.11802514557E+01  0.00000000000E+00 0.  1.
         11    1    3    3    0    0 -0.16815566821E+01 -0.31825754404E+02 -0.11766042431E+02  0.33972724810E+02  0.51100000000E-03 0. -1.
        -11    1    3    3    0    0  0.10405559388E+02 -0.59579717031E+01 -0.55514983880E+01  0.13213335218E+02  0.51100000000E-03 0.  1.
        -12    1    3    3    0    0 -0.92057175486E+01  0.38442816164E+02  0.16465164959E+02  0.42821688516E+02  0.00000000000E+00 0.  1.
</event>
<event>
 7    1  0.4359248E-015  0.9000801E+02  0.7816164E-02  0.1186339E+00
        -11   -1    0    0    0    0  0.00000000000E+00  0.00000000000E+00  0.45593999997E+02  0.45594000000E+02  0.51100000000E-03 0.  1.
         11   -1    0    0    0    0 -0.00000000000E+00 -0.00000000000E+00 -0.45593999997E+02  0.45594000000E+02  0.51100000000E-03 0. -1.
    9900012    2    1    2    0    0  0.44841530508E+00  0.49422572222E+00 -0.97315990959E+00  0.90008010356E+02  0.90000275292E+02 0.  0.
        -12    1    1    2    0    0 -0.44841530508E+00 -0.49422572222E+00  0.97315990959E+00  0.11799896440E+01  0.00000000000E+00 0.  1.
         11    1    3    3    0    0  0.65954702999E+01  0.53652554043E+01 -0.28018754344E+01  0.89519104241E+01  0.51100000000E-03 0. -1.
        -11    1    3    3    0    0 -0.19475439132E+02  0.32245535464E+02 -0.11566390203E+02  0.39406200899E+02  0.51100000000E-03 0.  1.
         12    1    3    3    0    0  0.13328384137E+02 -0.37116565146E+02  0.13395105728E+02  0.41649899032E+02  0.00000000000E+00 0. -1.
</event>
<event>
 7    1  0.4359248E-015  0.9000774E+02  0.7816164E-02  0.1186339E+00
        -11   -1    0    0    0    0  0.00000000000E+00  0.00000000000E+00  0.45593999997E+02  0.45594000000E+02  0.51100000000E-03 0.  1.
         11   -1    0    0    0    0 -0.00000000000E+00 -0.00000000000E+00 -0.45593999997E+02  0.45594000000E+02  0.51100000000E-03 0. -1.
    9900012    2    1    2    0    0  0.96135515324E+00 -0.44362566394E+00 -0.52154852291E+00  0.90007737181E+02  0.89999998512E+02 0.  0.
        -12    1    1    2    0    0 -0.96135515324E+00  0.44362566394E+00  0.52154852291E+00  0.11802628191E+01  0.00000000000E+00 0.  1.
         11    1    3    3    0    0 -0.58862889548E+01 -0.73939264491E+00 -0.70756430233E+01  0.92336246186E+01  0.51100000000E-03 0. -1.
        -11    1    3    3    0    0  0.25772408173E+01 -0.38791774540E+02 -0.63462368484E+01  0.39391860385E+02  0.51100000000E-03 0.  1.
         12    1    3    3    0    0  0.42704032908E+01  0.39087541521E+02  0.12900331349E+02  0.41382252178E+02  0.00000000000E+00 0. -1.
</event>
<event>
 7    1  0.4359248E-015  0.9000774E+02  0.7816164E-02  0.1186339E+00
        -11   -1    0    0    0    0  0.00000000000E+00  0.00000000000E+00  0.45593999997E+02  0.45594000000E+02  0.51100000000E-03 0.  1.
         11   -1    0    0    0    0 -0.00000000000E+00 -0.00000000000E+00 -0.45593999997E+02  0.45594000000E+02  0.51100000000E-03 0. -1.
    9900012    2    1    2    0    0 -0.98834767438E+00 -0.15067001000E-01 -0.64495079235E+00  0.90007737459E+02  0.89999998794E+02 0.  0.
        -12    1    1    2    0    0  0.98834767438E+00  0.15067001000E-01  0.64495079235E+00  0.11802625405E+01  0.00000000000E+00 0.  1.
         11    1    3    3    0    0 -0.14019496675E+02 -0.40443679390E-02 -0.38741753047E+02  0.41200360834E+02  0.51100000000E-03 0. -1.
        -11    1    3    3    0    0  0.61788851820E+01  0.28557699667E+01 -0.27126080746E+01  0.73275020998E+01  0.51100000000E-03 0.  1.
        -12    1    3    3    0    0  0.68522638189E+01 -0.28667925998E+01  0.40809410330E+02  0.41479874526E+02  0.00000000000E+00 0.  1.
</event>
<event>
 7    1  0.4359248E-015  0.9000772E+02  0.7816164E-02  0.1186339E+00
        -11   -1    0    0    0    0  0.00000000000E+00  0.00000000000E+00  0.45593999997E+02  0.45594000000E+02  0.51100000000E-03 0.  1.
         11   -1    0    0    0    0 -0.00000000000E+00 -0.00000000000E+00 -0.45593999997E+02  0.45594000000E+02  0.51100000000E-03 0. -1.
    9900012    2    1    2    0    0 -0.10795266223E+00  0.10539333806E+01 -0.52021633419E+00  0.90007722752E+02  0.89999983892E+02 0.  0.
        -12    1    1    2    0    0  0.10795266223E+00 -0.10539333806E+01  0.52021633419E+00  0.11802772481E+01  0.00000000000E+00 0.  1.
         11    1    3    3    0    0  0.15496361165E+02 -0.19484202843E+02 -0.34770396486E+02  0.42763908168E+02  0.51100000000E-03 0. -1.
        -11    1    3    3    0    0  0.23455289584E+01  0.63307627775E+01  0.92633398883E+00  0.68145548907E+01  0.51100000000E-03 0.  1.
        -12    1    3    3    0    0 -0.17949842785E+02  0.14207373446E+02  0.33323846163E+02  0.40429259693E+02  0.00000000000E+00 0.  1.
</event>
<event>
 7    1  0.4359248E-015  0.9000775E+02  0.7816164E-02  0.1186339E+00
        -11   -1    0    0    0    0  0.00000000000E+00  0.00000000000E+00  0.45593999997E+02  0.45594000000E+02  0.51100000000E-03 0.  1.
         11   -1    0    0    0    0 -0.00000000000E+00 -0.00000000000E+00 -0.45593999997E+02  0.45594000000E+02  0.51100000000E-03 0. -1.
    9900012    2    1    2    0    0  0.48223599454E-01 -0.14193539514E+00 -0.11706913032E+01  0.90007750323E+02  0.90000011828E+02 0.  0.
        -12    1    1    2    0    0 -0.48223599454E-01  0.14193539514E+00  0.11706913032E+01  0.11802496767E+01  0.00000000000E+00 0.  1.
         11    1    3    3    0    0  0.93772420855E+00 -0.89687322585E+01  0.41828607003E+01  0.99405135137E+01  0.51100000000E-03 0. -1.
        -11    1    3    3    0    0 -0.37107713955E+02  0.18668616141E+01  0.12355310929E+02  0.39155093099E+02  0.51100000000E-03 0.  1.
         12    1    3    3    0    0  0.36218213345E+02  0.69599352493E+01 -0.17708862932E+02  0.40912143710E+02  0.00000000000E+00 0. -1.
</event>
<event>
 7    1  0.4359248E-015  0.9000784E+02  0.7816164E-02  0.1186339E+00
        -11   -1    0    0    0    0  0.00000000000E+00  0.00000000000E+00  0.45593999997E+02  0.45594000000E+02  0.51100000000E-03 0. -1.
         11   -1    0    0    0    0 -0.00000000000E+00 -0.00000000000E+00 -0.45593999997E+02  0.45594000000E+02  0.51100000000E-03 0.  1.
    9900012    2    1    2    0    0 -0.61803073395E+00  0.10039765040E+01  0.53459637615E-01  0.90007835291E+02  0.90000097916E+02 0.  0.
        -12    1    1    2    0    0  0.61803073395E+00 -0.10039765040E+01 -0.53459637615E-01  0.11801647095E+01  0.00000000000E+00 0.  1.
         11    1    3    3    0    0 -0.32617188829E+01  0.63595208118E+00  0.86817308415E+01  0.92960042914E+01  0.51100000000E-03 0. -1.
        -11    1    3    3    0    0 -0.23307827430E+02 -0.31264140479E+02 -0.51417616296E+00  0.38999559956E+02  0.51100000000E-03 0.  1.
         12    1    3    3    0    0  0.25951515579E+02  0.31632164902E+02 -0.81140950409E+01  0.41712271043E+02  0.00000000000E+00 0. -1.
</event>
<event>
 7    1  0.4359248E-015  0.9000773E+02  0.7816164E-02  0.1186339E+00
        -11   -1    0    0    0    0  0.00000000000E+00  0.00000000000E+00  0.45593999997E+02  0.45594000000E+02  0.51100000000E-03 0.  1.
         11   -1    0    0    0    0 -0.00000000000E+00 -0.00000000000E+00 -0.45593999997E+02  0.45594000000E+02  0.51100000000E-03 0. -1.
    9900012    2    1    2    0    0 -0.50360106938E+00  0.79575989328E+00  0.71146622470E+00  0.90007732219E+02  0.89999993485E+02 0.  0.
        -12    1    1    2    0    0  0.50360106938E+00 -0.79575989328E+00 -0.71146622470E+00  0.11802677805E+01  0.00000000000E+00 0.  1.
         11    1    3    3    0    0  0.11205938611E+02  0.27359741930E+01 -0.27238774004E+01  0.11852346742E+02  0.51100000000E-03 0. -1.
        -11    1    3    3    0    0  0.15091058494E+02  0.15896482848E+02  0.29487167089E+02  0.36741410379E+02  0.51100000000E-03 0.  1.
         12    1    3    3    0    0 -0.26800598174E+02 -0.17836697148E+02 -0.26051823464E+02  0.41413975099E+02  0.00000000000E+00 0. -1.
</event>
<event>
 7    1  0.4359248E-015  0.9000776E+02  0.7816164E-02  0.1186339E+00
        -11   -1    0    0    0    0  0.00000000000E+00  0.00000000000E+00  0.45593999997E+02  0.45594000000E+02  0.51100000000E-03 0.  1.
         11   -1    0    0    0    0 -0.00000000000E+00 -0.00000000000E+00 -0.45593999997E+02  0.45594000000E+02  0.51100000000E-03 0. -1.
    9900012    2    1    2    0    0 -0.70101457860E+00 -0.62564126634E+00  0.71422061112E+00  0.90007762941E+02  0.90000024612E+02 0.  0.
        -12    1    1    2    0    0  0.70101457860E+00  0.62564126634E+00 -0.71422061112E+00  0.11802370588E+01  0.00000000000E+00 0.  1.
         11    1    3    3    0    0 -0.83069593795E+01  0.62088543930E+01 -0.35697585998E+01  0.10968072927E+02  0.51100000000E-03 0. -1.
        -11    1    3    3    0    0  0.11934054693E+02  0.34903914692E+02  0.37067352239E+01  0.37073505479E+02  0.51100000000E-03 0.  1.
         12    1    3    3    0    0 -0.43281098918E+01 -0.41738410351E+02  0.57724398702E+00  0.41966184536E+02  0.00000000000E+00 0. -1.
</event>
<event>
 7    1  0.4359248E-015  0.9000765E+02  0.7816164E-02  0.1186339E+00
        -11   -1    0    0    0    0  0.00000000000E+00  0.00000000000E+00  0.45593999997E+02  0.45594000000E+02  0.51100000000E-03 0.  1.
         11   -1    0    0    0    0 -0.00000000000E+00 -0.00000000000E+00 -0.45593999997E+02  0.45594000000E+02  0.51100000000E-03 0. -1.
    9900012    2    1    2    0    0  0.79745010163E+00  0.68563574001E+00 -0.53591823662E+00  0.90007647769E+02  0.89999907920E+02 0.  0.
        -12    1    1    2    0    0 -0.79745010163E+00 -0.68563574001E+00  0.53591823662E+00  0.11803522309E+01  0.00000000000E+00 0.  1.
         11    1    3    3    0    0  0.31909044443E+02  0.20771340058E+02  0.11342388523E+02  0.39727641042E+02  0.51100000000E-03 0. -1.
        -11    1    3    3    0    0  0.30410178571E+01 -0.66723883828E+01  0.59900144585E+01  0.94683065969E+01  0.51100000000E-03 0.  1.
        -12    1    3    3    0    0 -0.34152612199E+02 -0.13413315935E+02 -0.17868321218E+02  0.40811700130E+02  0.00000000000E+00 0.  1.
</event>
<event>
 7    1  0.4359248E-015  0.9000773E+02  0.7816164E-02  0.1186339E+00
        -11   -1    0    0    0    0  0.00000000000E+00  0.00000000000E+00  0.45593999997E+02  0.45594000000E+02  0.51100000000E-03 0.  1.
         11   -1    0    0    0    0 -0.00000000000E+00 -0.00000000000E+00 -0.45593999997E+02  0.45594000000E+02  0.51100000000E-03 0. -1.
    9900012    2    1    2    0    0  0.66527929987E+00 -0.96341921716E+00 -0.14921698518E+00  0.90007729335E+02  0.89999990562E+02 0.  0.
        -12    1    1    2    0    0 -0.66527929987E+00  0.96341921716E+00  0.14921698518E+00  0.11802706654E+01  0.00000000000E+00 0.  1.
         11    1    3    3    0    0 -0.19057772242E+02 -0.98480581813E+01 -0.28598954380E+02  0.35750288456E+02  0.51100000000E-03 0. -1.
        -11    1    3    3    0    0  0.30950908821E+01 -0.67341478131E+00 -0.10432218027E+02  0.10902488168E+02  0.51100000000E-03 0.  1.
        -12    1    3    3    0    0  0.16627960660E+02  0.95580537455E+01  0.38881955422E+02  0.43354952711E+02  0.00000000000E+00 0.  1.
</event>
<event>
 7    1  0.4359248E-015  0.9000777E+02  0.7816164E-02  0.1186339E+00
        -11   -1    0    0    0    0  0.00000000000E+00  0.00000000000E+00  0.45593999997E+02  0.45594000000E+02  0.51100000000E-03 0.  1.
         11   -1    0    0    0    0 -0.00000000000E+00 -0.00000000000E+00 -0.45593999997E+02  0.45594000000E+02  0.51100000000E-03 0. -1.
    9900012    2    1    2    0    0 -0.35704605897E+00  0.11029734203E+01  0.22113868718E+00  0.90007773508E+02  0.90000035318E+02 0.  0.
        -12    1    1    2    0    0  0.35704605897E+00 -0.11029734203E+01 -0.22113868718E+00  0.11802264923E+01  0.00000000000E+00 0.  1.
         11    1    3    3    0    0 -0.12462082459E+02  0.70499360512E+00  0.20528496990E+02  0.24025397065E+02  0.51100000000E-03 0. -1.
        -11    1    3    3    0    0 -0.19051664731E+02  0.62654203672E+01  0.97454247601E+01  0.22297863697E+02  0.51100000000E-03 0.  1.
         12    1    3    3    0    0  0.31156701132E+02 -0.58674405521E+01 -0.30052783063E+02  0.43684512746E+02  0.00000000000E+00 0. -1.
</event>
<event>
 7    1  0.4359248E-015  0.9000775E+02  0.7816164E-02  0.1186339E+00
        -11   -1    0    0    0    0  0.00000000000E+00  0.00000000000E+00  0.45593999997E+02  0.45594000000E+02  0.51100000000E-03 0. -1.
         11   -1    0    0    0    0 -0.00000000000E+00 -0.00000000000E+00 -0.45593999997E+02  0.45594000000E+02  0.51100000000E-03 0.  1.
    9900012    2    1    2    0    0 -0.85737987488E+00  0.23351533457E+00  0.77676613443E+00  0.90007747786E+02  0.90000009257E+02 0.  0.
        -12    1    1    2    0    0  0.85737987488E+00 -0.23351533457E+00 -0.77676613443E+00  0.11802522141E+01  0.00000000000E+00 0.  1.
         11    1    3    3    0    0 -0.36385840147E+01 -0.26677058448E+01 -0.84620043381E+01  0.95896541015E+01  0.51100000000E-03 0. -1.
        -11    1    3    3    0    0 -0.36413106786E+02 -0.68518831840E+01 -0.54286837402E+01  0.37447740338E+02  0.51100000000E-03 0.  1.
         12    1    3    3    0    0  0.39194310926E+02  0.97531043634E+01  0.14667454213E+02  0.42970353347E+02  0.00000000000E+00 0. -1.
</event>
<event>
 7    1  0.4359248E-015  0.9000776E+02  0.7816164E-02  0.1186339E+00
        -11   -1    0    0    0    0  0.00000000000E+00  0.00000000000E+00  0.45593999997E+02  0.45594000000E+02  0.51100000000E-03 0.  1.
         11   -1    0    0    0    0 -0.00000000000E+00 -0.00000000000E+00 -0.45593999997E+02  0.45594000000E+02  0.51100000000E-03 0. -1.
    9900012    2    1    2    0    0 -0.96863417585E+00 -0.55525453123E+00 -0.38263108336E+00  0.90007760064E+02  0.90000021697E+02 0.  0.
        -12    1    1    2    0    0  0.96863417585E+00  0.55525453123E+00  0.38263108336E+00  0.11802399362E+01  0.00000000000E+00 0.  1.
         11    1    3    3    0    0 -0.27666903765E+02 -0.56722384189E+01 -0.21832465540E+02  0.35697176421E+02  0.51100000000E-03 0. -1.
        -11    1    3    3    0    0  0.91192814791E-01  0.10216964673E+02 -0.89556069822E+01  0.13586669200E+02  0.51100000000E-03 0.  1.
        -12    1    3    3    0    0  0.26607076774E+02 -0.50999807852E+01  0.30405441439E+02  0.40723914443E+02  0.00000000000E+00 0.  1.
</event>
<event>
 7    1  0.4359248E-015  0.9000679E+02  0.7816164E-02  0.1186341E+00
        -11   -1    0    0    0    0  0.00000000000E+00  0.00000000000E+00  0.45593999997E+02  0.45594000000E+02  0.51100000000E-03 0.  1.
         11   -1    0    0    0    0 -0.00000000000E+00 -0.00000000000E+00 -0.45593999997E+02  0.45594000000E+02  0.51100000000E-03 0. -1.
    9900012    2    1    2    0    0 -0.19833618582E+00 -0.33278683124E+00 -0.11158747401E+01  0.90006788438E+02  0.89999037241E+02 0.  0.
        -12    1    1    2    0    0  0.19833618582E+00  0.33278683124E+00  0.11158747401E+01  0.11812115616E+01  0.00000000000E+00 0.  1.
         11    1    3    3    0    0 -0.83225222055E+01  0.11009551575E+01  0.20069446619E+01  0.86315876441E+01  0.51100000000E-03 0. -1.
        -11    1    3    3    0    0  0.17352036493E+01  0.23014923642E+02  0.31165490529E+02  0.38781251168E+02  0.51100000000E-03 0.  1.
         12    1    3    3    0    0  0.63889823704E+01 -0.24448665631E+02 -0.34288309931E+02  0.42593949627E+02  0.00000000000E+00 0. -1.
</event>
<event>
 7    1  0.4359248E-015  0.9000768E+02  0.7816164E-02  0.1186339E+00
        -11   -1    0    0    0    0  0.00000000000E+00  0.00000000000E+00  0.45593999997E+02  0.45594000000E+02  0.51100000000E-03 0.  1.
         11   -1    0    0    0    0 -0.00000000000E+00 -0.00000000000E+00 -0.45593999997E+02  0.45594000000E+02  0.51100000000E-03 0. -1.
    9900012    2    1    2    0    0 -0.38383045112E+00 -0.10936222846E+01  0.22319120775E+00  0.90007682317E+02  0.89999942924E+02 0.  0.
        -12    1    1    2    0    0  0.38383045112E+00  0.10936222846E+01 -0.22319120775E+00  0.11803176826E+01  0.00000000000E+00 0.  1.
         11    1    3    3    0    0  0.54943458884E+01 -0.19161374307E+01 -0.64061639398E+01  0.86543836337E+01  0.51100000000E-03 0. -1.
        -11    1    3    3    0    0 -0.34401814220E+02  0.25795604644E+02  0.87319488998E+00  0.43007679665E+02  0.51100000000E-03 0.  1.
         12    1    3    3    0    0  0.28523637881E+02 -0.24973089498E+02  0.57561602576E+01  0.38345619019E+02  0.00000000000E+00 0. -1.
</event>
<event>
 7    1  0.4359248E-015  0.9000780E+02  0.7816164E-02  0.1186339E+00
        -11   -1    0    0    0    0  0.00000000000E+00  0.00000000000E+00  0.45593999997E+02  0.45594000000E+02  0.51100000000E-03 0.  1.
         11   -1    0    0    0    0 -0.00000000000E+00 -0.00000000000E+00 -0.45593999997E+02  0.45594000000E+02  0.51100000000E-03 0. -1.
    9900012    2    1    2    0    0  0.77753177869E+00  0.79433213816E-01 -0.88431677153E+00  0.90007796011E+02  0.90000058119E+02 0.  0.
        -12    1    1    2    0    0 -0.77753177869E+00 -0.79433213816E-01  0.88431677153E+00  0.11802039886E+01  0.00000000000E+00 0.  1.
         11    1    3    3    0    0 -0.25249430209E+01 -0.47608819722E+01 -0.82278646470E+01  0.98356032516E+01  0.51100000000E-03 0. -1.
        -11    1    3    3    0    0 -0.13723003060E+02  0.38933828795E+02  0.80422196979E+01  0.42057593078E+02  0.51100000000E-03 0.  1.
         12    1    3    3    0    0  0.17025477860E+02 -0.34093513609E+02 -0.69867182237E+00  0.38114599681E+02  0.00000000000E+00 0. -1.
</event>
<event>
 7    1  0.4359248E-015  0.9000772E+02  0.7816164E-02  0.1186339E+00
        -11   -1    0    0    0    0  0.00000000000E+00  0.00000000000E+00  0.45593999997E+02  0.45594000000E+02  0.51100000000E-03 0.  1.
         11   -1    0    0    0    0 -0.00000000000E+00 -0.00000000000E+00 -0.45593999997E+02  0.45594000000E+02  0.51100000000E-03 0. -1.
    9900012    2    1    2    0    0  0.11150868378E+01  0.25933999386E+00 -0.28704551459E+00  0.90007715706E+02  0.89999976753E+02 0.  0.
        -12    1    1    2    0    0 -0.11150868378E+01 -0.25933999386E+00  0.28704551459E+00  0.11802842945E+01  0.00000000000E+00 0.  1.
         11    1    3    3    0    0  0.13540771565E+02 -0.18047147382E+02 -0.32881351501E+01  0.22800523157E+02  0.51100000000E-03 0. -1.
        -11    1    3    3    0    0  0.56649905888E+01  0.23445971692E+02  0.27333278304E+02  0.36454270121E+02  0.51100000000E-03 0.  1.
        -12    1    3    3    0    0 -0.18090675316E+02 -0.51394843157E+01 -0.24332188668E+02  0.30752922427E+02  0.00000000000E+00 0.  1.
</event>
<event>
 7    1  0.4359248E-015  0.9000771E+02  0.7816164E-02  0.1186339E+00
        -11   -1    0    0    0    0  0.00000000000E+00  0.00000000000E+00  0.45593999997E+02  0.45594000000E+02  0.51100000000E-03 0.  1.
         11   -1    0    0    0    0 -0.00000000000E+00 -0.00000000000E+00 -0.45593999997E+02  0.45594000000E+02  0.51100000000E-03 0. -1.
    9900012    2    1    2    0    0  0.14521034469E-01 -0.30668027515E+00 -0.11396615900E+01  0.90007706735E+02  0.89999967664E+02 0.  0.
        -12    1    1    2    0    0 -0.14521034469E-01  0.30668027515E+00  0.11396615900E+01  0.11802932650E+01  0.00000000000E+00 0.  1.
         11    1    3    3    0    0  0.70887692779E+01  0.70205157720E+01 -0.12163901630E+01  0.10050765984E+02  0.51100000000E-03 0. -1.
        -11    1    3    3    0    0  0.12384112557E+02  0.18919217935E+02  0.28687637771E+02  0.36527847079E+02  0.51100000000E-03 0.  1.
         12    1    3    3    0    0 -0.19458360801E+02 -0.26246413982E+02 -0.28610909198E+02  0.43429093671E+02  0.00000000000E+00 0. -1.
</event>
<event>
 7    1  0.4359248E-015  0.9000729E+02  0.7816164E-02  0.1186340E+00
        -11   -1    0    0    0    0  0.00000000000E+00  0.00000000000E+00  0.45593999997E+02  0.45594000000E+02  0.51100000000E-03 0.  1.
         11   -1    0    0    0    0 -0.00000000000E+00 -0.00000000000E+00 -0.45593999997E+02  0.45594000000E+02  0.51100000000E-03 0. -1.
    9900012    2    1    2    0    0  0.42109821916E+00 -0.23666713437E+00 -0.10773765312E+01  0.90007290369E+02  0.89999545801E+02 0.  0.
        -12    1    1    2    0    0 -0.42109821916E+00  0.23666713437E+00  0.10773765312E+01  0.11807096310E+01  0.00000000000E+00 0.  1.
         11    1    3    3    0    0 -0.17494964258E+01 -0.52764397573E+01  0.64441568856E+01  0.85105060063E+01  0.51100000000E-03 0. -1.
        -11    1    3    3    0    0  0.39381988551E+02  0.15340575395E+02 -0.58833896130E+00  0.42268432886E+02  0.51100000000E-03 0.  1.
         12    1    3    3    0    0 -0.37211393906E+02 -0.10300802772E+02 -0.69331944555E+01  0.39228351476E+02  0.00000000000E+00 0. -1.
</event>
<event>
 7    1  0.4359248E-015  0.9000766E+02  0.7816164E-02  0.1186339E+00
        -11   -1    0    0    0    0  0.00000000000E+00  0.00000000000E+00  0.45593999997E+02  0.45594000000E+02  0.51100000000E-03 0.  1.
         11   -1    0    0    0    0 -0.00000000000E+00 -0.00000000000E+00 -0.45593999997E+02  0.45594000000E+02  0.51100000000E-03 0. -1.
    9900012    2    1    2    0    0  0.95970533428E+00 -0.68299590386E+00 -0.75395533862E-01  0.90007660125E+02  0.89999920439E+02 0.  0.
        -12    1    1    2    0    0 -0.95970533428E+00  0.68299590386E+00  0.75395533862E-01  0.11803398747E+01  0.00000000000E+00 0.  1.
         11    1    3    3    0    0  0.40773591837E+01  0.10243417740E+02 -0.35043523627E+02  0.36736916220E+02  0.51100000000E-03 0. -1.
        -11    1    3    3    0    0 -0.10157558858E+02 -0.17547648497E+00 -0.49746091700E+01  0.11311654636E+02  0.51100000000E-03 0.  1.
        -12    1    3    3    0    0  0.70399050084E+01 -0.10750937159E+02  0.39942737263E+02  0.41959089270E+02  0.00000000000E+00 0.  1.
</event>
<event>
 7    1  0.4359248E-015  0.9000771E+02  0.7816164E-02  0.1186339E+00
        -11   -1    0    0    0    0  0.00000000000E+00  0.00000000000E+00  0.45593999997E+02  0.45594000000E+02  0.51100000000E-03 0.  1.
         11   -1    0    0    0    0 -0.00000000000E+00 -0.00000000000E+00 -0.45593999997E+02  0.45594000000E+02  0.51100000000E-03 0. -1.
    9900012    2    1    2    0    0 -0.11230833980E+01 -0.32720402863E+00 -0.15714584363E+00  0.90007714606E+02  0.89999975639E+02 0.  0.
        -12    1    1    2    0    0  0.11230833980E+01  0.32720402863E+00  0.15714584363E+00  0.11802853940E+01  0.00000000000E+00 0.  1.
         11    1    3    3    0    0 -0.58102082970E+01 -0.12991096312E+02 -0.36668016053E+02  0.39332817155E+02  0.51100000000E-03 0. -1.
        -11    1    3    3    0    0  0.11265058417E+02  0.81328271434E+01  0.62204303692E+00  0.13907960177E+02  0.51100000000E-03 0.  1.
        -12    1    3    3    0    0 -0.65779335177E+01  0.45310651404E+01  0.35888827173E+02  0.36766937274E+02  0.00000000000E+00 0.  1.
</event>
<event>
 7    1  0.4359248E-015  0.9000776E+02  0.7816164E-02  0.1186339E+00
        -11   -1    0    0    0    0  0.00000000000E+00  0.00000000000E+00  0.45593999997E+02  0.45594000000E+02  0.51100000000E-03 0.  1.
         11   -1    0    0    0    0 -0.00000000000E+00 -0.00000000000E+00 -0.45593999997E+02  0.45594000000E+02  0.51100000000E-03 0. -1.
    9900012    2    1    2    0    0  0.85551447367E+00  0.67428664807E+00 -0.45429861990E+00  0.90007764966E+02  0.90000026664E+02 0.  0.
        -12    1    1    2    0    0 -0.85551447367E+00 -0.67428664807E+00  0.45429861990E+00  0.11802350336E+01  0.00000000000E+00 0.  1.
         11    1    3    3    0    0  0.35662373592E+02  0.33566953967E+01  0.42182946522E+01  0.36067524233E+02  0.51100000000E-03 0. -1.
        -11    1    3    3    0    0  0.70783068210E+01  0.24598375749E+01  0.68958956187E+01  0.10183643994E+02  0.51100000000E-03 0.  1.
        -12    1    3    3    0    0 -0.41885165940E+02 -0.51422463235E+01 -0.11568488891E+02  0.43756596740E+02  0.00000000000E+00 0.  1.
</event>
<event>
 7    1  0.4359248E-015  0.9000776E+02  0.7816164E-02  0.1186339E+00
        -11   -1    0    0    0    0  0.00000000000E+00  0.00000000000E+00  0.45593999997E+02  0.45594000000E+02  0.51100000000E-03 0. -1.
         11   -1    0    0    0    0 -0.00000000000E+00 -0.00000000000E+00 -0.45593999997E+02  0.45594000000E+02  0.51100000000E-03 0.  1.
    9900012    2    1    2    0    0 -0.76397352973E+00  0.88827575847E+00  0.14242824063E+00  0.90007756304E+02  0.90000017888E+02 0.  0.
        -12    1    1    2    0    0  0.76397352973E+00 -0.88827575847E+00 -0.14242824063E+00  0.11802436956E+01  0.00000000000E+00 0.  1.
         11    1    3    3    0    0  0.41315140705E+01 -0.36681899492E+01  0.95815787856E+01  0.11060365198E+02  0.51100000000E-03 0. -1.
        -11    1    3    3    0    0 -0.11073261250E+02 -0.35388284338E+02 -0.10417623703E+02  0.38515901483E+02  0.51100000000E-03 0.  1.
         12    1    3    3    0    0  0.61777736497E+01  0.39944750046E+02  0.97847315833E+00  0.40431489624E+02  0.00000000000E+00 0. -1.
</event>
<event>
 7    1  0.4359248E-015  0.9000776E+02  0.7816164E-02  0.1186339E+00
        -11   -1    0    0    0    0  0.00000000000E+00  0.00000000000E+00  0.45593999997E+02  0.45594000000E+02  0.51100000000E-03 0. -1.
         11   -1    0    0    0    0 -0.00000000000E+00 -0.00000000000E+00 -0.45593999997E+02  0.45594000000E+02  0.51100000000E-03 0.  1.
    9900012    2    1    2    0    0  0.92637686635E+00 -0.33138319428E+00  0.65190367001E+00  0.90007759637E+02  0.90000021264E+02 0.  0.
        -12    1    1    2    0    0 -0.92637686635E+00  0.33138319428E+00 -0.65190367001E+00  0.11802403632E+01  0.00000000000E+00 0.  1.
         11    1    3    3    0    0 -0.45821737112E+01 -0.10486766777E+02  0.44746754064E+00  0.11452895739E+02  0.51100000000E-03 0. -1.
        -11    1    3    3    0    0 -0.91621799873E+01  0.27532844291E+02  0.29558933925E+02  0.41421415137E+02  0.51100000000E-03 0.  1.
         12    1    3    3    0    0  0.14670730565E+02 -0.17377460709E+02 -0.29354497796E+02  0.37133448760E+02  0.00000000000E+00 0. -1.
</event>
<event>
 7    1  0.4359248E-015  0.9000868E+02  0.7816164E-02  0.1186337E+00
        -11   -1    0    0    0    0  0.00000000000E+00  0.00000000000E+00  0.45593999997E+02  0.45594000000E+02  0.51100000000E-03 0. -1.
         11   -1    0    0    0    0 -0.00000000000E+00 -0.00000000000E+00 -0.45593999997E+02  0.45594000000E+02  0.51100000000E-03 0.  1.
    9900012    2    1    2    0    0  0.76370053271E+00 -0.17921257569E+00  0.88059533445E+00  0.90008676552E+02  0.90000950278E+02 0.  0.
        -12    1    1    2    0    0 -0.76370053271E+00  0.17921257569E+00 -0.88059533445E+00  0.11793234476E+01  0.00000000000E+00 0.  1.
         11    1    3    3    0    0  0.16825885658E+02  0.25024544145E+02  0.26748011658E+02  0.40308738082E+02  0.51100000000E-03 0. -1.
        -11    1    3    3    0    0  0.47691242050E+01  0.29857126140E+01 -0.94410706278E+01  0.10990579619E+02  0.51100000000E-03 0.  1.
        -12    1    3    3    0    0 -0.20831309330E+02 -0.28189469335E+02 -0.16426345696E+02  0.38709358852E+02  0.00000000000E+00 0.  1.
</event>
<event>
 7    1  0.4359248E-015  0.9000768E+02  0.7816164E-02  0.1186339E+00
        -11   -1    0    0    0    0  0.00000000000E+00  0.00000000000E+00  0.45593999997E+02  0.45594000000E+02  0.51100000000E-03 0.  1.
         11   -1    0    0    0    0 -0.00000000000E+00 -0.00000000000E+00 -0.45593999997E+02  0.45594000000E+02  0.51100000000E-03 0. -1.
    9900012    2    1    2    0    0  0.13124337630E+00 -0.54359926136E+00 -0.10394391586E+01  0.90007678542E+02  0.89999939098E+02 0.  0.
        -12    1    1    2    0    0 -0.13124337630E+00  0.54359926136E+00  0.10394391586E+01  0.11803214584E+01  0.00000000000E+00 0.  1.
         11    1    3    3    0    0 -0.51257640885E+01  0.97095291735E+01 -0.38676415804E+02  0.40204645925E+02  0.51100000000E-03 0. -1.
        -11    1    3    3    0    0 -0.80341477835E+01  0.60449547772E+01  0.56825480904E+01  0.11549041602E+02  0.51100000000E-03 0.  1.
        -12    1    3    3    0    0  0.13291155248E+02 -0.16298083212E+02  0.31954428555E+02  0.38253991014E+02  0.00000000000E+00 0.  1.
</event>
<event>
 7    1  0.4359248E-015  0.9000772E+02  0.7816164E-02  0.1186339E+00
        -11   -1    0    0    0    0  0.00000000000E+00  0.00000000000E+00  0.45593999997E+02  0.45594000000E+02  0.51100000000E-03 0.  1.
         11   -1    0    0    0    0 -0.00000000000E+00 -0.00000000000E+00 -0.45593999997E+02  0.45594000000E+02  0.51100000000E-03 0. -1.
    9900012    2    1    2    0    0  0.77181039924E+00  0.88643747369E+00  0.10767779146E+00  0.90007721561E+02  0.89999982685E+02 0.  0.
        -12    1    1    2    0    0 -0.77181039924E+00 -0.88643747369E+00 -0.10767779146E+00  0.11802784391E+01  0.00000000000E+00 0.  1.
         11    1    3    3    0    0 -0.10652638877E+01 -0.28676325583E+01  0.94855117153E+01  0.99665960288E+01  0.51100000000E-03 0. -1.
        -11    1    3    3    0    0  0.19422907944E+02 -0.14601592443E+02  0.26574875579E+02  0.36009441362E+02  0.51100000000E-03 0.  1.
         12    1    3    3    0    0 -0.17585833657E+02  0.18355662475E+02 -0.35952709503E+02  0.44031684171E+02  0.00000000000E+00 0. -1.
</event>
<event>
 7    1  0.4359248E-015  0.9000773E+02  0.7816164E-02  0.1186339E+00
        -11   -1    0    0    0    0  0.00000000000E+00  0.00000000000E+00  0.45593999997E+02  0.45594000000E+02  0.51100000000E-03 0.  1.
         11   -1    0    0    0    0 -0.00000000000E+00 -0.00000000000E+00 -0.45593999997E+02  0.45594000000E+02  0.51100000000E-03 0. -1.
    9900012    2    1    2    0    0  0.10533370800E+01  0.17586721664E-01 -0.53218040896E+00  0.90007727030E+02  0.89999988226E+02 0.  0.
        -12    1    1    2    0    0 -0.10533370800E+01 -0.17586721664E-01  0.53218040896E+00  0.11802729703E+01  0.00000000000E+00 0.  1.
         11    1    3    3    0    0  0.66216399120E-01  0.88797336751E+01 -0.38889057815E+01  0.96942066819E+01  0.51100000000E-03 0. -1.
        -11    1    3    3    0    0  0.26013044268E+02  0.24794451391E+02 -0.80948381239E+01  0.36837069595E+02  0.51100000000E-03 0.  1.
         12    1    3    3    0    0 -0.25025923587E+02 -0.33656598345E+02  0.11451563496E+02  0.43476450752E+02  0.00000000000E+00 0. -1.
</event>
<event>
 7    1  0.4359248E-015  0.9000753E+02  0.7816164E-02  0.1186339E+00
        -11   -1    0    0    0    0  0.00000000000E+00  0.00000000000E+00  0.45593999997E+02  0.45594000000E+02  0.51100000000E-03 0. -1.
         11   -1    0    0    0    0 -0.00000000000E+00 -0.00000000000E+00 -0.45593999997E+02  0.45594000000E+02  0.51100000000E-03 0.  1.
    9900012    2    1    2    0    0  0.36690119238E+00 -0.10915160220E+01  0.25976474226E+00  0.90007533384E+02  0.89999792024E+02 0.  0.
        -12    1    1    2    0    0 -0.36690119238E+00  0.10915160220E+01 -0.25976474226E+00  0.11804666165E+01  0.00000000000E+00 0.  1.
         11    1    3    3    0    0  0.14874119544E+01  0.15365894127E+02  0.33175651947E+02  0.36591624438E+02  0.51100000000E-03 0. -1.
        -11    1    3    3    0    0  0.51196845779E+01  0.76146478804E+01  0.30681834995E+01  0.96751115119E+01  0.51100000000E-03 0.  1.
        -12    1    3    3    0    0 -0.62401953399E+01 -0.24072058029E+02 -0.35984070705E+02  0.43740797433E+02  0.00000000000E+00 0.  1.
</event>
<event>
 7    1  0.4359248E-015  0.9000769E+02  0.7816164E-02  0.1186339E+00
        -11   -1    0    0    0    0  0.00000000000E+00  0.00000000000E+00  0.45593999997E+02  0.45594000000E+02  0.51100000000E-03 0.  1.
         11   -1    0    0    0    0 -0.00000000000E+00 -0.00000000000E+00 -0.45593999997E+02  0.45594000000E+02  0.51100000000E-03 0. -1.
    9900012    2    1    2    0    0  0.80527999093E+00  0.95672586478E-01 -0.85761917902E+00  0.90007686582E+02  0.89999947245E+02 0.  0.
        -12    1    1    2    0    0 -0.80527999093E+00 -0.95672586478E-01  0.85761917902E+00  0.11803134176E+01  0.00000000000E+00 0.  1.
         11    1    3    3    0    0 -0.12495320767E+02 -0.30985394023E+02 -0.99697256858E+01  0.34865787161E+02  0.51100000000E-03 0. -1.
        -11    1    3    3    0    0 -0.25522647491E+00 -0.61422639981E+01 -0.95450786251E+01  0.11353460873E+02  0.51100000000E-03 0.  1.
        -12    1    3    3    0    0  0.13555827232E+02  0.37223330608E+02  0.18657185132E+02  0.43788438549E+02  0.00000000000E+00 0.  1.
</event>
<event>
 7    1  0.4359248E-015  0.9000755E+02  0.7816164E-02  0.1186339E+00
        -11   -1    0    0    0    0  0.00000000000E+00  0.00000000000E+00  0.45593999997E+02  0.45594000000E+02  0.51100000000E-03 0.  1.
         11   -1    0    0    0    0 -0.00000000000E+00 -0.00000000000E+00 -0.45593999997E+02  0.45594000000E+02  0.51100000000E-03 0. -1.
    9900012    2    1    2    0    0 -0.36524490945E-01  0.11795330434E+01 -0.28873716839E-01  0.90007548421E+02  0.89999807260E+02 0.  0.
        -12    1    1    2    0    0  0.36524490945E-01 -0.11795330434E+01  0.28873716839E-01  0.11804515790E+01  0.00000000000E+00 0.  1.
         11    1    3    3    0    0  0.15046832064E+02  0.26521500270E+02 -0.23056559593E+02  0.38228288900E+02  0.51100000000E-03 0. -1.
        -11    1    3    3    0    0  0.25287214434E+01 -0.26856675433E+01 -0.84283352339E+01  0.92002215934E+01  0.51100000000E-03 0.  1.
        -12    1    3    3    0    0 -0.17612077999E+02 -0.22656299683E+02  0.31456021110E+02  0.42579037927E+02  0.00000000000E+00 0.  1.
</event>
<event>
 7    1  0.4359248E-015  0.9000788E+02  0.7816164E-02  0.1186339E+00
        -11   -1    0    0    0    0  0.00000000000E+00  0.00000000000E+00  0.45593999997E+02  0.45594000000E+02  0.51100000000E-03 0.  1.
         11   -1    0    0    0    0 -0.00000000000E+00 -0.00000000000E+00 -0.45593999997E+02  0.45594000000E+02  0.51100000000E-03 0. -1.
    9900012    2    1    2    0    0 -0.27452675111E-01 -0.70264295899E+00 -0.94774565968E+00  0.90007880255E+02  0.90000143474E+02 0.  0.
        -12    1    1    2    0    0  0.27452675111E-01  0.70264295899E+00  0.94774565968E+00  0.11801197450E+01  0.00000000000E+00 0.  1.
         11    1    3    3    0    0  0.72605091220E+01  0.60594816250E+01 -0.37790839442E+01  0.10183996563E+02  0.51100000000E-03 0. -1.
        -11    1    3    3    0    0  0.19658251011E+01  0.29665753183E+02 -0.20014835039E+02  0.35840131168E+02  0.51100000000E-03 0.  1.
         12    1    3    3    0    0 -0.92537868983E+01 -0.36427877767E+02  0.22846173324E+02  0.43983752524E+02  0.00000000000E+00 0. -1.
</event>
<event>
 7    1  0.4359248E-015  0.9000775E+02  0.7816164E-02  0.1186339E+00
        -11   -1    0    0    0    0  0.00000000000E+00  0.00000000000E+00  0.45593999997E+02  0.45594000000E+02  0.51100000000E-03 0. -1.
         11   -1    0    0    0    0 -0.00000000000E+00 -0.00000000000E+00 -0.45593999997E+02  0.45594000000E+02  0.51100000000E-03 0.  1.
    9900012    2    1    2    0    0 -0.51417811735E-01 -0.73974546890E+00  0.91821635571E+00  0.90007750693E+02  0.90000012202E+02 0.  0.
        -12    1    1    2    0    0  0.51417811735E-01  0.73974546890E+00 -0.91821635571E+00  0.11802493067E+01  0.00000000000E+00 0.  1.
         11    1    3    3    0    0 -0.21524920395E+02 -0.25580120142E+02  0.22042080621E+02  0.40043951639E+02  0.51100000000E-03 0. -1.
        -11    1    3    3    0    0  0.18976623989E+01 -0.70003858329E+01 -0.49018505378E+00  0.72695808709E+01  0.51100000000E-03 0.  1.
        -12    1    3    3    0    0  0.19575840184E+02  0.31840760506E+02 -0.20633679212E+02  0.42694218184E+02  0.00000000000E+00 0.  1.
</event>
<event>
 7    1  0.4359248E-015  0.9000772E+02  0.7816164E-02  0.1186339E+00
        -11   -1    0    0    0    0  0.00000000000E+00  0.00000000000E+00  0.45593999997E+02  0.45594000000E+02  0.51100000000E-03 0.  1.
         11   -1    0    0    0    0 -0.00000000000E+00 -0.00000000000E+00 -0.45593999997E+02  0.45594000000E+02  0.51100000000E-03 0. -1.
    9900012    2    1    2    0    0 -0.10961799594E+00  0.10107095036E+01  0.59958617175E+00  0.90007723175E+02  0.89999984321E+02 0.  0.
        -12    1    1    2    0    0  0.10961799594E+00 -0.10107095036E+01 -0.59958617175E+00  0.11802768248E+01  0.00000000000E+00 0.  1.
         11    1    3    3    0    0  0.29174037331E+02  0.12837073300E+02 -0.15469961889E+02  0.35429290512E+02  0.51100000000E-03 0. -1.
        -11    1    3    3    0    0  0.76894772909E+01  0.72288600520E+01  0.36963620947E+01  0.11182467154E+02  0.51100000000E-03 0.  1.
        -12    1    3    3    0    0 -0.36973132618E+02 -0.19055223848E+02  0.12373185966E+02  0.43395965509E+02  0.00000000000E+00 0.  1.
</event>
<event>
 7    1  0.4359248E-015  0.9000782E+02  0.7816164E-02  0.1186339E+00
        -11   -1    0    0    0    0  0.00000000000E+00  0.00000000000E+00  0.45593999997E+02  0.45594000000E+02  0.51100000000E-03 0.  1.
         11   -1    0    0    0    0 -0.00000000000E+00 -0.00000000000E+00 -0.45593999997E+02  0.45594000000E+02  0.51100000000E-03 0. -1.
    9900012    2    1    2    0    0  0.35773983515E+00  0.85343159076E+00 -0.73245669352E+00  0.90007823709E+02  0.90000086182E+02 0.  0.
        -12    1    1    2    0    0 -0.35773983515E+00 -0.85343159076E+00  0.73245669352E+00  0.11801762909E+01  0.00000000000E+00 0.  1.
         11    1    3    3    0    0  0.11439165130E+02 -0.35254307228E+02 -0.94735802994E+01  0.38255318597E+02  0.51100000000E-03 0. -1.
        -11    1    3    3    0    0  0.98781402064E+01  0.76884994528E+00  0.21789550263E+01  0.10144783361E+02  0.51100000000E-03 0.  1.
        -12    1    3    3    0    0 -0.20959565502E+02  0.35338888874E+02  0.65621685796E+01  0.41607721751E+02  0.00000000000E+00 0.  1.
</event>
<event>
 7    1  0.4359248E-015  0.9000779E+02  0.7816164E-02  0.1186339E+00
        -11   -1    0    0    0    0  0.00000000000E+00  0.00000000000E+00  0.45593999997E+02  0.45594000000E+02  0.51100000000E-03 0.  1.
         11   -1    0    0    0    0 -0.00000000000E+00 -0.00000000000E+00 -0.45593999997E+02  0.45594000000E+02  0.51100000000E-03 0. -1.
    9900012    2    1    2    0    0 -0.83295644159E+00  0.83110188621E+00  0.91391435675E-01  0.90007788505E+02  0.90000050513E+02 0.  0.
        -12    1    1    2    0    0  0.83295644159E+00 -0.83110188621E+00 -0.91391435675E-01  0.11802114952E+01  0.00000000000E+00 0.  1.
         11    1    3    3    0    0 -0.31783970518E+02 -0.14645335086E+02 -0.11200302718E+02  0.36744433631E+02  0.51100000000E-03 0. -1.
        -11    1    3    3    0    0 -0.46416871008E+01 -0.78856985254E+01 -0.24263787837E+00  0.91535989521E+01  0.51100000000E-03 0.  1.
        -12    1    3    3    0    0  0.35592701177E+02  0.23362135497E+02  0.11534332032E+02  0.44109755922E+02  0.00000000000E+00 0.  1.
</event>
<event>
 7    1  0.4359248E-015  0.9000779E+02  0.7816164E-02  0.1186339E+00
        -11   -1    0    0    0    0  0.00000000000E+00  0.00000000000E+00  0.45593999997E+02  0.45594000000E+02  0.51100000000E-03 0. -1.
         11   -1    0    0    0    0 -0.00000000000E+00 -0.00000000000E+00 -0.45593999997E+02  0.45594000000E+02  0.51100000000E-03 0.  1.
    9900012    2    1    2    0    0 -0.34203316581E-01  0.34623052036E+00  0.11277640551E+01  0.90007789339E+02  0.90000051358E+02 0.  0.
        -12    1    1    2    0    0  0.34203316581E-01 -0.34623052036E+00 -0.11277640551E+01  0.11802106608E+01  0.00000000000E+00 0.  1.
         11    1    3    3    0    0  0.25390024695E+01 -0.33317804747E+01  0.91626162177E+01  0.10074762076E+02  0.51100000000E-03 0. -1.
        -11    1    3    3    0    0  0.11564070451E+02  0.29046052862E+02  0.21942532006E+02  0.38195230374E+02  0.51100000000E-03 0.  1.
         12    1    3    3    0    0 -0.14137276237E+02 -0.25368041867E+02 -0.29977384168E+02  0.41737796889E+02  0.00000000000E+00 0. -1.
</event>
<event>
 7    1  0.4359248E-015  0.9000765E+02  0.7816164E-02  0.1186339E+00
        -11   -1    0    0    0    0  0.00000000000E+00  0.00000000000E+00  0.45593999997E+02  0.45594000000E+02  0.51100000000E-03 0.  1.
         11   -1    0    0    0    0 -0.00000000000E+00 -0.00000000000E+00 -0.45593999997E+02  0.45594000000E+02  0.51100000000E-03 0. -1.
    9900012    2    1    2    0    0  0.29758815997E+00  0.66142237043E+00 -0.93123048423E+00  0.90007649001E+02  0.89999909168E+02 0.  0.
        -12    1    1    2    0    0 -0.29758815997E+00 -0.66142237043E+00  0.93123048423E+00  0.11803509986E+01  0.00000000000E+00 0.  1.
         11    1    3    3    0    0 -0.34061165454E+02  0.10467566130E+02 -0.12726364140E+02  0.37837722940E+02  0.51100000000E-03 0. -1.
        -11    1    3    3    0    0 -0.66849311939E+01  0.36391162635E+01  0.22654905698E+01  0.79412794957E+01  0.51100000000E-03 0.  1.
        -12    1    3    3    0    0  0.41043684808E+02 -0.13445260023E+02  0.95296430864E+01  0.44228646566E+02  0.00000000000E+00 0.  1.
</event>
<event>
 7    1  0.4359248E-015  0.9000779E+02  0.7816164E-02  0.1186339E+00
        -11   -1    0    0    0    0  0.00000000000E+00  0.00000000000E+00  0.45593999997E+02  0.45594000000E+02  0.51100000000E-03 0. -1.
         11   -1    0    0    0    0 -0.00000000000E+00 -0.00000000000E+00 -0.45593999997E+02  0.45594000000E+02  0.51100000000E-03 0.  1.
    9900012    2    1    2    0    0  0.11572004317E+01 -0.13217635593E+00 -0.19058399370E+00  0.90007785745E+02  0.90000047717E+02 0.  0.
        -12    1    1    2    0    0 -0.11572004317E+01  0.13217635593E+00  0.19058399370E+00  0.11802142547E+01  0.00000000000E+00 0.  1.
         11    1    3    3    0    0  0.43018879138E+02  0.32657916822E+01  0.15366706540E+01  0.43170021017E+02  0.51100000000E-03 0. -1.
        -11    1    3    3    0    0 -0.53454197704E+01 -0.66010922764E+01 -0.52931340887E+01  0.10008256617E+02  0.51100000000E-03 0.  1.
        -12    1    3    3    0    0 -0.36516258936E+02  0.32031242382E+01  0.35658794410E+01  0.36829508112E+02  0.00000000000E+00 0.  1.
</event>
<event>
 7    1  0.4359248E-015  0.9000768E+02  0.7816164E-02  0.1186339E+00
        -11   -1    0    0    0    0  0.00000000000E+00  0.00000000000E+00  0.45593999997E+02  0.45594000000E+02  0.51100000000E-03 0. -1.
         11   -1    0    0    0    0 -0.00000000000E+00 -0.00000000000E+00 -0.45593999997E+02  0.45594000000E+02  0.51100000000E-03 0.  1.
    9900012    2    1    2    0    0 -0.67136380629E+00 -0.77496415640E+00  0.58468451825E+00  0.90007680217E+02  0.89999940796E+02 0.  0.
        -12    1    1    2    0    0  0.67136380629E+00  0.77496415640E+00 -0.58468451825E+00  0.11803197829E+01  0.00000000000E+00 0.  1.
         11    1    3    3    0    0 -0.12232465334E+02 -0.16716517414E+02  0.28493191090E+02  0.35226937156E+02  0.51100000000E-03 0. -1.
        -11    1    3    3    0    0 -0.89315969744E+00  0.52942687447E-01  0.10952401005E+02  0.10988886441E+02  0.51100000000E-03 0.  1.
        -12    1    3    3    0    0  0.12454261225E+02  0.15888610570E+02 -0.38860907577E+02  0.43791856620E+02  0.00000000000E+00 0.  1.
</event>
<event>
 7    1  0.4359248E-015  0.9000772E+02  0.7816164E-02  0.1186339E+00
        -11   -1    0    0    0    0  0.00000000000E+00  0.00000000000E+00  0.45593999997E+02  0.45594000000E+02  0.51100000000E-03 0.  1.
         11   -1    0    0    0    0 -0.00000000000E+00 -0.00000000000E+00 -0.45593999997E+02  0.45594000000E+02  0.51100000000E-03 0. -1.
    9900012    2    1    2    0    0 -0.13168751843E+00 -0.10513876787E+01 -0.51991407259E+00  0.90007716858E+02  0.89999977920E+02 0.  0.
        -12    1    1    2    0    0  0.13168751843E+00  0.10513876787E+01  0.51991407259E+00  0.11802831425E+01  0.00000000000E+00 0.  1.
         11    1    3    3    0    0  0.90750871871E+01 -0.11819949258E+01  0.21782918405E+02  0.23627311611E+02  0.51100000000E-03 0. -1.
        -11    1    3    3    0    0 -0.35538749653E+02  0.38612001265E+01 -0.10298587929E+02  0.37201780964E+02  0.51100000000E-03 0.  1.
         12    1    3    3    0    0  0.26331974947E+02 -0.37305928794E+01 -0.12004244549E+02  0.29178624283E+02  0.00000000000E+00 0. -1.
</event>
<event>
 7    1  0.4359248E-015  0.9000773E+02  0.7816164E-02  0.1186339E+00
        -11   -1    0    0    0    0  0.00000000000E+00  0.00000000000E+00  0.45593999997E+02  0.45594000000E+02  0.51100000000E-03 0. -1.
         11   -1    0    0    0    0 -0.00000000000E+00 -0.00000000000E+00 -0.45593999997E+02  0.45594000000E+02  0.51100000000E-03 0.  1.
    9900012    2    1    2    0    0 -0.40552214056E+00  0.16518097470E+00  0.10960365501E+01  0.90007733471E+02  0.89999994753E+02 0.  0.
        -12    1    1    2    0    0  0.40552214056E+00 -0.16518097470E+00 -0.10960365501E+01  0.11802665292E+01  0.00000000000E+00 0.  1.
         11    1    3    3    0    0 -0.92993709665E+01  0.15452773545E+01  0.33538137983E+01  0.10005710856E+02  0.51100000000E-03 0. -1.
        -11    1    3    3    0    0 -0.28715485774E+02  0.21362387581E+02 -0.40242527837E+01  0.36015626291E+02  0.51100000000E-03 0.  1.
         12    1    3    3    0    0  0.37609334600E+02 -0.22742483960E+02  0.17664755356E+01  0.43986396324E+02  0.00000000000E+00 0. -1.
</event>
<event>
 7    1  0.5230011E-015  0.9000777E+02  0.7816164E-02  0.1186339E+00
        -11   -1    0    0    0    0  0.00000000000E+00  0.00000000000E+00  0.45593999997E+02  0.45594000000E+02  0.51100000000E-03 0. -1.
         11   -1    0    0    0    0 -0.00000000000E+00 -0.00000000000E+00 -0.45593999997E+02  0.45594000000E+02  0.51100000000E-03 0.  1.
    9900012    2    1    2    0    0 -0.12869020403E+00  0.33750072077E+00  0.11235977438E+01  0.90007771296E+02  0.90000033077E+02 0.  0.
        -12    1    1    2    0    0  0.12869020403E+00 -0.33750072077E+00 -0.11235977438E+01  0.11802287045E+01  0.00000000000E+00 0.  1.
         11    1    3    3    0    0 -0.54683853968E+01 -0.35329919348E+02  0.92749895122E+01  0.36934155882E+02  0.51100000000E-03 0. -1.
        -11    1    3    3    0    0  0.35896914641E+01 -0.76940298048E+01 -0.42703256406E+01  0.95036656497E+01  0.51100000000E-03 0.  1.
        -12    1    3    3    0    0  0.17500037287E+01  0.43361449873E+02 -0.38810661278E+01  0.43569949764E+02  0.00000000000E+00 0.  1.
</event>
<event>
 7    1  0.5737004E-015  0.9000733E+02  0.7816164E-02  0.1186340E+00
        -11   -1    0    0    0    0  0.00000000000E+00  0.00000000000E+00  0.45593999997E+02  0.45594000000E+02  0.51100000000E-03 0. -1.
         11   -1    0    0    0    0 -0.00000000000E+00 -0.00000000000E+00 -0.45593999997E+02  0.45594000000E+02  0.51100000000E-03 0.  1.
    9900012    2    1    2    0    0  0.47243302794E+00 -0.77295085004E+00  0.75719513767E+00  0.90007326269E+02  0.89999582175E+02 0.  0.
        -12    1    1    2    0    0 -0.47243302794E+00  0.77295085004E+00 -0.75719513767E+00  0.11806737310E+01  0.00000000000E+00 0.  1.
         11    1    3    3    0    0  0.64939268198E+01  0.21511938734E+02  0.28566568011E+02  0.36345335352E+02  0.51100000000E-03 0. -1.
        -11    1    3    3    0    0  0.70487328499E+01  0.52236202070E+01  0.39836331415E+01  0.96353607158E+01  0.51100000000E-03 0.  1.
        -12    1    3    3    0    0 -0.13070226642E+02 -0.27508509791E+02 -0.31793006015E+02  0.44026630201E+02  0.00000000000E+00 0.  1.
</event>
<event>
 7    1  0.4359248E-015  0.9000788E+02  0.7816164E-02  0.1186339E+00
        -11   -1    0    0    0    0  0.00000000000E+00  0.00000000000E+00  0.45593999997E+02  0.45594000000E+02  0.51100000000E-03 0. -1.
         11   -1    0    0    0    0 -0.00000000000E+00 -0.00000000000E+00 -0.45593999997E+02  0.45594000000E+02  0.51100000000E-03 0.  1.
    9900012    2    1    2    0    0  0.10456021804E+01  0.49251535679E+00  0.23839266751E+00  0.90007878667E+02  0.90000141865E+02 0.  0.
        -12    1    1    2    0    0 -0.10456021804E+01 -0.49251535679E+00 -0.23839266751E+00  0.11801213328E+01  0.00000000000E+00 0.  1.
         11    1    3    3    0    0 -0.34275839968E+01  0.83641678421E+01  0.43663345535E+01  0.10038551362E+02  0.51100000000E-03 0. -1.
        -11    1    3    3    0    0  0.37959730164E+01 -0.28617321668E+02  0.28972281591E+02  0.40899310647E+02  0.51100000000E-03 0.  1.
         12    1    3    3    0    0  0.67721316079E+00  0.20745669182E+02 -0.33100223477E+02  0.39070016658E+02  0.00000000000E+00 0. -1.
</event>
<event>
 7    1  0.4359248E-015  0.9000759E+02  0.7816164E-02  0.1186339E+00
        -11   -1    0    0    0    0  0.00000000000E+00  0.00000000000E+00  0.45593999997E+02  0.45594000000E+02  0.51100000000E-03 0. -1.
         11   -1    0    0    0    0 -0.00000000000E+00 -0.00000000000E+00 -0.45593999997E+02  0.45594000000E+02  0.51100000000E-03 0.  1.
    9900012    2    1    2    0    0 -0.10836057416E+01 -0.29399425200E+00 -0.36431087516E+00  0.90007594800E+02  0.89999854251E+02 0.  0.
        -12    1    1    2    0    0  0.10836057416E+01  0.29399425200E+00  0.36431087516E+00  0.11804052004E+01  0.00000000000E+00 0.  1.
         11    1    3    3    0    0 -0.16683180661E+02  0.17844875371E+02  0.24418754033E+02  0.34540463847E+02  0.51100000000E-03 0. -1.
        -11    1    3    3    0    0  0.36737015902E+01  0.12877393083E+02  0.96965550949E+00  0.13426226874E+02  0.51100000000E-03 0.  1.
        -12    1    3    3    0    0  0.11925873329E+02 -0.31016262706E+02 -0.25752720417E+02  0.42040904079E+02  0.00000000000E+00 0.  1.
</event>
<event>
 7    1  0.4359248E-015  0.9000776E+02  0.7816164E-02  0.1186339E+00
        -11   -1    0    0    0    0  0.00000000000E+00  0.00000000000E+00  0.45593999997E+02  0.45594000000E+02  0.51100000000E-03 0.  1.
         11   -1    0    0    0    0 -0.00000000000E+00 -0.00000000000E+00 -0.45593999997E+02  0.45594000000E+02  0.51100000000E-03 0. -1.
    9900012    2    1    2    0    0  0.72723098867E+00 -0.90920813901E+00 -0.19349943083E+00  0.90007760033E+02  0.90000021665E+02 0.  0.
        -12    1    1    2    0    0 -0.72723098867E+00  0.90920813901E+00  0.19349943083E+00  0.11802399674E+01  0.00000000000E+00 0.  1.
         11    1    3    3    0    0 -0.39175038836E+02 -0.23878012832E+00 -0.53396275573E+01  0.39537985615E+02  0.51100000000E-03 0. -1.
        -11    1    3    3    0    0  0.33888580494E+01  0.72313000579E+00 -0.10249076823E+02  0.10819004199E+02  0.51100000000E-03 0.  1.
        -12    1    3    3    0    0  0.36513411776E+02 -0.13935580165E+01  0.15395204949E+02  0.39650770218E+02  0.00000000000E+00 0.  1.
</event>
<event>
 7    1  0.4359248E-015  0.9000774E+02  0.7816164E-02  0.1186339E+00
        -11   -1    0    0    0    0  0.00000000000E+00  0.00000000000E+00  0.45593999997E+02  0.45594000000E+02  0.51100000000E-03 0. -1.
         11   -1    0    0    0    0 -0.00000000000E+00 -0.00000000000E+00 -0.45593999997E+02  0.45594000000E+02  0.51100000000E-03 0.  1.
    9900012    2    1    2    0    0  0.94987287420E+00  0.23212481656E+00  0.66095633574E+00  0.90007744229E+02  0.90000005653E+02 0.  0.
        -12    1    1    2    0    0 -0.94987287420E+00 -0.23212481656E+00 -0.66095633574E+00  0.11802557712E+01  0.00000000000E+00 0.  1.
         11    1    3    3    0    0  0.19399024963E+02  0.25375095040E+02 -0.27218844058E+02  0.41965260512E+02  0.51100000000E-03 0. -1.
        -11    1    3    3    0    0 -0.62172195215E+01  0.40756944967E+01  0.58394393802E+01  0.94532616987E+01  0.51100000000E-03 0.  1.
        -12    1    3    3    0    0 -0.12231932567E+02 -0.29218664720E+02  0.22040361013E+02  0.38589222018E+02  0.00000000000E+00 0.  1.
</event>
<event>
 7    1  0.4359248E-015  0.9000769E+02  0.7816164E-02  0.1186339E+00
        -11   -1    0    0    0    0  0.00000000000E+00  0.00000000000E+00  0.45593999997E+02  0.45594000000E+02  0.51100000000E-03 0.  1.
         11   -1    0    0    0    0 -0.00000000000E+00 -0.00000000000E+00 -0.45593999997E+02  0.45594000000E+02  0.51100000000E-03 0. -1.
    9900012    2    1    2    0    0  0.30193705234E-02  0.69242511854E+00 -0.95585658798E+00  0.90007693481E+02  0.89999954235E+02 0.  0.
        -12    1    1    2    0    0 -0.30193705234E-02 -0.69242511854E+00  0.95585658798E+00  0.11803065187E+01  0.00000000000E+00 0.  1.
         11    1    3    3    0    0 -0.28193840387E+01  0.51017431622E+01 -0.84585646005E+01  0.10272488745E+02  0.51100000000E-03 0. -1.
        -11    1    3    3    0    0  0.17700123480E+02  0.32839431363E+02  0.12433529058E+02  0.39323215389E+02  0.51100000000E-03 0.  1.
         12    1    3    3    0    0 -0.14877720070E+02 -0.37248749407E+02 -0.49308210452E+01  0.40411989348E+02  0.00000000000E+00 0. -1.
</event>
<event>
 7    1  0.4359248E-015  0.9000770E+02  0.7816164E-02  0.1186339E+00
        -11   -1    0    0    0    0  0.00000000000E+00  0.00000000000E+00  0.45593999997E+02  0.45594000000E+02  0.51100000000E-03 0. -1.
         11   -1    0    0    0    0 -0.00000000000E+00 -0.00000000000E+00 -0.45593999997E+02  0.45594000000E+02  0.51100000000E-03 0.  1.
    9900012    2    1    2    0    0  0.48859627681E+00 -0.15352276062E+00  0.10633981336E+01  0.90007698704E+02  0.89999959526E+02 0.  0.
        -12    1    1    2    0    0 -0.48859627681E+00  0.15352276062E+00 -0.10633981336E+01  0.11803012964E+01  0.00000000000E+00 0.  1.
         11    1    3    3    0    0 -0.13247239798E+00 -0.15928494764E+01  0.75941708494E+01  0.77605508530E+01  0.51100000000E-03 0. -1.
        -11    1    3    3    0    0 -0.28196991661E+02  0.84694868401E+01  0.25241155954E+02  0.38780388088E+02  0.51100000000E-03 0.  1.
         12    1    3    3    0    0  0.28818060335E+02 -0.70301601243E+01 -0.31771928670E+02  0.43466759763E+02  0.00000000000E+00 0. -1.
</event>
<event>
 7    1  0.4359248E-015  0.9000783E+02  0.7816164E-02  0.1186339E+00
        -11   -1    0    0    0    0  0.00000000000E+00  0.00000000000E+00  0.45593999997E+02  0.45594000000E+02  0.51100000000E-03 0.  1.
         11   -1    0    0    0    0 -0.00000000000E+00 -0.00000000000E+00 -0.45593999997E+02  0.45594000000E+02  0.51100000000E-03 0. -1.
    9900012    2    1    2    0    0 -0.10569720783E+01  0.11653161067E+00 -0.51189557932E+00  0.90007827693E+02  0.90000090218E+02 0.  0.
        -12    1    1    2    0    0  0.10569720783E+01 -0.11653161067E+00  0.51189557932E+00  0.11801723072E+01  0.00000000000E+00 0.  1.
         11    1    3    3    0    0 -0.76166349959E+01  0.34505619259E+01 -0.27778848903E+01  0.88111378942E+01  0.51100000000E-03 0. -1.
        -11    1    3    3    0    0 -0.26112612021E+02  0.21043988831E+02  0.17314899313E+02  0.37742863047E+02  0.51100000000E-03 0.  1.
         12    1    3    3    0    0  0.32672274938E+02 -0.24378019146E+02 -0.15048910002E+02  0.43453826752E+02  0.00000000000E+00 0. -1.
</event>
<event>
 7    1  0.4359248E-015  0.9000779E+02  0.7816164E-02  0.1186339E+00
        -11   -1    0    0    0    0  0.00000000000E+00  0.00000000000E+00  0.45593999997E+02  0.45594000000E+02  0.51100000000E-03 0.  1.
         11   -1    0    0    0    0 -0.00000000000E+00 -0.00000000000E+00 -0.45593999997E+02  0.45594000000E+02  0.51100000000E-03 0. -1.
    9900012    2    1    2    0    0  0.29605215878E+00  0.10761920146E+01 -0.38348047978E+00  0.90007790946E+02  0.90000052986E+02 0.  0.
        -12    1    1    2    0    0 -0.29605215878E+00 -0.10761920146E+01  0.38348047978E+00  0.11802090541E+01  0.00000000000E+00 0.  1.
         11    1    3    3    0    0  0.18663027807E+02  0.29276117147E+02 -0.14327923525E+02  0.37559140498E+02  0.51100000000E-03 0. -1.
        -11    1    3    3    0    0  0.32440132868E+00  0.75216782798E+01  0.91486578492E+01  0.11848156864E+02  0.51100000000E-03 0.  1.
        -12    1    3    3    0    0 -0.18691376977E+02 -0.35721603412E+02  0.47957851962E+01  0.40600493584E+02  0.00000000000E+00 0.  1.
</event>
<event>
 7    1  0.4359248E-015  0.9000783E+02  0.7816164E-02  0.1186339E+00
        -11   -1    0    0    0    0  0.00000000000E+00  0.00000000000E+00  0.45593999997E+02  0.45594000000E+02  0.51100000000E-03 0. -1.
         11   -1    0    0    0    0 -0.00000000000E+00 -0.00000000000E+00 -0.45593999997E+02  0.45594000000E+02  0.51100000000E-03 0.  1.
    9900012    2    1    2    0    0  0.79813993160E+00  0.66439322219E+00  0.56067045479E+00  0.90007831765E+02  0.90000094344E+02 0.  0.
        -12    1    1    2    0    0 -0.79813993160E+00 -0.66439322219E+00 -0.56067045479E+00  0.11801682350E+01  0.00000000000E+00 0.  1.
         11    1    3    3    0    0 -0.71985419781E+01  0.24888538260E-02 -0.61296794760E+01  0.94547333937E+01  0.51100000000E-03 0. -1.
        -11    1    3    3    0    0 -0.91825879016E+01 -0.37126585964E+02 -0.13599554750E+01  0.38269475892E+02  0.51100000000E-03 0.  1.
         12    1    3    3    0    0  0.17179269811E+02  0.37788490332E+02  0.80503054058E+01  0.42283622479E+02  0.00000000000E+00 0. -1.
</event>
<event>
 7    1  0.4359248E-015  0.9000801E+02  0.7816164E-02  0.1186339E+00
        -11   -1    0    0    0    0  0.00000000000E+00  0.00000000000E+00  0.45593999997E+02  0.45594000000E+02  0.51100000000E-03 0. -1.
         11   -1    0    0    0    0 -0.00000000000E+00 -0.00000000000E+00 -0.45593999997E+02  0.45594000000E+02  0.51100000000E-03 0.  1.
    9900012    2    1    2    0    0 -0.97531057928E+00 -0.31960944534E+00  0.58223365911E+00  0.90008009764E+02  0.90000274692E+02 0.  0.
        -12    1    1    2    0    0  0.97531057928E+00  0.31960944534E+00 -0.58223365911E+00  0.11799902361E+01  0.00000000000E+00 0.  1.
         11    1    3    3    0    0 -0.11498314956E+02  0.67518536230E+01 -0.42453359882E+01  0.13993628982E+02  0.51100000000E-03 0. -1.
        -11    1    3    3    0    0 -0.14675692195E+02  0.90402335899E+01 -0.27194460674E+02  0.32196901347E+02  0.51100000000E-03 0.  1.
         12    1    3    3    0    0  0.25198696571E+02 -0.16111696658E+02  0.32022030321E+02  0.43817479435E+02  0.00000000000E+00 0. -1.
</event>
<event>
 7    1  0.4359248E-015  0.9000779E+02  0.7816164E-02  0.1186339E+00
        -11   -1    0    0    0    0  0.00000000000E+00  0.00000000000E+00  0.45593999997E+02  0.45594000000E+02  0.51100000000E-03 0. -1.
         11   -1    0    0    0    0 -0.00000000000E+00 -0.00000000000E+00 -0.45593999997E+02  0.45594000000E+02  0.51100000000E-03 0.  1.
    9900012    2    1    2    0    0  0.30809956446E+00  0.11233805256E+01 -0.18970960868E+00  0.90007788628E+02  0.90000050638E+02 0.  0.
        -12    1    1    2    0    0 -0.30809956446E+00 -0.11233805256E+01  0.18970960868E+00  0.11802113720E+01  0.00000000000E+00 0.  1.
         11    1    3    3    0    0  0.68234115981E+01  0.35690493260E+02  0.19847653232E+01  0.36391064131E+02  0.51100000000E-03 0. -1.
        -11    1    3    3    0    0 -0.33779679292E+01  0.74782367063E+01 -0.75032716178E+01  0.11119072659E+02  0.51100000000E-03 0.  1.
        -12    1    3    3    0    0 -0.31373441045E+01 -0.42045349440E+02  0.53287966859E+01  0.42497651838E+02  0.00000000000E+00 0.  1.
</event>
<event>
 7    1  0.4359248E-015  0.9000778E+02  0.7816164E-02  0.1186339E+00
        -11   -1    0    0    0    0  0.00000000000E+00  0.00000000000E+00  0.45593999997E+02  0.45594000000E+02  0.51100000000E-03 0. -1.
         11   -1    0    0    0    0 -0.00000000000E+00 -0.00000000000E+00 -0.45593999997E+02  0.45594000000E+02  0.51100000000E-03 0.  1.
    9900012    2    1    2    0    0 -0.65920702115E+00 -0.12871461581E+00  0.97046200851E+00  0.90007780589E+02  0.90000042492E+02 0.  0.
        -12    1    1    2    0    0  0.65920702115E+00  0.12871461581E+00 -0.97046200851E+00  0.11802194114E+01  0.00000000000E+00 0.  1.
         11    1    3    3    0    0 -0.84662740355E+01 -0.42732133915E+01 -0.45542716902E+01  0.10520434384E+02  0.51100000000E-03 0. -1.
        -11    1    3    3    0    0 -0.15975504605E+02  0.14127184036E+02 -0.29245321109E+02  0.36195067111E+02  0.51100000000E-03 0.  1.
         12    1    3    3    0    0  0.23782571619E+02 -0.99826852603E+01  0.34770054807E+02  0.43292279094E+02  0.00000000000E+00 0. -1.
</event>
<event>
 7    1  0.4359248E-015  0.9000780E+02  0.7816164E-02  0.1186339E+00
        -11   -1    0    0    0    0  0.00000000000E+00  0.00000000000E+00  0.45593999997E+02  0.45594000000E+02  0.51100000000E-03 0. -1.
         11   -1    0    0    0    0 -0.00000000000E+00 -0.00000000000E+00 -0.45593999997E+02  0.45594000000E+02  0.51100000000E-03 0.  1.
    9900012    2    1    2    0    0  0.59866940841E+00 -0.18203963944E+00 -0.10006593678E+01  0.90007803973E+02  0.90000066186E+02 0.  0.
        -12    1    1    2    0    0 -0.59866940841E+00  0.18203963944E+00  0.10006593678E+01  0.11801960266E+01  0.00000000000E+00 0.  1.
         11    1    3    3    0    0 -0.24664396850E+01  0.34328791844E+02  0.98421382418E+01  0.35796884775E+02  0.51100000000E-03 0. -1.
        -11    1    3    3    0    0 -0.77355573702E+01  0.47915616313E+01  0.51156106169E+01  0.10438744318E+02  0.51100000000E-03 0.  1.
        -12    1    3    3    0    0  0.10800666464E+02 -0.39302393115E+02 -0.15958408226E+02  0.43772174880E+02  0.00000000000E+00 0.  1.
</event>
<event>
 7    1  0.4359248E-015  0.9000770E+02  0.7816164E-02  0.1186339E+00
        -11   -1    0    0    0    0  0.00000000000E+00  0.00000000000E+00  0.45593999997E+02  0.45594000000E+02  0.51100000000E-03 0.  1.
         11   -1    0    0    0    0 -0.00000000000E+00 -0.00000000000E+00 -0.45593999997E+02  0.45594000000E+02  0.51100000000E-03 0. -1.
    9900012    2    1    2    0    0  0.75064523446E+00 -0.57057159116E+00 -0.70999375372E+00  0.90007698624E+02  0.89999959445E+02 0.  0.
        -12    1    1    2    0    0 -0.75064523446E+00  0.57057159116E+00  0.70999375372E+00  0.11803013763E+01  0.00000000000E+00 0.  1.
         11    1    3    3    0    0 -0.19544226255E+02  0.22147695050E+02 -0.21373727029E+02  0.36460024456E+02  0.51100000000E-03 0. -1.
        -11    1    3    3    0    0 -0.59609499821E+01  0.73449492035E+01  0.32803230807E+01  0.10012078868E+02  0.51100000000E-03 0.  1.
        -12    1    3    3    0    0  0.26255821472E+02 -0.30063215845E+02  0.17383410195E+02  0.43535595299E+02  0.00000000000E+00 0.  1.
</event>
<event>
 7    1  0.4359248E-015  0.9000769E+02  0.7816164E-02  0.1186339E+00
        -11   -1    0    0    0    0  0.00000000000E+00  0.00000000000E+00  0.45593999997E+02  0.45594000000E+02  0.51100000000E-03 0.  1.
         11   -1    0    0    0    0 -0.00000000000E+00 -0.00000000000E+00 -0.45593999997E+02  0.45594000000E+02  0.51100000000E-03 0. -1.
    9900012    2    1    2    0    0 -0.36211057451E+00  0.10692668341E+01 -0.34450116163E+00  0.90007687888E+02  0.89999948568E+02 0.  0.
        -12    1    1    2    0    0  0.36211057451E+00 -0.10692668341E+01  0.34450116163E+00  0.11803121117E+01  0.00000000000E+00 0.  1.
         11    1    3    3    0    0  0.47040446834E+01 -0.17505422759E+02 -0.22524542063E+02  0.28912330549E+02  0.51100000000E-03 0. -1.
        -11    1    3    3    0    0  0.26750154080E+01  0.22521992070E+02 -0.12117351972E+02  0.25714316116E+02  0.51100000000E-03 0.  1.
        -12    1    3    3    0    0 -0.77411706659E+01 -0.39473024770E+01  0.34297392874E+02  0.35381041223E+02  0.00000000000E+00 0.  1.
</event>
<event>
 7    1  0.4359248E-015  0.9000777E+02  0.7816164E-02  0.1186339E+00
        -11   -1    0    0    0    0  0.00000000000E+00  0.00000000000E+00  0.45593999997E+02  0.45594000000E+02  0.51100000000E-03 0. -1.
         11   -1    0    0    0    0 -0.00000000000E+00 -0.00000000000E+00 -0.45593999997E+02  0.45594000000E+02  0.51100000000E-03 0.  1.
    9900012    2    1    2    0    0  0.10720378835E+01 -0.23847021264E+00  0.43222666412E+00  0.90007765635E+02  0.90000027342E+02 0.  0.
        -12    1    1    2    0    0 -0.10720378835E+01  0.23847021264E+00 -0.43222666412E+00  0.11802343645E+01  0.00000000000E+00 0.  1.
         11    1    3    3    0    0  0.12464037607E+02  0.22729228417E+02  0.29082997675E+02  0.38958834838E+02  0.51100000000E-03 0. -1.
        -11    1    3    3    0    0 -0.90204050741E+01  0.18904970339E+01  0.39132305794E+01  0.10012744907E+02  0.51100000000E-03 0.  1.
        -12    1    3    3    0    0 -0.23715946495E+01 -0.24858195664E+02 -0.32564001591E+02  0.41036185890E+02  0.00000000000E+00 0.  1.
</event>
<event>
 7    1  0.4359248E-015  0.9000777E+02  0.7816164E-02  0.1186339E+00
        -11   -1    0    0    0    0  0.00000000000E+00  0.00000000000E+00  0.45593999997E+02  0.45594000000E+02  0.51100000000E-03 0.  1.
         11   -1    0    0    0    0 -0.00000000000E+00 -0.00000000000E+00 -0.45593999997E+02  0.45594000000E+02  0.51100000000E-03 0. -1.
    9900012    2    1    2    0    0  0.11799950845E+01 -0.23805674704E-02  0.23360027368E-01  0.90007771311E+02  0.90000033093E+02 0.  0.
        -12    1    1    2    0    0 -0.11799950845E+01  0.23805674704E-02 -0.23360027368E-01  0.11802286887E+01  0.00000000000E+00 0.  1.
         11    1    3    3    0    0  0.71055264013E+01  0.36885458973E+02 -0.22786516017E+02  0.43934620762E+02  0.51100000000E-03 0. -1.
        -11    1    3    3    0    0 -0.24392464432E+01 -0.35162492945E+01  0.86574098157E+01  0.96573638893E+01  0.51100000000E-03 0.  1.
        -12    1    3    3    0    0 -0.34862848735E+01 -0.33371590246E+02  0.14152466228E+02  0.36415786660E+02  0.00000000000E+00 0.  1.
</event>
<event>
 7    1  0.4359248E-015  0.9000780E+02  0.7816164E-02  0.1186339E+00
        -11   -1    0    0    0    0  0.00000000000E+00  0.00000000000E+00  0.45593999997E+02  0.45594000000E+02  0.51100000000E-03 0.  1.
         11   -1    0    0    0    0 -0.00000000000E+00 -0.00000000000E+00 -0.45593999997E+02  0.45594000000E+02  0.51100000000E-03 0. -1.
    9900012    2    1    2    0    0 -0.29130128762E+00  0.84383154596E+00 -0.77198157142E+00  0.90007803548E+02  0.90000065755E+02 0.  0.
        -12    1    1    2    0    0  0.29130128762E+00 -0.84383154596E+00  0.77198157142E+00  0.11801964518E+01  0.00000000000E+00 0.  1.
         11    1    3    3    0    0 -0.30390708473E+02 -0.50775640168E+01 -0.20357640174E+02  0.36929802755E+02  0.51100000000E-03 0. -1.
        -11    1    3    3    0    0 -0.78630504862E+01 -0.55649396273E+01  0.46528249198E+01  0.10697892129E+02  0.51100000000E-03 0.  1.
        -12    1    3    3    0    0  0.37962457672E+02  0.11486335190E+02  0.14932833683E+02  0.42380108664E+02  0.00000000000E+00 0.  1.
</event>
<event>
 7    1  0.4359248E-015  0.9000774E+02  0.7816164E-02  0.1186339E+00
        -11   -1    0    0    0    0  0.00000000000E+00  0.00000000000E+00  0.45593999997E+02  0.45594000000E+02  0.51100000000E-03 0. -1.
         11   -1    0    0    0    0 -0.00000000000E+00 -0.00000000000E+00 -0.45593999997E+02  0.45594000000E+02  0.51100000000E-03 0.  1.
    9900012    2    1    2    0    0 -0.45507489788E+00 -0.87956192010E+00  0.64209282775E+00  0.90007743446E+02  0.90000004859E+02 0.  0.
        -12    1    1    2    0    0  0.45507489788E+00  0.87956192010E+00 -0.64209282775E+00  0.11802565541E+01  0.00000000000E+00 0.  1.
         11    1    3    3    0    0 -0.31026901320E+02  0.29429326313E+01  0.23802054492E+02  0.39215650655E+02  0.51100000000E-03 0. -1.
        -11    1    3    3    0    0  0.23975696544E+01  0.96499284359E+00  0.80617711610E+01  0.84659143599E+01  0.51100000000E-03 0.  1.
        -12    1    3    3    0    0  0.28174256767E+02 -0.47874873950E+01 -0.31221732825E+02  0.42326178431E+02  0.00000000000E+00 0.  1.
</event>
<event>
 7    1  0.4359248E-015  0.9000768E+02  0.7816164E-02  0.1186339E+00
        -11   -1    0    0    0    0  0.00000000000E+00  0.00000000000E+00  0.45593999997E+02  0.45594000000E+02  0.51100000000E-03 0.  1.
         11   -1    0    0    0    0 -0.00000000000E+00 -0.00000000000E+00 -0.45593999997E+02  0.45594000000E+02  0.51100000000E-03 0. -1.
    9900012    2    1    2    0    0 -0.73154410143E+00  0.91191077185E+00 -0.16253436811E+00  0.90007679938E+02  0.89999940513E+02 0.  0.
        -12    1    1    2    0    0  0.73154410143E+00 -0.91191077185E+00  0.16253436811E+00  0.11803200621E+01  0.00000000000E+00 0.  1.
         11    1    3    3    0    0  0.92836573399E+01  0.43816134100E+01 -0.19894869354E+01  0.10456714982E+02  0.51100000000E-03 0. -1.
        -11    1    3    3    0    0  0.29235800247E+02 -0.13902414550E+02  0.16540874453E+02  0.36353949914E+02  0.51100000000E-03 0.  1.
         12    1    3    3    0    0 -0.39251001688E+02  0.10432711912E+02 -0.14713921886E+02  0.43197015043E+02  0.00000000000E+00 0. -1.
</event>
<event>
 7    1  0.4359248E-015  0.9000783E+02  0.7816164E-02  0.1186339E+00
        -11   -1    0    0    0    0  0.00000000000E+00  0.00000000000E+00  0.45593999997E+02  0.45594000000E+02  0.51100000000E-03 0. -1.
         11   -1    0    0    0    0 -0.00000000000E+00 -0.00000000000E+00 -0.45593999997E+02  0.45594000000E+02  0.51100000000E-03 0.  1.
    9900012    2    1    2    0    0 -0.12448967780E-01  0.96808783626E+00  0.67487686823E+00  0.90007827206E+02  0.90000089725E+02 0.  0.
        -12    1    1    2    0    0  0.12448967780E-01 -0.96808783626E+00 -0.67487686823E+00  0.11801727936E+01  0.00000000000E+00 0.  1.
         11    1    3    3    0    0 -0.99292875476E+00 -0.76913096632E+01  0.58855616046E+01  0.97356041163E+01  0.51100000000E-03 0. -1.
        -11    1    3    3    0    0  0.21423090123E+02 -0.60974062792E+01 -0.34850067844E+02  0.41360057819E+02  0.51100000000E-03 0.  1.
         12    1    3    3    0    0 -0.20442610336E+02  0.14756803779E+02  0.29639383108E+02  0.38912165272E+02  0.00000000000E+00 0. -1.
</event>
<event>
 7    1  0.4359248E-015  0.9000783E+02  0.7816164E-02  0.1186339E+00
        -11   -1    0    0    0    0  0.00000000000E+00  0.00000000000E+00  0.45593999997E+02  0.45594000000E+02  0.51100000000E-03 0.  1.
         11   -1    0    0    0    0 -0.00000000000E+00 -0.00000000000E+00 -0.45593999997E+02  0.45594000000E+02  0.51100000000E-03 0. -1.
    9900012    2    1    2    0    0 -0.89927763514E-01  0.77301532498E+00  0.88721698789E+00  0.90007833199E+02  0.90000095797E+02 0.  0.
        -12    1    1    2    0    0  0.89927763514E-01 -0.77301532498E+00 -0.88721698789E+00  0.11801668013E+01  0.00000000000E+00 0.  1.
         11    1    3    3    0    0  0.24394407330E+02  0.69191683660E+00 -0.30364896463E+02  0.38956293399E+02  0.51100000000E-03 0. -1.
        -11    1    3    3    0    0  0.33512819231E+00 -0.12524513527E+02  0.94825714416E+01  0.15712889976E+02  0.51100000000E-03 0.  1.
        -12    1    3    3    0    0 -0.24819463286E+02  0.12605612015E+02  0.21769542010E+02  0.35338649824E+02  0.00000000000E+00 0.  1.
</event>
<event>
 7    1  0.4359248E-015  0.9000770E+02  0.7816164E-02  0.1186339E+00
        -11   -1    0    0    0    0  0.00000000000E+00  0.00000000000E+00  0.45593999997E+02  0.45594000000E+02  0.51100000000E-03 0.  1.
         11   -1    0    0    0    0 -0.00000000000E+00 -0.00000000000E+00 -0.45593999997E+02  0.45594000000E+02  0.51100000000E-03 0. -1.
    9900012    2    1    2    0    0 -0.36210930646E+00  0.11225520726E+01  0.43203582556E-01  0.90007697981E+02  0.89999958795E+02 0.  0.
        -12    1    1    2    0    0  0.36210930646E+00 -0.11225520726E+01 -0.43203582556E-01  0.11803020186E+01  0.00000000000E+00 0.  1.
         11    1    3    3    0    0 -0.31501017356E+01 -0.79978224806E+01  0.40538077962E+01  0.95037710034E+01  0.51100000000E-03 0. -1.
        -11    1    3    3    0    0  0.34504568819E+02  0.92529882249E+01  0.19800175862E+02  0.40843971708E+02  0.51100000000E-03 0.  1.
         12    1    3    3    0    0 -0.31716576389E+02 -0.13261367161E+00 -0.23810780075E+02  0.39659955270E+02  0.00000000000E+00 0. -1.
</event>
<event>
 7    1  0.4359248E-015  0.9000800E+02  0.7816164E-02  0.1186339E+00
        -11   -1    0    0    0    0  0.00000000000E+00  0.00000000000E+00  0.45593999997E+02  0.45594000000E+02  0.51100000000E-03 0.  1.
         11   -1    0    0    0    0 -0.00000000000E+00 -0.00000000000E+00 -0.45593999997E+02  0.45594000000E+02  0.51100000000E-03 0. -1.
    9900012    2    1    2    0    0  0.11502549684E+01  0.24180651582E+00  0.10410973083E+00  0.90008001814E+02  0.90000266637E+02 0.  0.
        -12    1    1    2    0    0 -0.11502549684E+01 -0.24180651582E+00 -0.10410973083E+00  0.11799981862E+01  0.00000000000E+00 0.  1.
         11    1    3    3    0    0 -0.24167137736E+02  0.31147168587E+02 -0.49158079761E+01  0.39728602111E+02  0.51100000000E-03 0. -1.
        -11    1    3    3    0    0  0.74507672123E+01  0.52249170887E+01 -0.21238017439E+01  0.93447431609E+01  0.51100000000E-03 0.  1.
        -12    1    3    3    0    0  0.17866625492E+02 -0.36130279160E+02  0.71437194508E+01  0.40934656542E+02  0.00000000000E+00 0.  1.
</event>
<event>
 7    1  0.4742124E-015  0.9000773E+02  0.7816164E-02  0.1186339E+00
        -11   -1    0    0    0    0  0.00000000000E+00  0.00000000000E+00  0.45593999997E+02  0.45594000000E+02  0.51100000000E-03 0. -1.
         11   -1    0    0    0    0 -0.00000000000E+00 -0.00000000000E+00 -0.45593999997E+02  0.45594000000E+02  0.51100000000E-03 0.  1.
    9900012    2    1    2    0    0 -0.13755682621E+00 -0.11385269465E+01  0.27906171734E+00  0.90007728451E+02  0.89999989666E+02 0.  0.
        -12    1    1    2    0    0  0.13755682621E+00  0.11385269465E+01 -0.27906171734E+00  0.11802715495E+01  0.00000000000E+00 0.  1.
         11    1    3    3    0    0 -0.18411834363E+02 -0.26504149083E+02  0.17967805541E+02  0.36936534751E+02  0.51100000000E-03 0. -1.
        -11    1    3    3    0    0 -0.79180875773E+01 -0.52028235199E+01 -0.11228865415E+01  0.95407734439E+01  0.51100000000E-03 0.  1.
        -12    1    3    3    0    0  0.26192365114E+02  0.30568445656E+02 -0.16565857282E+02  0.43530420255E+02  0.00000000000E+00 0.  1.
</event>
<event>
 7    1  0.4359248E-015  0.9000776E+02  0.7816164E-02  0.1186339E+00
        -11   -1    0    0    0    0  0.00000000000E+00  0.00000000000E+00  0.45593999997E+02  0.45594000000E+02  0.51100000000E-03 0.  1.
         11   -1    0    0    0    0 -0.00000000000E+00 -0.00000000000E+00 -0.45593999997E+02  0.45594000000E+02  0.51100000000E-03 0. -1.
    9900012    2    1    2    0    0  0.36354292192E-01  0.65696072863E-01 -0.11778454952E+01  0.90007763744E+02  0.90000025426E+02 0.  0.
        -12    1    1    2    0    0 -0.36354292192E-01 -0.65696072863E-01  0.11778454952E+01  0.11802362556E+01  0.00000000000E+00 0.  1.
         11    1    3    3    0    0 -0.13404604455E+02  0.23585660688E+02  0.24113476067E+02  0.36296370879E+02  0.51100000000E-03 0. -1.
        -11    1    3    3    0    0 -0.88128872321E+01  0.17505038730E+01  0.32657056755E+01  0.95601296536E+01  0.51100000000E-03 0.  1.
        -12    1    3    3    0    0  0.22253845979E+02 -0.25270468489E+02 -0.28557027238E+02  0.44151263211E+02  0.00000000000E+00 0.  1.
</event>
<event>
 7    1  0.4359248E-015  0.9000776E+02  0.7816164E-02  0.1186339E+00
        -11   -1    0    0    0    0  0.00000000000E+00  0.00000000000E+00  0.45593999997E+02  0.45594000000E+02  0.51100000000E-03 0. -1.
         11   -1    0    0    0    0 -0.00000000000E+00 -0.00000000000E+00 -0.45593999997E+02  0.45594000000E+02  0.51100000000E-03 0.  1.
    9900012    2    1    2    0    0  0.48458696462E+00 -0.34802850365E+00  0.10183447187E+01  0.90007756664E+02  0.90000018252E+02 0.  0.
        -12    1    1    2    0    0 -0.48458696462E+00  0.34802850365E+00 -0.10183447187E+01  0.11802433358E+01  0.00000000000E+00 0.  1.
         11    1    3    3    0    0  0.58569895126E+00  0.12203510866E+02  0.23188676008E+01  0.12435669179E+02  0.51100000000E-03 0. -1.
        -11    1    3    3    0    0  0.27752631790E+02  0.18851755285E+02  0.81928944298E+01  0.34535789668E+02  0.51100000000E-03 0.  1.
         12    1    3    3    0    0 -0.27853743777E+02 -0.31403294654E+02 -0.94934173119E+01  0.43036297817E+02  0.00000000000E+00 0. -1.
</event>
<event>
 7    1  0.4359248E-015  0.9000776E+02  0.7816164E-02  0.1186339E+00
        -11   -1    0    0    0    0  0.00000000000E+00  0.00000000000E+00  0.45593999997E+02  0.45594000000E+02  0.51100000000E-03 0.  1.
         11   -1    0    0    0    0 -0.00000000000E+00 -0.00000000000E+00 -0.45593999997E+02  0.45594000000E+02  0.51100000000E-03 0. -1.
    9900012    2    1    2    0    0  0.95345946913E-01  0.14513250299E+00 -0.11673937503E+01  0.90007761693E+02  0.90000023347E+02 0.  0.
        -12    1    1    2    0    0 -0.95345946913E-01 -0.14513250299E+00  0.11673937503E+01  0.11802383070E+01  0.00000000000E+00 0.  1.
         11    1    3    3    0    0 -0.22986783105E+02  0.24943896558E+02 -0.14221782975E+02  0.36781099552E+02  0.51100000000E-03 0. -1.
        -11    1    3    3    0    0  0.82283337982E+01  0.10479073676E+02  0.33497532398E+01  0.13738169792E+02  0.51100000000E-03 0.  1.
        -12    1    3    3    0    0  0.14853795253E+02 -0.35277837731E+02  0.97046359845E+01  0.39488492349E+02  0.00000000000E+00 0.  1.
</event>
<event>
 7    1  0.4359248E-015  0.9000768E+02  0.7816164E-02  0.1186339E+00
        -11   -1    0    0    0    0  0.00000000000E+00  0.00000000000E+00  0.45593999997E+02  0.45594000000E+02  0.51100000000E-03 0.  1.
         11   -1    0    0    0    0 -0.00000000000E+00 -0.00000000000E+00 -0.45593999997E+02  0.45594000000E+02  0.51100000000E-03 0. -1.
    9900012    2    1    2    0    0  0.86355172388E+00  0.65071645323E+00  0.47328279410E+00  0.90007682210E+02  0.89999942815E+02 0.  0.
        -12    1    1    2    0    0 -0.86355172388E+00 -0.65071645323E+00 -0.47328279410E+00  0.11803177900E+01  0.00000000000E+00 0.  1.
         11    1    3    3    0    0 -0.30322333895E+02  0.16624125346E+01 -0.18340601688E+02  0.35476544629E+02  0.51100000000E-03 0. -1.
        -11    1    3    3    0    0 -0.20128492246E+01  0.62637384905E+01 -0.86269802789E+01  0.10849459474E+02  0.51100000000E-03 0.  1.
        -12    1    3    3    0    0  0.33198734844E+02 -0.72754345719E+01  0.27440864761E+02  0.43681678107E+02  0.00000000000E+00 0.  1.
</event>
<event>
 7    1  0.4359248E-015  0.9000789E+02  0.7816164E-02  0.1186339E+00
        -11   -1    0    0    0    0  0.00000000000E+00  0.00000000000E+00  0.45593999997E+02  0.45594000000E+02  0.51100000000E-03 0.  1.
         11   -1    0    0    0    0 -0.00000000000E+00 -0.00000000000E+00 -0.45593999997E+02  0.45594000000E+02  0.51100000000E-03 0. -1.
    9900012    2    1    2    0    0  0.11062961836E+01 -0.37922441784E+00 -0.15797578140E+00  0.90007890364E+02  0.90000153717E+02 0.  0.
        -12    1    1    2    0    0 -0.11062961836E+01  0.37922441784E+00  0.15797578140E+00  0.11801096358E+01  0.00000000000E+00 0.  1.
         11    1    3    3    0    0 -0.21660117449E+02 -0.24720103111E+02  0.25381020198E+01  0.32964922992E+02  0.51100000000E-03 0. -1.
        -11    1    3    3    0    0 -0.83641120951E+01 -0.57677139958E+01 -0.86290185818E+01  0.13329848380E+02  0.51100000000E-03 0.  1.
        -12    1    3    3    0    0  0.31130525728E+02  0.30108592689E+02  0.59329407806E+01  0.43713118993E+02  0.00000000000E+00 0.  1.
</event>
<event>
 7    1  0.4359248E-015  0.9000775E+02  0.7816164E-02  0.1186339E+00
        -11   -1    0    0    0    0  0.00000000000E+00  0.00000000000E+00  0.45593999997E+02  0.45594000000E+02  0.51100000000E-03 0. -1.
         11   -1    0    0    0    0 -0.00000000000E+00 -0.00000000000E+00 -0.45593999997E+02  0.45594000000E+02  0.51100000000E-03 0.  1.
    9900012    2    1    2    0    0 -0.55869024494E+00  0.41109131607E+00  0.95490775263E+00  0.90007754400E+02  0.90000015958E+02 0.  0.
        -12    1    1    2    0    0  0.55869024494E+00 -0.41109131607E+00 -0.95490775263E+00  0.11802455998E+01  0.00000000000E+00 0.  1.
         11    1    3    3    0    0 -0.99616788106E+01 -0.26208266712E+02  0.31792597581E+02  0.42389592472E+02  0.51100000000E-03 0. -1.
        -11    1    3    3    0    0  0.10444666810E+02  0.20733732335E+01 -0.14971688074E+02  0.18372299404E+02  0.51100000000E-03 0.  1.
        -12    1    3    3    0    0 -0.10416782443E+01  0.24545984794E+02 -0.15866001754E+02  0.29245862524E+02  0.00000000000E+00 0.  1.
</event>
<event>
 7    1  0.4359248E-015  0.9000768E+02  0.7816164E-02  0.1186339E+00
        -11   -1    0    0    0    0  0.00000000000E+00  0.00000000000E+00  0.45593999997E+02  0.45594000000E+02  0.51100000000E-03 0.  1.
         11   -1    0    0    0    0 -0.00000000000E+00 -0.00000000000E+00 -0.45593999997E+02  0.45594000000E+02  0.51100000000E-03 0. -1.
    9900012    2    1    2    0    0 -0.53459683789E+00 -0.10517052540E+01  0.35823846380E-01  0.90007677557E+02  0.89999938101E+02 0.  0.
        -12    1    1    2    0    0  0.53459683789E+00  0.10517052540E+01 -0.35823846380E-01  0.11803224425E+01  0.00000000000E+00 0.  1.
         11    1    3    3    0    0  0.36102605529E+02  0.34353534037E+01 -0.10130299223E+02  0.37653987061E+02  0.51100000000E-03 0. -1.
        -11    1    3    3    0    0  0.47865251081E+01 -0.81176121997E+01 -0.45994996484E+00  0.94349353292E+01  0.51100000000E-03 0.  1.
        -12    1    3    3    0    0 -0.41423727475E+02  0.36305535420E+01  0.10626073034E+02  0.42918755167E+02  0.00000000000E+00 0.  1.
</event>
<event>
 7    1  0.4359248E-015  0.9000769E+02  0.7816164E-02  0.1186339E+00
        -11   -1    0    0    0    0  0.00000000000E+00  0.00000000000E+00  0.45593999997E+02  0.45594000000E+02  0.51100000000E-03 0.  1.
         11   -1    0    0    0    0 -0.00000000000E+00 -0.00000000000E+00 -0.45593999997E+02  0.45594000000E+02  0.51100000000E-03 0. -1.
    9900012    2    1    2    0    0 -0.10778058410E+01  0.38361258733E+00 -0.29034402483E+00  0.90007693387E+02  0.89999954140E+02 0.  0.
        -12    1    1    2    0    0  0.10778058410E+01 -0.38361258733E+00  0.29034402483E+00  0.11803066131E+01  0.00000000000E+00 0.  1.
         11    1    3    3    0    0 -0.76945403539E+01 -0.77860801478E+00  0.62131273498E+01  0.99204401830E+01  0.51100000000E-03 0. -1.
        -11    1    3    3    0    0  0.11245715182E+01  0.37765318912E+02  0.10705352181E+02  0.39269435178E+02  0.51100000000E-03 0.  1.
         12    1    3    3    0    0  0.54921629947E+01 -0.36603098310E+02 -0.17208823556E+02  0.40817818026E+02  0.00000000000E+00 0. -1.
</event>
<event>
 7    1  0.4359248E-015  0.9000778E+02  0.7816164E-02  0.1186339E+00
        -11   -1    0    0    0    0  0.00000000000E+00  0.00000000000E+00  0.45593999997E+02  0.45594000000E+02  0.51100000000E-03 0.  1.
         11   -1    0    0    0    0 -0.00000000000E+00 -0.00000000000E+00 -0.45593999997E+02  0.45594000000E+02  0.51100000000E-03 0. -1.
    9900012    2    1    2    0    0 -0.41246480400E+00  0.72984848849E+00 -0.83073211853E+00  0.90007778884E+02  0.90000040765E+02 0.  0.
        -12    1    1    2    0    0  0.41246480400E+00 -0.72984848849E+00  0.83073211853E+00  0.11802211163E+01  0.00000000000E+00 0.  1.
         11    1    3    3    0    0  0.22411236850E+01 -0.71356811206E+01 -0.55886096661E+01  0.93366556479E+01  0.51100000000E-03 0. -1.
        -11    1    3    3    0    0  0.31696804960E+02  0.26525113972E+02  0.45342608868E+01  0.41579185153E+02  0.51100000000E-03 0.  1.
         12    1    3    3    0    0 -0.34350393449E+02 -0.18659584363E+02  0.22361666076E+00  0.39091938083E+02  0.00000000000E+00 0. -1.
</event>
<event>
 7    1  0.4359248E-015  0.9000776E+02  0.7816164E-02  0.1186339E+00
        -11   -1    0    0    0    0  0.00000000000E+00  0.00000000000E+00  0.45593999997E+02  0.45594000000E+02  0.51100000000E-03 0.  1.
         11   -1    0    0    0    0 -0.00000000000E+00 -0.00000000000E+00 -0.45593999997E+02  0.45594000000E+02  0.51100000000E-03 0. -1.
    9900012    2    1    2    0    0  0.10751844583E+01 -0.61144668199E-01 -0.48292536879E+00  0.90007755448E+02  0.90000017020E+02 0.  0.
        -12    1    1    2    0    0 -0.10751844583E+01  0.61144668199E-01  0.48292536879E+00  0.11802445516E+01  0.00000000000E+00 0.  1.
         11    1    3    3    0    0 -0.90397870820E+01  0.33648704049E+01 -0.60128777306E-01  0.96459172224E+01  0.51100000000E-03 0. -1.
        -11    1    3    3    0    0 -0.32305829798E+02 -0.17986340110E+01  0.14373998470E+02  0.35404993370E+02  0.51100000000E-03 0.  1.
         12    1    3    3    0    0  0.42420801338E+02 -0.16273810622E+01 -0.14796795062E+02  0.44956844856E+02  0.00000000000E+00 0. -1.
</event>
<event>
 7    1  0.4359248E-015  0.9000776E+02  0.7816164E-02  0.1186339E+00
        -11   -1    0    0    0    0  0.00000000000E+00  0.00000000000E+00  0.45593999997E+02  0.45594000000E+02  0.51100000000E-03 0. -1.
         11   -1    0    0    0    0 -0.00000000000E+00 -0.00000000000E+00 -0.45593999997E+02  0.45594000000E+02  0.51100000000E-03 0.  1.
    9900012    2    1    2    0    0 -0.92304987975E+00 -0.70126950110E+00 -0.22171250114E+00  0.90007764249E+02  0.90000025938E+02 0.  0.
        -12    1    1    2    0    0  0.92304987975E+00  0.70126950110E+00  0.22171250114E+00  0.11802357505E+01  0.00000000000E+00 0.  1.
         11    1    3    3    0    0  0.13965494677E+02  0.37952427082E+02 -0.13919264923E+02  0.42768770140E+02  0.51100000000E-03 0.  1.
        -11    1    3    3    0    0 -0.14595438502E+01 -0.27365793757E+02  0.10811521043E+02  0.29460243104E+02  0.51100000000E-03 0. -1.
        -12    1    3    3    0    0 -0.13429000707E+02 -0.11287902827E+02  0.28860313786E+01  0.17778751006E+02  0.00000000000E+00 0.  1.
</event>
<event>
 7    1  0.4359248E-015  0.9000702E+02  0.7816164E-02  0.1186340E+00
        -11   -1    0    0    0    0  0.00000000000E+00  0.00000000000E+00  0.45593999997E+02  0.45594000000E+02  0.51100000000E-03 0.  1.
         11   -1    0    0    0    0 -0.00000000000E+00 -0.00000000000E+00 -0.45593999997E+02  0.45594000000E+02  0.51100000000E-03 0. -1.
    9900012    2    1    2    0    0  0.92246043150E+00  0.54127586846E+00 -0.50079661124E+00  0.90007021567E+02  0.89999273449E+02 0.  0.
        -12    1    1    2    0    0 -0.92246043150E+00 -0.54127586846E+00  0.50079661124E+00  0.11809784330E+01  0.00000000000E+00 0.  1.
         11    1    3    3    0    0  0.62658537029E+00  0.33491923059E+02  0.15128719857E+02  0.36755675537E+02  0.51100000000E-03 0. -1.
        -11    1    3    3    0    0  0.97359877922E+00  0.43919210789E+01  0.79126665841E+01  0.91020414237E+01  0.51100000000E-03 0.  1.
        -12    1    3    3    0    0 -0.67772371801E+00 -0.37342568269E+02 -0.23542183052E+02  0.44149304607E+02  0.00000000000E+00 0.  1.
</event>
<event>
 7    1  0.4359248E-015  0.9000713E+02  0.7816164E-02  0.1186340E+00
        -11   -1    0    0    0    0  0.00000000000E+00  0.00000000000E+00  0.45593999997E+02  0.45594000000E+02  0.51100000000E-03 0. -1.
         11   -1    0    0    0    0 -0.00000000000E+00 -0.00000000000E+00 -0.45593999997E+02  0.45594000000E+02  0.51100000000E-03 0.  1.
    9900012    2    1    2    0    0 -0.43788662639E+00  0.61868664968E+00  0.90550328915E+00  0.90007129950E+02  0.89999383263E+02 0.  0.
        -12    1    1    2    0    0  0.43788662639E+00 -0.61868664968E+00 -0.90550328915E+00  0.11808700499E+01  0.00000000000E+00 0.  1.
         11    1    3    3    0    0  0.25803038486E+02 -0.24423225859E+02  0.11667855399E+02  0.37395582711E+02  0.51100000000E-03 0. -1.
        -11    1    3    3    0    0  0.90809042642E+01  0.65205510126E+01  0.42966388742E+00  0.11187717331E+02  0.51100000000E-03 0.  1.
        -12    1    3    3    0    0 -0.35321829376E+02  0.18521361496E+02 -0.11192015997E+02  0.41423829908E+02  0.00000000000E+00 0.  1.
</event>
<event>
 7    1  0.4359248E-015  0.9000770E+02  0.7816164E-02  0.1186339E+00
        -11   -1    0    0    0    0  0.00000000000E+00  0.00000000000E+00  0.45593999997E+02  0.45594000000E+02  0.51100000000E-03 0.  1.
         11   -1    0    0    0    0 -0.00000000000E+00 -0.00000000000E+00 -0.45593999997E+02  0.45594000000E+02  0.51100000000E-03 0. -1.
    9900012    2    1    2    0    0 -0.26622572070E+00 -0.11438602091E+01  0.11754982521E+00  0.90007699075E+02  0.89999959903E+02 0.  0.
        -12    1    1    2    0    0  0.26622572070E+00  0.11438602091E+01 -0.11754982521E+00  0.11803009251E+01  0.00000000000E+00 0.  1.
         11    1    3    3    0    0  0.73856370498E+01  0.26182689891E+02 -0.15535642347E+02  0.31327896003E+02  0.51100000000E-03 0. -1.
        -11    1    3    3    0    0 -0.83545359205E+00  0.70680225246E+01 -0.12048662756E+02  0.13993755735E+02  0.51100000000E-03 0.  1.
        -12    1    3    3    0    0 -0.68164091785E+01 -0.34394572625E+02  0.27701854928E+02  0.44686047337E+02  0.00000000000E+00 0.  1.
</event>
<event>
 7    1  0.4359248E-015  0.9000760E+02  0.7816164E-02  0.1186339E+00
        -11   -1    0    0    0    0  0.00000000000E+00  0.00000000000E+00  0.45593999997E+02  0.45594000000E+02  0.51100000000E-03 0. -1.
         11   -1    0    0    0    0 -0.00000000000E+00 -0.00000000000E+00 -0.45593999997E+02  0.45594000000E+02  0.51100000000E-03 0.  1.
    9900012    2    1    2    0    0 -0.44571591307E+00 -0.35753821221E+00  0.10328852389E+01  0.90007598304E+02  0.89999857801E+02 0.  0.
        -12    1    1    2    0    0  0.44571591307E+00  0.35753821221E+00 -0.10328852389E+01  0.11804016965E+01  0.00000000000E+00 0.  1.
         11    1    3    3    0    0  0.21843788978E+01 -0.72191625891E+01 -0.68672218653E+01  0.10200321371E+02  0.51100000000E-03 0. -1.
        -11    1    3    3    0    0 -0.67132619760E+00 -0.36182489878E+02  0.12655993461E+01  0.36210840844E+02  0.51100000000E-03 0.  1.
         12    1    3    3    0    0 -0.19587686132E+01  0.43044114255E+02  0.66345077581E+01  0.43596436089E+02  0.00000000000E+00 0. -1.
</event>
<event>
 7    1  0.4359248E-015  0.9000740E+02  0.7816164E-02  0.1186340E+00
        -11   -1    0    0    0    0  0.00000000000E+00  0.00000000000E+00  0.45593999997E+02  0.45594000000E+02  0.51100000000E-03 0. -1.
         11   -1    0    0    0    0 -0.00000000000E+00 -0.00000000000E+00 -0.45593999997E+02  0.45594000000E+02  0.51100000000E-03 0.  1.
    9900012    2    1    2    0    0 -0.78430135236E+00 -0.80474982616E+00  0.36201896206E+00  0.90007403277E+02  0.89999660199E+02 0.  0.
        -12    1    1    2    0    0  0.78430135236E+00  0.80474982616E+00 -0.36201896206E+00  0.11805967232E+01  0.00000000000E+00 0.  1.
         11    1    3    3    0    0  0.36055913191E+01  0.29605199107E+00 -0.23138201858E+02  0.23419315128E+02  0.51100000000E-03 0. -1.
        -11    1    3    3    0    0  0.11435957219E+02  0.16125953153E+02 -0.12692869751E+02  0.23493327253E+02  0.51100000000E-03 0.  1.
         12    1    3    3    0    0 -0.15825849891E+02 -0.17226754971E+02  0.36193090572E+02  0.43094760896E+02  0.00000000000E+00 0. -1.
</event>
<event>
 7    1  0.4359248E-015  0.9000772E+02  0.7816164E-02  0.1186339E+00
        -11   -1    0    0    0    0  0.00000000000E+00  0.00000000000E+00  0.45593999997E+02  0.45594000000E+02  0.51100000000E-03 0.  1.
         11   -1    0    0    0    0 -0.00000000000E+00 -0.00000000000E+00 -0.45593999997E+02  0.45594000000E+02  0.51100000000E-03 0. -1.
    9900012    2    1    2    0    0  0.13452531570E+00  0.11638687352E+01  0.14269699371E+00  0.90007724640E+02  0.89999985805E+02 0.  0.
        -12    1    1    2    0    0 -0.13452531570E+00 -0.11638687352E+01 -0.14269699371E+00  0.11802753600E+01  0.00000000000E+00 0.  1.
         11    1    3    3    0    0  0.81852033914E+01 -0.38334097416E+02 -0.90961743453E+01  0.40239793330E+02  0.51100000000E-03 0. -1.
        -11    1    3    3    0    0  0.61846306550E+01  0.49178966429E+01 -0.54415580135E+01  0.95940563686E+01  0.51100000000E-03 0.  1.
        -12    1    3    3    0    0 -0.14235308731E+02  0.34580069508E+02  0.14680429353E+02  0.40173874942E+02  0.00000000000E+00 0.  1.
</event>
<event>
 7    1  0.6015577E-015  0.9000782E+02  0.7816164E-02  0.1186339E+00
        -11   -1    0    0    0    0  0.00000000000E+00  0.00000000000E+00  0.45593999997E+02  0.45594000000E+02  0.51100000000E-03 0. -1.
         11   -1    0    0    0    0 -0.00000000000E+00 -0.00000000000E+00 -0.45593999997E+02  0.45594000000E+02  0.51100000000E-03 0.  1.
    9900012    2    1    2    0    0  0.92109841244E+00  0.21926716008E+00  0.70449596948E+00  0.90007824189E+02  0.90000086669E+02 0.  0.
        -12    1    1    2    0    0 -0.92109841244E+00 -0.21926716008E+00 -0.70449596948E+00  0.11801758106E+01  0.00000000000E+00 0.  1.
         11    1    3    3    0    0  0.18809783965E+02 -0.22209326304E+02  0.21326694637E+02  0.36081713542E+02  0.51100000000E-03 0. -1.
        -11    1    3    3    0    0  0.69163363286E+01 -0.71217573780E+01  0.50238865243E+00  0.99401977335E+01  0.51100000000E-03 0.  1.
        -12    1    3    3    0    0 -0.24805021882E+02  0.29550350842E+02 -0.21124587320E+02  0.43985912914E+02  0.00000000000E+00 0.  1.
</event>
<event>
 7    1  0.4359248E-015  0.9000769E+02  0.7816164E-02  0.1186339E+00
        -11   -1    0    0    0    0  0.00000000000E+00  0.00000000000E+00  0.45593999997E+02  0.45594000000E+02  0.51100000000E-03 0.  1.
         11   -1    0    0    0    0 -0.00000000000E+00 -0.00000000000E+00 -0.45593999997E+02  0.45594000000E+02  0.51100000000E-03 0. -1.
    9900012    2    1    2    0    0  0.72583120869E-01  0.15816179935E+00 -0.11674114977E+01  0.90007689418E+02  0.89999950119E+02 0.  0.
        -12    1    1    2    0    0 -0.72583120869E-01 -0.15816179935E+00  0.11674114977E+01  0.11803105817E+01  0.00000000000E+00 0.  1.
         11    1    3    3    0    0  0.13490130968E+02 -0.30164734411E+02 -0.21253068894E+02  0.39288519612E+02  0.51100000000E-03 0. -1.
        -11    1    3    3    0    0  0.73221469658E+01  0.49808219140E+01 -0.43440569212E+01  0.98637342788E+01  0.51100000000E-03 0.  1.
        -12    1    3    3    0    0 -0.20739694813E+02  0.25342074296E+02  0.24429714317E+02  0.40855435528E+02  0.00000000000E+00 0.  1.
</event>
<event>
 7    1  0.4359248E-015  0.9000807E+02  0.7816164E-02  0.1186338E+00
        -11   -1    0    0    0    0  0.00000000000E+00  0.00000000000E+00  0.45593999997E+02  0.45594000000E+02  0.51100000000E-03 0.  1.
         11   -1    0    0    0    0 -0.00000000000E+00 -0.00000000000E+00 -0.45593999997E+02  0.45594000000E+02  0.51100000000E-03 0. -1.
    9900012    2    1    2    0    0  0.30041445152E+00  0.85296325861E+00 -0.75791086439E+00  0.90008074561E+02  0.90000340345E+02 0.  0.
        -12    1    1    2    0    0 -0.30041445152E+00 -0.85296325861E+00  0.75791086439E+00  0.11799254390E+01  0.00000000000E+00 0.  1.
         11    1    3    3    0    0 -0.24527190445E+01 -0.24318886983E-01 -0.96865259653E+01  0.99922573855E+01  0.51100000000E-03 0. -1.
        -11    1    3    3    0    0 -0.16860646176E+02  0.35730549387E+02  0.51896466747E+01  0.39848287063E+02  0.51100000000E-03 0.  1.
         12    1    3    3    0    0  0.19613779672E+02 -0.34853267242E+02  0.37389684263E+01  0.40167530112E+02  0.00000000000E+00 0. -1.
</event>
<event>
 7    1  0.4359248E-015  0.9000778E+02  0.7816164E-02  0.1186339E+00
        -11   -1    0    0    0    0  0.00000000000E+00  0.00000000000E+00  0.45593999997E+02  0.45594000000E+02  0.51100000000E-03 0. -1.
         11   -1    0    0    0    0 -0.00000000000E+00 -0.00000000000E+00 -0.45593999997E+02  0.45594000000E+02  0.51100000000E-03 0.  1.
    9900012    2    1    2    0    0  0.23951551443E+00 -0.10222664936E+01  0.53899137015E+00  0.90007784696E+02  0.90000046654E+02 0.  0.
        -12    1    1    2    0    0 -0.23951551443E+00  0.10222664936E+01 -0.53899137015E+00  0.11802153035E+01  0.00000000000E+00 0.  1.
         11    1    3    3    0    0 -0.18799468433E+02  0.34770853729E+02  0.84833165677E+01  0.40427700190E+02  0.51100000000E-03 0. -1.
        -11    1    3    3    0    0 -0.25896439304E+00 -0.51406477789E+01  0.83923672608E+01  0.98450571681E+01  0.51100000000E-03 0.  1.
        -12    1    3    3    0    0  0.19297948340E+02 -0.30652472444E+02 -0.16336692458E+02  0.39735027338E+02  0.00000000000E+00 0.  1.
</event>
<event>
 7    1  0.4359248E-015  0.9000776E+02  0.7816164E-02  0.1186339E+00
        -11   -1    0    0    0    0  0.00000000000E+00  0.00000000000E+00  0.45593999997E+02  0.45594000000E+02  0.51100000000E-03 0. -1.
         11   -1    0    0    0    0 -0.00000000000E+00 -0.00000000000E+00 -0.45593999997E+02  0.45594000000E+02  0.51100000000E-03 0.  1.
    9900012    2    1    2    0    0 -0.65538372515E+00  0.91758530329E+00  0.34854589966E+00  0.90007756440E+02  0.90000018025E+02 0.  0.
        -12    1    1    2    0    0  0.65538372515E+00 -0.91758530329E+00 -0.34854589966E+00  0.11802435597E+01  0.00000000000E+00 0.  1.
         11    1    3    3    0    0 -0.23554111451E+01 -0.38616459762E+02 -0.12130344180E+01  0.38707239361E+02  0.51100000000E-03 0. -1.
        -11    1    3    3    0    0 -0.26968640630E+01  0.12128243818E+01 -0.10482230681E+02  0.10891335045E+02  0.51100000000E-03 0.  1.
        -12    1    3    3    0    0  0.43968914830E+01  0.38321220683E+02  0.12043810998E+02  0.40409182035E+02  0.00000000000E+00 0.  1.
</event>
<event>
 7    1  0.4359248E-015  0.9000800E+02  0.7816164E-02  0.1186339E+00
        -11   -1    0    0    0    0  0.00000000000E+00  0.00000000000E+00  0.45593999997E+02  0.45594000000E+02  0.51100000000E-03 0. -1.
         11   -1    0    0    0    0 -0.00000000000E+00 -0.00000000000E+00 -0.45593999997E+02  0.45594000000E+02  0.51100000000E-03 0.  1.
    9900012    2    1    2    0    0 -0.85736546946E+00 -0.45481263853E+00 -0.67116861961E+00  0.90008001102E+02  0.90000265916E+02 0.  0.
        -12    1    1    2    0    0  0.85736546946E+00  0.45481263853E+00  0.67116861961E+00  0.11799988984E+01  0.00000000000E+00 0.  1.
         11    1    3    3    0    0  0.60806179315E+01 -0.12421184832E+00  0.29619894691E+00  0.60890949318E+01  0.51100000000E-03 0. -1.
        -11    1    3    3    0    0  0.14938596330E+02  0.20477033528E+02 -0.31866742164E+02  0.40718052739E+02  0.51100000000E-03 0.  1.
         12    1    3    3    0    0 -0.21876579731E+02 -0.20807634318E+02  0.30899374597E+02  0.43200853431E+02  0.00000000000E+00 0. -1.
</event>
<event>
 7    1  0.4359248E-015  0.9000767E+02  0.7816164E-02  0.1186339E+00
        -11   -1    0    0    0    0  0.00000000000E+00  0.00000000000E+00  0.45593999997E+02  0.45594000000E+02  0.51100000000E-03 0.  1.
         11   -1    0    0    0    0 -0.00000000000E+00 -0.00000000000E+00 -0.45593999997E+02  0.45594000000E+02  0.51100000000E-03 0. -1.
    9900012    2    1    2    0    0  0.50655130663E+00  0.22110824972E+00 -0.10429226759E+01  0.90007673438E+02  0.89999933928E+02 0.  0.
        -12    1    1    2    0    0 -0.50655130663E+00 -0.22110824972E+00  0.10429226759E+01  0.11803265617E+01  0.00000000000E+00 0.  1.
         11    1    3    3    0    0 -0.36270212590E+02 -0.14217078271E+02 -0.29791917292E+01  0.39070823123E+02  0.51100000000E-03 0. -1.
        -11    1    3    3    0    0  0.10602041610E+01 -0.21839097323E+01  0.10369012826E+02  0.10649409459E+02  0.51100000000E-03 0.  1.
        -12    1    3    3    0    0  0.35716559736E+02  0.16622096253E+02 -0.84327437723E+01  0.40287440856E+02  0.00000000000E+00 0.  1.
</event>
<event>
 7    1  0.4359248E-015  0.9000771E+02  0.7816164E-02  0.1186339E+00
        -11   -1    0    0    0    0  0.00000000000E+00  0.00000000000E+00  0.45593999997E+02  0.45594000000E+02  0.51100000000E-03 0. -1.
         11   -1    0    0    0    0 -0.00000000000E+00 -0.00000000000E+00 -0.45593999997E+02  0.45594000000E+02  0.51100000000E-03 0.  1.
    9900012    2    1    2    0    0  0.26957519299E+00 -0.83565241609E+00  0.78873669493E+00  0.90007707105E+02  0.89999968038E+02 0.  0.
        -12    1    1    2    0    0 -0.26957519299E+00  0.83565241609E+00 -0.78873669493E+00  0.11802928955E+01  0.00000000000E+00 0.  1.
         11    1    3    3    0    0  0.71730620825E+01 -0.65331380301E+01  0.64866353794E+00  0.97239640480E+01  0.51100000000E-03 0. -1.
        -11    1    3    3    0    0 -0.35188917879E+02 -0.38384724420E+01  0.23407471051E+02  0.42437053544E+02  0.51100000000E-03 0.  1.
         12    1    3    3    0    0  0.28285430990E+02  0.95359580560E+01 -0.23267397894E+02  0.37846689513E+02  0.00000000000E+00 0. -1.
</event>
<event>
 7    1  0.4359248E-015  0.9000777E+02  0.7816164E-02  0.1186339E+00
        -11   -1    0    0    0    0  0.00000000000E+00  0.00000000000E+00  0.45593999997E+02  0.45594000000E+02  0.51100000000E-03 0.  1.
         11   -1    0    0    0    0 -0.00000000000E+00 -0.00000000000E+00 -0.45593999997E+02  0.45594000000E+02  0.51100000000E-03 0. -1.
    9900012    2    1    2    0    0  0.60424189560E+00 -0.62098542952E+00 -0.80138046180E+00  0.90007770439E+02  0.90000032209E+02 0.  0.
        -12    1    1    2    0    0 -0.60424189560E+00  0.62098542952E+00  0.80138046180E+00  0.11802295610E+01  0.00000000000E+00 0.  1.
         11    1    3    3    0    0 -0.28244063478E+01  0.16401822116E+02  0.34812809246E+02  0.38586639240E+02  0.51100000000E-03 0. -1.
        -11    1    3    3    0    0  0.77407287646E+01 -0.28384616273E+01  0.39707371656E+01  0.91510928373E+01  0.51100000000E-03 0.  1.
        -12    1    3    3    0    0 -0.43120805212E+01 -0.14184345918E+02 -0.39584926874E+02  0.42270038362E+02  0.00000000000E+00 0.  1.
</event>
<event>
 7    1  0.4359248E-015  0.9000783E+02  0.7816164E-02  0.1186339E+00
        -11   -1    0    0    0    0  0.00000000000E+00  0.00000000000E+00  0.45593999997E+02  0.45594000000E+02  0.51100000000E-03 0.  1.
         11   -1    0    0    0    0 -0.00000000000E+00 -0.00000000000E+00 -0.45593999997E+02  0.45594000000E+02  0.51100000000E-03 0. -1.
    9900012    2    1    2    0    0  0.25840769184E+00  0.92396878635E+00 -0.68723853743E+00  0.90007834901E+02  0.90000097522E+02 0.  0.
        -12    1    1    2    0    0 -0.25840769184E+00 -0.92396878635E+00  0.68723853743E+00  0.11801650989E+01  0.00000000000E+00 0.  1.
         11    1    3    3    0    0 -0.12146276226E+01 -0.66015476038E+01  0.59438905711E+01  0.89658009352E+01  0.51100000000E-03 0. -1.
        -11    1    3    3    0    0 -0.22569959884E+02  0.90979338317E+01  0.29107660549E+02  0.37939839115E+02  0.51100000000E-03 0.  1.
         12    1    3    3    0    0  0.24042995199E+02 -0.15724174416E+01 -0.35738789658E+02  0.43102194851E+02  0.00000000000E+00 0. -1.
</event>
<event>
 7    1  0.4359248E-015  0.9000741E+02  0.7816164E-02  0.1186340E+00
        -11   -1    0    0    0    0  0.00000000000E+00  0.00000000000E+00  0.45593999997E+02  0.45594000000E+02  0.51100000000E-03 0. -1.
         11   -1    0    0    0    0 -0.00000000000E+00 -0.00000000000E+00 -0.45593999997E+02  0.45594000000E+02  0.51100000000E-03 0.  1.
    9900012    2    1    2    0    0  0.82352765434E+00  0.83570750674E+00  0.13112748628E+00  0.90007407246E+02  0.89999664221E+02 0.  0.
        -12    1    1    2    0    0 -0.82352765434E+00 -0.83570750674E+00 -0.13112748628E+00  0.11805927545E+01  0.00000000000E+00 0.  1.
         11    1    3    3    0    0  0.89018053447E+01  0.28630397742E+02  0.27246369567E+02  0.40513040716E+02  0.51100000000E-03 0. -1.
        -11    1    3    3    0    0  0.96527472636E+01 -0.19339661172E+01 -0.44430143795E+01  0.10800746813E+02  0.51100000000E-03 0.  1.
        -12    1    3    3    0    0 -0.17731024954E+02 -0.25860724118E+02 -0.22672227701E+02  0.38693619716E+02  0.00000000000E+00 0.  1.
</event>
<event>
 7    1  0.4359248E-015  0.9000779E+02  0.7816164E-02  0.1186339E+00
        -11   -1    0    0    0    0  0.00000000000E+00  0.00000000000E+00  0.45593999997E+02  0.45594000000E+02  0.51100000000E-03 0.  1.
         11   -1    0    0    0    0 -0.00000000000E+00 -0.00000000000E+00 -0.45593999997E+02  0.45594000000E+02  0.51100000000E-03 0. -1.
    9900012    2    1    2    0    0  0.78931594000E+00 -0.78582604771E+00 -0.39033586245E+00  0.90007786326E+02  0.90000048306E+02 0.  0.
        -12    1    1    2    0    0 -0.78931594000E+00  0.78582604771E+00  0.39033586245E+00  0.11802136738E+01  0.00000000000E+00 0.  1.
         11    1    3    3    0    0  0.38475327858E+02  0.29326514870E+01  0.98573207135E+01  0.39826097856E+02  0.51100000000E-03 0. -1.
        -11    1    3    3    0    0  0.96021139173E+00  0.77572374281E+00 -0.11195632665E+02  0.11263478338E+02  0.51100000000E-03 0.  1.
        -12    1    3    3    0    0 -0.38646223310E+02 -0.44942012775E+01  0.94797608916E+00  0.38918210132E+02  0.00000000000E+00 0.  1.
</event>
<event>
 7    1  0.4359248E-015  0.9000772E+02  0.7816164E-02  0.1186339E+00
        -11   -1    0    0    0    0  0.00000000000E+00  0.00000000000E+00  0.45593999997E+02  0.45594000000E+02  0.51100000000E-03 0.  1.
         11   -1    0    0    0    0 -0.00000000000E+00 -0.00000000000E+00 -0.45593999997E+02  0.45594000000E+02  0.51100000000E-03 0. -1.
    9900012    2    1    2    0    0  0.92226310498E+00 -0.66276635291E+00  0.32131532757E+00  0.90007715283E+02  0.89999976325E+02 0.  0.
        -12    1    1    2    0    0 -0.92226310498E+00  0.66276635291E+00 -0.32131532757E+00  0.11802847170E+01  0.00000000000E+00 0.  1.
         11    1    3    3    0    0  0.11682101765E+02  0.30939822636E+02 -0.20485586893E+02  0.38902485743E+02  0.51100000000E-03 0. -1.
        -11    1    3    3    0    0 -0.38174455030E+01  0.66147461727E+01  0.17304841643E+01  0.78308577309E+01  0.51100000000E-03 0.  1.
        -12    1    3    3    0    0 -0.69423931575E+01 -0.38217335162E+02  0.19076418056E+02  0.43274371809E+02  0.00000000000E+00 0.  1.
</event>
<event>
 7    1  0.4359248E-015  0.9000765E+02  0.7816164E-02  0.1186339E+00
        -11   -1    0    0    0    0  0.00000000000E+00  0.00000000000E+00  0.45593999997E+02  0.45594000000E+02  0.51100000000E-03 0. -1.
         11   -1    0    0    0    0 -0.00000000000E+00 -0.00000000000E+00 -0.45593999997E+02  0.45594000000E+02  0.51100000000E-03 0.  1.
    9900012    2    1    2    0    0  0.20220504194E+00  0.10420029854E+01  0.51630666777E+00  0.90007648495E+02  0.89999908655E+02 0.  0.
        -12    1    1    2    0    0 -0.20220504194E+00 -0.10420029854E+01 -0.51630666777E+00  0.11803515052E+01  0.00000000000E+00 0.  1.
         11    1    3    3    0    0  0.46938752433E+01 -0.31601039851E+02  0.17413185217E+02  0.36385123390E+02  0.51100000000E-03 0. -1.
        -11    1    3    3    0    0  0.90967039589E+01 -0.36578534306E+01  0.27276222956E+01  0.10176926760E+02  0.51100000000E-03 0.  1.
        -12    1    3    3    0    0 -0.13588374160E+02  0.36300896267E+02 -0.19624500845E+02  0.43445598344E+02  0.00000000000E+00 0.  1.
</event>
<event>
 7    1  0.4359248E-015  0.9000775E+02  0.7816164E-02  0.1186339E+00
        -11   -1    0    0    0    0  0.00000000000E+00  0.00000000000E+00  0.45593999997E+02  0.45594000000E+02  0.51100000000E-03 0. -1.
         11   -1    0    0    0    0 -0.00000000000E+00 -0.00000000000E+00 -0.45593999997E+02  0.45594000000E+02  0.51100000000E-03 0.  1.
    9900012    2    1    2    0    0  0.40591928230E+00  0.87643920827E+00  0.67828291612E+00  0.90007752626E+02  0.90000014161E+02 0.  0.
        -12    1    1    2    0    0 -0.40591928230E+00 -0.87643920827E+00 -0.67828291612E+00  0.11802473740E+01  0.00000000000E+00 0.  1.
         11    1    3    3    0    0  0.18857279350E+02  0.30662831878E+02 -0.20491374175E+02  0.41421041261E+02  0.51100000000E-03 0. -1.
        -11    1    3    3    0    0  0.10335960503E+01 -0.10721495293E+00 -0.46003996185E+01  0.47163007487E+01  0.51100000000E-03 0.  1.
        -12    1    3    3    0    0 -0.19484956118E+02 -0.29679177717E+02  0.25770056710E+02  0.43870410617E+02  0.00000000000E+00 0.  1.
</event>
<event>
 7    1  0.4359248E-015  0.9000653E+02  0.7816164E-02  0.1186341E+00
        -11   -1    0    0    0    0  0.00000000000E+00  0.00000000000E+00  0.45593999997E+02  0.45594000000E+02  0.51100000000E-03 0.  1.
         11   -1    0    0    0    0 -0.00000000000E+00 -0.00000000000E+00 -0.45593999997E+02  0.45594000000E+02  0.51100000000E-03 0. -1.
    9900012    2    1    2    0    0 -0.10691738881E+01  0.32950576179E-01 -0.50164830850E+00  0.90006530758E+02  0.89998776156E+02 0.  0.
        -12    1    1    2    0    0  0.10691738881E+01 -0.32950576179E-01  0.50164830850E+00  0.11814692416E+01  0.00000000000E+00 0.  1.
         11    1    3    3    0    0  0.13306591766E+02  0.15192821022E+02 -0.24810100474E+02  0.31991065641E+02  0.51100000000E-03 0. -1.
        -11    1    3    3    0    0  0.14918659252E+02 -0.83993665808E+01 -0.30218537191E+01  0.17385262523E+02  0.51100000000E-03 0.  1.
         12    1    3    3    0    0 -0.29294424906E+02 -0.67605038646E+01  0.27330305885E+02  0.40630202594E+02  0.00000000000E+00 0. -1.
</event>
<event>
 7    1  0.4359248E-015  0.9000776E+02  0.7816164E-02  0.1186339E+00
        -11   -1    0    0    0    0  0.00000000000E+00  0.00000000000E+00  0.45593999997E+02  0.45594000000E+02  0.51100000000E-03 0.  1.
         11   -1    0    0    0    0 -0.00000000000E+00 -0.00000000000E+00 -0.45593999997E+02  0.45594000000E+02  0.51100000000E-03 0. -1.
    9900012    2    1    2    0    0  0.13824266379E+00 -0.11493572555E+01 -0.22985346725E+00  0.90007760299E+02  0.90000021935E+02 0.  0.
        -12    1    1    2    0    0 -0.13824266379E+00  0.11493572555E+01  0.22985346725E+00  0.11802397008E+01  0.00000000000E+00 0.  1.
         11    1    3    3    0    0  0.14983859544E+02  0.23001569457E+02 -0.20724920340E+02  0.34396374339E+02  0.51100000000E-03 0. -1.
        -11    1    3    3    0    0  0.28302443061E+00  0.11934823411E+02  0.12424241159E+01  0.12002655149E+02  0.51100000000E-03 0.  1.
        -12    1    3    3    0    0 -0.15128641310E+02 -0.36085750124E+02  0.19252642756E+02  0.43608730812E+02  0.00000000000E+00 0.  1.
</event>
<event>
 7    1  0.4359248E-015  0.9000778E+02  0.7816164E-02  0.1186339E+00
        -11   -1    0    0    0    0  0.00000000000E+00  0.00000000000E+00  0.45593999997E+02  0.45594000000E+02  0.51100000000E-03 0.  1.
         11   -1    0    0    0    0 -0.00000000000E+00 -0.00000000000E+00 -0.45593999997E+02  0.45594000000E+02  0.51100000000E-03 0. -1.
    9900012    2    1    2    0    0 -0.10412800962E+00 -0.67090161186E+00 -0.96539027934E+00  0.90007775442E+02  0.90000037278E+02 0.  0.
        -12    1    1    2    0    0  0.10412800962E+00  0.67090161186E+00  0.96539027934E+00  0.11802245577E+01  0.00000000000E+00 0.  1.
         11    1    3    3    0    0  0.37348081961E+02  0.14563024034E+02 -0.21565609213E+01  0.40144883241E+02  0.51100000000E-03 0. -1.
        -11    1    3    3    0    0 -0.48779228795E+01  0.83241545426E+01  0.29044568982E+00  0.96524628685E+01  0.51100000000E-03 0.  1.
        -12    1    3    3    0    0 -0.32574287091E+02 -0.23558080189E+02  0.90072495210E+00  0.40210429333E+02  0.00000000000E+00 0.  1.
</event>
<event>
 7    1  0.4359248E-015  0.9000779E+02  0.7816164E-02  0.1186339E+00
        -11   -1    0    0    0    0  0.00000000000E+00  0.00000000000E+00  0.45593999997E+02  0.45594000000E+02  0.51100000000E-03 0.  1.
         11   -1    0    0    0    0 -0.00000000000E+00 -0.00000000000E+00 -0.45593999997E+02  0.45594000000E+02  0.51100000000E-03 0. -1.
    9900012    2    1    2    0    0  0.11484625371E+01 -0.20862742889E+00 -0.17437418783E+00  0.90007789019E+02  0.90000051034E+02 0.  0.
        -12    1    1    2    0    0 -0.11484625371E+01  0.20862742889E+00  0.17437418783E+00  0.11802109814E+01  0.00000000000E+00 0.  1.
         11    1    3    3    0    0  0.21351776071E+01  0.83095191719E+01  0.55070136408E+01  0.10194816908E+02  0.51100000000E-03 0. -1.
        -11    1    3    3    0    0  0.20513865452E+02  0.10275729708E+02  0.27644705722E+02  0.35925465223E+02  0.51100000000E-03 0.  1.
         12    1    3    3    0    0 -0.21500580522E+02 -0.18793876309E+02 -0.33326093550E+02  0.43887506888E+02  0.00000000000E+00 0. -1.
</event>
<event>
 7    1  0.4359248E-015  0.9000780E+02  0.7816164E-02  0.1186339E+00
        -11   -1    0    0    0    0  0.00000000000E+00  0.00000000000E+00  0.45593999997E+02  0.45594000000E+02  0.51100000000E-03 0. -1.
         11   -1    0    0    0    0 -0.00000000000E+00 -0.00000000000E+00 -0.45593999997E+02  0.45594000000E+02  0.51100000000E-03 0.  1.
    9900012    2    1    2    0    0 -0.41112900619E+00  0.50116589172E+00 -0.98624571073E+00  0.90007798783E+02  0.90000060927E+02 0.  0.
        -12    1    1    2    0    0  0.41112900619E+00 -0.50116589172E+00  0.98624571073E+00  0.11802012170E+01  0.00000000000E+00 0.  1.
         11    1    3    3    0    0  0.75536000140E+00 -0.23889877017E+02  0.32653969604E+02  0.40467005372E+02  0.51100000000E-03 0. -1.
        -11    1    3    3    0    0 -0.21662294509E+01 -0.57487488157E+01 -0.68738391486E+01  0.92190198981E+01  0.51100000000E-03 0.  1.
        -12    1    3    3    0    0  0.99974044331E+00  0.30139791724E+02 -0.26766376167E+02  0.40321773513E+02  0.00000000000E+00 0.  1.
</event>
<event>
 7    1  0.5860656E-015  0.9000770E+02  0.7816164E-02  0.1186339E+00
        -11   -1    0    0    0    0  0.00000000000E+00  0.00000000000E+00  0.45593999997E+02  0.45594000000E+02  0.51100000000E-03 0. -1.
         11   -1    0    0    0    0 -0.00000000000E+00 -0.00000000000E+00 -0.45593999997E+02  0.45594000000E+02  0.51100000000E-03 0.  1.
    9900012    2    1    2    0    0  0.44615253193E+00 -0.34781847137E-01  0.10921801576E+01  0.90007695228E+02  0.89999956005E+02 0.  0.
        -12    1    1    2    0    0 -0.44615253193E+00  0.34781847137E-01 -0.10921801576E+01  0.11803047722E+01  0.00000000000E+00 0.  1.
         11    1    3    3    0    0  0.17603388514E+02  0.17972259609E+02  0.29850460112E+02  0.39037563599E+02  0.51100000000E-03 0. -1.
        -11    1    3    3    0    0  0.31717788904E+01 -0.65538666068E+01  0.57747792277E+01  0.92930847526E+01  0.51100000000E-03 0.  1.
        -12    1    3    3    0    0 -0.20329014873E+02 -0.11453174850E+02 -0.34533059182E+02  0.41677046876E+02  0.00000000000E+00 0.  1.
</event>
<event>
 7    1  0.4359248E-015  0.9000765E+02  0.7816164E-02  0.1186339E+00
        -11   -1    0    0    0    0  0.00000000000E+00  0.00000000000E+00  0.45593999997E+02  0.45594000000E+02  0.51100000000E-03 0.  1.
         11   -1    0    0    0    0 -0.00000000000E+00 -0.00000000000E+00 -0.45593999997E+02  0.45594000000E+02  0.51100000000E-03 0. -1.
    9900012    2    1    2    0    0  0.71739113076E+00 -0.76475869835E+00 -0.54196661911E+00  0.90007646783E+02  0.89999906920E+02 0.  0.
        -12    1    1    2    0    0 -0.71739113076E+00  0.76475869835E+00  0.54196661911E+00  0.11803532172E+01  0.00000000000E+00 0.  1.
         11    1    3    3    0    0  0.22052475393E+02  0.12831472322E+02 -0.27412710437E+02  0.37448832381E+02  0.51100000000E-03 0. -1.
        -11    1    3    3    0    0  0.30690756577E+01  0.12020802717E+00 -0.75736677695E+01  0.81727669186E+01  0.51100000000E-03 0.  1.
        -12    1    3    3    0    0 -0.24404159920E+02 -0.13716439048E+02  0.34444411588E+02  0.44386047483E+02  0.00000000000E+00 0.  1.
</event>
<event>
 7    1  0.5098084E-015  0.9000775E+02  0.7816164E-02  0.1186339E+00
        -11   -1    0    0    0    0  0.00000000000E+00  0.00000000000E+00  0.45593999997E+02  0.45594000000E+02  0.51100000000E-03 0.  1.
         11   -1    0    0    0    0 -0.00000000000E+00 -0.00000000000E+00 -0.45593999997E+02  0.45594000000E+02  0.51100000000E-03 0. -1.
    9900012    2    1    2    0    0  0.90112619225E+00  0.75997320046E+00 -0.58372114168E-01  0.90007747915E+02  0.90000009388E+02 0.  0.
        -12    1    1    2    0    0 -0.90112619225E+00 -0.75997320046E+00  0.58372114168E-01  0.11802520847E+01  0.00000000000E+00 0.  1.
         11    1    3    3    0    0  0.18989336075E+02 -0.30812430000E+02  0.15906189326E+02  0.39534890745E+02  0.51100000000E-03 0. -1.
        -11    1    3    3    0    0  0.75361553258E+00 -0.42042214739E+01 -0.82763911795E+01  0.93135420647E+01  0.51100000000E-03 0.  1.
        -12    1    3    3    0    0 -0.18841825415E+02  0.35776624674E+02 -0.76881702605E+01  0.41159315106E+02  0.00000000000E+00 0.  1.
</event>
<event>
 7    1  0.4359248E-015  0.9000783E+02  0.7816164E-02  0.1186339E+00
        -11   -1    0    0    0    0  0.00000000000E+00  0.00000000000E+00  0.45593999997E+02  0.45594000000E+02  0.51100000000E-03 0. -1.
         11   -1    0    0    0    0 -0.00000000000E+00 -0.00000000000E+00 -0.45593999997E+02  0.45594000000E+02  0.51100000000E-03 0.  1.
    9900012    2    1    2    0    0  0.11287685890E+01  0.44356341077E-01  0.34162697615E+00  0.90007832638E+02  0.90000095228E+02 0.  0.
        -12    1    1    2    0    0 -0.11287685890E+01 -0.44356341077E-01 -0.34162697615E+00  0.11801673625E+01  0.00000000000E+00 0.  1.
         11    1    3    3    0    0 -0.59367252253E+01 -0.77993479546E+01  0.89463523814E+01  0.13270710460E+02  0.51100000000E-03 0. -1.
        -11    1    3    3    0    0 -0.30209975272E+02  0.10699155506E+02 -0.19849762728E+02  0.37697846293E+02  0.51100000000E-03 0.  1.
         12    1    3    3    0    0  0.37275469087E+02 -0.28554512105E+01  0.11245037322E+02  0.39039275885E+02  0.00000000000E+00 0. -1.
</event>
<event>
 7    1  0.4359248E-015  0.9000767E+02  0.7816164E-02  0.1186339E+00
        -11   -1    0    0    0    0  0.00000000000E+00  0.00000000000E+00  0.45593999997E+02  0.45594000000E+02  0.51100000000E-03 0.  1.
         11   -1    0    0    0    0 -0.00000000000E+00 -0.00000000000E+00 -0.45593999997E+02  0.45594000000E+02  0.51100000000E-03 0. -1.
    9900012    2    1    2    0    0  0.47088239512E+00  0.10395045956E+01 -0.30144974325E+00  0.90007672934E+02  0.89999933417E+02 0.  0.
        -12    1    1    2    0    0 -0.47088239512E+00 -0.10395045956E+01  0.30144974325E+00  0.11803270657E+01  0.00000000000E+00 0.  1.
         11    1    3    3    0    0 -0.26636096008E+01  0.63792786096E+01 -0.69103746320E+01  0.97746247754E+01  0.51100000000E-03 0. -1.
        -11    1    3    3    0    0 -0.18613110192E+02  0.29674501398E+02  0.15107067532E+02  0.38147704963E+02  0.51100000000E-03 0.  1.
         12    1    3    3    0    0  0.21747602188E+02 -0.35014275412E+02 -0.84981426429E+01  0.42085343196E+02  0.00000000000E+00 0. -1.
</event>
<event>
 7    1  0.4359248E-015  0.9000775E+02  0.7816164E-02  0.1186339E+00
        -11   -1    0    0    0    0  0.00000000000E+00  0.00000000000E+00  0.45593999997E+02  0.45594000000E+02  0.51100000000E-03 0. -1.
         11   -1    0    0    0    0 -0.00000000000E+00 -0.00000000000E+00 -0.45593999997E+02  0.45594000000E+02  0.51100000000E-03 0.  1.
    9900012    2    1    2    0    0  0.95635402642E+00  0.68493962425E+00 -0.96155683247E-01  0.90007745270E+02  0.90000006707E+02 0.  0.
        -12    1    1    2    0    0 -0.95635402642E+00 -0.68493962425E+00  0.96155683247E-01  0.11802547302E+01  0.00000000000E+00 0.  1.
         11    1    3    3    0    0  0.50148000347E+01  0.76491405988E+01  0.98792082674E+00  0.91996499449E+01  0.51100000000E-03 0. -1.
        -11    1    3    3    0    0 -0.16466530726E+02  0.21127171120E+02  0.27831436878E+02  0.38627618004E+02  0.51100000000E-03 0.  1.
         12    1    3    3    0    0  0.12408084718E+02 -0.28091372095E+02 -0.28915513388E+02  0.42180477321E+02  0.00000000000E+00 0. -1.
</event>
<event>
 7    1  0.4359248E-015  0.9000775E+02  0.7816164E-02  0.1186339E+00
        -11   -1    0    0    0    0  0.00000000000E+00  0.00000000000E+00  0.45593999997E+02  0.45594000000E+02  0.51100000000E-03 0. -1.
         11   -1    0    0    0    0 -0.00000000000E+00 -0.00000000000E+00 -0.45593999997E+02  0.45594000000E+02  0.51100000000E-03 0.  1.
    9900012    2    1    2    0    0  0.31816016757E+00  0.50176056987E+00  0.10198063106E+01  0.90007748132E+02  0.90000009607E+02 0.  0.
        -12    1    1    2    0    0 -0.31816016757E+00 -0.50176056987E+00 -0.10198063106E+01  0.11802518684E+01  0.00000000000E+00 0.  1.
         11    1    3    3    0    0 -0.61923294351E+00 -0.21719873002E+01  0.99991071433E+01  0.10251005911E+02  0.51100000000E-03 0. -1.
        -11    1    3    3    0    0 -0.21082217632E+02 -0.27862410076E+02  0.11646516556E+02  0.36829541725E+02  0.51100000000E-03 0.  1.
         12    1    3    3    0    0  0.22019610743E+02  0.30536157946E+02 -0.20625817388E+02  0.42927200495E+02  0.00000000000E+00 0. -1.
</event>
<event>
 7    1  0.4359248E-015  0.9000771E+02  0.7816164E-02  0.1186339E+00
        -11   -1    0    0    0    0  0.00000000000E+00  0.00000000000E+00  0.45593999997E+02  0.45594000000E+02  0.51100000000E-03 0.  1.
         11   -1    0    0    0    0 -0.00000000000E+00 -0.00000000000E+00 -0.45593999997E+02  0.45594000000E+02  0.51100000000E-03 0. -1.
    9900012    2    1    2    0    0 -0.98684996676E+00 -0.37947023714E+00  0.52460361017E+00  0.90007712126E+02  0.89999973126E+02 0.  0.
        -12    1    1    2    0    0  0.98684996676E+00  0.37947023714E+00 -0.52460361017E+00  0.11802878740E+01  0.00000000000E+00 0.  1.
         11    1    3    3    0    0 -0.80177529202E+01 -0.30396354634E+01 -0.28214269758E+01  0.90268597020E+01  0.51100000000E-03 0. -1.
        -11    1    3    3    0    0 -0.32725967893E+02  0.18455019692E+02 -0.31848499137E+01  0.37705702428E+02  0.51100000000E-03 0.  1.
         12    1    3    3    0    0  0.39756870846E+02 -0.15794854466E+02  0.65308804996E+01  0.43275149996E+02  0.00000000000E+00 0. -1.
</event>
<event>
 7    1  0.4359248E-015  0.9000778E+02  0.7816164E-02  0.1186339E+00
        -11   -1    0    0    0    0  0.00000000000E+00  0.00000000000E+00  0.45593999997E+02  0.45594000000E+02  0.51100000000E-03 0. -1.
         11   -1    0    0    0    0 -0.00000000000E+00 -0.00000000000E+00 -0.45593999997E+02  0.45594000000E+02  0.51100000000E-03 0.  1.
    9900012    2    1    2    0    0  0.89467180943E-01  0.11913192787E+00  0.11707833678E+01  0.90007775239E+02  0.90000037072E+02 0.  0.
        -12    1    1    2    0    0 -0.89467180943E-01 -0.11913192787E+00 -0.11707833678E+01  0.11802247612E+01  0.00000000000E+00 0.  1.
         11    1    3    3    0    0  0.39107427488E+01 -0.85128113385E+01 -0.76600534821E+01  0.12101168759E+02  0.51100000000E-03 0. -1.
        -11    1    3    3    0    0  0.16539821156E+02  0.13030644425E+01 -0.29525063271E+02  0.33867285428E+02  0.51100000000E-03 0.  1.
         12    1    3    3    0    0 -0.20361096724E+02  0.73288788238E+01  0.38355900121E+02  0.44039321052E+02  0.00000000000E+00 0. -1.
</event>
<event>
 7    1  0.4359248E-015  0.9000771E+02  0.7816164E-02  0.1186339E+00
        -11   -1    0    0    0    0  0.00000000000E+00  0.00000000000E+00  0.45593999997E+02  0.45594000000E+02  0.51100000000E-03 0.  1.
         11   -1    0    0    0    0 -0.00000000000E+00 -0.00000000000E+00 -0.45593999997E+02  0.45594000000E+02  0.51100000000E-03 0. -1.
    9900012    2    1    2    0    0 -0.69636543864E+00  0.94728719288E+00 -0.10390132480E+00  0.90007714723E+02  0.89999975757E+02 0.  0.
        -12    1    1    2    0    0  0.69636543864E+00 -0.94728719288E+00  0.10390132480E+00  0.11802852770E+01  0.00000000000E+00 0.  1.
         11    1    3    3    0    0  0.62205814749E+01  0.56517213024E+01  0.29968748941E+01  0.89229393676E+01  0.51100000000E-03 0. -1.
        -11    1    3    3    0    0 -0.38495223506E+02  0.14688624964E+01  0.18088291714E+02  0.42558501938E+02  0.51100000000E-03 0.  1.
         12    1    3    3    0    0  0.31578276593E+02 -0.61732966059E+01 -0.21189067933E+02  0.38526273417E+02  0.00000000000E+00 0. -1.
</event>
<event>
 7    1  0.4359248E-015  0.9000775E+02  0.7816164E-02  0.1186339E+00
        -11   -1    0    0    0    0  0.00000000000E+00  0.00000000000E+00  0.45593999997E+02  0.45594000000E+02  0.51100000000E-03 0.  1.
         11   -1    0    0    0    0 -0.00000000000E+00 -0.00000000000E+00 -0.45593999997E+02  0.45594000000E+02  0.51100000000E-03 0. -1.
    9900012    2    1    2    0    0 -0.15951481483E+00  0.92364681723E-01 -0.11657680016E+01  0.90007749499E+02  0.90000010993E+02 0.  0.
        -12    1    1    2    0    0  0.15951481483E+00 -0.92364681723E-01  0.11657680016E+01  0.11802505006E+01  0.00000000000E+00 0.  1.
         11    1    3    3    0    0  0.32911623486E+02  0.90312221804E+01 -0.20162016685E+02  0.39638931011E+02  0.51100000000E-03 0. -1.
        -11    1    3    3    0    0  0.37158975410E+01 -0.29879650112E+01 -0.43001874544E+01  0.64208598994E+01  0.51100000000E-03 0.  1.
        -12    1    3    3    0    0 -0.36787035842E+02 -0.59508924875E+01  0.23296436138E+02  0.43947958590E+02  0.00000000000E+00 0.  1.
</event>
<event>
 7    1  0.4359248E-015  0.9000777E+02  0.7816164E-02  0.1186339E+00
        -11   -1    0    0    0    0  0.00000000000E+00  0.00000000000E+00  0.45593999997E+02  0.45594000000E+02  0.51100000000E-03 0.  1.
         11   -1    0    0    0    0 -0.00000000000E+00 -0.00000000000E+00 -0.45593999997E+02  0.45594000000E+02  0.51100000000E-03 0. -1.
    9900012    2    1    2    0    0 -0.58800281636E+00 -0.95912246384E+00 -0.35676019018E+00  0.90007770765E+02  0.90000032540E+02 0.  0.
        -12    1    1    2    0    0  0.58800281636E+00  0.95912246384E+00  0.35676019018E+00  0.11802292345E+01  0.00000000000E+00 0.  1.
         11    1    3    3    0    0 -0.84582691030E+01  0.32726504097E+01  0.43213067980E+01  0.10046205733E+02  0.51100000000E-03 0. -1.
        -11    1    3    3    0    0 -0.65456686985E+01 -0.10512689011E+02  0.35082687355E+02  0.37204265364E+02  0.51100000000E-03 0.  1.
         12    1    3    3    0    0  0.14415934985E+02  0.62809161370E+01 -0.39760754343E+02  0.42757299669E+02  0.00000000000E+00 0. -1.
</event>
<event>
 7    1  0.4359248E-015  0.9000776E+02  0.7816164E-02  0.1186339E+00
        -11   -1    0    0    0    0  0.00000000000E+00  0.00000000000E+00  0.45593999997E+02  0.45594000000E+02  0.51100000000E-03 0.  1.
         11   -1    0    0    0    0 -0.00000000000E+00 -0.00000000000E+00 -0.45593999997E+02  0.45594000000E+02  0.51100000000E-03 0. -1.
    9900012    2    1    2    0    0  0.10971738752E+01 -0.37386213925E+00  0.22225259466E+00  0.90007762894E+02  0.90000024564E+02 0.  0.
        -12    1    1    2    0    0 -0.10971738752E+01  0.37386213925E+00 -0.22225259466E+00  0.11802371064E+01  0.00000000000E+00 0.  1.
         11    1    3    3    0    0  0.24152471435E+00  0.69874832651E+01 -0.46847411175E+01  0.84160594203E+01  0.51100000000E-03 0. -1.
        -11    1    3    3    0    0 -0.34545858467E+02 -0.20058555420E+01  0.22925350613E+02  0.41509173621E+02  0.51100000000E-03 0.  1.
         12    1    3    3    0    0  0.35401507628E+02 -0.53554898624E+01 -0.18018356901E+02  0.40082529853E+02  0.00000000000E+00 0. -1.
</event>
<event>
 7    1  0.4359248E-015  0.9000806E+02  0.7816164E-02  0.1186338E+00
        -11   -1    0    0    0    0  0.00000000000E+00  0.00000000000E+00  0.45593999997E+02  0.45594000000E+02  0.51100000000E-03 0. -1.
         11   -1    0    0    0    0 -0.00000000000E+00 -0.00000000000E+00 -0.45593999997E+02  0.45594000000E+02  0.51100000000E-03 0.  1.
    9900012    2    1    2    0    0  0.11255184631E+01 -0.25707869421E+00 -0.24368614738E+00  0.90008057542E+02  0.90000323101E+02 0.  0.
        -12    1    1    2    0    0 -0.11255184631E+01  0.25707869421E+00  0.24368614738E+00  0.11799424580E+01  0.00000000000E+00 0.  1.
         11    1    3    3    0    0  0.69071823709E+01 -0.27659501493E+02  0.21496533670E+02  0.35705155808E+02  0.51100000000E-03 0. -1.
        -11    1    3    3    0    0  0.12277103605E+02  0.29518920048E+01  0.52290068625E+01  0.13666874272E+02  0.51100000000E-03 0.  1.
        -12    1    3    3    0    0 -0.18058767513E+02  0.24450530794E+02 -0.26969226680E+02  0.40636027462E+02  0.00000000000E+00 0.  1.
</event>
<event>
 7    1  0.4359248E-015  0.9000769E+02  0.7816164E-02  0.1186339E+00
        -11   -1    0    0    0    0  0.00000000000E+00  0.00000000000E+00  0.45593999997E+02  0.45594000000E+02  0.51100000000E-03 0.  1.
         11   -1    0    0    0    0 -0.00000000000E+00 -0.00000000000E+00 -0.45593999997E+02  0.45594000000E+02  0.51100000000E-03 0. -1.
    9900012    2    1    2    0    0 -0.11757100690E+01 -0.48921320810E-01  0.91852823956E-01  0.90007693089E+02  0.89999953838E+02 0.  0.
        -12    1    1    2    0    0  0.11757100690E+01  0.48921320810E-01 -0.91852823956E-01  0.11803069106E+01  0.00000000000E+00 0.  1.
         11    1    3    3    0    0 -0.10699187117E+02 -0.58257780276E+01 -0.28132615739E+02  0.30657076886E+02  0.51100000000E-03 0. -1.
        -11    1    3    3    0    0  0.10082432913E+02 -0.95600147822E+01 -0.10682527950E+02  0.17526144463E+02  0.51100000000E-03 0.  1.
        -12    1    3    3    0    0 -0.55895586497E+00  0.15336871489E+02  0.38906996513E+02  0.41824471741E+02  0.00000000000E+00 0.  1.
</event>
<event>
 7    1  0.4359248E-015  0.9000777E+02  0.7816164E-02  0.1186339E+00
        -11   -1    0    0    0    0  0.00000000000E+00  0.00000000000E+00  0.45593999997E+02  0.45594000000E+02  0.51100000000E-03 0.  1.
         11   -1    0    0    0    0 -0.00000000000E+00 -0.00000000000E+00 -0.45593999997E+02  0.45594000000E+02  0.51100000000E-03 0. -1.
    9900012    2    1    2    0    0 -0.11339599046E+01  0.21709034100E-01 -0.32651064826E+00  0.90007768857E+02  0.90000030606E+02 0.  0.
        -12    1    1    2    0    0  0.11339599046E+01 -0.21709034100E-01  0.32651064826E+00  0.11802311430E+01  0.00000000000E+00 0.  1.
         11    1    3    3    0    0 -0.99978397151E+00 -0.40871798739E+00  0.86395048976E+01  0.87067596453E+01  0.51100000000E-03 0. -1.
        -11    1    3    3    0    0 -0.13000769024E+02  0.13724648496E+02 -0.40525715075E+02  0.44718223960E+02  0.51100000000E-03 0.  1.
         12    1    3    3    0    0  0.12866593091E+02 -0.13294221474E+02  0.31559699529E+02  0.36582785251E+02  0.00000000000E+00 0. -1.
</event>
<event>
 7    1  0.4359248E-015  0.9000769E+02  0.7816164E-02  0.1186339E+00
        -11   -1    0    0    0    0  0.00000000000E+00  0.00000000000E+00  0.45593999997E+02  0.45594000000E+02  0.51100000000E-03 0. -1.
         11   -1    0    0    0    0 -0.00000000000E+00 -0.00000000000E+00 -0.45593999997E+02  0.45594000000E+02  0.51100000000E-03 0.  1.
    9900012    2    1    2    0    0  0.45399449764E+00 -0.88779362891E+00  0.63153339002E+00  0.90007693703E+02  0.89999954460E+02 0.  0.
        -12    1    1    2    0    0 -0.45399449764E+00  0.88779362891E+00 -0.63153339002E+00  0.11803062967E+01  0.00000000000E+00 0.  1.
         11    1    3    3    0    0 -0.41999100845E+01  0.68712071036E+01  0.43388847103E+00  0.80647995167E+01  0.51100000000E-03 0. -1.
        -11    1    3    3    0    0 -0.21660574536E+02 -0.36543942751E+02 -0.42343107164E+01  0.42691563903E+02  0.51100000000E-03 0.  1.
         12    1    3    3    0    0  0.26314479118E+02  0.28784942018E+02  0.44319556354E+01  0.39251330283E+02  0.00000000000E+00 0. -1.
</event>
<event>
 7    1  0.5270753E-015  0.9000775E+02  0.7816164E-02  0.1186339E+00
        -11   -1    0    0    0    0  0.00000000000E+00  0.00000000000E+00  0.45593999997E+02  0.45594000000E+02  0.51100000000E-03 0. -1.
         11   -1    0    0    0    0 -0.00000000000E+00 -0.00000000000E+00 -0.45593999997E+02  0.45594000000E+02  0.51100000000E-03 0.  1.
    9900012    2    1    2    0    0 -0.96236428053E+00  0.43028390441E+00  0.53076253134E+00  0.90007746590E+02  0.90000008045E+02 0.  0.
        -12    1    1    2    0    0  0.96236428053E+00 -0.43028390441E+00 -0.53076253134E+00  0.11802534099E+01  0.00000000000E+00 0.  1.
         11    1    3    3    0    0  0.13929885384E+00 -0.11481182773E+02  0.42470527495E+02  0.43995257335E+02  0.51100000000E-03 0. -1.
        -11    1    3    3    0    0 -0.86605714073E+00 -0.34404578159E+01 -0.88263788189E+01  0.95127161353E+01  0.51100000000E-03 0.  1.
        -12    1    3    3    0    0 -0.23560599363E+00  0.15351924493E+02 -0.33113386145E+02  0.36499773120E+02  0.00000000000E+00 0.  1.
</event>
<event>
 7    1  0.4359248E-015  0.9000797E+02  0.7816164E-02  0.1186339E+00
        -11   -1    0    0    0    0  0.00000000000E+00  0.00000000000E+00  0.45593999997E+02  0.45594000000E+02  0.51100000000E-03 0.  1.
         11   -1    0    0    0    0 -0.00000000000E+00 -0.00000000000E+00 -0.45593999997E+02  0.45594000000E+02  0.51100000000E-03 0. -1.
    9900012    2    1    2    0    0  0.90338706481E+00 -0.75900439966E+00  0.16321489876E-01  0.90007973620E+02  0.90000238071E+02 0.  0.
        -12    1    1    2    0    0 -0.90338706481E+00  0.75900439966E+00 -0.16321489876E-01  0.11800263805E+01  0.00000000000E+00 0.  1.
         11    1    3    3    0    0  0.19924610712E+01 -0.30019253087E+02 -0.21263467834E+02  0.36841016838E+02  0.51100000000E-03 0. -1.
        -11    1    3    3    0    0  0.38749410058E+00 -0.26422342423E+01 -0.88601222448E+01  0.92538273122E+01  0.51100000000E-03 0.  1.
        -12    1    3    3    0    0 -0.14765681070E+01  0.31902482930E+02  0.30139911569E+02  0.43913129470E+02  0.00000000000E+00 0.  1.
</event>
<event>
 7    1  0.4359248E-015  0.9000767E+02  0.7816164E-02  0.1186339E+00
        -11   -1    0    0    0    0  0.00000000000E+00  0.00000000000E+00  0.45593999997E+02  0.45594000000E+02  0.51100000000E-03 0. -1.
         11   -1    0    0    0    0 -0.00000000000E+00 -0.00000000000E+00 -0.45593999997E+02  0.45594000000E+02  0.51100000000E-03 0.  1.
    9900012    2    1    2    0    0 -0.10932006617E+00 -0.93337933825E+00 -0.71416003760E+00  0.90007672747E+02  0.89999933227E+02 0.  0.
        -12    1    1    2    0    0  0.10932006617E+00  0.93337933825E+00  0.71416003760E+00  0.11803272534E+01  0.00000000000E+00 0.  1.
         11    1    3    3    0    0 -0.35497494107E+02 -0.15822898807E+01 -0.10522309681E+02  0.37057991452E+02  0.51100000000E-03 0. -1.
        -11    1    3    3    0    0  0.26519736420E+01 -0.53600657422E+01 -0.11826847721E+02  0.13252833517E+02  0.51100000000E-03 0.  1.
        -12    1    3    3    0    0  0.32736200399E+02  0.60089762847E+01  0.21634997364E+02  0.39696847778E+02  0.00000000000E+00 0.  1.
</event>
<event>
 7    1  0.4359248E-015  0.9000779E+02  0.7816164E-02  0.1186339E+00
        -11   -1    0    0    0    0  0.00000000000E+00  0.00000000000E+00  0.45593999997E+02  0.45594000000E+02  0.51100000000E-03 0. -1.
         11   -1    0    0    0    0 -0.00000000000E+00 -0.00000000000E+00 -0.45593999997E+02  0.45594000000E+02  0.51100000000E-03 0.  1.
    9900012    2    1    2    0    0  0.15284099292E+00  0.89272578690E+00  0.75669258744E+00  0.90007786726E+02  0.90000048711E+02 0.  0.
        -12    1    1    2    0    0 -0.15284099292E+00 -0.89272578690E+00 -0.75669258744E+00  0.11802132738E+01  0.00000000000E+00 0.  1.
         11    1    3    3    0    0  0.28864926815E+02  0.24464960892E+02  0.16809493748E+02  0.41403833057E+02  0.51100000000E-03 0. -1.
        -11    1    3    3    0    0 -0.87756881808E+00  0.18056078177E+01  0.50457997875E+01  0.54305103240E+01  0.51100000000E-03 0.  1.
        -12    1    3    3    0    0 -0.27834517004E+02 -0.25377842923E+02 -0.21098600949E+02  0.43173443345E+02  0.00000000000E+00 0.  1.
</event>
<event>
 7    1  0.4359248E-015  0.9000788E+02  0.7816164E-02  0.1186339E+00
        -11   -1    0    0    0    0  0.00000000000E+00  0.00000000000E+00  0.45593999997E+02  0.45594000000E+02  0.51100000000E-03 0. -1.
         11   -1    0    0    0    0 -0.00000000000E+00 -0.00000000000E+00 -0.45593999997E+02  0.45594000000E+02  0.51100000000E-03 0.  1.
    9900012    2    1    2    0    0 -0.76214035838E+00  0.63642068750E-02  0.90099101148E+00  0.90007879993E+02  0.90000143208E+02 0.  0.
        -12    1    1    2    0    0  0.76214035838E+00 -0.63642068750E-02 -0.90099101148E+00  0.11801200074E+01  0.00000000000E+00 0.  1.
         11    1    3    3    0    0 -0.65871106893E+01 -0.93669592424E+01 -0.68454011232E+01  0.13341269410E+02  0.51100000000E-03 0. -1.
        -11    1    3    3    0    0  0.27227710454E+02 -0.16965847230E+02 -0.15400604218E+02  0.35586047818E+02  0.51100000000E-03 0.  1.
         12    1    3    3    0    0 -0.21402740124E+02  0.26339170679E+02  0.23146996352E+02  0.41080562764E+02  0.00000000000E+00 0. -1.
</event>
<event>
 7    1  0.4359248E-015  0.9000773E+02  0.7816164E-02  0.1186339E+00
        -11   -1    0    0    0    0  0.00000000000E+00  0.00000000000E+00  0.45593999997E+02  0.45594000000E+02  0.51100000000E-03 0. -1.
         11   -1    0    0    0    0 -0.00000000000E+00 -0.00000000000E+00 -0.45593999997E+02  0.45594000000E+02  0.51100000000E-03 0.  1.
    9900012    2    1    2    0    0 -0.62972920350E+00  0.99468773146E+00  0.84152768294E-01  0.90007727048E+02  0.89999988245E+02 0.  0.
        -12    1    1    2    0    0  0.62972920350E+00 -0.99468773146E+00 -0.84152768294E-01  0.11802729520E+01  0.00000000000E+00 0.  1.
         11    1    3    3    0    0 -0.20477475612E+02  0.86969491515E+01 -0.38454991463E+02  0.44426909646E+02  0.51100000000E-03 0. -1.
        -11    1    3    3    0    0  0.28174072071E+01  0.28558058774E+01  0.93666527037E+01  0.10189582607E+02  0.51100000000E-03 0.  1.
        -12    1    3    3    0    0  0.17030339201E+02 -0.10558067297E+02  0.29172491528E+02  0.35391234795E+02  0.00000000000E+00 0.  1.
</event>
<event>
 7    1  0.4359248E-015  0.9000774E+02  0.7816164E-02  0.1186339E+00
        -11   -1    0    0    0    0  0.00000000000E+00  0.00000000000E+00  0.45593999997E+02  0.45594000000E+02  0.51100000000E-03 0.  1.
         11   -1    0    0    0    0 -0.00000000000E+00 -0.00000000000E+00 -0.45593999997E+02  0.45594000000E+02  0.51100000000E-03 0. -1.
    9900012    2    1    2    0    0 -0.95732020379E+00  0.68805572282E+00 -0.55996171087E-01  0.90007738071E+02  0.89999999413E+02 0.  0.
        -12    1    1    2    0    0  0.95732020379E+00 -0.68805572282E+00  0.55996171087E-01  0.11802619292E+01  0.00000000000E+00 0.  1.
         11    1    3    3    0    0  0.15151884244E+01 -0.44423039457E+01 -0.74910212571E+01  0.88399807716E+01  0.51100000000E-03 0. -1.
        -11    1    3    3    0    0 -0.68628294308E+01 -0.32968268665E+02  0.21911055514E+02  0.40175857434E+02  0.51100000000E-03 0.  1.
         12    1    3    3    0    0  0.43903208026E+01  0.38098628333E+02 -0.14476030428E+02  0.40991899865E+02  0.00000000000E+00 0. -1.
</event>
<event>
 7    1  0.4477849E-015  0.9000781E+02  0.7816164E-02  0.1186339E+00
        -11   -1    0    0    0    0  0.00000000000E+00  0.00000000000E+00  0.45593999997E+02  0.45594000000E+02  0.51100000000E-03 0. -1.
         11   -1    0    0    0    0 -0.00000000000E+00 -0.00000000000E+00 -0.45593999997E+02  0.45594000000E+02  0.51100000000E-03 0.  1.
    9900012    2    1    2    0    0  0.46375197229E+00  0.28794599362E+00  0.10463597463E+01  0.90007810394E+02  0.90000072691E+02 0.  0.
        -12    1    1    2    0    0 -0.46375197229E+00 -0.28794599362E+00 -0.10463597463E+01  0.11801896058E+01  0.00000000000E+00 0.  1.
         11    1    3    3    0    0  0.31410459314E+02 -0.19959526490E+02  0.14929948085E+02  0.40098665840E+02  0.51100000000E-03 0. -1.
        -11    1    3    3    0    0 -0.54541694699E+01 -0.49746447174E+01  0.54429109981E+01  0.91717138565E+01  0.51100000000E-03 0.  1.
        -12    1    3    3    0    0 -0.25492537872E+02  0.25222117201E+02 -0.19326499337E+02  0.40737430698E+02  0.00000000000E+00 0.  1.
</event>
<event>
 7    1  0.4359248E-015  0.9000768E+02  0.7816164E-02  0.1186339E+00
        -11   -1    0    0    0    0  0.00000000000E+00  0.00000000000E+00  0.45593999997E+02  0.45594000000E+02  0.51100000000E-03 0.  1.
         11   -1    0    0    0    0 -0.00000000000E+00 -0.00000000000E+00 -0.45593999997E+02  0.45594000000E+02  0.51100000000E-03 0. -1.
    9900012    2    1    2    0    0  0.65800172421E+00  0.90510591878E+00 -0.37546890612E+00  0.90007678055E+02  0.89999938606E+02 0.  0.
        -12    1    1    2    0    0 -0.65800172421E+00 -0.90510591878E+00  0.37546890612E+00  0.11803219445E+01  0.00000000000E+00 0.  1.
         11    1    3    3    0    0  0.67723582279E+01 -0.53308955454E+01 -0.38914660922E+01  0.94565740038E+01  0.51100000000E-03 0. -1.
        -11    1    3    3    0    0  0.24379163696E+02 -0.42283480094E+00 -0.27359537890E+02  0.36647874776E+02  0.51100000000E-03 0.  1.
         12    1    3    3    0    0 -0.30493520199E+02  0.66588362651E+01  0.30875535076E+02  0.43903229275E+02  0.00000000000E+00 0. -1.
</event>
<event>
 7    1  0.4359248E-015  0.9000769E+02  0.7816164E-02  0.1186339E+00
        -11   -1    0    0    0    0  0.00000000000E+00  0.00000000000E+00  0.45593999997E+02  0.45594000000E+02  0.51100000000E-03 0. -1.
         11   -1    0    0    0    0 -0.00000000000E+00 -0.00000000000E+00 -0.45593999997E+02  0.45594000000E+02  0.51100000000E-03 0.  1.
    9900012    2    1    2    0    0 -0.98558874390E+00  0.64762299282E+00 -0.48347390318E-01  0.90007687252E+02  0.89999947924E+02 0.  0.
        -12    1    1    2    0    0  0.98558874390E+00 -0.64762299282E+00  0.48347390318E-01  0.11803127480E+01  0.00000000000E+00 0.  1.
         11    1    3    3    0    0  0.19660369807E+02  0.21501522093E-01 -0.29294965402E+02  0.35280668948E+02  0.51100000000E-03 0. -1.
        -11    1    3    3    0    0 -0.45193675414E+00  0.12971947563E+02 -0.42977895824E+01  0.13672844106E+02  0.51100000000E-03 0.  1.
        -12    1    3    3    0    0 -0.20194021797E+02 -0.12345826092E+02  0.33544407594E+02  0.41054174198E+02  0.00000000000E+00 0.  1.
</event>
<event>
 7    1  0.4359248E-015  0.9000785E+02  0.7816164E-02  0.1186339E+00
        -11   -1    0    0    0    0  0.00000000000E+00  0.00000000000E+00  0.45593999997E+02  0.45594000000E+02  0.51100000000E-03 0.  1.
         11   -1    0    0    0    0 -0.00000000000E+00 -0.00000000000E+00 -0.45593999997E+02  0.45594000000E+02  0.51100000000E-03 0. -1.
    9900012    2    1    2    0    0  0.68906836198E+00 -0.75781844912E+00 -0.58622137235E+00  0.90007847676E+02  0.90000110466E+02 0.  0.
        -12    1    1    2    0    0 -0.68906836198E+00  0.75781844912E+00  0.58622137235E+00  0.11801523235E+01  0.00000000000E+00 0.  1.
         11    1    3    3    0    0  0.74726624979E+01  0.27450788843E+02 -0.11421334829E+02  0.30656702080E+02  0.51100000000E-03 0. -1.
        -11    1    3    3    0    0  0.10771004666E+02  0.89862392579E+01 -0.55402466112E+01  0.15081822512E+02  0.51100000000E-03 0.  1.
        -12    1    3    3    0    0 -0.17554598802E+02 -0.37194846550E+02  0.16375360068E+02  0.44269323084E+02  0.00000000000E+00 0.  1.
</event>
<event>
 7    1  0.4359248E-015  0.9000760E+02  0.7816164E-02  0.1186339E+00
        -11   -1    0    0    0    0  0.00000000000E+00  0.00000000000E+00  0.45593999997E+02  0.45594000000E+02  0.51100000000E-03 0.  1.
         11   -1    0    0    0    0 -0.00000000000E+00 -0.00000000000E+00 -0.45593999997E+02  0.45594000000E+02  0.51100000000E-03 0. -1.
    9900012    2    1    2    0    0  0.52747761593E-02  0.46702366778E+00 -0.10840684841E+01  0.90007600319E+02  0.89999859843E+02 0.  0.
        -12    1    1    2    0    0 -0.52747761593E-02 -0.46702366778E+00  0.10840684841E+01  0.11803996814E+01  0.00000000000E+00 0.  1.
         11    1    3    3    0    0 -0.56175586851E+01 -0.13847171508E+01 -0.11443824804E+02  0.12823241930E+02  0.51100000000E-03 0. -1.
        -11    1    3    3    0    0  0.17866404791E+02 -0.29730408408E+02  0.22338024576E+02  0.41256429154E+02  0.51100000000E-03 0.  1.
         12    1    3    3    0    0 -0.12243571330E+02  0.31582149227E+02 -0.11978268256E+02  0.35927929235E+02  0.00000000000E+00 0. -1.
</event>
<event>
 7    1  0.4359248E-015  0.9000773E+02  0.7816164E-02  0.1186339E+00
        -11   -1    0    0    0    0  0.00000000000E+00  0.00000000000E+00  0.45593999997E+02  0.45594000000E+02  0.51100000000E-03 0.  1.
         11   -1    0    0    0    0 -0.00000000000E+00 -0.00000000000E+00 -0.45593999997E+02  0.45594000000E+02  0.51100000000E-03 0. -1.
    9900012    2    1    2    0    0  0.42306088319E+00 -0.67930657003E+00 -0.86752466231E+00  0.90007730130E+02  0.89999991367E+02 0.  0.
        -12    1    1    2    0    0 -0.42306088319E+00  0.67930657003E+00  0.86752466231E+00  0.11802698703E+01  0.00000000000E+00 0.  1.
         11    1    3    3    0    0 -0.29901164169E+02 -0.12771955743E+02  0.21347615659E+02  0.38896313022E+02  0.51100000000E-03 0. -1.
        -11    1    3    3    0    0  0.39532881515E+01 -0.83075890143E+01  0.25873289953E+01  0.95571331492E+01  0.51100000000E-03 0.  1.
        -12    1    3    3    0    0  0.26370936900E+02  0.20400238187E+02 -0.24802469317E+02  0.41554283958E+02  0.00000000000E+00 0.  1.
</event>
<event>
 7    1  0.4359248E-015  0.9000773E+02  0.7816164E-02  0.1186339E+00
        -11   -1    0    0    0    0  0.00000000000E+00  0.00000000000E+00  0.45593999997E+02  0.45594000000E+02  0.51100000000E-03 0. -1.
         11   -1    0    0    0    0 -0.00000000000E+00 -0.00000000000E+00 -0.45593999997E+02  0.45594000000E+02  0.51100000000E-03 0.  1.
    9900012    2    1    2    0    0 -0.77049802548E+00  0.89399008551E+00 -0.12101221514E-01  0.90007732268E+02  0.89999993534E+02 0.  0.
        -12    1    1    2    0    0  0.77049802548E+00 -0.89399008551E+00  0.12101221514E-01  0.11802677323E+01  0.00000000000E+00 0.  1.
         11    1    3    3    0    0  0.13961354633E+01  0.47598597474E+01 -0.61298610264E+01  0.78854711661E+01  0.51100000000E-03 0. -1.
        -11    1    3    3    0    0 -0.11142591312E+02 -0.41134634841E+02 -0.29863414747E+01  0.42721584243E+02  0.51100000000E-03 0.  1.
         12    1    3    3    0    0  0.89759578231E+01  0.37268765179E+02  0.91041012795E+01  0.39400676858E+02  0.00000000000E+00 0. -1.
</event>
<event>
 7    1  0.4359248E-015  0.9000811E+02  0.7816164E-02  0.1186338E+00
        -11   -1    0    0    0    0  0.00000000000E+00  0.00000000000E+00  0.45593999997E+02  0.45594000000E+02  0.51100000000E-03 0.  1.
         11   -1    0    0    0    0 -0.00000000000E+00 -0.00000000000E+00 -0.45593999997E+02  0.45594000000E+02  0.51100000000E-03 0. -1.
    9900012    2    1    2    0    0  0.51100193292E-01  0.31787804550E+00 -0.11351086295E+01  0.90008114716E+02  0.90000381030E+02 0.  0.
        -12    1    1    2    0    0 -0.51100193292E-01 -0.31787804550E+00  0.11351086295E+01  0.11798852836E+01  0.00000000000E+00 0.  1.
         11    1    3    3    0    0  0.67290877483E+01  0.35944079712E+02  0.21471341890E+02  0.42406084600E+02  0.51100000000E-03 0. -1.
        -11    1    3    3    0    0 -0.75585314626E+01 -0.36230188687E+01  0.47956378893E-01  0.83821216687E+01  0.51100000000E-03 0.  1.
        -12    1    3    3    0    0  0.88054390756E+00 -0.32003182797E+02 -0.22654406899E+02  0.39219908448E+02  0.00000000000E+00 0.  1.
</event>
<event>
 7    1  0.4359248E-015  0.9000777E+02  0.7816164E-02  0.1186339E+00
        -11   -1    0    0    0    0  0.00000000000E+00  0.00000000000E+00  0.45593999997E+02  0.45594000000E+02  0.51100000000E-03 0. -1.
         11   -1    0    0    0    0 -0.00000000000E+00 -0.00000000000E+00 -0.45593999997E+02  0.45594000000E+02  0.51100000000E-03 0.  1.
    9900012    2    1    2    0    0  0.47308806296E+00  0.72219668877E+00  0.80471148696E+00  0.90007770806E+02  0.90000032581E+02 0.  0.
        -12    1    1    2    0    0 -0.47308806296E+00 -0.72219668877E+00 -0.80471148696E+00  0.11802291938E+01  0.00000000000E+00 0.  1.
         11    1    3    3    0    0 -0.28715988546E+01  0.54104372004E+01 -0.11222238042E+02  0.12785051334E+02  0.51100000000E-03 0. -1.
        -11    1    3    3    0    0 -0.11538964216E+02 -0.37175327792E+02 -0.16516058368E+01  0.38959985802E+02  0.51100000000E-03 0.  1.
         12    1    3    3    0    0  0.14883651133E+02  0.32487087280E+02  0.13678555366E+02  0.38262733670E+02  0.00000000000E+00 0. -1.
</event>
<event>
 7    1  0.4359248E-015  0.9000770E+02  0.7816164E-02  0.1186339E+00
        -11   -1    0    0    0    0  0.00000000000E+00  0.00000000000E+00  0.45593999997E+02  0.45594000000E+02  0.51100000000E-03 0.  1.
         11   -1    0    0    0    0 -0.00000000000E+00 -0.00000000000E+00 -0.45593999997E+02  0.45594000000E+02  0.51100000000E-03 0. -1.
    9900012    2    1    2    0    0 -0.98304882061E+00  0.60051054007E+00 -0.25712656181E+00  0.90007698360E+02  0.89999959178E+02 0.  0.
        -12    1    1    2    0    0  0.98304882061E+00 -0.60051054007E+00  0.25712656181E+00  0.11803016399E+01  0.00000000000E+00 0.  1.
         11    1    3    3    0    0  0.35977769554E+01 -0.79883556465E+01  0.41133435158E+01  0.96787096297E+01  0.51100000000E-03 0. -1.
        -11    1    3    3    0    0  0.28864159472E+02 -0.17422595412E+02  0.10679946192E+02  0.35365912739E+02  0.51100000000E-03 0.  1.
         12    1    3    3    0    0 -0.33444985248E+02  0.26011461599E+02 -0.15050416270E+02  0.44963075992E+02  0.00000000000E+00 0. -1.
</event>
<event>
 7    1  0.4359248E-015  0.9000808E+02  0.7816164E-02  0.1186338E+00
        -11   -1    0    0    0    0  0.00000000000E+00  0.00000000000E+00  0.45593999997E+02  0.45594000000E+02  0.51100000000E-03 0.  1.
         11   -1    0    0    0    0 -0.00000000000E+00 -0.00000000000E+00 -0.45593999997E+02  0.45594000000E+02  0.51100000000E-03 0. -1.
    9900012    2    1    2    0    0 -0.99509001950E+00 -0.63368760912E+00 -0.21294248864E-01  0.90008077300E+02  0.90000343120E+02 0.  0.
        -12    1    1    2    0    0  0.99509001950E+00  0.63368760912E+00  0.21294248864E-01  0.11799227000E+01  0.00000000000E+00 0.  1.
         11    1    3    3    0    0  0.94967548620E+01 -0.20506292157E+01 -0.93766438562E+00  0.97607708636E+01  0.51100000000E-03 0. -1.
        -11    1    3    3    0    0  0.32548480960E+02  0.13861808099E+02 -0.11537832788E+01  0.35396109287E+02  0.51100000000E-03 0.  1.
         12    1    3    3    0    0 -0.43040325841E+02 -0.12444866493E+02  0.20701534156E+01  0.44851197149E+02  0.00000000000E+00 0. -1.
</event>
<event>
 7    1  0.4359248E-015  0.9000774E+02  0.7816164E-02  0.1186339E+00
        -11   -1    0    0    0    0  0.00000000000E+00  0.00000000000E+00  0.45593999997E+02  0.45594000000E+02  0.51100000000E-03 0.  1.
         11   -1    0    0    0    0 -0.00000000000E+00 -0.00000000000E+00 -0.45593999997E+02  0.45594000000E+02  0.51100000000E-03 0. -1.
    9900012    2    1    2    0    0  0.10385869910E-01  0.11650276189E+01 -0.18869325573E+00  0.90007744789E+02  0.90000006220E+02 0.  0.
        -12    1    1    2    0    0 -0.10385869910E-01 -0.11650276189E+01  0.18869325573E+00  0.11802552113E+01  0.00000000000E+00 0.  1.
         11    1    3    3    0    0 -0.80750904747E+01  0.14367703180E+01 -0.51746748090E+01  0.96978685680E+01  0.51100000000E-03 0. -1.
        -11    1    3    3    0    0  0.27024051449E+01  0.39334856814E+02 -0.30279353188E+01  0.39543676444E+02  0.51100000000E-03 0.  1.
         12    1    3    3    0    0  0.53830711997E+01 -0.39606599514E+02  0.80139168721E+01  0.40766199776E+02  0.00000000000E+00 0. -1.
</event>
<event>
 7    1  0.4359248E-015  0.9000712E+02  0.7816164E-02  0.1186340E+00
        -11   -1    0    0    0    0  0.00000000000E+00  0.00000000000E+00  0.45593999997E+02  0.45594000000E+02  0.51100000000E-03 0.  1.
         11   -1    0    0    0    0 -0.00000000000E+00 -0.00000000000E+00 -0.45593999997E+02  0.45594000000E+02  0.51100000000E-03 0. -1.
    9900012    2    1    2    0    0 -0.53488249361E+00 -0.81007452550E+00 -0.67242741993E+00  0.90007119543E+02  0.89999372719E+02 0.  0.
        -12    1    1    2    0    0  0.53488249361E+00  0.81007452550E+00  0.67242741993E+00  0.11808804571E+01  0.00000000000E+00 0.  1.
         11    1    3    3    0    0 -0.52225222720E+01  0.52841033807E+01  0.70592776353E+01  0.10248409067E+02  0.51100000000E-03 0. -1.
        -11    1    3    3    0    0 -0.25333428308E+02  0.24034487066E+02 -0.12204680619E+02  0.36991801627E+02  0.51100000000E-03 0.  1.
         12    1    3    3    0    0  0.30021068086E+02 -0.30128664973E+02  0.44729755637E+01  0.42766908848E+02  0.00000000000E+00 0. -1.
</event>
<event>
 7    1  0.4359248E-015  0.9000775E+02  0.7816164E-02  0.1186339E+00
        -11   -1    0    0    0    0  0.00000000000E+00  0.00000000000E+00  0.45593999997E+02  0.45594000000E+02  0.51100000000E-03 0. -1.
         11   -1    0    0    0    0 -0.00000000000E+00 -0.00000000000E+00 -0.45593999997E+02  0.45594000000E+02  0.51100000000E-03 0.  1.
    9900012    2    1    2    0    0 -0.39203772088E+00  0.56003113861E+00  0.96211498576E+00  0.90007748460E+02  0.90000009940E+02 0.  0.
        -12    1    1    2    0    0  0.39203772088E+00 -0.56003113861E+00 -0.96211498576E+00  0.11802515396E+01  0.00000000000E+00 0.  1.
         11    1    3    3    0    0  0.33456066932E+02 -0.34259423423E+01  0.22598197510E+02  0.40518193771E+02  0.51100000000E-03 0. -1.
        -11    1    3    3    0    0 -0.10978404039E+02  0.10906414683E+01  0.67411894543E+01  0.12928978675E+02  0.51100000000E-03 0.  1.
        -12    1    3    3    0    0 -0.22869700613E+02  0.28953320126E+01 -0.28377271978E+02  0.36560576015E+02  0.00000000000E+00 0.  1.
</event>
<event>
 7    1  0.4359248E-015  0.9000751E+02  0.7816164E-02  0.1186340E+00
        -11   -1    0    0    0    0  0.00000000000E+00  0.00000000000E+00  0.45593999997E+02  0.45594000000E+02  0.51100000000E-03 0. -1.
         11   -1    0    0    0    0 -0.00000000000E+00 -0.00000000000E+00 -0.45593999997E+02  0.45594000000E+02  0.51100000000E-03 0.  1.
    9900012    2    1    2    0    0  0.47273708117E-01  0.11790329931E+01  0.34639056691E-01  0.90007511344E+02  0.89999769694E+02 0.  0.
        -12    1    1    2    0    0 -0.47273708117E-01 -0.11790329931E+01 -0.34639056691E-01  0.11804886558E+01  0.00000000000E+00 0.  1.
         11    1    3    3    0    0 -0.96681946629E+01 -0.39620506875E+02 -0.68084862962E+00  0.40788749775E+02  0.51100000000E-03 0. -1.
        -11    1    3    3    0    0 -0.77108555848E+01  0.47317591000E+01 -0.11421254775E+01  0.91187328559E+01  0.51100000000E-03 0.  1.
        -12    1    3    3    0    0  0.17426323956E+02  0.36067780768E+02  0.18576131638E+01  0.40100028713E+02  0.00000000000E+00 0.  1.
</event>
<event>
 7    1  0.4359248E-015  0.9000772E+02  0.7816164E-02  0.1186339E+00
        -11   -1    0    0    0    0  0.00000000000E+00  0.00000000000E+00  0.45593999997E+02  0.45594000000E+02  0.51100000000E-03 0.  1.
         11   -1    0    0    0    0 -0.00000000000E+00 -0.00000000000E+00 -0.45593999997E+02  0.45594000000E+02  0.51100000000E-03 0. -1.
    9900012    2    1    2    0    0 -0.96091403239E+00 -0.25381345803E+00 -0.63661868586E+00  0.90007720203E+02  0.89999981309E+02 0.  0.
        -12    1    1    2    0    0  0.96091403239E+00  0.25381345803E+00  0.63661868586E+00  0.11802797975E+01  0.00000000000E+00 0.  1.
         11    1    3    3    0    0  0.16586472425E+02  0.98978128171E+00  0.25259901059E+01  0.16806884326E+02  0.51100000000E-03 0. -1.
        -11    1    3    3    0    0  0.16578809046E+02  0.22817564746E+02  0.91770382721E+01  0.29660010149E+02  0.51100000000E-03 0.  1.
         12    1    3    3    0    0 -0.34126195504E+02 -0.24061159485E+02 -0.12339647064E+02  0.43540825727E+02  0.00000000000E+00 0. -1.
</event>
<event>
 7    1  0.4359248E-015  0.9000772E+02  0.7816164E-02  0.1186339E+00
        -11   -1    0    0    0    0  0.00000000000E+00  0.00000000000E+00  0.45593999997E+02  0.45594000000E+02  0.51100000000E-03 0. -1.
         11   -1    0    0    0    0 -0.00000000000E+00 -0.00000000000E+00 -0.45593999997E+02  0.45594000000E+02  0.51100000000E-03 0.  1.
    9900012    2    1    2    0    0  0.76964303117E+00  0.65289348821E+00  0.61192005282E+00  0.90007717638E+02  0.89999978711E+02 0.  0.
        -12    1    1    2    0    0 -0.76964303117E+00 -0.65289348821E+00 -0.61192005282E+00  0.11802823617E+01  0.00000000000E+00 0.  1.
         11    1    3    3    0    0 -0.26431994163E+01  0.18787200298E+02  0.35064686641E+02  0.39868253632E+02  0.51100000000E-03 0. -1.
        -11    1    3    3    0    0  0.53111790571E+01  0.62735240693E+01 -0.43914349008E+00  0.82315596633E+01  0.51100000000E-03 0.  1.
        -12    1    3    3    0    0 -0.18983366096E+01 -0.24407830879E+02 -0.34013623098E+02  0.41907904343E+02  0.00000000000E+00 0.  1.
</event>
<event>
 7    1  0.4359248E-015  0.9000764E+02  0.7816164E-02  0.1186339E+00
        -11   -1    0    0    0    0  0.00000000000E+00  0.00000000000E+00  0.45593999997E+02  0.45594000000E+02  0.51100000000E-03 0.  1.
         11   -1    0    0    0    0 -0.00000000000E+00 -0.00000000000E+00 -0.45593999997E+02  0.45594000000E+02  0.51100000000E-03 0. -1.
    9900012    2    1    2    0    0  0.71103171853E+00  0.80456873862E+00 -0.49025631773E+00  0.90007640641E+02  0.89999900697E+02 0.  0.
        -12    1    1    2    0    0 -0.71103171853E+00 -0.80456873862E+00  0.49025631773E+00  0.11803593593E+01  0.00000000000E+00 0.  1.
         11    1    3    3    0    0  0.12353036115E+01 -0.63364481357E+01 -0.46469531937E+01  0.79542896750E+01  0.51100000000E-03 0. -1.
        -11    1    3    3    0    0 -0.15999132856E+02  0.24101199762E+02 -0.29496511541E+02  0.41314456011E+02  0.51100000000E-03 0.  1.
         12    1    3    3    0    0  0.15474860963E+02 -0.16960182888E+02  0.33653208417E+02  0.40738894955E+02  0.00000000000E+00 0. -1.
</event>
<event>
 7    1  0.4359248E-015  0.9000780E+02  0.7816164E-02  0.1186339E+00
        -11   -1    0    0    0    0  0.00000000000E+00  0.00000000000E+00  0.45593999997E+02  0.45594000000E+02  0.51100000000E-03 0.  1.
         11   -1    0    0    0    0 -0.00000000000E+00 -0.00000000000E+00 -0.45593999997E+02  0.45594000000E+02  0.51100000000E-03 0. -1.
    9900012    2    1    2    0    0  0.83392228292E+00  0.81028059932E+00 -0.20221472119E+00  0.90007800094E+02  0.90000062256E+02 0.  0.
        -12    1    1    2    0    0 -0.83392228292E+00 -0.81028059932E+00  0.20221472119E+00  0.11801999055E+01  0.00000000000E+00 0.  1.
         11    1    3    3    0    0  0.12022223644E+02 -0.68727534656E+01 -0.35673855747E+02  0.38267382791E+02  0.51100000000E-03 0. -1.
        -11    1    3    3    0    0 -0.46871530880E+01 -0.39609155419E+01 -0.57534769894E+01  0.84119411392E+01  0.51100000000E-03 0.  1.
        -12    1    3    3    0    0 -0.65011482732E+01  0.11643949607E+02  0.41225118015E+02  0.43328476164E+02  0.00000000000E+00 0.  1.
</event>
<event>
 7    1  0.4359248E-015  0.9000772E+02  0.7816164E-02  0.1186339E+00
        -11   -1    0    0    0    0  0.00000000000E+00  0.00000000000E+00  0.45593999997E+02  0.45594000000E+02  0.51100000000E-03 0. -1.
         11   -1    0    0    0    0 -0.00000000000E+00 -0.00000000000E+00 -0.45593999997E+02  0.45594000000E+02  0.51100000000E-03 0.  1.
    9900012    2    1    2    0    0  0.88208958418E-01  0.74487812618E+00  0.91128873922E+00  0.90007715539E+02  0.89999976584E+02 0.  0.
        -12    1    1    2    0    0 -0.88208958418E-01 -0.74487812618E+00 -0.91128873922E+00  0.11802844612E+01  0.00000000000E+00 0.  1.
         11    1    3    3    0    0  0.19674437355E+01 -0.17542603072E+01 -0.86961310118E+01  0.90868563823E+01  0.51100000000E-03 0. -1.
        -11    1    3    3    0    0  0.43392481973E+01 -0.27172681280E+02 -0.23387343599E+02  0.36113038141E+02  0.51100000000E-03 0.  1.
         12    1    3    3    0    0 -0.62184829743E+01  0.29671819714E+02  0.32994763350E+02  0.44807821016E+02  0.00000000000E+00 0. -1.
</event>
<event>
 7    1  0.4359248E-015  0.9000825E+02  0.7816164E-02  0.1186338E+00
        -11   -1    0    0    0    0  0.00000000000E+00  0.00000000000E+00  0.45593999997E+02  0.45594000000E+02  0.51100000000E-03 0. -1.
         11   -1    0    0    0    0 -0.00000000000E+00 -0.00000000000E+00 -0.45593999997E+02  0.45594000000E+02  0.51100000000E-03 0.  1.
    9900012    2    1    2    0    0  0.39513773070E+00  0.54166139789E-01  0.11102888056E+01  0.90008250438E+02  0.90000518542E+02 0.  0.
        -12    1    1    2    0    0 -0.39513773070E+00 -0.54166139789E-01 -0.11102888056E+01  0.11797495619E+01  0.00000000000E+00 0.  1.
         11    1    3    3    0    0  0.23928796469E+01 -0.18089386435E+02 -0.11281267864E+02  0.21452710306E+02  0.51100000000E-03 0. -1.
        -11    1    3    3    0    0  0.76331263061E+01  0.25475407024E+02 -0.20454201814E+02  0.33550489599E+02  0.51100000000E-03 0.  1.
         12    1    3    3    0    0 -0.96308682223E+01 -0.73318544488E+01  0.32845758484E+02  0.35005050533E+02  0.00000000000E+00 0. -1.
</event>
<event>
 7    1  0.4359248E-015  0.9000774E+02  0.7816164E-02  0.1186339E+00
        -11   -1    0    0    0    0  0.00000000000E+00  0.00000000000E+00  0.45593999997E+02  0.45594000000E+02  0.51100000000E-03 0. -1.
         11   -1    0    0    0    0 -0.00000000000E+00 -0.00000000000E+00 -0.45593999997E+02  0.45594000000E+02  0.51100000000E-03 0.  1.
    9900012    2    1    2    0    0  0.88235858543E+00  0.51155199325E+00 -0.59394490599E+00  0.90007740424E+02  0.90000001798E+02 0.  0.
        -12    1    1    2    0    0 -0.88235858543E+00 -0.51155199325E+00  0.59394490599E+00  0.11802595759E+01  0.00000000000E+00 0.  1.
         11    1    3    3    0    0 -0.93947087570E+00 -0.64180333806E+00  0.83557818548E+01  0.84328884563E+01  0.51100000000E-03 0. -1.
        -11    1    3    3    0    0 -0.14037967589E+02  0.21026409302E+02  0.27357159649E+02  0.37250350421E+02  0.51100000000E-03 0.  1.
         12    1    3    3    0    0  0.15859797050E+02 -0.19873053971E+02 -0.36306886410E+02  0.44324501547E+02  0.00000000000E+00 0. -1.
</event>
<event>
 7    1  0.4359248E-015  0.9000766E+02  0.7816164E-02  0.1186339E+00
        -11   -1    0    0    0    0  0.00000000000E+00  0.00000000000E+00  0.45593999997E+02  0.45594000000E+02  0.51100000000E-03 0.  1.
         11   -1    0    0    0    0 -0.00000000000E+00 -0.00000000000E+00 -0.45593999997E+02  0.45594000000E+02  0.51100000000E-03 0. -1.
    9900012    2    1    2    0    0 -0.39430943788E-01  0.10432572508E+01 -0.55070160956E+00  0.90007655663E+02  0.89999915918E+02 0.  0.
        -12    1    1    2    0    0  0.39430943788E-01 -0.10432572508E+01  0.55070160956E+00  0.11803443368E+01  0.00000000000E+00 0.  1.
         11    1    3    3    0    0 -0.10818860048E+01 -0.12901723713E+02 -0.50632418840E+01  0.13901847745E+02  0.51100000000E-03 0. -1.
        -11    1    3    3    0    0 -0.24618732764E+02 -0.16255219852E+02 -0.13657144010E+02  0.32508948893E+02  0.51100000000E-03 0.  1.
         12    1    3    3    0    0  0.25661187825E+02  0.30200200815E+02  0.18169684285E+02  0.43596859025E+02  0.00000000000E+00 0. -1.
</event>
<event>
 7    1  0.4359248E-015  0.9000837E+02  0.7816164E-02  0.1186338E+00
        -11   -1    0    0    0    0  0.00000000000E+00  0.00000000000E+00  0.45593999997E+02  0.45594000000E+02  0.51100000000E-03 0. -1.
         11   -1    0    0    0    0 -0.00000000000E+00 -0.00000000000E+00 -0.45593999997E+02  0.45594000000E+02  0.51100000000E-03 0.  1.
    9900012    2    1    2    0    0  0.78192013148E+00  0.54117134398E+00  0.69803697158E+00  0.90008372462E+02  0.90000642176E+02 0.  0.
        -12    1    1    2    0    0 -0.78192013148E+00 -0.54117134398E+00 -0.69803697158E+00  0.11796275384E+01  0.00000000000E+00 0.  1.
         11    1    3    3    0    0 -0.30859718803E+00 -0.90420582789E+01 -0.39187641628E+01  0.98595518645E+01  0.51100000000E-03 0. -1.
        -11    1    3    3    0    0  0.37215401274E+02  0.91014252746E+01 -0.12324722870E+02  0.40245755405E+02  0.51100000000E-03 0.  1.
         12    1    3    3    0    0 -0.36124883955E+02  0.48180434823E+00  0.16941524004E+02  0.39903065192E+02  0.00000000000E+00 0. -1.
</event>
<event>
 7    1  0.4359248E-015  0.9000772E+02  0.7816164E-02  0.1186339E+00
        -11   -1    0    0    0    0  0.00000000000E+00  0.00000000000E+00  0.45593999997E+02  0.45594000000E+02  0.51100000000E-03 0. -1.
         11   -1    0    0    0    0 -0.00000000000E+00 -0.00000000000E+00 -0.45593999997E+02  0.45594000000E+02  0.51100000000E-03 0.  1.
    9900012    2    1    2    0    0 -0.81276507214E+00 -0.15819430811E+00  0.84109385407E+00  0.90007724027E+02  0.89999985184E+02 0.  0.
        -12    1    1    2    0    0  0.81276507214E+00  0.15819430811E+00 -0.84109385407E+00  0.11802759732E+01  0.00000000000E+00 0.  1.
         11    1    3    3    0    0  0.16107260922E+02  0.88115825241E+01  0.28482300732E+02  0.33887007779E+02  0.51100000000E-03 0. -1.
        -11    1    3    3    0    0 -0.14860829900E+02 -0.43729000601E+01  0.98076870658E+01  0.18334591517E+02  0.51100000000E-03 0.  1.
        -12    1    3    3    0    0 -0.20591960940E+01 -0.45968767722E+01 -0.37448893943E+02  0.37786124731E+02  0.00000000000E+00 0.  1.
</event>
<event>
 7    1  0.4359248E-015  0.9000766E+02  0.7816164E-02  0.1186339E+00
        -11   -1    0    0    0    0  0.00000000000E+00  0.00000000000E+00  0.45593999997E+02  0.45594000000E+02  0.51100000000E-03 0.  1.
         11   -1    0    0    0    0 -0.00000000000E+00 -0.00000000000E+00 -0.45593999997E+02  0.45594000000E+02  0.51100000000E-03 0. -1.
    9900012    2    1    2    0    0  0.85786022093E+00  0.47411947060E+00 -0.65764302231E+00  0.90007657772E+02  0.89999918054E+02 0.  0.
        -12    1    1    2    0    0 -0.85786022093E+00 -0.47411947060E+00  0.65764302231E+00  0.11803422283E+01  0.00000000000E+00 0.  1.
         11    1    3    3    0    0 -0.19552365453E+01 -0.45359565369E+01 -0.45673648534E+01  0.67274566975E+01  0.51100000000E-03 0. -1.
        -11    1    3    3    0    0 -0.33765421746E+02  0.16405868778E+02  0.19034815841E+02  0.42090146714E+02  0.51100000000E-03 0.  1.
         12    1    3    3    0    0  0.36578518512E+02 -0.11395792771E+02 -0.15125094010E+02  0.41190054360E+02  0.00000000000E+00 0. -1.
</event>
<event>
 7    1  0.4359248E-015  0.9000773E+02  0.7816164E-02  0.1186339E+00
        -11   -1    0    0    0    0  0.00000000000E+00  0.00000000000E+00  0.45593999997E+02  0.45594000000E+02  0.51100000000E-03 0.  1.
         11   -1    0    0    0    0 -0.00000000000E+00 -0.00000000000E+00 -0.45593999997E+02  0.45594000000E+02  0.51100000000E-03 0. -1.
    9900012    2    1    2    0    0  0.89764726485E+00 -0.74124608468E+00  0.19449759827E+00  0.90007726436E+02  0.89999987625E+02 0.  0.
        -12    1    1    2    0    0 -0.89764726485E+00  0.74124608468E+00 -0.19449759827E+00  0.11802735640E+01  0.00000000000E+00 0.  1.
         11    1    3    3    0    0 -0.79432367052E+01 -0.34698494993E+01  0.41743065663E+00  0.86780823640E+01  0.51100000000E-03 0. -1.
        -11    1    3    3    0    0 -0.28937954039E+02  0.18286030302E+02  0.15467479197E+02  0.37563639349E+02  0.51100000000E-03 0.  1.
         12    1    3    3    0    0  0.37778838009E+02 -0.15557426887E+02 -0.15690412255E+02  0.43766004723E+02  0.00000000000E+00 0. -1.
</event>
<event>
 7    1  0.4359248E-015  0.9000779E+02  0.7816164E-02  0.1186339E+00
        -11   -1    0    0    0    0  0.00000000000E+00  0.00000000000E+00  0.45593999997E+02  0.45594000000E+02  0.51100000000E-03 0.  1.
         11   -1    0    0    0    0 -0.00000000000E+00 -0.00000000000E+00 -0.45593999997E+02  0.45594000000E+02  0.51100000000E-03 0. -1.
    9900012    2    1    2    0    0  0.44284792900E+00  0.10577204927E+01  0.27931253276E+00  0.90007787129E+02  0.90000049120E+02 0.  0.
        -12    1    1    2    0    0 -0.44284792900E+00 -0.10577204927E+01 -0.27931253276E+00  0.11802128706E+01  0.00000000000E+00 0.  1.
         11    1    3    3    0    0 -0.13809750202E+02 -0.34123906169E+02 -0.35107609867E+01  0.36979394476E+02  0.51100000000E-03 0. -1.
        -11    1    3    3    0    0  0.55180294771E+01 -0.61524780726E+01 -0.52955912265E+01  0.98155449387E+01  0.51100000000E-03 0.  1.
        -12    1    3    3    0    0  0.87345686536E+01  0.41334104734E+02  0.90856647459E+01  0.43212847715E+02  0.00000000000E+00 0.  1.
</event>
<event>
 7    1  0.4359248E-015  0.9000770E+02  0.7816164E-02  0.1186339E+00
        -11   -1    0    0    0    0  0.00000000000E+00  0.00000000000E+00  0.45593999997E+02  0.45594000000E+02  0.51100000000E-03 0.  1.
         11   -1    0    0    0    0 -0.00000000000E+00 -0.00000000000E+00 -0.45593999997E+02  0.45594000000E+02  0.51100000000E-03 0. -1.
    9900012    2    1    2    0    0  0.33753829853E+00  0.37359926408E+00 -0.10675203467E+01  0.90007699952E+02  0.89999960791E+02 0.  0.
        -12    1    1    2    0    0 -0.33753829853E+00 -0.37359926408E+00  0.10675203467E+01  0.11803000482E+01  0.00000000000E+00 0.  1.
         11    1    3    3    0    0  0.21701336273E+02 -0.17506867452E+02  0.47609827333E+01  0.28286133720E+02  0.51100000000E-03 0. -1.
        -11    1    3    3    0    0 -0.18258304223E+02 -0.30619529348E+01  0.20706240938E+02  0.27775702384E+02  0.51100000000E-03 0.  1.
        -12    1    3    3    0    0 -0.31054937507E+01  0.20942419651E+02 -0.26534744018E+02  0.33945863848E+02  0.00000000000E+00 0.  1.
</event>
<event>
 7    1  0.4359248E-015  0.9000774E+02  0.7816164E-02  0.1186339E+00
        -11   -1    0    0    0    0  0.00000000000E+00  0.00000000000E+00  0.45593999997E+02  0.45594000000E+02  0.51100000000E-03 0.  1.
         11   -1    0    0    0    0 -0.00000000000E+00 -0.00000000000E+00 -0.45593999997E+02  0.45594000000E+02  0.51100000000E-03 0. -1.
    9900012    2    1    2    0    0  0.63914613946E+00  0.10896892548E+00  0.98622684424E+00  0.90007735029E+02  0.89999996331E+02 0.  0.
        -12    1    1    2    0    0 -0.63914613946E+00 -0.10896892548E+00 -0.98622684424E+00  0.11802649714E+01  0.00000000000E+00 0.  1.
         11    1    3    3    0    0 -0.62693595458E+01  0.71290460234E+01 -0.36252624699E+01  0.10162218978E+02  0.51100000000E-03 0. -1.
        -11    1    3    3    0    0  0.11627699382E+02  0.33624393480E+02 -0.90437575899E+01  0.36709573430E+02  0.51100000000E-03 0.  1.
         12    1    3    3    0    0 -0.47191936968E+01 -0.40644470578E+02  0.13655246904E+02  0.43135942620E+02  0.00000000000E+00 0. -1.
</event>
<event>
 7    1  0.4359248E-015  0.9000784E+02  0.7816164E-02  0.1186339E+00
        -11   -1    0    0    0    0  0.00000000000E+00  0.00000000000E+00  0.45593999997E+02  0.45594000000E+02  0.51100000000E-03 0. -1.
         11   -1    0    0    0    0 -0.00000000000E+00 -0.00000000000E+00 -0.45593999997E+02  0.45594000000E+02  0.51100000000E-03 0.  1.
    9900012    2    1    2    0    0 -0.50199710718E+00  0.76172897110E+00 -0.74868821108E+00  0.90007844858E+02  0.90000107610E+02 0.  0.
        -12    1    1    2    0    0  0.50199710718E+00 -0.76172897110E+00  0.74868821108E+00  0.11801551417E+01  0.00000000000E+00 0.  1.
         11    1    3    3    0    0  0.41404553516E+02  0.11744043428E+02  0.84017173475E+01  0.43850296037E+02  0.51100000000E-03 0. -1.
        -11    1    3    3    0    0 -0.52357876774E+01 -0.63549061605E+01 -0.86994870949E+00  0.82798016842E+01  0.51100000000E-03 0.  1.
        -12    1    3    3    0    0 -0.36670762946E+02 -0.46274082964E+01 -0.82804568491E+01  0.37877747137E+02  0.00000000000E+00 0.  1.
</event>
<event>
 7    1  0.4359248E-015  0.9000771E+02  0.7816164E-02  0.1186339E+00
        -11   -1    0    0    0    0  0.00000000000E+00  0.00000000000E+00  0.45593999997E+02  0.45594000000E+02  0.51100000000E-03 0.  1.
         11   -1    0    0    0    0 -0.00000000000E+00 -0.00000000000E+00 -0.45593999997E+02  0.45594000000E+02  0.51100000000E-03 0. -1.
    9900012    2    1    2    0    0  0.10484940759E+01 -0.13409105296E+00 -0.52513744257E+00  0.90007707845E+02  0.89999968789E+02 0.  0.
        -12    1    1    2    0    0 -0.10484940759E+01  0.13409105296E+00  0.52513744257E+00  0.11802921550E+01  0.00000000000E+00 0.  1.
         11    1    3    3    0    0 -0.20173680379E+02  0.32637360662E+02 -0.28259169188E+01  0.38472854037E+02  0.51100000000E-03 0. -1.
        -11    1    3    3    0    0  0.15634506775E+01  0.36306284680E+01 -0.79799855796E+01  0.89053922544E+01  0.51100000000E-03 0.  1.
        -12    1    3    3    0    0  0.19658723777E+02 -0.36402080183E+02  0.10280765056E+02  0.42629461554E+02  0.00000000000E+00 0.  1.
</event>
<event>
 7    1  0.4359248E-015  0.9000770E+02  0.7816164E-02  0.1186339E+00
        -11   -1    0    0    0    0  0.00000000000E+00  0.00000000000E+00  0.45593999997E+02  0.45594000000E+02  0.51100000000E-03 0. -1.
         11   -1    0    0    0    0 -0.00000000000E+00 -0.00000000000E+00 -0.45593999997E+02  0.45594000000E+02  0.51100000000E-03 0.  1.
    9900012    2    1    2    0    0 -0.10027299379E+01 -0.30015561717E+00 -0.54548486937E+00  0.90007697299E+02  0.89999958103E+02 0.  0.
        -12    1    1    2    0    0  0.10027299379E+01  0.30015561717E+00  0.54548486937E+00  0.11803027009E+01  0.00000000000E+00 0.  1.
         11    1    3    3    0    0 -0.17123929209E+02  0.52180498307E+01  0.19025424646E+02  0.26123242119E+02  0.51100000000E-03 0. -1.
        -11    1    3    3    0    0 -0.21616677622E+02  0.29582172229E+00 -0.15833517485E+01  0.21676606398E+02  0.51100000000E-03 0.  1.
        -12    1    3    3    0    0  0.37737876893E+02 -0.58140271701E+01 -0.17987557767E+02  0.42207848782E+02  0.00000000000E+00 0.  1.
</event>
<event>
 7    1  0.4359248E-015  0.9000774E+02  0.7816164E-02  0.1186339E+00
        -11   -1    0    0    0    0  0.00000000000E+00  0.00000000000E+00  0.45593999997E+02  0.45594000000E+02  0.51100000000E-03 0.  1.
         11   -1    0    0    0    0 -0.00000000000E+00 -0.00000000000E+00 -0.45593999997E+02  0.45594000000E+02  0.51100000000E-03 0. -1.
    9900012    2    1    2    0    0 -0.11105159424E+01  0.30527240041E+00  0.25800780488E+00  0.90007743704E+02  0.90000005121E+02 0.  0.
        -12    1    1    2    0    0  0.11105159424E+01 -0.30527240041E+00 -0.25800780488E+00  0.11802562960E+01  0.00000000000E+00 0.  1.
         11    1    3    3    0    0 -0.39872257899E+01  0.95547440566E+01 -0.11712517807E+02  0.15632471882E+02  0.51100000000E-03 0. -1.
        -11    1    3    3    0    0 -0.33223908090E+02  0.53394031794E+01  0.11082234827E+02  0.35428141697E+02  0.51100000000E-03 0.  1.
         12    1    3    3    0    0  0.36100617938E+02 -0.14588874836E+02  0.88829078524E+00  0.38947130125E+02  0.00000000000E+00 0. -1.
</event>
<event>
 7    1  0.4359248E-015  0.9000806E+02  0.7816164E-02  0.1186338E+00
        -11   -1    0    0    0    0  0.00000000000E+00  0.00000000000E+00  0.45593999997E+02  0.45594000000E+02  0.51100000000E-03 0. -1.
         11   -1    0    0    0    0 -0.00000000000E+00 -0.00000000000E+00 -0.45593999997E+02  0.45594000000E+02  0.51100000000E-03 0.  1.
    9900012    2    1    2    0    0  0.10191040838E+01  0.15160517313E+00 -0.57507518853E+00  0.90008055622E+02  0.90000321156E+02 0.  0.
        -12    1    1    2    0    0 -0.10191040838E+01 -0.15160517313E+00  0.57507518853E+00  0.11799443777E+01  0.00000000000E+00 0.  1.
         11    1    3    3    0    0  0.39524059002E+01  0.12055383113E+02  0.41260498465E+02  0.43166914509E+02  0.51100000000E-03 0. -1.
        -11    1    3    3    0    0 -0.58941933278E+01 -0.53191846892E+01 -0.51765865777E+01  0.94779897447E+01  0.51100000000E-03 0.  1.
        -12    1    3    3    0    0  0.29608915114E+01 -0.65845932505E+01 -0.36658987075E+02  0.37363151369E+02  0.00000000000E+00 0.  1.
</event>
<event>
 7    1  0.4359248E-015  0.9000673E+02  0.7816164E-02  0.1186341E+00
        -11   -1    0    0    0    0  0.00000000000E+00  0.00000000000E+00  0.45593999997E+02  0.45594000000E+02  0.51100000000E-03 0.  1.
         11   -1    0    0    0    0 -0.00000000000E+00 -0.00000000000E+00 -0.45593999997E+02  0.45594000000E+02  0.51100000000E-03 0. -1.
    9900012    2    1    2    0    0 -0.61546701079E+00 -0.97113525294E-01 -0.10035733504E+01  0.90006733668E+02  0.89998981746E+02 0.  0.
        -12    1    1    2    0    0  0.61546701079E+00  0.97113525294E-01  0.10035733504E+01  0.11812663322E+01  0.00000000000E+00 0.  1.
         11    1    3    3    0    0 -0.22456530134E+02 -0.15688842583E+02 -0.23377030818E+02  0.36012790747E+02  0.51100000000E-03 0. -1.
        -11    1    3    3    0    0 -0.73411190161E+01 -0.71565545811E+01 -0.88431661172E+00  0.10290302134E+02  0.51100000000E-03 0.  1.
        -12    1    3    3    0    0  0.29182182139E+02  0.22748283638E+02  0.23257774080E+02  0.43703640787E+02  0.00000000000E+00 0.  1.
</event>
<event>
 7    1  0.4359248E-015  0.9000774E+02  0.7816164E-02  0.1186339E+00
        -11   -1    0    0    0    0  0.00000000000E+00  0.00000000000E+00  0.45593999997E+02  0.45594000000E+02  0.51100000000E-03 0. -1.
         11   -1    0    0    0    0 -0.00000000000E+00 -0.00000000000E+00 -0.45593999997E+02  0.45594000000E+02  0.51100000000E-03 0.  1.
    9900012    2    1    2    0    0 -0.60269418944E+00  0.10118502508E+01  0.77086970176E-01  0.90007735785E+02  0.89999997097E+02 0.  0.
        -12    1    1    2    0    0  0.60269418944E+00 -0.10118502508E+01 -0.77086970176E-01  0.11802642149E+01  0.00000000000E+00 0.  1.
         11    1    3    3    0    0 -0.54810900260E+01 -0.15561189034E+02  0.59828894079E+01  0.17549584552E+02  0.51100000000E-03 0. -1.
        -11    1    3    3    0    0  0.12401996517E+02  0.23789201951E+02 -0.33524496250E+02  0.42937483579E+02  0.51100000000E-03 0.  1.
         12    1    3    3    0    0 -0.75236006801E+01 -0.72161626665E+01  0.27618693812E+02  0.29520667653E+02  0.00000000000E+00 0. -1.
</event>
<event>
 7    1  0.4359248E-015  0.9000739E+02  0.7816164E-02  0.1186340E+00
        -11   -1    0    0    0    0  0.00000000000E+00  0.00000000000E+00  0.45593999997E+02  0.45594000000E+02  0.51100000000E-03 0.  1.
         11   -1    0    0    0    0 -0.00000000000E+00 -0.00000000000E+00 -0.45593999997E+02  0.45594000000E+02  0.51100000000E-03 0. -1.
    9900012    2    1    2    0    0  0.97917689682E+00 -0.65914911235E+00 -0.24172161713E-01  0.90007386075E+02  0.89999642770E+02 0.  0.
        -12    1    1    2    0    0 -0.97917689682E+00  0.65914911235E+00  0.24172161713E-01  0.11806139255E+01  0.00000000000E+00 0.  1.
         11    1    3    3    0    0 -0.49392136562E+00 -0.85370640093E+01  0.44029889789E+01  0.96183019511E+01  0.51100000000E-03 0. -1.
        -11    1    3    3    0    0 -0.11749188675E+02 -0.11990780329E+02  0.32408054128E+02  0.36498002960E+02  0.51100000000E-03 0.  1.
         12    1    3    3    0    0  0.13222286938E+02  0.19868695225E+02 -0.36835215269E+02  0.43891081164E+02  0.00000000000E+00 0. -1.
</event>
<event>
 7    1  0.4359248E-015  0.9000772E+02  0.7816164E-02  0.1186339E+00
        -11   -1    0    0    0    0  0.00000000000E+00  0.00000000000E+00  0.45593999997E+02  0.45594000000E+02  0.51100000000E-03 0.  1.
         11   -1    0    0    0    0 -0.00000000000E+00 -0.00000000000E+00 -0.45593999997E+02  0.45594000000E+02  0.51100000000E-03 0. -1.
    9900012    2    1    2    0    0 -0.10968433402E+01  0.66818418038E-02 -0.43584441669E+00  0.90007716002E+02  0.89999977053E+02 0.  0.
        -12    1    1    2    0    0  0.10968433402E+01 -0.66818418038E-02  0.43584441669E+00  0.11802839978E+01  0.00000000000E+00 0.  1.
         11    1    3    3    0    0 -0.51850761947E+01  0.51230922094E+01  0.52315319424E+01  0.89721800950E+01  0.51100000000E-03 0. -1.
        -11    1    3    3    0    0 -0.99320341212E+01  0.35654324170E+02  0.27259857818E+01  0.37112088765E+02  0.51100000000E-03 0.  1.
         12    1    3    3    0    0  0.14020266976E+02 -0.40770734537E+02 -0.83933621409E+01  0.43923447142E+02  0.00000000000E+00 0. -1.
</event>
<event>
 7    1  0.4359248E-015  0.9000772E+02  0.7816164E-02  0.1186339E+00
        -11   -1    0    0    0    0  0.00000000000E+00  0.00000000000E+00  0.45593999997E+02  0.45594000000E+02  0.51100000000E-03 0.  1.
         11   -1    0    0    0    0 -0.00000000000E+00 -0.00000000000E+00 -0.45593999997E+02  0.45594000000E+02  0.51100000000E-03 0. -1.
    9900012    2    1    2    0    0  0.70202128620E+00  0.86035777637E+00  0.40001399513E+00  0.90007720124E+02  0.89999981230E+02 0.  0.
        -12    1    1    2    0    0 -0.70202128620E+00 -0.86035777637E+00 -0.40001399513E+00  0.11802798761E+01  0.00000000000E+00 0.  1.
         11    1    3    3    0    0 -0.28298668410E+01 -0.77374883869E+01  0.77777456593E+01  0.11330057400E+02  0.51100000000E-03 0. -1.
        -11    1    3    3    0    0  0.11818408114E+02 -0.16741655084E+02  0.27801251457E+02  0.34537912041E+02  0.51100000000E-03 0.  1.
         12    1    3    3    0    0 -0.82865199863E+01  0.25339501247E+02 -0.35178983122E+02  0.44139750683E+02  0.00000000000E+00 0. -1.
</event>
<event>
 7    1  0.4359248E-015  0.9000777E+02  0.7816164E-02  0.1186339E+00
        -11   -1    0    0    0    0  0.00000000000E+00  0.00000000000E+00  0.45593999997E+02  0.45594000000E+02  0.51100000000E-03 0. -1.
         11   -1    0    0    0    0 -0.00000000000E+00 -0.00000000000E+00 -0.45593999997E+02  0.45594000000E+02  0.51100000000E-03 0.  1.
    9900012    2    1    2    0    0 -0.94674911859E+00 -0.73165494252E-01  0.70089702432E+00  0.90007769632E+02  0.90000031391E+02 0.  0.
        -12    1    1    2    0    0  0.94674911859E+00  0.73165494252E-01 -0.70089702432E+00  0.11802303681E+01  0.00000000000E+00 0.  1.
         11    1    3    3    0    0  0.26340968930E+02  0.26124886667E+02 -0.12540053629E+02  0.39161323941E+02  0.51100000000E-03 0. -1.
        -11    1    3    3    0    0 -0.39102279597E+01  0.69358841677E+01 -0.63457874023E+00  0.79874315223E+01  0.51100000000E-03 0.  1.
        -12    1    3    3    0    0 -0.23377490089E+02 -0.33133936329E+02  0.13875529394E+02  0.42859014168E+02  0.00000000000E+00 0.  1.
</event>
<event>
 7    1  0.4359248E-015  0.9000763E+02  0.7816164E-02  0.1186339E+00
        -11   -1    0    0    0    0  0.00000000000E+00  0.00000000000E+00  0.45593999997E+02  0.45594000000E+02  0.51100000000E-03 0.  1.
         11   -1    0    0    0    0 -0.00000000000E+00 -0.00000000000E+00 -0.45593999997E+02  0.45594000000E+02  0.51100000000E-03 0. -1.
    9900012    2    1    2    0    0  0.81723885656E+00  0.85151161696E+00 -0.18136280473E-01  0.90007627047E+02  0.89999886924E+02 0.  0.
        -12    1    1    2    0    0 -0.81723885656E+00 -0.85151161696E+00  0.18136280473E-01  0.11803729526E+01  0.00000000000E+00 0.  1.
         11    1    3    3    0    0  0.31122796930E+01  0.11738166045E+01  0.64189024338E+01  0.72295531690E+01  0.51100000000E-03 0. -1.
        -11    1    3    3    0    0 -0.27548893546E+01 -0.40255427184E+02  0.63476356350E+01  0.40845823673E+02  0.51100000000E-03 0.  1.
         12    1    3    3    0    0  0.45984851815E+00  0.39933122197E+02 -0.12784674349E+02  0.41932250205E+02  0.00000000000E+00 0. -1.
</event>
<event>
 7    1  0.4359248E-015  0.9000776E+02  0.7816164E-02  0.1186339E+00
        -11   -1    0    0    0    0  0.00000000000E+00  0.00000000000E+00  0.45593999997E+02  0.45594000000E+02  0.51100000000E-03 0. -1.
         11   -1    0    0    0    0 -0.00000000000E+00 -0.00000000000E+00 -0.45593999997E+02  0.45594000000E+02  0.51100000000E-03 0.  1.
    9900012    2    1    2    0    0  0.70621558682E+00  0.57859085355E+00  0.74797193551E+00  0.90007758564E+02  0.90000020177E+02 0.  0.
        -12    1    1    2    0    0 -0.70621558682E+00 -0.57859085355E+00 -0.74797193551E+00  0.11802414360E+01  0.00000000000E+00 0.  1.
         11    1    3    3    0    0 -0.66794382131E+00 -0.97019166782E+01 -0.59707148655E+01  0.11411519287E+02  0.51100000000E-03 0. -1.
        -11    1    3    3    0    0  0.24955525097E+01 -0.81248833419E+01 -0.33388452669E+02  0.34453305843E+02  0.51100000000E-03 0.  1.
         12    1    3    3    0    0 -0.11213931015E+01  0.18405390874E+02  0.40107139470E+02  0.44142933434E+02  0.00000000000E+00 0. -1.
</event>
<event>
 7    1  0.4359248E-015  0.9000780E+02  0.7816164E-02  0.1186339E+00
        -11   -1    0    0    0    0  0.00000000000E+00  0.00000000000E+00  0.45593999997E+02  0.45594000000E+02  0.51100000000E-03 0.  1.
         11   -1    0    0    0    0 -0.00000000000E+00 -0.00000000000E+00 -0.45593999997E+02  0.45594000000E+02  0.51100000000E-03 0. -1.
    9900012    2    1    2    0    0 -0.91670401591E+00 -0.55272085309E+00 -0.49702614791E+00  0.90007795956E+02  0.90000058062E+02 0.  0.
        -12    1    1    2    0    0  0.91670401591E+00  0.55272085309E+00  0.49702614791E+00  0.11802040442E+01  0.00000000000E+00 0.  1.
         11    1    3    3    0    0 -0.57794147983E+01 -0.11453828735E+02 -0.53219661279E+01  0.13889389901E+02  0.51100000000E-03 0. -1.
        -11    1    3    3    0    0  0.35755936347E+02 -0.79010094067E+01  0.13325599261E+02  0.38967737035E+02  0.51100000000E-03 0.  1.
         12    1    3    3    0    0 -0.30893225565E+02  0.18802117289E+02 -0.85006592814E+01  0.37150669019E+02  0.00000000000E+00 0. -1.
</event>
<event>
 7    1  0.4359248E-015  0.9000764E+02  0.7816164E-02  0.1186339E+00
        -11   -1    0    0    0    0  0.00000000000E+00  0.00000000000E+00  0.45593999997E+02  0.45594000000E+02  0.51100000000E-03 0.  1.
         11   -1    0    0    0    0 -0.00000000000E+00 -0.00000000000E+00 -0.45593999997E+02  0.45594000000E+02  0.51100000000E-03 0. -1.
    9900012    2    1    2    0    0  0.11768135467E+00 -0.72170333572E+00 -0.92657287214E+00  0.90007643319E+02  0.89999903411E+02 0.  0.
        -12    1    1    2    0    0 -0.11768135467E+00  0.72170333572E+00  0.92657287214E+00  0.11803566806E+01  0.00000000000E+00 0.  1.
         11    1    3    3    0    0 -0.14100030282E+02  0.16617275125E+02 -0.30872903210E+02  0.37789956859E+02  0.51100000000E-03 0. -1.
        -11    1    3    3    0    0 -0.46333476678E+01 -0.63568076920E+01 -0.61877005393E+01  0.10008224262E+02  0.51100000000E-03 0.  1.
        -12    1    3    3    0    0  0.18851059305E+02 -0.10982170768E+02  0.36134030877E+02  0.42209462199E+02  0.00000000000E+00 0.  1.
</event>
<event>
 7    1  0.4359248E-015  0.9000770E+02  0.7816164E-02  0.1186339E+00
        -11   -1    0    0    0    0  0.00000000000E+00  0.00000000000E+00  0.45593999997E+02  0.45594000000E+02  0.51100000000E-03 0. -1.
         11   -1    0    0    0    0 -0.00000000000E+00 -0.00000000000E+00 -0.45593999997E+02  0.45594000000E+02  0.51100000000E-03 0.  1.
    9900012    2    1    2    0    0 -0.17156487015E+00 -0.11580217487E+01  0.15055884734E+00  0.90007696293E+02  0.89999957084E+02 0.  0.
        -12    1    1    2    0    0  0.17156487015E+00  0.11580217487E+01 -0.15055884734E+00  0.11803037073E+01  0.00000000000E+00 0.  1.
         11    1    3    3    0    0 -0.43503783087E+01  0.75174333642E+00  0.76030401186E+01  0.87918785694E+01  0.51100000000E-03 0. -1.
        -11    1    3    3    0    0 -0.19948527106E+01  0.17695380891E+02 -0.39394338059E+02  0.43232161797E+02  0.51100000000E-03 0.  1.
         12    1    3    3    0    0  0.61736661491E+01 -0.19605145976E+02  0.31941856788E+02  0.37983655927E+02  0.00000000000E+00 0. -1.
</event>
<event>
 7    1  0.4359248E-015  0.9000774E+02  0.7816164E-02  0.1186339E+00
        -11   -1    0    0    0    0  0.00000000000E+00  0.00000000000E+00  0.45593999997E+02  0.45594000000E+02  0.51100000000E-03 0.  1.
         11   -1    0    0    0    0 -0.00000000000E+00 -0.00000000000E+00 -0.45593999997E+02  0.45594000000E+02  0.51100000000E-03 0. -1.
    9900012    2    1    2    0    0 -0.21454759572E+00  0.91656862707E+00 -0.71195750052E+00  0.90007740621E+02  0.90000001997E+02 0.  0.
        -12    1    1    2    0    0  0.21454759572E+00 -0.91656862707E+00  0.71195750052E+00  0.11802593789E+01  0.00000000000E+00 0.  1.
         11    1    3    3    0    0 -0.86011754831E+01  0.70495396408E+01  0.25993411545E+01  0.11420718171E+02  0.51100000000E-03 0. -1.
        -11    1    3    3    0    0  0.14849367164E+01  0.10474188595E+02  0.34839294822E+02  0.36410027845E+02  0.51100000000E-03 0.  1.
         12    1    3    3    0    0  0.69016911709E+01 -0.16607159608E+02 -0.38150593477E+02  0.42176994605E+02  0.00000000000E+00 0. -1.
</event>
<event>
 7    1  0.4359248E-015  0.9000797E+02  0.7816164E-02  0.1186339E+00
        -11   -1    0    0    0    0  0.00000000000E+00  0.00000000000E+00  0.45593999997E+02  0.45594000000E+02  0.51100000000E-03 0.  1.
         11   -1    0    0    0    0 -0.00000000000E+00 -0.00000000000E+00 -0.45593999997E+02  0.45594000000E+02  0.51100000000E-03 0. -1.
    9900012    2    1    2    0    0  0.10341893902E+01 -0.39049106777E+00  0.41283296437E+00  0.90007973718E+02  0.90000238171E+02 0.  0.
        -12    1    1    2    0    0 -0.10341893902E+01  0.39049106777E+00 -0.41283296437E+00  0.11800262816E+01  0.00000000000E+00 0.  1.
         11    1    3    3    0    0  0.85306500128E+00 -0.64364472645E+01 -0.71887304712E+00  0.65324078259E+01  0.51100000000E-03 0. -1.
        -11    1    3    3    0    0  0.25308889976E+02  0.56201026394E+01  0.33586201316E+02  0.42428273410E+02  0.51100000000E-03 0.  1.
         12    1    3    3    0    0 -0.25127765587E+02  0.42585355726E+00 -0.32454495304E+02  0.41047292482E+02  0.00000000000E+00 0. -1.
</event>
<event>
 7    1  0.4647869E-015  0.9000773E+02  0.7816164E-02  0.1186339E+00
        -11   -1    0    0    0    0  0.00000000000E+00  0.00000000000E+00  0.45593999997E+02  0.45594000000E+02  0.51100000000E-03 0. -1.
         11   -1    0    0    0    0 -0.00000000000E+00 -0.00000000000E+00 -0.45593999997E+02  0.45594000000E+02  0.51100000000E-03 0.  1.
    9900012    2    1    2    0    0  0.37911602757E+00 -0.34804722190E-01  0.11171834756E+01  0.90007729163E+02  0.89999990388E+02 0.  0.
        -12    1    1    2    0    0 -0.37911602757E+00  0.34804722190E-01 -0.11171834756E+01  0.11802708372E+01  0.00000000000E+00 0.  1.
         11    1    3    3    0    0  0.33853357001E+02  0.27025282735E+01  0.19219529098E+02  0.39022349216E+02  0.51100000000E-03 0. -1.
        -11    1    3    3    0    0  0.20103202644E+01 -0.80351257965E+01  0.36250893376E+01  0.90413443191E+01  0.51100000000E-03 0.  1.
        -12    1    3    3    0    0 -0.35484561238E+02  0.52977928008E+01 -0.21727434960E+02  0.41944035628E+02  0.00000000000E+00 0.  1.
</event>
<event>
 7    1  0.4359248E-015  0.9000775E+02  0.7816164E-02  0.1186339E+00
        -11   -1    0    0    0    0  0.00000000000E+00  0.00000000000E+00  0.45593999997E+02  0.45594000000E+02  0.51100000000E-03 0.  1.
         11   -1    0    0    0    0 -0.00000000000E+00 -0.00000000000E+00 -0.45593999997E+02  0.45594000000E+02  0.51100000000E-03 0. -1.
    9900012    2    1    2    0    0 -0.74760314120E+00 -0.90679014609E+00  0.10866759450E+00  0.90007751097E+02  0.90000012612E+02 0.  0.
        -12    1    1    2    0    0  0.74760314120E+00  0.90679014609E+00 -0.10866759450E+00  0.11802489025E+01  0.00000000000E+00 0.  1.
         11    1    3    3    0    0  0.35669703912E+01 -0.38430667308E+02 -0.86165666066E+01  0.39545981943E+02  0.51100000000E-03 0. -1.
        -11    1    3    3    0    0  0.22032353243E+01  0.24361918625E+01  0.14005336022E+02  0.14385364577E+02  0.51100000000E-03 0.  1.
        -12    1    3    3    0    0 -0.65178088567E+01  0.35087685299E+02 -0.52801018205E+01  0.36076404577E+02  0.00000000000E+00 0.  1.
</event>
<event>
 7    1  0.4359248E-015  0.9000766E+02  0.7816164E-02  0.1186339E+00
        -11   -1    0    0    0    0  0.00000000000E+00  0.00000000000E+00  0.45593999997E+02  0.45594000000E+02  0.51100000000E-03 0. -1.
         11   -1    0    0    0    0 -0.00000000000E+00 -0.00000000000E+00 -0.45593999997E+02  0.45594000000E+02  0.51100000000E-03 0.  1.
    9900012    2    1    2    0    0  0.25544681095E+00  0.99172647677E+00  0.58688757048E+00  0.90007656195E+02  0.89999916457E+02 0.  0.
        -12    1    1    2    0    0 -0.25544681095E+00 -0.99172647677E+00 -0.58688757048E+00  0.11803438051E+01  0.00000000000E+00 0.  1.
         11    1    3    3    0    0  0.11612118165E+02 -0.69565433764E+01 -0.87657882273E+01  0.16126804629E+02  0.51100000000E-03 0. -1.
        -11    1    3    3    0    0 -0.52260539975E+01 -0.26393170775E+02 -0.15498123552E+02  0.31050007051E+02  0.51100000000E-03 0.  1.
         12    1    3    3    0    0 -0.61306173564E+01  0.34341440628E+02  0.24850799350E+02  0.42830844516E+02  0.00000000000E+00 0. -1.
</event>
<event>
 7    1  0.4359248E-015  0.9000768E+02  0.7816164E-02  0.1186339E+00
        -11   -1    0    0    0    0  0.00000000000E+00  0.00000000000E+00  0.45593999997E+02  0.45594000000E+02  0.51100000000E-03 0.  1.
         11   -1    0    0    0    0 -0.00000000000E+00 -0.00000000000E+00 -0.45593999997E+02  0.45594000000E+02  0.51100000000E-03 0. -1.
    9900012    2    1    2    0    0  0.11323346526E+01 -0.87061640069E-01 -0.32156328732E+00  0.90007676128E+02  0.89999936653E+02 0.  0.
        -12    1    1    2    0    0 -0.11323346526E+01  0.87061640069E-01  0.32156328732E+00  0.11803238718E+01  0.00000000000E+00 0.  1.
         11    1    3    3    0    0 -0.45754264151E+01 -0.15946691445E+01 -0.37058068531E+02  0.37373492479E+02  0.51100000000E-03 0. -1.
        -11    1    3    3    0    0  0.82719845271E+01 -0.38788727268E+01 -0.50397666433E+01  0.10434108957E+02  0.51100000000E-03 0.  1.
        -12    1    3    3    0    0 -0.25642234595E+01  0.53864802313E+01  0.41776271887E+02  0.42200074692E+02  0.00000000000E+00 0.  1.
</event>
<event>
 7    1  0.4359248E-015  0.9000772E+02  0.7816164E-02  0.1186339E+00
        -11   -1    0    0    0    0  0.00000000000E+00  0.00000000000E+00  0.45593999997E+02  0.45594000000E+02  0.51100000000E-03 0.  1.
         11   -1    0    0    0    0 -0.00000000000E+00 -0.00000000000E+00 -0.45593999997E+02  0.45594000000E+02  0.51100000000E-03 0. -1.
    9900012    2    1    2    0    0 -0.34342218983E+00  0.11288825337E+01  0.27238357129E-01  0.90007721853E+02  0.89999982982E+02 0.  0.
        -12    1    1    2    0    0  0.34342218983E+00 -0.11288825337E+01 -0.27238357129E-01  0.11802781466E+01  0.00000000000E+00 0.  1.
         11    1    3    3    0    0  0.23511243179E+02 -0.28929647848E+02 -0.56042433741E+01  0.37697620940E+02  0.51100000000E-03 0. -1.
        -11    1    3    3    0    0  0.25757761868E+00 -0.72421495819E+01  0.29166700757E+01  0.78116606037E+01  0.51100000000E-03 0.  1.
        -12    1    3    3    0    0 -0.24112242988E+02  0.37300679964E+02  0.27148116555E+01  0.44498440310E+02  0.00000000000E+00 0.  1.
</event>
<event>
 7    1  0.4359248E-015  0.9000777E+02  0.7816164E-02  0.1186339E+00
        -11   -1    0    0    0    0  0.00000000000E+00  0.00000000000E+00  0.45593999997E+02  0.45594000000E+02  0.51100000000E-03 0. -1.
         11   -1    0    0    0    0 -0.00000000000E+00 -0.00000000000E+00 -0.45593999997E+02  0.45594000000E+02  0.51100000000E-03 0.  1.
    9900012    2    1    2    0    0 -0.43349573444E+00  0.36582557302E+00  0.10349847260E+01  0.90007771088E+02  0.90000032866E+02 0.  0.
        -12    1    1    2    0    0  0.43349573444E+00 -0.36582557302E+00 -0.10349847260E+01  0.11802289120E+01  0.00000000000E+00 0.  1.
         11    1    3    3    0    0  0.22145364538E+00 -0.41362500685E+01  0.92715191920E+01  0.10154736567E+02  0.51100000000E-03 0. -1.
        -11    1    3    3    0    0  0.14299009633E+02  0.39105863276E+02 -0.24004347987E+01  0.41707221276E+02  0.51100000000E-03 0.  1.
         12    1    3    3    0    0 -0.14953959013E+02 -0.34603787635E+02 -0.58360996674E+01  0.38145813246E+02  0.00000000000E+00 0. -1.
</event>
<event>
 7    1  0.4359248E-015  0.9000762E+02  0.7816164E-02  0.1186339E+00
        -11   -1    0    0    0    0  0.00000000000E+00  0.00000000000E+00  0.45593999997E+02  0.45594000000E+02  0.51100000000E-03 0. -1.
         11   -1    0    0    0    0 -0.00000000000E+00 -0.00000000000E+00 -0.45593999997E+02  0.45594000000E+02  0.51100000000E-03 0.  1.
    9900012    2    1    2    0    0  0.79395006294E+00 -0.39241147894E+00  0.78035845663E+00  0.90007617523E+02  0.89999877274E+02 0.  0.
        -12    1    1    2    0    0 -0.79395006294E+00  0.39241147894E+00 -0.78035845663E+00  0.11803824770E+01  0.00000000000E+00 0.  1.
         11    1    3    3    0    0 -0.36499449046E+02  0.49538966287E+01  0.28866984556E+01  0.36947041840E+02  0.51100000000E-03 0. -1.
        -11    1    3    3    0    0 -0.69246096861E+01 -0.24549927528E+01  0.39413522071E+01  0.83373536691E+01  0.51100000000E-03 0.  1.
        -12    1    3    3    0    0  0.44218008795E+02 -0.28913153549E+01 -0.60476922061E+01  0.44723222014E+02  0.00000000000E+00 0.  1.
</event>
<event>
 7    1  0.4359248E-015  0.9000774E+02  0.7816164E-02  0.1186339E+00
        -11   -1    0    0    0    0  0.00000000000E+00  0.00000000000E+00  0.45593999997E+02  0.45594000000E+02  0.51100000000E-03 0. -1.
         11   -1    0    0    0    0 -0.00000000000E+00 -0.00000000000E+00 -0.45593999997E+02  0.45594000000E+02  0.51100000000E-03 0.  1.
    9900012    2    1    2    0    0 -0.72342747856E+00 -0.13526244789E+00  0.92269732507E+00  0.90007740029E+02  0.90000001397E+02 0.  0.
        -12    1    1    2    0    0  0.72342747856E+00  0.13526244789E+00 -0.92269732507E+00  0.11802599715E+01  0.00000000000E+00 0.  1.
         11    1    3    3    0    0  0.17663279712E+02 -0.22491743976E+02  0.26248195100E+02  0.38818007980E+02  0.51100000000E-03 0. -1.
        -11    1    3    3    0    0 -0.30921561540E+01  0.69725911833E+01  0.82374659932E+01  0.11226500066E+02  0.51100000000E-03 0.  1.
        -12    1    3    3    0    0 -0.15294551037E+02  0.15383890345E+02 -0.33562963768E+02  0.39963231982E+02  0.00000000000E+00 0.  1.
</event>
<event>
 7    1  0.4359248E-015  0.9000777E+02  0.7816164E-02  0.1186339E+00
        -11   -1    0    0    0    0  0.00000000000E+00  0.00000000000E+00  0.45593999997E+02  0.45594000000E+02  0.51100000000E-03 0.  1.
         11   -1    0    0    0    0 -0.00000000000E+00 -0.00000000000E+00 -0.45593999997E+02  0.45594000000E+02  0.51100000000E-03 0. -1.
    9900012    2    1    2    0    0  0.84808060765E-02 -0.11800172743E+01 -0.20720844972E-01  0.90007770342E+02  0.90000032111E+02 0.  0.
        -12    1    1    2    0    0 -0.84808060765E-02  0.11800172743E+01  0.20720844972E-01  0.11802296578E+01  0.00000000000E+00 0.  1.
         11    1    3    3    0    0 -0.83988882663E+01  0.31066559840E+01 -0.52748678067E+00  0.89705561744E+01  0.51100000000E-03 0. -1.
        -11    1    3    3    0    0  0.35431515072E+02  0.22110366412E+02 -0.74700521224E+01  0.42427140396E+02  0.51100000000E-03 0.  1.
         12    1    3    3    0    0 -0.27024146000E+02 -0.26397039671E+02  0.79768180581E+01  0.38610073772E+02  0.00000000000E+00 0. -1.
</event>
<event>
 7    1  0.4359248E-015  0.9000772E+02  0.7816164E-02  0.1186339E+00
        -11   -1    0    0    0    0  0.00000000000E+00  0.00000000000E+00  0.45593999997E+02  0.45594000000E+02  0.51100000000E-03 0.  1.
         11   -1    0    0    0    0 -0.00000000000E+00 -0.00000000000E+00 -0.45593999997E+02  0.45594000000E+02  0.51100000000E-03 0. -1.
    9900012    2    1    2    0    0  0.16541466924E+00 -0.81512483451E-01 -0.11657869360E+01  0.90007718052E+02  0.89999979130E+02 0.  0.
        -12    1    1    2    0    0 -0.16541466924E+00  0.81512483451E-01  0.11657869360E+01  0.11802819485E+01  0.00000000000E+00 0.  1.
         11    1    3    3    0    0 -0.17789061871E+02  0.30379056338E+02  0.61529431647E+01  0.35737886005E+02  0.51100000000E-03 0. -1.
        -11    1    3    3    0    0  0.69816289208E+01  0.88635323136E+01  0.38867620935E+01  0.11933661102E+02  0.51100000000E-03 0.  1.
        -12    1    3    3    0    0  0.10972847619E+02 -0.39324101135E+02 -0.11205492194E+02  0.42336170945E+02  0.00000000000E+00 0.  1.
</event>
<event>
 7    1  0.4359248E-015  0.9000777E+02  0.7816164E-02  0.1186339E+00
        -11   -1    0    0    0    0  0.00000000000E+00  0.00000000000E+00  0.45593999997E+02  0.45594000000E+02  0.51100000000E-03 0. -1.
         11   -1    0    0    0    0 -0.00000000000E+00 -0.00000000000E+00 -0.45593999997E+02  0.45594000000E+02  0.51100000000E-03 0.  1.
    9900012    2    1    2    0    0 -0.45798244455E+00  0.88586103760E+00  0.63123346979E+00  0.90007765536E+02  0.90000027241E+02 0.  0.
        -12    1    1    2    0    0  0.45798244455E+00 -0.88586103760E+00 -0.63123346979E+00  0.11802344643E+01  0.00000000000E+00 0.  1.
         11    1    3    3    0    0  0.83670105053E+01  0.31856684833E+01  0.28234544402E+01  0.93876111827E+01  0.51100000000E-03 0. -1.
        -11    1    3    3    0    0  0.77218752527E+01  0.35049795704E+02 -0.13317504196E+02  0.38281476651E+02  0.51100000000E-03 0.  1.
         12    1    3    3    0    0 -0.16546868203E+02 -0.37349603149E+02  0.11125283225E+02  0.42338677702E+02  0.00000000000E+00 0. -1.
</event>
<event>
 7    1  0.4359248E-015  0.9000777E+02  0.7816164E-02  0.1186339E+00
        -11   -1    0    0    0    0  0.00000000000E+00  0.00000000000E+00  0.45593999997E+02  0.45594000000E+02  0.51100000000E-03 0. -1.
         11   -1    0    0    0    0 -0.00000000000E+00 -0.00000000000E+00 -0.45593999997E+02  0.45594000000E+02  0.51100000000E-03 0.  1.
    9900012    2    1    2    0    0  0.94617373412E+00 -0.97294667191E-01  0.69874204404E+00  0.90007766366E+02  0.90000028082E+02 0.  0.
        -12    1    1    2    0    0 -0.94617373412E+00  0.97294667191E-01 -0.69874204404E+00  0.11802336343E+01  0.00000000000E+00 0.  1.
         11    1    3    3    0    0  0.10896851221E+02 -0.61374715607E+01  0.92296009267E+00  0.12540405866E+02  0.51100000000E-03 0. -1.
        -11    1    3    3    0    0  0.25715581272E+02 -0.12272220813E+02 -0.17901465007E+02  0.33650571667E+02  0.51100000000E-03 0.  1.
         12    1    3    3    0    0 -0.35666258759E+02  0.18312397706E+02  0.17677246959E+02  0.43816788833E+02  0.00000000000E+00 0. -1.
</event>
<event>
 7    1  0.5048360E-015  0.9000779E+02  0.7816164E-02  0.1186339E+00
        -11   -1    0    0    0    0  0.00000000000E+00  0.00000000000E+00  0.45593999997E+02  0.45594000000E+02  0.51100000000E-03 0.  1.
         11   -1    0    0    0    0 -0.00000000000E+00 -0.00000000000E+00 -0.45593999997E+02  0.45594000000E+02  0.51100000000E-03 0. -1.
    9900012    2    1    2    0    0 -0.88772834919E+00  0.17056923556E+00 -0.75876942618E+00  0.90007793862E+02  0.90000055941E+02 0.  0.
        -12    1    1    2    0    0  0.88772834919E+00 -0.17056923556E+00  0.75876942618E+00  0.11802061380E+01  0.00000000000E+00 0.  1.
         11    1    3    3    0    0  0.15070380438E+02 -0.63466404889E+01 -0.40368770611E+02  0.43554952106E+02  0.51100000000E-03 0. -1.
        -11    1    3    3    0    0 -0.46349395141E+00 -0.49531899408E+01  0.74919773775E+01  0.89932553905E+01  0.51100000000E-03 0.  1.
        -12    1    3    3    0    0 -0.15494614836E+02  0.11470399665E+02  0.32118023807E+02  0.37459586366E+02  0.00000000000E+00 0.  1.
</event>
<event>
 7    1  0.4359248E-015  0.9000782E+02  0.7816164E-02  0.1186339E+00
        -11   -1    0    0    0    0  0.00000000000E+00  0.00000000000E+00  0.45593999997E+02  0.45594000000E+02  0.51100000000E-03 0.  1.
         11   -1    0    0    0    0 -0.00000000000E+00 -0.00000000000E+00 -0.45593999997E+02  0.45594000000E+02  0.51100000000E-03 0. -1.
    9900012    2    1    2    0    0  0.53199815286E+00  0.75305264489E+00 -0.73669061966E+00  0.90007820611E+02  0.90000083043E+02 0.  0.
        -12    1    1    2    0    0 -0.53199815286E+00 -0.75305264489E+00  0.73669061966E+00  0.11801793888E+01  0.00000000000E+00 0.  1.
         11    1    3    3    0    0 -0.68373203667E+01  0.26218430123E+01  0.34612557973E+01  0.80995865656E+01  0.51100000000E-03 0. -1.
        -11    1    3    3    0    0  0.13127731114E+01 -0.31268902146E+02  0.24982437736E+02  0.40044847486E+02  0.51100000000E-03 0.  1.
         12    1    3    3    0    0  0.60565454082E+01  0.29400111779E+02 -0.29180384153E+02  0.41863386559E+02  0.00000000000E+00 0. -1.
</event>
<event>
 7    1  0.4359248E-015  0.9000750E+02  0.7816164E-02  0.1186340E+00
        -11   -1    0    0    0    0  0.00000000000E+00  0.00000000000E+00  0.45593999997E+02  0.45594000000E+02  0.51100000000E-03 0.  1.
         11   -1    0    0    0    0 -0.00000000000E+00 -0.00000000000E+00 -0.45593999997E+02  0.45594000000E+02  0.51100000000E-03 0. -1.
    9900012    2    1    2    0    0  0.56014140620E+00 -0.31956716714E+00 -0.98878193940E+00  0.90007503794E+02  0.89999762044E+02 0.  0.
        -12    1    1    2    0    0 -0.56014140620E+00  0.31956716714E+00  0.98878193940E+00  0.11804962062E+01  0.00000000000E+00 0.  1.
         11    1    3    3    0    0 -0.82771677651E+01 -0.28226083398E+01 -0.12948213868E-01  0.87452153758E+01  0.51100000000E-03 0. -1.
        -11    1    3    3    0    0 -0.23006753437E+01 -0.33606595304E+02  0.18837472896E+02  0.38594646524E+02  0.51100000000E-03 0.  1.
         12    1    3    3    0    0  0.11137984515E+02  0.36109636477E+02 -0.19813306621E+02  0.42667641894E+02  0.00000000000E+00 0. -1.
</event>
<event>
 7    1  0.4359248E-015  0.9000773E+02  0.7816164E-02  0.1186339E+00
        -11   -1    0    0    0    0  0.00000000000E+00  0.00000000000E+00  0.45593999997E+02  0.45594000000E+02  0.51100000000E-03 0. -1.
         11   -1    0    0    0    0 -0.00000000000E+00 -0.00000000000E+00 -0.45593999997E+02  0.45594000000E+02  0.51100000000E-03 0.  1.
    9900012    2    1    2    0    0 -0.58877266791E+00 -0.69924913641E+00  0.74660834930E+00  0.90007734506E+02  0.89999995801E+02 0.  0.
        -12    1    1    2    0    0  0.58877266791E+00  0.69924913641E+00 -0.74660834930E+00  0.11802654941E+01  0.00000000000E+00 0.  1.
         11    1    3    3    0    0 -0.20462317591E+02 -0.26395897927E+02 -0.22208510195E+02  0.40108201080E+02  0.51100000000E-03 0. -1.
        -11    1    3    3    0    0  0.83023127716E+01  0.17366783976E+00 -0.55012738465E+01  0.99610527592E+01  0.51100000000E-03 0.  1.
        -12    1    3    3    0    0  0.11571232151E+02  0.25522980950E+02  0.28456392391E+02  0.39938480667E+02  0.00000000000E+00 0.  1.
</event>
<event>
 7    1  0.4359248E-015  0.9000785E+02  0.7816164E-02  0.1186339E+00
        -11   -1    0    0    0    0  0.00000000000E+00  0.00000000000E+00  0.45593999997E+02  0.45594000000E+02  0.51100000000E-03 0.  1.
         11   -1    0    0    0    0 -0.00000000000E+00 -0.00000000000E+00 -0.45593999997E+02  0.45594000000E+02  0.51100000000E-03 0. -1.
    9900012    2    1    2    0    0  0.42300632786E+00 -0.10463639196E+01 -0.34489649550E+00  0.90007845180E+02  0.90000107937E+02 0.  0.
        -12    1    1    2    0    0 -0.42300632786E+00  0.10463639196E+01  0.34489649550E+00  0.11801548196E+01  0.00000000000E+00 0.  1.
         11    1    3    3    0    0 -0.32043671707E+02 -0.21654821466E+02 -0.11406108848E+02  0.40321551415E+02  0.51100000000E-03 0. -1.
        -11    1    3    3    0    0 -0.44987125246E+01  0.34284314712E+01  0.65817656131E+01  0.86782599396E+01  0.51100000000E-03 0.  1.
        -12    1    3    3    0    0  0.36965390559E+02  0.17180026075E+02  0.44794467398E+01  0.41008033826E+02  0.00000000000E+00 0.  1.
</event>
<event>
 7    1  0.4359248E-015  0.9000768E+02  0.7816164E-02  0.1186339E+00
        -11   -1    0    0    0    0  0.00000000000E+00  0.00000000000E+00  0.45593999997E+02  0.45594000000E+02  0.51100000000E-03 0. -1.
         11   -1    0    0    0    0 -0.00000000000E+00 -0.00000000000E+00 -0.45593999997E+02  0.45594000000E+02  0.51100000000E-03 0.  1.
    9900012    2    1    2    0    0 -0.77665132358E+00 -0.88757097979E+00 -0.46812258671E-01  0.90007677624E+02  0.89999938169E+02 0.  0.
        -12    1    1    2    0    0  0.77665132358E+00  0.88757097979E+00  0.46812258671E-01  0.11803223755E+01  0.00000000000E+00 0.  1.
         11    1    3    3    0    0  0.52082808041E-01 -0.25398363890E+02  0.55987160021E+01  0.26008176061E+02  0.51100000000E-03 0. -1.
        -11    1    3    3    0    0  0.19768438773E+02 -0.75864510008E+01  0.91840879598E+01  0.23080140429E+02  0.51100000000E-03 0.  1.
        -12    1    3    3    0    0 -0.20597172905E+02  0.32097243911E+02 -0.14829616220E+02  0.40919361134E+02  0.00000000000E+00 0.  1.
</event>
<event>
 7    1  0.4359248E-015  0.9000773E+02  0.7816164E-02  0.1186339E+00
        -11   -1    0    0    0    0  0.00000000000E+00  0.00000000000E+00  0.45593999997E+02  0.45594000000E+02  0.51100000000E-03 0. -1.
         11   -1    0    0    0    0 -0.00000000000E+00 -0.00000000000E+00 -0.45593999997E+02  0.45594000000E+02  0.51100000000E-03 0.  1.
    9900012    2    1    2    0    0  0.66852799163E+00 -0.66930097187E-01  0.97038118001E+00  0.90007725054E+02  0.89999986225E+02 0.  0.
        -12    1    1    2    0    0 -0.66852799163E+00  0.66930097187E-01 -0.97038118001E+00  0.11802749459E+01  0.00000000000E+00 0.  1.
         11    1    3    3    0    0  0.53226696640E+01  0.12656205844E+01  0.78485683520E+01  0.95672688503E+01  0.51100000000E-03 0. -1.
        -11    1    3    3    0    0  0.24625282586E+02  0.27916092031E+02  0.45596808481E+01  0.37503378867E+02  0.51100000000E-03 0.  1.
         12    1    3    3    0    0 -0.29279424258E+02 -0.29248642712E+02 -0.11437868020E+02  0.42937077337E+02  0.00000000000E+00 0. -1.
</event>
<event>
 7    1  0.4359248E-015  0.9000742E+02  0.7816164E-02  0.1186340E+00
        -11   -1    0    0    0    0  0.00000000000E+00  0.00000000000E+00  0.45593999997E+02  0.45594000000E+02  0.51100000000E-03 0. -1.
         11   -1    0    0    0    0 -0.00000000000E+00 -0.00000000000E+00 -0.45593999997E+02  0.45594000000E+02  0.51100000000E-03 0.  1.
    9900012    2    1    2    0    0 -0.24892325224E+00 -0.31569557966E+00  0.11100224201E+01  0.90007416984E+02  0.89999674088E+02 0.  0.
        -12    1    1    2    0    0  0.24892325224E+00  0.31569557966E+00 -0.11100224201E+01  0.11805830160E+01  0.00000000000E+00 0.  1.
         11    1    3    3    0    0  0.43256826137E+01 -0.18780621429E+01  0.80428093918E+01  0.93233808600E+01  0.51100000000E-03 0. -1.
        -11    1    3    3    0    0 -0.23124226139E+02 -0.26904603699E+02  0.16785496696E+02  0.39247171036E+02  0.51100000000E-03 0.  1.
         12    1    3    3    0    0  0.18549620273E+02  0.28466970263E+02 -0.23718283668E+02  0.41436865088E+02  0.00000000000E+00 0. -1.
</event>
<event>
 7    1  0.4359248E-015  0.9000756E+02  0.7816164E-02  0.1186339E+00
        -11   -1    0    0    0    0  0.00000000000E+00  0.00000000000E+00  0.45593999997E+02  0.45594000000E+02  0.51100000000E-03 0.  1.
         11   -1    0    0    0    0 -0.00000000000E+00 -0.00000000000E+00 -0.45593999997E+02  0.45594000000E+02  0.51100000000E-03 0. -1.
    9900012    2    1    2    0    0 -0.97055711893E-01  0.95312143866E+00 -0.68962617107E+00  0.90007557480E+02  0.89999816438E+02 0.  0.
        -12    1    1    2    0    0  0.97055711893E-01 -0.95312143866E+00  0.68962617107E+00  0.11804425204E+01  0.00000000000E+00 0.  1.
         11    1    3    3    0    0 -0.97577004219E+01 -0.27807920820E+02 -0.15921435441E+02  0.33496048791E+02  0.51100000000E-03 0. -1.
        -11    1    3    3    0    0 -0.16172498698E+01 -0.11904262347E+02  0.54522282208E+01  0.13192943266E+02  0.51100000000E-03 0.  1.
        -12    1    3    3    0    0  0.11277894580E+02  0.40665304606E+02  0.97795810491E+01  0.43318565423E+02  0.00000000000E+00 0.  1.
</event>
<event>
 7    1  0.4359248E-015  0.9000779E+02  0.7816164E-02  0.1186339E+00
        -11   -1    0    0    0    0  0.00000000000E+00  0.00000000000E+00  0.45593999997E+02  0.45594000000E+02  0.51100000000E-03 0. -1.
         11   -1    0    0    0    0 -0.00000000000E+00 -0.00000000000E+00 -0.45593999997E+02  0.45594000000E+02  0.51100000000E-03 0.  1.
    9900012    2    1    2    0    0 -0.11599321680E+01  0.35973505744E-01  0.21483749437E+00  0.90007791596E+02  0.90000053645E+02 0.  0.
        -12    1    1    2    0    0  0.11599321680E+01 -0.35973505744E-01 -0.21483749437E+00  0.11802084038E+01  0.00000000000E+00 0.  1.
         11    1    3    3    0    0  0.22310122125E+02 -0.20590958116E+02  0.32129939767E+02  0.44204775025E+02  0.51100000000E-03 0. -1.
        -11    1    3    3    0    0 -0.23311608347E+01  0.76339747648E+01 -0.66220893624E+01  0.10371304129E+02  0.51100000000E-03 0.  1.
        -12    1    3    3    0    0 -0.21138893458E+02  0.12992956856E+02 -0.25293012910E+02  0.35431712442E+02  0.00000000000E+00 0.  1.
</event>
<event>
 7    1  0.4359248E-015  0.9000775E+02  0.7816164E-02  0.1186339E+00
        -11   -1    0    0    0    0  0.00000000000E+00  0.00000000000E+00  0.45593999997E+02  0.45594000000E+02  0.51100000000E-03 0.  1.
         11   -1    0    0    0    0 -0.00000000000E+00 -0.00000000000E+00 -0.45593999997E+02  0.45594000000E+02  0.51100000000E-03 0. -1.
    9900012    2    1    2    0    0 -0.37790845513E+00  0.10448346306E+01 -0.39811884276E+00  0.90007748832E+02  0.90000010317E+02 0.  0.
        -12    1    1    2    0    0  0.37790845513E+00 -0.10448346306E+01  0.39811884276E+00  0.11802511676E+01  0.00000000000E+00 0.  1.
         11    1    3    3    0    0  0.63733841603E+01 -0.76634102014E+00  0.28393827017E+01  0.70192163809E+01  0.51100000000E-03 0. -1.
        -11    1    3    3    0    0  0.21430967620E+02 -0.30961431567E+02 -0.10654142857E+02  0.39133200458E+02  0.51100000000E-03 0.  1.
         12    1    3    3    0    0 -0.28182260236E+02  0.32772607218E+02  0.74166413131E+01  0.43855331993E+02  0.00000000000E+00 0. -1.
</event>
<event>
 7    1  0.4359248E-015  0.9000779E+02  0.7816164E-02  0.1186339E+00
        -11   -1    0    0    0    0  0.00000000000E+00  0.00000000000E+00  0.45593999997E+02  0.45594000000E+02  0.51100000000E-03 0.  1.
         11   -1    0    0    0    0 -0.00000000000E+00 -0.00000000000E+00 -0.45593999997E+02  0.45594000000E+02  0.51100000000E-03 0. -1.
    9900012    2    1    2    0    0  0.73959532449E-01  0.11653866652E+01 -0.17118315570E+00  0.90007788254E+02  0.90000050259E+02 0.  0.
        -12    1    1    2    0    0 -0.73959532449E-01 -0.11653866652E+01  0.17118315570E+00  0.11802117457E+01  0.00000000000E+00 0.  1.
         11    1    3    3    0    0 -0.33933684992E+02  0.61622573875E+01 -0.13294762790E+02  0.36962401318E+02  0.51100000000E-03 0. -1.
        -11    1    3    3    0    0 -0.72308772007E+01 -0.79352218137E+00  0.87263058891E+01  0.11360619582E+02  0.51100000000E-03 0.  1.
        -12    1    3    3    0    0  0.41238521725E+02 -0.42033485409E+01  0.43972737451E+01  0.41684767355E+02  0.00000000000E+00 0.  1.
</event>
<event>
 7    1  0.4359248E-015  0.9000782E+02  0.7816164E-02  0.1186339E+00
        -11   -1    0    0    0    0  0.00000000000E+00  0.00000000000E+00  0.45593999997E+02  0.45594000000E+02  0.51100000000E-03 0.  1.
         11   -1    0    0    0    0 -0.00000000000E+00 -0.00000000000E+00 -0.45593999997E+02  0.45594000000E+02  0.51100000000E-03 0. -1.
    9900012    2    1    2    0    0  0.10149703284E+01 -0.39593558815E+00 -0.45374946594E+00  0.90007822753E+02  0.90000085213E+02 0.  0.
        -12    1    1    2    0    0 -0.10149703284E+01  0.39593558815E+00  0.45374946594E+00  0.11801772474E+01  0.00000000000E+00 0.  1.
         11    1    3    3    0    0  0.37881378444E+02 -0.10643402507E+01 -0.26369122553E+01  0.37987958085E+02  0.51100000000E-03 0. -1.
        -11    1    3    3    0    0  0.32431363614E+01  0.61068199000E+01 -0.77053140811E+01  0.10352924616E+02  0.51100000000E-03 0.  1.
        -12    1    3    3    0    0 -0.40109544477E+02 -0.54384152374E+01  0.98884768704E+01  0.41666940052E+02  0.00000000000E+00 0.  1.
</event>
<event>
 7    1  0.4359248E-015  0.9000779E+02  0.7816164E-02  0.1186339E+00
        -11   -1    0    0    0    0  0.00000000000E+00  0.00000000000E+00  0.45593999997E+02  0.45594000000E+02  0.51100000000E-03 0.  1.
         11   -1    0    0    0    0 -0.00000000000E+00 -0.00000000000E+00 -0.45593999997E+02  0.45594000000E+02  0.51100000000E-03 0. -1.
    9900012    2    1    2    0    0  0.20995392369E+00  0.31775065427E+00 -0.11170747143E+01  0.90007787288E+02  0.90000049280E+02 0.  0.
        -12    1    1    2    0    0 -0.20995392369E+00 -0.31775065427E+00  0.11170747143E+01  0.11802127121E+01  0.00000000000E+00 0.  1.
         11    1    3    3    0    0  0.86267871068E+01  0.37528263987E+02 -0.13693713855E+02  0.40869424428E+02  0.51100000000E-03 0. -1.
        -11    1    3    3    0    0 -0.35399643186E+01 -0.65253329963E+01 -0.87334619103E+01  0.11462315442E+02  0.51100000000E-03 0.  1.
        -12    1    3    3    0    0 -0.48768688644E+01 -0.30685180337E+02  0.21310101051E+02  0.37676047418E+02  0.00000000000E+00 0.  1.
</event>
<event>
 7    1  0.4359248E-015  0.9000786E+02  0.7816164E-02  0.1186339E+00
        -11   -1    0    0    0    0  0.00000000000E+00  0.00000000000E+00  0.45593999997E+02  0.45594000000E+02  0.51100000000E-03 0. -1.
         11   -1    0    0    0    0 -0.00000000000E+00 -0.00000000000E+00 -0.45593999997E+02  0.45594000000E+02  0.51100000000E-03 0.  1.
    9900012    2    1    2    0    0 -0.46422455655E+00  0.56456366782E+00  0.92654892104E+00  0.90007860399E+02  0.90000123357E+02 0.  0.
        -12    1    1    2    0    0  0.46422455655E+00 -0.56456366782E+00 -0.92654892104E+00  0.11801396006E+01  0.00000000000E+00 0.  1.
         11    1    3    3    0    0  0.14228904604E+02  0.64802514744E+01  0.22808939884E+02  0.27653266069E+02  0.51100000000E-03 0. -1.
        -11    1    3    3    0    0  0.20885969279E+02  0.43988592542E+01 -0.81365066215E+01  0.22842425785E+02  0.51100000000E-03 0.  1.
         12    1    3    3    0    0 -0.35579098439E+02 -0.10314547061E+02 -0.13745884342E+02  0.39512168545E+02  0.00000000000E+00 0. -1.
</event>
<event>
 7    1  0.4359248E-015  0.9000785E+02  0.7816164E-02  0.1186339E+00
        -11   -1    0    0    0    0  0.00000000000E+00  0.00000000000E+00  0.45593999997E+02  0.45594000000E+02  0.51100000000E-03 0.  1.
         11   -1    0    0    0    0 -0.00000000000E+00 -0.00000000000E+00 -0.45593999997E+02  0.45594000000E+02  0.51100000000E-03 0. -1.
    9900012    2    1    2    0    0  0.11127177394E+01  0.35656230740E+00 -0.16575866775E+00  0.90007850271E+02  0.90000113095E+02 0.  0.
        -12    1    1    2    0    0 -0.11127177394E+01 -0.35656230740E+00  0.16575866775E+00  0.11801497288E+01  0.00000000000E+00 0.  1.
         11    1    3    3    0    0 -0.12847447829E+02 -0.16925558446E+00 -0.36669570491E+02  0.38855410993E+02  0.51100000000E-03 0. -1.
        -11    1    3    3    0    0  0.93314911955E+01 -0.37977707361E+01 -0.34885574990E+01  0.10661605141E+02  0.51100000000E-03 0.  1.
        -12    1    3    3    0    0  0.46286743731E+01  0.43235886280E+01  0.39992369323E+02  0.40490834137E+02  0.00000000000E+00 0.  1.
</event>
<event>
 7    1  0.4359248E-015  0.9000785E+02  0.7816164E-02  0.1186339E+00
        -11   -1    0    0    0    0  0.00000000000E+00  0.00000000000E+00  0.45593999997E+02  0.45594000000E+02  0.51100000000E-03 0.  1.
         11   -1    0    0    0    0 -0.00000000000E+00 -0.00000000000E+00 -0.45593999997E+02  0.45594000000E+02  0.51100000000E-03 0. -1.
    9900012    2    1    2    0    0 -0.34627881521E+00 -0.26266930731E-02 -0.11281992818E+01  0.90007851900E+02  0.90000114745E+02 0.  0.
        -12    1    1    2    0    0  0.34627881521E+00  0.26266930731E-02  0.11281992818E+01  0.11801480995E+01  0.00000000000E+00 0.  1.
         11    1    3    3    0    0  0.22629150343E+02 -0.16400103162E+02 -0.21007366119E+02  0.34962140388E+02  0.51100000000E-03 0. -1.
        -11    1    3    3    0    0  0.96894666466E+01  0.41665374681E+00 -0.50716042081E+01  0.10944429348E+02  0.51100000000E-03 0.  1.
        -12    1    3    3    0    0 -0.32664895805E+02  0.15980822722E+02  0.24950771046E+02  0.44101282165E+02  0.00000000000E+00 0.  1.
</event>
<event>
 7    1  0.4359248E-015  0.9000790E+02  0.7816164E-02  0.1186339E+00
        -11   -1    0    0    0    0  0.00000000000E+00  0.00000000000E+00  0.45593999997E+02  0.45594000000E+02  0.51100000000E-03 0.  1.
         11   -1    0    0    0    0 -0.00000000000E+00 -0.00000000000E+00 -0.45593999997E+02  0.45594000000E+02  0.51100000000E-03 0. -1.
    9900012    2    1    2    0    0 -0.40764026024E+00  0.10957753539E+01 -0.16044281684E+00  0.90007899960E+02  0.90000163439E+02 0.  0.
        -12    1    1    2    0    0  0.40764026024E+00 -0.10957753539E+01  0.16044281684E+00  0.11801000404E+01  0.00000000000E+00 0.  1.
         11    1    3    3    0    0 -0.98245708753E+01  0.27295072340E+01 -0.71913706640E+00  0.10222013549E+02  0.51100000000E-03 0. -1.
        -11    1    3    3    0    0 -0.44754806333E+01  0.37044273274E+02  0.76270860646E+01  0.38085174955E+02  0.51100000000E-03 0.  1.
         12    1    3    3    0    0  0.13892411248E+02 -0.38678005154E+02 -0.70683918151E+01  0.41700711455E+02  0.00000000000E+00 0. -1.
</event>
<event>
 7    1  0.4359248E-015  0.9000783E+02  0.7816164E-02  0.1186339E+00
        -11   -1    0    0    0    0  0.00000000000E+00  0.00000000000E+00  0.45593999997E+02  0.45594000000E+02  0.51100000000E-03 0.  1.
         11   -1    0    0    0    0 -0.00000000000E+00 -0.00000000000E+00 -0.45593999997E+02  0.45594000000E+02  0.51100000000E-03 0. -1.
    9900012    2    1    2    0    0 -0.20426857518E-01 -0.19840527758E+00 -0.11631949617E+01  0.90007828644E+02  0.90000091182E+02 0.  0.
        -12    1    1    2    0    0  0.20426857518E-01  0.19840527758E+00  0.11631949617E+01  0.11801713560E+01  0.00000000000E+00 0.  1.
         11    1    3    3    0    0 -0.15793331664E+00 -0.81950575034E+01  0.44190018007E+01  0.93119003212E+01  0.51100000000E-03 0. -1.
        -11    1    3    3    0    0  0.36543867282E+02 -0.10613097665E+02  0.52095015777E+01  0.38408735789E+02  0.51100000000E-03 0.  1.
         12    1    3    3    0    0 -0.36406360823E+02  0.18609749891E+02 -0.10791698340E+02  0.42287192534E+02  0.00000000000E+00 0. -1.
</event>
<event>
 7    1  0.4359248E-015  0.9000713E+02  0.7816164E-02  0.1186340E+00
        -11   -1    0    0    0    0  0.00000000000E+00  0.00000000000E+00  0.45593999997E+02  0.45594000000E+02  0.51100000000E-03 0.  1.
         11   -1    0    0    0    0 -0.00000000000E+00 -0.00000000000E+00 -0.45593999997E+02  0.45594000000E+02  0.51100000000E-03 0. -1.
    9900012    2    1    2    0    0  0.80899477591E+00 -0.84368741287E+00  0.16787344354E+00  0.90007126386E+02  0.89999379653E+02 0.  0.
        -12    1    1    2    0    0 -0.80899477591E+00  0.84368741287E+00 -0.16787344354E+00  0.11808736135E+01  0.00000000000E+00 0.  1.
         11    1    3    3    0    0 -0.22076536589E+02 -0.25630235340E+02 -0.12203756840E+02  0.35961286304E+02  0.51100000000E-03 0. -1.
        -11    1    3    3    0    0 -0.15222556718E+01 -0.28933187132E+01 -0.10250919959E+02  0.10759642921E+02  0.51100000000E-03 0.  1.
        -12    1    3    3    0    0  0.24407787036E+02  0.27679866640E+02  0.22622550243E+02  0.43286197162E+02  0.00000000000E+00 0.  1.
</event>
<event>
 7    1  0.4359248E-015  0.9000774E+02  0.7816164E-02  0.1186339E+00
        -11   -1    0    0    0    0  0.00000000000E+00  0.00000000000E+00  0.45593999997E+02  0.45594000000E+02  0.51100000000E-03 0.  1.
         11   -1    0    0    0    0 -0.00000000000E+00 -0.00000000000E+00 -0.45593999997E+02  0.45594000000E+02  0.51100000000E-03 0. -1.
    9900012    2    1    2    0    0 -0.17425907181E+00  0.76099857730E+00 -0.88516585211E+00  0.90007744246E+02  0.90000005670E+02 0.  0.
        -12    1    1    2    0    0  0.17425907181E+00 -0.76099857730E+00  0.88516585211E+00  0.11802557539E+01  0.00000000000E+00 0.  1.
         11    1    3    3    0    0 -0.44007127929E+01  0.65830904407E+01  0.27656741305E+01  0.83876281805E+01  0.51100000000E-03 0. -1.
        -11    1    3    3    0    0  0.19965817789E+02  0.24281319846E+02  0.22577190648E+02  0.38703306206E+02  0.51100000000E-03 0.  1.
         12    1    3    3    0    0 -0.15739364068E+02 -0.30103411709E+02 -0.26228030630E+02  0.42916809860E+02  0.00000000000E+00 0. -1.
</event>
<event>
 7    1  0.4359248E-015  0.9000772E+02  0.7816164E-02  0.1186339E+00
        -11   -1    0    0    0    0  0.00000000000E+00  0.00000000000E+00  0.45593999997E+02  0.45594000000E+02  0.51100000000E-03 0. -1.
         11   -1    0    0    0    0 -0.00000000000E+00 -0.00000000000E+00 -0.45593999997E+02  0.45594000000E+02  0.51100000000E-03 0.  1.
    9900012    2    1    2    0    0 -0.83492341104E+00 -0.38985988001E+00  0.73755264085E+00  0.90007715405E+02  0.89999976448E+02 0.  0.
        -12    1    1    2    0    0  0.83492341104E+00  0.38985988001E+00 -0.73755264085E+00  0.11802845955E+01  0.00000000000E+00 0.  1.
         11    1    3    3    0    0 -0.16719809401E+01  0.12676153357E+01  0.32039849824E+02  0.32108477789E+02  0.51100000000E-03 0. -1.
        -11    1    3    3    0    0  0.78836789909E+01 -0.74805109725E+01  0.10498513283E+02  0.15110566510E+02  0.51100000000E-03 0.  1.
         12    1    3    3    0    0 -0.70466214618E+01  0.58230357569E+01 -0.41800810466E+02  0.42788671106E+02  0.00000000000E+00 0. -1.
</event>
<event>
 7    1  0.4359248E-015  0.9000796E+02  0.7816164E-02  0.1186339E+00
        -11   -1    0    0    0    0  0.00000000000E+00  0.00000000000E+00  0.45593999997E+02  0.45594000000E+02  0.51100000000E-03 0. -1.
         11   -1    0    0    0    0 -0.00000000000E+00 -0.00000000000E+00 -0.45593999997E+02  0.45594000000E+02  0.51100000000E-03 0.  1.
    9900012    2    1    2    0    0  0.43983518625E+00 -0.83964279395E+00 -0.70287131333E+00  0.90007964791E+02  0.90000229125E+02 0.  0.
        -12    1    1    2    0    0 -0.43983518625E+00  0.83964279395E+00  0.70287131333E+00  0.11800352095E+01  0.00000000000E+00 0.  1.
         11    1    3    3    0    0  0.13097893246E+01  0.22632689507E+01 -0.89065023924E+01  0.92824414647E+01  0.51100000000E-03 0. -1.
        -11    1    3    3    0    0  0.24218261572E+02  0.26238743955E+02 -0.11327864963E+02  0.37460864950E+02  0.51100000000E-03 0.  1.
         12    1    3    3    0    0 -0.25088215711E+02 -0.29341655700E+02  0.19531496042E+02  0.43264658376E+02  0.00000000000E+00 0. -1.
</event>
<event>
 7    1  0.4359248E-015  0.9000778E+02  0.7816164E-02  0.1186339E+00
        -11   -1    0    0    0    0  0.00000000000E+00  0.00000000000E+00  0.45593999997E+02  0.45594000000E+02  0.51100000000E-03 0.  1.
         11   -1    0    0    0    0 -0.00000000000E+00 -0.00000000000E+00 -0.45593999997E+02  0.45594000000E+02  0.51100000000E-03 0. -1.
    9900012    2    1    2    0    0  0.11740142649E+00  0.93384772205E-01 -0.11706483958E+01  0.90007779056E+02  0.90000040939E+02 0.  0.
        -12    1    1    2    0    0 -0.11740142649E+00 -0.93384772205E-01  0.11706483958E+01  0.11802209443E+01  0.00000000000E+00 0.  1.
         11    1    3    3    0    0  0.32167312414E+01  0.17473941775E+02 -0.37317385706E+02  0.41331262710E+02  0.51100000000E-03 0. -1.
        -11    1    3    3    0    0 -0.81515191047E+01 -0.44092648184E+01 -0.69396469458E+00  0.92935712840E+01  0.51100000000E-03 0.  1.
        -12    1    3    3    0    0  0.50521892898E+01 -0.12971292185E+02  0.36840702004E+02  0.39382945062E+02  0.00000000000E+00 0.  1.
</event>
<event>
 7    1  0.4359248E-015  0.9000773E+02  0.7816164E-02  0.1186339E+00
        -11   -1    0    0    0    0  0.00000000000E+00  0.00000000000E+00  0.45593999997E+02  0.45594000000E+02  0.51100000000E-03 0. -1.
         11   -1    0    0    0    0 -0.00000000000E+00 -0.00000000000E+00 -0.45593999997E+02  0.45594000000E+02  0.51100000000E-03 0.  1.
    9900012    2    1    2    0    0  0.10464068005E+01 -0.51833346934E+00 -0.17144609880E+00  0.90007732851E+02  0.89999994125E+02 0.  0.
        -12    1    1    2    0    0 -0.10464068005E+01  0.51833346934E+00  0.17144609880E+00  0.11802671487E+01  0.00000000000E+00 0.  1.
         11    1    3    3    0    0  0.64794574198E+01  0.65553156822E+01  0.17838769298E+01  0.93881707116E+01  0.51100000000E-03 0. -1.
        -11    1    3    3    0    0  0.30414272884E+02  0.13768978322E+02 -0.15756157661E+02  0.36917059249E+02  0.51100000000E-03 0.  1.
         12    1    3    3    0    0 -0.35847323504E+02 -0.20842627473E+02  0.13800834632E+02  0.43702502891E+02  0.00000000000E+00 0. -1.
</event>
<event>
 7    1  0.4359248E-015  0.9000775E+02  0.7816164E-02  0.1186339E+00
        -11   -1    0    0    0    0  0.00000000000E+00  0.00000000000E+00  0.45593999997E+02  0.45594000000E+02  0.51100000000E-03 0. -1.
         11   -1    0    0    0    0 -0.00000000000E+00 -0.00000000000E+00 -0.45593999997E+02  0.45594000000E+02  0.51100000000E-03 0.  1.
    9900012    2    1    2    0    0  0.95293620784E+00  0.51164366761E+00 -0.47235290873E+00  0.90007752598E+02  0.90000014133E+02 0.  0.
        -12    1    1    2    0    0 -0.95293620784E+00 -0.51164366761E+00  0.47235290873E+00  0.11802474017E+01  0.00000000000E+00 0.  1.
         11    1    3    3    0    0  0.31954291776E+01 -0.63855602247E+00  0.83812453540E+01  0.89924298923E+01  0.51100000000E-03 0. -1.
        -11    1    3    3    0    0  0.15597459976E+02 -0.36036421203E+02 -0.51862326605E+01  0.39608097913E+02  0.51100000000E-03 0.  1.
         12    1    3    3    0    0 -0.17839952946E+02  0.37186620893E+02 -0.36673656023E+01  0.41407224793E+02  0.00000000000E+00 0. -1.
</event>
<event>
 7    1  0.4359248E-015  0.9000770E+02  0.7816164E-02  0.1186339E+00
        -11   -1    0    0    0    0  0.00000000000E+00  0.00000000000E+00  0.45593999997E+02  0.45594000000E+02  0.51100000000E-03 0.  1.
         11   -1    0    0    0    0 -0.00000000000E+00 -0.00000000000E+00 -0.45593999997E+02  0.45594000000E+02  0.51100000000E-03 0. -1.
    9900012    2    1    2    0    0  0.39234755973E-01  0.44718498443E+00 -0.10916059918E+01  0.90007696049E+02  0.89999956836E+02 0.  0.
        -12    1    1    2    0    0 -0.39234755973E-01 -0.44718498443E+00  0.10916059918E+01  0.11803039514E+01  0.00000000000E+00 0.  1.
         11    1    3    3    0    0  0.37841152348E+01 -0.27293476969E+01 -0.10021611642E+02  0.11054481767E+02  0.51100000000E-03 0. -1.
        -11    1    3    3    0    0  0.68928581377E+00  0.40677486403E+02  0.48357211321E+01  0.40969710935E+02  0.51100000000E-03 0.  1.
         12    1    3    3    0    0 -0.44341662926E+01 -0.37500953722E+02  0.40942845185E+01  0.37983503346E+02  0.00000000000E+00 0. -1.
</event>
<event>
 7    1  0.4359248E-015  0.9000774E+02  0.7816164E-02  0.1186339E+00
        -11   -1    0    0    0    0  0.00000000000E+00  0.00000000000E+00  0.45593999997E+02  0.45594000000E+02  0.51100000000E-03 0.  1.
         11   -1    0    0    0    0 -0.00000000000E+00 -0.00000000000E+00 -0.45593999997E+02  0.45594000000E+02  0.51100000000E-03 0. -1.
    9900012    2    1    2    0    0  0.59943860030E+00  0.39281726905E+00 -0.93775429498E+00  0.90007739368E+02  0.90000000727E+02 0.  0.
        -12    1    1    2    0    0 -0.59943860030E+00 -0.39281726905E+00  0.93775429498E+00  0.11802606323E+01  0.00000000000E+00 0.  1.
         11    1    3    3    0    0 -0.37016302126E+01  0.66871329418E+01  0.68740366582E+01  0.10279698121E+02  0.51100000000E-03 0. -1.
        -11    1    3    3    0    0  0.11401310192E+02 -0.24953557382E+02  0.27701488282E+02  0.38987720546E+02  0.51100000000E-03 0.  1.
         12    1    3    3    0    0 -0.71002413796E+01  0.18659241709E+02 -0.35513279235E+02  0.40740320701E+02  0.00000000000E+00 0. -1.
</event>
<event>
 7    1  0.4359248E-015  0.9000785E+02  0.7816164E-02  0.1186339E+00
        -11   -1    0    0    0    0  0.00000000000E+00  0.00000000000E+00  0.45593999997E+02  0.45594000000E+02  0.51100000000E-03 0.  1.
         11   -1    0    0    0    0 -0.00000000000E+00 -0.00000000000E+00 -0.45593999997E+02  0.45594000000E+02  0.51100000000E-03 0. -1.
    9900012    2    1    2    0    0  0.22308857546E+00 -0.62567077462E+00  0.97545796132E+00  0.90007851422E+02  0.90000114261E+02 0.  0.
        -12    1    1    2    0    0 -0.22308857546E+00  0.62567077462E+00 -0.97545796132E+00  0.11801485775E+01  0.00000000000E+00 0.  1.
         11    1    3    3    0    0  0.67379515354E+01 -0.42293874411E+01  0.54550854207E+01  0.96460181541E+01  0.51100000000E-03 0. -1.
        -11    1    3    3    0    0  0.18164299622E+02  0.27290705813E+02  0.19905200306E+02  0.38352853922E+02  0.51100000000E-03 0.  1.
         12    1    3    3    0    0 -0.24679162582E+02 -0.23686989146E+02 -0.24384827765E+02  0.42008979346E+02  0.00000000000E+00 0. -1.
</event>
<event>
 7    1  0.4359248E-015  0.9000781E+02  0.7816164E-02  0.1186339E+00
        -11   -1    0    0    0    0  0.00000000000E+00  0.00000000000E+00  0.45593999997E+02  0.45594000000E+02  0.51100000000E-03 0.  1.
         11   -1    0    0    0    0 -0.00000000000E+00 -0.00000000000E+00 -0.45593999997E+02  0.45594000000E+02  0.51100000000E-03 0. -1.
    9900012    2    1    2    0    0  0.10773061874E+01  0.10396652216E+00 -0.47058876136E+00  0.90007808727E+02  0.90000071002E+02 0.  0.
        -12    1    1    2    0    0 -0.10773061874E+01 -0.10396652216E+00  0.47058876136E+00  0.11801912732E+01  0.00000000000E+00 0.  1.
         11    1    3    3    0    0 -0.20041633341E+02  0.27808050894E+02 -0.25705811895E+02  0.42845577683E+02  0.51100000000E-03 0. -1.
        -11    1    3    3    0    0 -0.60907974000E+00 -0.83497315067E+01  0.13291326124E+02  0.15708225385E+02  0.51100000000E-03 0.  1.
        -12    1    3    3    0    0  0.21728019269E+02 -0.19354352866E+02  0.11943897010E+02  0.31454005659E+02  0.00000000000E+00 0.  1.
</event>
<event>
 7    1  0.4359248E-015  0.9000775E+02  0.7816164E-02  0.1186339E+00
        -11   -1    0    0    0    0  0.00000000000E+00  0.00000000000E+00  0.45593999997E+02  0.45594000000E+02  0.51100000000E-03 0. -1.
         11   -1    0    0    0    0 -0.00000000000E+00 -0.00000000000E+00 -0.45593999997E+02  0.45594000000E+02  0.51100000000E-03 0.  1.
    9900012    2    1    2    0    0 -0.28377565382E+00  0.10355305769E+01  0.49004457926E+00  0.90007747532E+02  0.90000009000E+02 0.  0.
        -12    1    1    2    0    0  0.28377565382E+00 -0.10355305769E+01 -0.49004457926E+00  0.11802524675E+01  0.00000000000E+00 0.  1.
         11    1    3    3    0    0  0.10895859935E+02  0.12237921257E+02  0.25064540193E+02  0.29945244293E+02  0.51100000000E-03 0. -1.
        -11    1    3    3    0    0 -0.99806814588E+01 -0.57557713968E+01  0.15660920821E+02  0.19442411064E+02  0.51100000000E-03 0.  1.
        -12    1    3    3    0    0 -0.11989541302E+01 -0.54466192831E+01 -0.40235416435E+02  0.40620092175E+02  0.00000000000E+00 0.  1.
</event>
<event>
 7    1  0.4359248E-015  0.9000784E+02  0.7816164E-02  0.1186339E+00
        -11   -1    0    0    0    0  0.00000000000E+00  0.00000000000E+00  0.45593999997E+02  0.45594000000E+02  0.51100000000E-03 0. -1.
         11   -1    0    0    0    0 -0.00000000000E+00 -0.00000000000E+00 -0.45593999997E+02  0.45594000000E+02  0.51100000000E-03 0.  1.
    9900012    2    1    2    0    0  0.72663120598E+00  0.80605314626E+00  0.46374472316E+00  0.90007841641E+02  0.90000104351E+02 0.  0.
        -12    1    1    2    0    0 -0.72663120598E+00 -0.80605314626E+00 -0.46374472316E+00  0.11801583590E+01  0.00000000000E+00 0.  1.
         11    1    3    3    0    0 -0.62758873448E+01 -0.26024042623E+01  0.36634573614E+02  0.37259243873E+02  0.51100000000E-03 0. -1.
        -11    1    3    3    0    0 -0.52308051376E+01 -0.96058841803E+01  0.15170382316E+01  0.11042451654E+02  0.51100000000E-03 0.  1.
        -12    1    3    3    0    0  0.12233323688E+02  0.13014341589E+02 -0.37687867122E+02  0.41706146114E+02  0.00000000000E+00 0.  1.
</event>
<event>
 7    1  0.4359248E-015  0.9000766E+02  0.7816164E-02  0.1186339E+00
        -11   -1    0    0    0    0  0.00000000000E+00  0.00000000000E+00  0.45593999997E+02  0.45594000000E+02  0.51100000000E-03 0. -1.
         11   -1    0    0    0    0 -0.00000000000E+00 -0.00000000000E+00 -0.45593999997E+02  0.45594000000E+02  0.51100000000E-03 0.  1.
    9900012    2    1    2    0    0  0.26464258803E+00 -0.93855004593E+00 -0.66505650834E+00  0.90007655962E+02  0.89999916221E+02 0.  0.
        -12    1    1    2    0    0 -0.26464258803E+00  0.93855004593E+00  0.66505650834E+00  0.11803440377E+01  0.00000000000E+00 0.  1.
         11    1    3    3    0    0 -0.83224665024E+01 -0.35212271833E+02 -0.10381664909E+02  0.37642349859E+02  0.51100000000E-03 0. -1.
        -11    1    3    3    0    0  0.16107050455E+01 -0.66298659581E+01  0.84381518600E+01  0.10851354774E+02  0.51100000000E-03 0.  1.
        -12    1    3    3    0    0  0.69764040449E+01  0.40903587745E+02  0.12784565406E+01  0.41513951329E+02  0.00000000000E+00 0.  1.
</event>
<event>
 7    1  0.4359248E-015  0.9000786E+02  0.7816164E-02  0.1186339E+00
        -11   -1    0    0    0    0  0.00000000000E+00  0.00000000000E+00  0.45593999997E+02  0.45594000000E+02  0.51100000000E-03 0.  1.
         11   -1    0    0    0    0 -0.00000000000E+00 -0.00000000000E+00 -0.45593999997E+02  0.45594000000E+02  0.51100000000E-03 0. -1.
    9900012    2    1    2    0    0  0.90713498133E+00 -0.35102366278E+00 -0.66829585626E+00  0.90007859823E+02  0.90000122772E+02 0.  0.
        -12    1    1    2    0    0 -0.90713498133E+00  0.35102366278E+00  0.66829585626E+00  0.11801401771E+01  0.00000000000E+00 0.  1.
         11    1    3    3    0    0  0.20987011101E+02  0.11779442605E+02  0.26666593690E+01  0.24214065654E+02  0.51100000000E-03 0. -1.
        -11    1    3    3    0    0  0.15868679588E+02 -0.14750914773E+02  0.14002594874E+02  0.25796843644E+02  0.51100000000E-03 0.  1.
         12    1    3    3    0    0 -0.35948555708E+02  0.26204485047E+01 -0.17337550100E+02  0.39996950525E+02  0.00000000000E+00 0. -1.
</event>
<event>
 7    1  0.4359248E-015  0.9000778E+02  0.7816164E-02  0.1186339E+00
        -11   -1    0    0    0    0  0.00000000000E+00  0.00000000000E+00  0.45593999997E+02  0.45594000000E+02  0.51100000000E-03 0.  1.
         11   -1    0    0    0    0 -0.00000000000E+00 -0.00000000000E+00 -0.45593999997E+02  0.45594000000E+02  0.51100000000E-03 0. -1.
    9900012    2    1    2    0    0  0.89478950327E+00 -0.23031238932E-01  0.76924797744E+00  0.90007779197E+02  0.90000041082E+02 0.  0.
        -12    1    1    2    0    0 -0.89478950327E+00  0.23031238932E-01 -0.76924797744E+00  0.11802208030E+01  0.00000000000E+00 0.  1.
         11    1    3    3    0    0  0.14208290003E+02 -0.33767828949E+01  0.21598028945E+01  0.14762889837E+02  0.51100000000E-03 0. -1.
        -11    1    3    3    0    0  0.59629427411E+01 -0.31272597448E+02  0.11063680292E+02  0.33703665366E+02  0.51100000000E-03 0.  1.
         12    1    3    3    0    0 -0.19276443241E+02  0.34626349103E+02 -0.12454235209E+02  0.41541223994E+02  0.00000000000E+00 0. -1.
</event>
<event>
 7    1  0.4359248E-015  0.9000777E+02  0.7816164E-02  0.1186339E+00
        -11   -1    0    0    0    0  0.00000000000E+00  0.00000000000E+00  0.45593999997E+02  0.45594000000E+02  0.51100000000E-03 0.  1.
         11   -1    0    0    0    0 -0.00000000000E+00 -0.00000000000E+00 -0.45593999997E+02  0.45594000000E+02  0.51100000000E-03 0. -1.
    9900012    2    1    2    0    0 -0.99254404866E+00 -0.63841807189E+00  0.15252569625E-01  0.90007765293E+02  0.90000026995E+02 0.  0.
        -12    1    1    2    0    0  0.99254404866E+00  0.63841807189E+00 -0.15252569625E-01  0.11802347071E+01  0.00000000000E+00 0.  1.
         11    1    3    3    0    0 -0.17735952749E+02 -0.24114467964E+02 -0.23222924727E+02  0.37886353985E+02  0.51100000000E-03 0. -1.
        -11    1    3    3    0    0 -0.37626295983E+00 -0.90727739662E+01  0.87000033156E+01  0.12575645479E+02  0.51100000000E-03 0.  1.
        -12    1    3    3    0    0  0.17119671660E+02  0.32548823859E+02  0.14538173981E+02  0.39545765829E+02  0.00000000000E+00 0.  1.
</event>
<event>
 7    1  0.4359248E-015  0.9000774E+02  0.7816164E-02  0.1186339E+00
        -11   -1    0    0    0    0  0.00000000000E+00  0.00000000000E+00  0.45593999997E+02  0.45594000000E+02  0.51100000000E-03 0.  1.
         11   -1    0    0    0    0 -0.00000000000E+00 -0.00000000000E+00 -0.45593999997E+02  0.45594000000E+02  0.51100000000E-03 0. -1.
    9900012    2    1    2    0    0  0.10977072355E+01  0.40617201844E+00  0.15193634594E+00  0.90007736666E+02  0.89999997990E+02 0.  0.
        -12    1    1    2    0    0 -0.10977072355E+01 -0.40617201844E+00 -0.15193634594E+00  0.11802633336E+01  0.00000000000E+00 0.  1.
         11    1    3    3    0    0 -0.52718107849E+01  0.11786732586E+02  0.75446185286E+00  0.12933996558E+02  0.51100000000E-03 0. -1.
        -11    1    3    3    0    0 -0.78162050799E+01 -0.30398210590E+02  0.26482584658E+02  0.41066672124E+02  0.51100000000E-03 0.  1.
         12    1    3    3    0    0  0.14185723100E+02  0.19017650022E+02 -0.27085110164E+02  0.36007067985E+02  0.00000000000E+00 0. -1.
</event>
<event>
 7    1  0.4359248E-015  0.9000775E+02  0.7816164E-02  0.1186339E+00
        -11   -1    0    0    0    0  0.00000000000E+00  0.00000000000E+00  0.45593999997E+02  0.45594000000E+02  0.51100000000E-03 0. -1.
         11   -1    0    0    0    0 -0.00000000000E+00 -0.00000000000E+00 -0.45593999997E+02  0.45594000000E+02  0.51100000000E-03 0.  1.
    9900012    2    1    2    0    0  0.10272681761E+01 -0.18405208180E+00  0.55121137166E+00  0.90007750429E+02  0.90000011934E+02 0.  0.
        -12    1    1    2    0    0 -0.10272681761E+01  0.18405208180E+00 -0.55121137166E+00  0.11802495714E+01  0.00000000000E+00 0.  1.
         11    1    3    3    0    0  0.64918272260E+01 -0.51910472361E+01  0.42863306698E+02  0.43661812302E+02  0.51100000000E-03 0. -1.
        -11    1    3    3    0    0  0.56017335598E+01  0.19532956668E+01 -0.67985717734E+01  0.90230461185E+01  0.51100000000E-03 0.  1.
        -12    1    3    3    0    0 -0.11066292610E+02  0.30536994875E+01 -0.35513523553E+02  0.37322892008E+02  0.00000000000E+00 0.  1.
</event>
<event>
 7    1  0.4359248E-015  0.9000779E+02  0.7816164E-02  0.1186339E+00
        -11   -1    0    0    0    0  0.00000000000E+00  0.00000000000E+00  0.45593999997E+02  0.45594000000E+02  0.51100000000E-03 0. -1.
         11   -1    0    0    0    0 -0.00000000000E+00 -0.00000000000E+00 -0.45593999997E+02  0.45594000000E+02  0.51100000000E-03 0.  1.
    9900012    2    1    2    0    0  0.67379412183E+00  0.53972303875E+00 -0.80472827925E+00  0.90007793628E+02  0.90000055704E+02 0.  0.
        -12    1    1    2    0    0 -0.67379412183E+00 -0.53972303875E+00  0.80472827925E+00  0.11802063720E+01  0.00000000000E+00 0.  1.
         11    1    3    3    0    0 -0.49631726380E+01  0.35072472883E+01  0.54050061700E+01  0.81331395005E+01  0.51100000000E-03 0. -1.
        -11    1    3    3    0    0  0.12496734941E+02  0.26791411598E+02 -0.30780754422E+02  0.42677897823E+02  0.51100000000E-03 0.  1.
         12    1    3    3    0    0 -0.68597681813E+01 -0.29758935848E+02  0.24571019972E+02  0.39196756304E+02  0.00000000000E+00 0. -1.
</event>
<event>
 7    1  0.4359248E-015  0.9000770E+02  0.7816164E-02  0.1186339E+00
        -11   -1    0    0    0    0  0.00000000000E+00  0.00000000000E+00  0.45593999997E+02  0.45594000000E+02  0.51100000000E-03 0.  1.
         11   -1    0    0    0    0 -0.00000000000E+00 -0.00000000000E+00 -0.45593999997E+02  0.45594000000E+02  0.51100000000E-03 0. -1.
    9900012    2    1    2    0    0 -0.99359067425E-01  0.87720987119E+00  0.78341472145E+00  0.90007700035E+02  0.89999960875E+02 0.  0.
        -12    1    1    2    0    0  0.99359067425E-01 -0.87720987119E+00 -0.78341472145E+00  0.11802999653E+01  0.00000000000E+00 0.  1.
         11    1    3    3    0    0  0.29472193608E+01  0.94886719554E+01  0.22368171355E+01  0.10184515138E+02  0.51100000000E-03 0. -1.
        -11    1    3    3    0    0 -0.16591743959E+01  0.26228443275E+02 -0.26166387935E+02  0.37085899667E+02  0.51100000000E-03 0.  1.
         12    1    3    3    0    0 -0.13874040323E+01 -0.34839905359E+02  0.24712985521E+02  0.42737285229E+02  0.00000000000E+00 0. -1.
</event>
<event>
 7    1  0.4359248E-015  0.9000742E+02  0.7816164E-02  0.1186340E+00
        -11   -1    0    0    0    0  0.00000000000E+00  0.00000000000E+00  0.45593999997E+02  0.45594000000E+02  0.51100000000E-03 0.  1.
         11   -1    0    0    0    0 -0.00000000000E+00 -0.00000000000E+00 -0.45593999997E+02  0.45594000000E+02  0.51100000000E-03 0. -1.
    9900012    2    1    2    0    0 -0.34481108752E+00  0.10925067703E+01 -0.28512421480E+00  0.90007423214E+02  0.89999680400E+02 0.  0.
        -12    1    1    2    0    0  0.34481108752E+00 -0.10925067703E+01  0.28512421480E+00  0.11805767858E+01  0.00000000000E+00 0.  1.
         11    1    3    3    0    0  0.98684874916E+01 -0.16647880026E+02  0.29324566971E+01  0.19573917781E+02  0.51100000000E-03 0. -1.
        -11    1    3    3    0    0  0.11213560326E+02  0.84507255224E+00  0.27282367619E+02  0.29509077687E+02  0.51100000000E-03 0.  1.
         12    1    3    3    0    0 -0.21426858905E+02  0.16895314244E+02 -0.30499948531E+02  0.40924427746E+02  0.00000000000E+00 0. -1.
</event>
<event>
 7    1  0.4359248E-015  0.9000797E+02  0.7816164E-02  0.1186339E+00
        -11   -1    0    0    0    0  0.00000000000E+00  0.00000000000E+00  0.45593999997E+02  0.45594000000E+02  0.51100000000E-03 0.  1.
         11   -1    0    0    0    0 -0.00000000000E+00 -0.00000000000E+00 -0.45593999997E+02  0.45594000000E+02  0.51100000000E-03 0. -1.
    9900012    2    1    2    0    0  0.10880348700E+01 -0.25211712140E+00 -0.38090923905E+00  0.90007968318E+02  0.90000232700E+02 0.  0.
        -12    1    1    2    0    0 -0.10880348700E+01  0.25211712140E+00  0.38090923905E+00  0.11800316816E+01  0.00000000000E+00 0.  1.
         11    1    3    3    0    0  0.11272856046E+02  0.34086417257E+02 -0.25868995189E+02  0.44251169897E+02  0.51100000000E-03 0. -1.
        -11    1    3    3    0    0  0.14667338165E+01 -0.82249432065E+01  0.16218811297E+01  0.85106696270E+01  0.51100000000E-03 0.  1.
        -12    1    3    3    0    0 -0.11651554992E+02 -0.26113591172E+02  0.23866204821E+02  0.37246128795E+02  0.00000000000E+00 0.  1.
</event>
<event>
 7    1  0.4359248E-015  0.9000783E+02  0.7816164E-02  0.1186339E+00
        -11   -1    0    0    0    0  0.00000000000E+00  0.00000000000E+00  0.45593999997E+02  0.45594000000E+02  0.51100000000E-03 0. -1.
         11   -1    0    0    0    0 -0.00000000000E+00 -0.00000000000E+00 -0.45593999997E+02  0.45594000000E+02  0.51100000000E-03 0.  1.
    9900012    2    1    2    0    0 -0.96490692204E+00 -0.34315421813E+00 -0.58650702249E+00  0.90007834472E+02  0.90000097087E+02 0.  0.
        -12    1    1    2    0    0  0.96490692204E+00  0.34315421813E+00  0.58650702249E+00  0.11801655278E+01  0.00000000000E+00 0.  1.
         11    1    3    3    0    0 -0.34320409111E+02 -0.13136887287E+02  0.19449585470E+02  0.41578295592E+02  0.51100000000E-03 0. -1.
        -11    1    3    3    0    0  0.71298548864E+01 -0.61555196073E+01  0.15339336750E+01  0.95434901958E+01  0.51100000000E-03 0.  1.
        -12    1    3    3    0    0  0.26225647303E+02  0.18949252676E+02 -0.21570026167E+02  0.38886048684E+02  0.00000000000E+00 0.  1.
</event>
<event>
 7    1  0.4359248E-015  0.9000775E+02  0.7816164E-02  0.1186339E+00
        -11   -1    0    0    0    0  0.00000000000E+00  0.00000000000E+00  0.45593999997E+02  0.45594000000E+02  0.51100000000E-03 0.  1.
         11   -1    0    0    0    0 -0.00000000000E+00 -0.00000000000E+00 -0.45593999997E+02  0.45594000000E+02  0.51100000000E-03 0. -1.
    9900012    2    1    2    0    0 -0.80213133364E+00 -0.77279470788E+00  0.39033862479E+00  0.90007749781E+02  0.90000011278E+02 0.  0.
        -12    1    1    2    0    0  0.80213133364E+00  0.77279470788E+00 -0.39033862479E+00  0.11802502188E+01  0.00000000000E+00 0.  1.
         11    1    3    3    0    0 -0.46191397409E+01 -0.48813251750E+01  0.76610273740E+01  0.10190933622E+02  0.51100000000E-03 0. -1.
        -11    1    3    3    0    0  0.95066892128E+01  0.51087223776E+00  0.35379802992E+02  0.36638348629E+02  0.51100000000E-03 0.  1.
         12    1    3    3    0    0 -0.56896808055E+01  0.35976582293E+01 -0.42650491742E+02  0.43178467530E+02  0.00000000000E+00 0. -1.
</event>
<event>
 7    1  0.4359248E-015  0.9000782E+02  0.7816164E-02  0.1186339E+00
        -11   -1    0    0    0    0  0.00000000000E+00  0.00000000000E+00  0.45593999997E+02  0.45594000000E+02  0.51100000000E-03 0.  1.
         11   -1    0    0    0    0 -0.00000000000E+00 -0.00000000000E+00 -0.45593999997E+02  0.45594000000E+02  0.51100000000E-03 0. -1.
    9900012    2    1    2    0    0  0.84155964143E+00  0.17356838679E+00 -0.80899403895E+00  0.90007822060E+02  0.90000084511E+02 0.  0.
        -12    1    1    2    0    0 -0.84155964143E+00 -0.17356838679E+00  0.80899403895E+00  0.11801779400E+01  0.00000000000E+00 0.  1.
         11    1    3    3    0    0  0.71069254294E+01 -0.22860780368E+01  0.65305723774E+01  0.99188163451E+01  0.51100000000E-03 0. -1.
        -11    1    3    3    0    0  0.12256257951E+02  0.27271375970E+02  0.22243706767E+02  0.37265618165E+02  0.51100000000E-03 0.  1.
         12    1    3    3    0    0 -0.18521623739E+02 -0.24811729546E+02 -0.29583273183E+02  0.42823387550E+02  0.00000000000E+00 0. -1.
</event>
<event>
 7    1  0.4359248E-015  0.9000777E+02  0.7816164E-02  0.1186339E+00
        -11   -1    0    0    0    0  0.00000000000E+00  0.00000000000E+00  0.45593999997E+02  0.45594000000E+02  0.51100000000E-03 0. -1.
         11   -1    0    0    0    0 -0.00000000000E+00 -0.00000000000E+00 -0.45593999997E+02  0.45594000000E+02  0.51100000000E-03 0.  1.
    9900012    2    1    2    0    0 -0.80581367472E+00  0.79205856799E+00 -0.34096438465E+00  0.90007767326E+02  0.90000029055E+02 0.  0.
        -12    1    1    2    0    0  0.80581367472E+00 -0.79205856799E+00  0.34096438465E+00  0.11802326741E+01  0.00000000000E+00 0.  1.
         11    1    3    3    0    0  0.26655088740E+01  0.25273934827E+01  0.91985442665E+01  0.99048408497E+01  0.51100000000E-03 0. -1.
        -11    1    3    3    0    0  0.30412094412E+02 -0.23520972038E+02  0.10169867498E+01  0.38459925565E+02  0.51100000000E-03 0.  1.
         12    1    3    3    0    0 -0.33883416960E+02  0.21785637123E+02 -0.10556495401E+02  0.41643000912E+02  0.00000000000E+00 0. -1.
</event>
<event>
 7    1  0.4359248E-015  0.9000775E+02  0.7816164E-02  0.1186339E+00
        -11   -1    0    0    0    0  0.00000000000E+00  0.00000000000E+00  0.45593999997E+02  0.45594000000E+02  0.51100000000E-03 0. -1.
         11   -1    0    0    0    0 -0.00000000000E+00 -0.00000000000E+00 -0.45593999997E+02  0.45594000000E+02  0.51100000000E-03 0.  1.
    9900012    2    1    2    0    0  0.87379824827E+00 -0.21758692930E+00 -0.76296932527E+00  0.90007750178E+02  0.90000011681E+02 0.  0.
        -12    1    1    2    0    0 -0.87379824827E+00  0.21758692930E+00  0.76296932527E+00  0.11802498218E+01  0.00000000000E+00 0.  1.
         11    1    3    3    0    0 -0.36089089283E+02  0.47768091665E+01 -0.49791122851E+01  0.36742779298E+02  0.51100000000E-03 0. -1.
        -11    1    3    3    0    0 -0.49506597541E+01 -0.52884784916E+01  0.84581189252E+01  0.11136283616E+02  0.51100000000E-03 0.  1.
        -12    1    3    3    0    0  0.41913547286E+02  0.29408239584E+00 -0.42419759654E+01  0.42128687265E+02  0.00000000000E+00 0.  1.
</event>
<event>
 7    1  0.4359248E-015  0.9000764E+02  0.7816164E-02  0.1186339E+00
        -11   -1    0    0    0    0  0.00000000000E+00  0.00000000000E+00  0.45593999997E+02  0.45594000000E+02  0.51100000000E-03 0.  1.
         11   -1    0    0    0    0 -0.00000000000E+00 -0.00000000000E+00 -0.45593999997E+02  0.45594000000E+02  0.51100000000E-03 0. -1.
    9900012    2    1    2    0    0  0.46811365628E+00 -0.56478138997E+00 -0.92473221321E+00  0.90007644935E+02  0.89999905048E+02 0.  0.
        -12    1    1    2    0    0 -0.46811365628E+00  0.56478138997E+00  0.92473221321E+00  0.11803550651E+01  0.00000000000E+00 0.  1.
         11    1    3    3    0    0  0.33568820904E+02  0.59466778065E+01  0.65157402778E+01  0.34708552051E+02  0.51100000000E-03 0. -1.
        -11    1    3    3    0    0 -0.19559897478E+01 -0.20358164900E+02 -0.19214106412E+00  0.20452816247E+02  0.51100000000E-03 0.  1.
        -12    1    3    3    0    0 -0.31144717500E+02  0.13846705704E+02 -0.72483314269E+01  0.34846276637E+02  0.00000000000E+00 0.  1.
</event>
<event>
 7    1  0.4359248E-015  0.9000777E+02  0.7816164E-02  0.1186339E+00
        -11   -1    0    0    0    0  0.00000000000E+00  0.00000000000E+00  0.45593999997E+02  0.45594000000E+02  0.51100000000E-03 0. -1.
         11   -1    0    0    0    0 -0.00000000000E+00 -0.00000000000E+00 -0.45593999997E+02  0.45594000000E+02  0.51100000000E-03 0.  1.
    9900012    2    1    2    0    0  0.52174237922E+00  0.86507819519E+00  0.61021709399E+00  0.90007771083E+02  0.90000032862E+02 0.  0.
        -12    1    1    2    0    0 -0.52174237922E+00 -0.86507819519E+00 -0.61021709399E+00  0.11802289167E+01  0.00000000000E+00 0.  1.
         11    1    3    3    0    0  0.13420526207E+01 -0.12650357038E+02  0.58488539178E+01  0.14001490308E+02  0.51100000000E-03 0. -1.
        -11    1    3    3    0    0 -0.72528493386E+01 -0.26263461859E+02 -0.19231734982E+02  0.33350155667E+02  0.51100000000E-03 0.  1.
         12    1    3    3    0    0  0.64325390971E+01  0.39778897093E+02  0.13993098158E+02  0.42656125108E+02  0.00000000000E+00 0. -1.
</event>
<event>
 7    1  0.4359248E-015  0.9000784E+02  0.7816164E-02  0.1186339E+00
        -11   -1    0    0    0    0  0.00000000000E+00  0.00000000000E+00  0.45593999997E+02  0.45594000000E+02  0.51100000000E-03 0.  1.
         11   -1    0    0    0    0 -0.00000000000E+00 -0.00000000000E+00 -0.45593999997E+02  0.45594000000E+02  0.51100000000E-03 0. -1.
    9900012    2    1    2    0    0  0.96567518000E+00  0.49106062968E+00 -0.46807833952E+00  0.90007844744E+02  0.90000107495E+02 0.  0.
        -12    1    1    2    0    0 -0.96567518000E+00 -0.49106062968E+00  0.46807833952E+00  0.11801552556E+01  0.00000000000E+00 0.  1.
         11    1    3    3    0    0  0.18600162649E+02 -0.21103043007E+02  0.24822178162E+02  0.37515930000E+02  0.51100000000E-03 0. -1.
        -11    1    3    3    0    0  0.93624543068E+01 -0.13099353329E+01 -0.89261384918E+00  0.94956959180E+01  0.51100000000E-03 0.  1.
        -12    1    3    3    0    0 -0.26996941776E+02  0.22904038970E+02 -0.24397642653E+02  0.42996218827E+02  0.00000000000E+00 0.  1.
</event>
<event>
 7    1  0.4359248E-015  0.9000769E+02  0.7816164E-02  0.1186339E+00
        -11   -1    0    0    0    0  0.00000000000E+00  0.00000000000E+00  0.45593999997E+02  0.45594000000E+02  0.51100000000E-03 0. -1.
         11   -1    0    0    0    0 -0.00000000000E+00 -0.00000000000E+00 -0.45593999997E+02  0.45594000000E+02  0.51100000000E-03 0.  1.
    9900012    2    1    2    0    0 -0.65394938947E+00  0.64167831772E+00  0.74413679058E+00  0.90007686300E+02  0.89999946959E+02 0.  0.
        -12    1    1    2    0    0  0.65394938947E+00 -0.64167831772E+00 -0.74413679058E+00  0.11803137000E+01  0.00000000000E+00 0.  1.
         11    1    3    3    0    0 -0.24745607649E+02  0.10173155503E+02  0.52079208817E+01  0.27257304177E+02  0.51100000000E-03 0. -1.
        -11    1    3    3    0    0  0.41370084254E+01  0.18949190642E+02  0.13478548456E+02  0.23619016352E+02  0.51100000000E-03 0.  1.
         12    1    3    3    0    0  0.19954649834E+02 -0.28480667827E+02 -0.17942332547E+02  0.39131365771E+02  0.00000000000E+00 0. -1.
</event>
<event>
 7    1  0.4359248E-015  0.9000793E+02  0.7816164E-02  0.1186339E+00
        -11   -1    0    0    0    0  0.00000000000E+00  0.00000000000E+00  0.45593999997E+02  0.45594000000E+02  0.51100000000E-03 0. -1.
         11   -1    0    0    0    0 -0.00000000000E+00 -0.00000000000E+00 -0.45593999997E+02  0.45594000000E+02  0.51100000000E-03 0.  1.
    9900012    2    1    2    0    0  0.11541676563E+01  0.11762756020E+00 -0.21591771243E+00  0.90007932341E+02  0.90000196247E+02 0.  0.
        -12    1    1    2    0    0 -0.11541676563E+01 -0.11762756020E+00  0.21591771243E+00  0.11800676592E+01  0.00000000000E+00 0.  1.
         11    1    3    3    0    0  0.58803075913E+01 -0.63340741539E+01  0.27282882533E+01  0.90632262363E+01  0.51100000000E-03 0. -1.
        -11    1    3    3    0    0  0.25922962508E+02 -0.21162686337E+02 -0.16775306684E+02  0.37433543685E+02  0.51100000000E-03 0.  1.
         12    1    3    3    0    0 -0.30649102443E+02  0.27614388051E+02  0.13831100718E+02  0.43511162420E+02  0.00000000000E+00 0. -1.
</event>
<event>
 7    1  0.4359248E-015  0.9000775E+02  0.7816164E-02  0.1186339E+00
        -11   -1    0    0    0    0  0.00000000000E+00  0.00000000000E+00  0.45593999997E+02  0.45594000000E+02  0.51100000000E-03 0.  1.
         11   -1    0    0    0    0 -0.00000000000E+00 -0.00000000000E+00 -0.45593999997E+02  0.45594000000E+02  0.51100000000E-03 0. -1.
    9900012    2    1    2    0    0  0.84641723018E+00  0.79776443810E+00 -0.20034444163E+00  0.90007750822E+02  0.90000012333E+02 0.  0.
        -12    1    1    2    0    0 -0.84641723018E+00 -0.79776443810E+00  0.20034444163E+00  0.11802491777E+01  0.00000000000E+00 0.  1.
         11    1    3    3    0    0 -0.11407559235E+02  0.44586048922E+01  0.43692704187E+01  0.13003925928E+02  0.51100000000E-03 0. -1.
        -11    1    3    3    0    0 -0.28195252890E+02  0.14215303682E+02 -0.82251289173E+01  0.32629739353E+02  0.51100000000E-03 0.  1.
         12    1    3    3    0    0  0.40449229355E+02 -0.17876144136E+02  0.36555140570E+01  0.44374085541E+02  0.00000000000E+00 0. -1.
</event>
<event>
 7    1  0.4359248E-015  0.9000766E+02  0.7816164E-02  0.1186339E+00
        -11   -1    0    0    0    0  0.00000000000E+00  0.00000000000E+00  0.45593999997E+02  0.45594000000E+02  0.51100000000E-03 0.  1.
         11   -1    0    0    0    0 -0.00000000000E+00 -0.00000000000E+00 -0.45593999997E+02  0.45594000000E+02  0.51100000000E-03 0. -1.
    9900012    2    1    2    0    0 -0.62537835508E+00 -0.97255115394E+00 -0.23714624942E+00  0.90007664379E+02  0.89999924749E+02 0.  0.
        -12    1    1    2    0    0  0.62537835508E+00  0.97255115394E+00  0.23714624942E+00  0.11803356208E+01  0.00000000000E+00 0.  1.
         11    1    3    3    0    0  0.37007196351E+02  0.39416173762E+01 -0.36788661634E+01  0.37397900821E+02  0.51100000000E-03 0. -1.
        -11    1    3    3    0    0  0.42168248258E+01  0.48041882433E+01 -0.58368608390E+01  0.86562567547E+01  0.51100000000E-03 0.  1.
        -12    1    3    3    0    0 -0.41849399532E+02 -0.97183567735E+01  0.92785807529E+01  0.43953506804E+02  0.00000000000E+00 0.  1.
</event>
<event>
 7    1  0.4359248E-015  0.9000768E+02  0.7816164E-02  0.1186339E+00
        -11   -1    0    0    0    0  0.00000000000E+00  0.00000000000E+00  0.45593999997E+02  0.45594000000E+02  0.51100000000E-03 0.  1.
         11   -1    0    0    0    0 -0.00000000000E+00 -0.00000000000E+00 -0.45593999997E+02  0.45594000000E+02  0.51100000000E-03 0. -1.
    9900012    2    1    2    0    0 -0.79873757872E+00  0.83922640141E+00 -0.22552746379E+00  0.90007684233E+02  0.89999944865E+02 0.  0.
        -12    1    1    2    0    0  0.79873757872E+00 -0.83922640141E+00  0.22552746379E+00  0.11803157668E+01  0.00000000000E+00 0.  1.
         11    1    3    3    0    0 -0.55884200552E+01 -0.50263396105E+01  0.62337056026E+01  0.97649175314E+01  0.51100000000E-03 0. -1.
        -11    1    3    3    0    0  0.23674780133E+02 -0.15309288905E+02  0.25140395958E+02  0.37774449702E+02  0.51100000000E-03 0.  1.
         12    1    3    3    0    0 -0.18885097657E+02  0.21174854917E+02 -0.31599629025E+02  0.42468316999E+02  0.00000000000E+00 0. -1.
</event>
<event>
 7    1  0.4359248E-015  0.9000776E+02  0.7816164E-02  0.1186339E+00
        -11   -1    0    0    0    0  0.00000000000E+00  0.00000000000E+00  0.45593999997E+02  0.45594000000E+02  0.51100000000E-03 0.  1.
         11   -1    0    0    0    0 -0.00000000000E+00 -0.00000000000E+00 -0.45593999997E+02  0.45594000000E+02  0.51100000000E-03 0. -1.
    9900012    2    1    2    0    0 -0.50882140900E+00  0.40180702385E+00 -0.98621283325E+00  0.90007761099E+02  0.90000022746E+02 0.  0.
        -12    1    1    2    0    0  0.50882140900E+00 -0.40180702385E+00  0.98621283325E+00  0.11802389009E+01  0.00000000000E+00 0.  1.
         11    1    3    3    0    0 -0.27973858798E+02  0.13575375621E+02 -0.31838585135E+02  0.44503068467E+02  0.51100000000E-03 0. -1.
        -11    1    3    3    0    0  0.72773567765E+01  0.20242449224E+01  0.36924711774E+01  0.84078435294E+01  0.51100000000E-03 0.  1.
        -12    1    3    3    0    0  0.20187680612E+02 -0.15197813520E+02  0.27159901124E+02  0.37096849103E+02  0.00000000000E+00 0.  1.
</event>
<event>
 7    1  0.4359248E-015  0.9000767E+02  0.7816164E-02  0.1186339E+00
        -11   -1    0    0    0    0  0.00000000000E+00  0.00000000000E+00  0.45593999997E+02  0.45594000000E+02  0.51100000000E-03 0.  1.
         11   -1    0    0    0    0 -0.00000000000E+00 -0.00000000000E+00 -0.45593999997E+02  0.45594000000E+02  0.51100000000E-03 0. -1.
    9900012    2    1    2    0    0  0.52114243651E+00 -0.41693960812E+00 -0.97353015831E+00  0.90007665706E+02  0.89999926094E+02 0.  0.
        -12    1    1    2    0    0 -0.52114243651E+00  0.41693960812E+00  0.97353015831E+00  0.11803342938E+01  0.00000000000E+00 0.  1.
         11    1    3    3    0    0 -0.13141528232E+01 -0.19225808401E+00 -0.10939867646E+02  0.11020193519E+02  0.51100000000E-03 0. -1.
        -11    1    3    3    0    0 -0.16586695808E+02 -0.33273672263E+02 -0.64658293727E+01  0.37736755205E+02  0.51100000000E-03 0.  1.
         12    1    3    3    0    0  0.18421991068E+02  0.33048990739E+02  0.16432166861E+02  0.41250716982E+02  0.00000000000E+00 0. -1.
</event>
<event>
 7    1  0.4359248E-015  0.9000788E+02  0.7816164E-02  0.1186339E+00
        -11   -1    0    0    0    0  0.00000000000E+00  0.00000000000E+00  0.45593999997E+02  0.45594000000E+02  0.51100000000E-03 0.  1.
         11   -1    0    0    0    0 -0.00000000000E+00 -0.00000000000E+00 -0.45593999997E+02  0.45594000000E+02  0.51100000000E-03 0. -1.
    9900012    2    1    2    0    0  0.63174594183E+00 -0.89075829279E+00 -0.44735744995E+00  0.90007880532E+02  0.90000143755E+02 0.  0.
        -12    1    1    2    0    0 -0.63174594183E+00  0.89075829279E+00  0.44735744995E+00  0.11801194682E+01  0.00000000000E+00 0.  1.
         11    1    3    3    0    0  0.67788891821E+01  0.53415747527E+01  0.42724812296E+01  0.96301534516E+01  0.51100000000E-03 0. -1.
        -11    1    3    3    0    0  0.13118779994E+02  0.33533328072E+02 -0.34428658138E+01  0.36172362452E+02  0.51100000000E-03 0.  1.
         12    1    3    3    0    0 -0.19265923234E+02 -0.39765661118E+02 -0.12769728657E+01  0.44205364628E+02  0.00000000000E+00 0. -1.
</event>
<event>
 7    1  0.4359248E-015  0.9000777E+02  0.7816164E-02  0.1186339E+00
        -11   -1    0    0    0    0  0.00000000000E+00  0.00000000000E+00  0.45593999997E+02  0.45594000000E+02  0.51100000000E-03 0.  1.
         11   -1    0    0    0    0 -0.00000000000E+00 -0.00000000000E+00 -0.45593999997E+02  0.45594000000E+02  0.51100000000E-03 0. -1.
    9900012    2    1    2    0    0  0.72003570816E+00  0.46315530856E+00 -0.81238695927E+00  0.90007772551E+02  0.90000034348E+02 0.  0.
        -12    1    1    2    0    0 -0.72003570816E+00 -0.46315530856E+00  0.81238695927E+00  0.11802274495E+01  0.00000000000E+00 0.  1.
         11    1    3    3    0    0 -0.29031160104E+02  0.24305675259E+02  0.25254504917E+01  0.37946699556E+02  0.51100000000E-03 0. -1.
        -11    1    3    3    0    0  0.32875657598E+01  0.90199416325E+01  0.96642627684E+00  0.96489074868E+01  0.51100000000E-03 0.  1.
        -12    1    3    3    0    0  0.26463630052E+02 -0.32862461582E+02 -0.43042637279E+01  0.42412165508E+02  0.00000000000E+00 0.  1.
</event>
<event>
 7    1  0.4359248E-015  0.9000801E+02  0.7816164E-02  0.1186339E+00
        -11   -1    0    0    0    0  0.00000000000E+00  0.00000000000E+00  0.45593999997E+02  0.45594000000E+02  0.51100000000E-03 0.  1.
         11   -1    0    0    0    0 -0.00000000000E+00 -0.00000000000E+00 -0.45593999997E+02  0.45594000000E+02  0.51100000000E-03 0. -1.
    9900012    2    1    2    0    0 -0.19820761482E+00 -0.10638642855E+01  0.47041779477E+00  0.90008005772E+02  0.90000270648E+02 0.  0.
        -12    1    1    2    0    0  0.19820761482E+00  0.10638642855E+01 -0.47041779477E+00  0.11799942280E+01  0.00000000000E+00 0.  1.
         11    1    3    3    0    0  0.52923438976E+01 -0.10281914932E+01  0.80247011667E+01  0.96675700542E+01  0.51100000000E-03 0. -1.
        -11    1    3    3    0    0  0.10202893402E+02  0.30706642675E+02  0.18337609668E+02  0.37192268911E+02  0.51100000000E-03 0.  1.
         12    1    3    3    0    0 -0.15693444915E+02 -0.30742315467E+02 -0.25891893040E+02  0.43148166807E+02  0.00000000000E+00 0. -1.
</event>
<event>
 7    1  0.4359248E-015  0.9000771E+02  0.7816164E-02  0.1186339E+00
        -11   -1    0    0    0    0  0.00000000000E+00  0.00000000000E+00  0.45593999997E+02  0.45594000000E+02  0.51100000000E-03 0. -1.
         11   -1    0    0    0    0 -0.00000000000E+00 -0.00000000000E+00 -0.45593999997E+02  0.45594000000E+02  0.51100000000E-03 0.  1.
    9900012    2    1    2    0    0 -0.38197342721E+00  0.43166040514E+00  0.10299706995E+01  0.90007714422E+02  0.89999975452E+02 0.  0.
        -12    1    1    2    0    0  0.38197342721E+00 -0.43166040514E+00 -0.10299706995E+01  0.11802855783E+01  0.00000000000E+00 0.  1.
         11    1    3    3    0    0 -0.64096457316E+01 -0.14085293555E+00 -0.13248005640E+02  0.14717780120E+02  0.51100000000E-03 0. -1.
        -11    1    3    3    0    0 -0.12732327056E+02  0.33177695187E+02  0.15236332673E+01  0.35569552552E+02  0.51100000000E-03 0.  1.
         12    1    3    3    0    0  0.18759999360E+02 -0.32605181846E+02  0.12754343072E+02  0.39720381750E+02  0.00000000000E+00 0. -1.
</event>
<event>
 7    1  0.4359248E-015  0.9000778E+02  0.7816164E-02  0.1186339E+00
        -11   -1    0    0    0    0  0.00000000000E+00  0.00000000000E+00  0.45593999997E+02  0.45594000000E+02  0.51100000000E-03 0. -1.
         11   -1    0    0    0    0 -0.00000000000E+00 -0.00000000000E+00 -0.45593999997E+02  0.45594000000E+02  0.51100000000E-03 0.  1.
    9900012    2    1    2    0    0  0.86018982699E+00  0.99938732963E-01 -0.80187498247E+00  0.90007780624E+02  0.90000042528E+02 0.  0.
        -12    1    1    2    0    0 -0.86018982699E+00 -0.99938732963E-01  0.80187498247E+00  0.11802193763E+01  0.00000000000E+00 0.  1.
         11    1    3    3    0    0 -0.30108971789E+02 -0.11264669722E+02  0.25491583711E+02  0.41027598108E+02  0.51100000000E-03 0. -1.
        -11    1    3    3    0    0  0.13783461064E+02 -0.75870959852E+01 -0.10461501261E+02  0.18894201049E+02  0.51100000000E-03 0.  1.
        -12    1    3    3    0    0  0.17185700552E+02  0.18951704440E+02 -0.15831957432E+02  0.30085981466E+02  0.00000000000E+00 0.  1.
</event>
<event>
 7    1  0.4359248E-015  0.9000773E+02  0.7816164E-02  0.1186339E+00
        -11   -1    0    0    0    0  0.00000000000E+00  0.00000000000E+00  0.45593999997E+02  0.45594000000E+02  0.51100000000E-03 0. -1.
         11   -1    0    0    0    0 -0.00000000000E+00 -0.00000000000E+00 -0.45593999997E+02  0.45594000000E+02  0.51100000000E-03 0.  1.
    9900012    2    1    2    0    0 -0.83937732648E+00 -0.57129218220E+00  0.60175320721E+00  0.90007730549E+02  0.89999991793E+02 0.  0.
        -12    1    1    2    0    0  0.83937732648E+00  0.57129218220E+00 -0.60175320721E+00  0.11802694506E+01  0.00000000000E+00 0.  1.
         11    1    3    3    0    0  0.36321057439E+01 -0.33104275767E+01 -0.89196023173E+01  0.10183831727E+02  0.51100000000E-03 0. -1.
        -11    1    3    3    0    0 -0.13853929862E+02  0.74697834077E+01 -0.32712782378E+02  0.36302274970E+02  0.51100000000E-03 0.  1.
         12    1    3    3    0    0  0.93824467914E+01 -0.47306480132E+01  0.42234137903E+02  0.43521623853E+02  0.00000000000E+00 0. -1.
</event>
<event>
 7    1  0.4359248E-015  0.9000764E+02  0.7816164E-02  0.1186339E+00
        -11   -1    0    0    0    0  0.00000000000E+00  0.00000000000E+00  0.45593999997E+02  0.45594000000E+02  0.51100000000E-03 0. -1.
         11   -1    0    0    0    0 -0.00000000000E+00 -0.00000000000E+00 -0.45593999997E+02  0.45594000000E+02  0.51100000000E-03 0.  1.
    9900012    2    1    2    0    0 -0.10123106467E+01  0.52248742988E+00 -0.30898608365E+00  0.90007644816E+02  0.89999904928E+02 0.  0.
        -12    1    1    2    0    0  0.10123106467E+01 -0.52248742988E+00  0.30898608365E+00  0.11803551837E+01  0.00000000000E+00 0.  1.
         11    1    3    3    0    0 -0.23656032393E+02  0.10317442598E+01  0.31631960717E+02  0.39512698008E+02  0.51100000000E-03 0. -1.
        -11    1    3    3    0    0  0.93928797656E+01  0.37607475907E+01  0.48045271552E+01  0.11200575618E+02  0.51100000000E-03 0.  1.
        -12    1    3    3    0    0  0.13250841981E+02 -0.42700044206E+01 -0.36745473956E+02  0.39294371190E+02  0.00000000000E+00 0.  1.
</event>
<event>
 7    1  0.4359248E-015  0.9000776E+02  0.7816164E-02  0.1186339E+00
        -11   -1    0    0    0    0  0.00000000000E+00  0.00000000000E+00  0.45593999997E+02  0.45594000000E+02  0.51100000000E-03 0. -1.
         11   -1    0    0    0    0 -0.00000000000E+00 -0.00000000000E+00 -0.45593999997E+02  0.45594000000E+02  0.51100000000E-03 0.  1.
    9900012    2    1    2    0    0  0.65687191642E+00  0.93800590177E+00  0.28569853324E+00  0.90007762974E+02  0.90000024645E+02 0.  0.
        -12    1    1    2    0    0 -0.65687191642E+00 -0.93800590177E+00 -0.28569853324E+00  0.11802370263E+01  0.00000000000E+00 0.  1.
         11    1    3    3    0    0  0.35257543702E+01  0.92084591604E+01 -0.50611130408E+01  0.11083389800E+02  0.51100000000E-03 0. -1.
        -11    1    3    3    0    0  0.22127966039E+02 -0.19548274456E+01 -0.28652367891E+02  0.36255019203E+02  0.51100000000E-03 0.  1.
         12    1    3    3    0    0 -0.24996848493E+02 -0.63156258131E+01  0.33999179465E+02  0.42669353971E+02  0.00000000000E+00 0. -1.
</event>
<event>
 7    1  0.4359248E-015  0.9000775E+02  0.7816164E-02  0.1186339E+00
        -11   -1    0    0    0    0  0.00000000000E+00  0.00000000000E+00  0.45593999997E+02  0.45594000000E+02  0.51100000000E-03 0. -1.
         11   -1    0    0    0    0 -0.00000000000E+00 -0.00000000000E+00 -0.45593999997E+02  0.45594000000E+02  0.51100000000E-03 0.  1.
    9900012    2    1    2    0    0 -0.54371320440E+00  0.13540828333E+00  0.10387664838E+01  0.90007747798E+02  0.90000009269E+02 0.  0.
        -12    1    1    2    0    0  0.54371320440E+00 -0.13540828333E+00 -0.10387664838E+01  0.11802522017E+01  0.00000000000E+00 0.  1.
         11    1    3    3    0    0  0.10791554966E+02  0.16940513824E+01  0.24542042236E+00  0.10926467870E+02  0.51100000000E-03 0. -1.
        -11    1    3    3    0    0 -0.28609316305E+02  0.30985846998E+02 -0.10989862688E+01  0.42187954024E+02  0.51100000000E-03 0.  1.
         12    1    3    3    0    0  0.17274048134E+02 -0.32544490097E+02  0.18923323302E+01  0.36893325904E+02  0.00000000000E+00 0. -1.
</event>
<event>
 7    1  0.4359248E-015  0.9000774E+02  0.7816164E-02  0.1186339E+00
        -11   -1    0    0    0    0  0.00000000000E+00  0.00000000000E+00  0.45593999997E+02  0.45594000000E+02  0.51100000000E-03 0.  1.
         11   -1    0    0    0    0 -0.00000000000E+00 -0.00000000000E+00 -0.45593999997E+02  0.45594000000E+02  0.51100000000E-03 0. -1.
    9900012    2    1    2    0    0  0.69439268307E+00 -0.57960391928E+00  0.75821925337E+00  0.90007738022E+02  0.89999999363E+02 0.  0.
        -12    1    1    2    0    0 -0.69439268307E+00  0.57960391928E+00 -0.75821925337E+00  0.11802619784E+01  0.00000000000E+00 0.  1.
         11    1    3    3    0    0 -0.31794156560E+02 -0.82703030492E+01 -0.14278950800E+02  0.35821149341E+02  0.51100000000E-03 0. -1.
        -11    1    3    3    0    0 -0.50228440229E+01 -0.18098491854E+01 -0.76512277705E+01  0.93298340183E+01  0.51100000000E-03 0.  1.
        -12    1    3    3    0    0  0.37511393266E+02  0.95005483154E+01  0.22688397824E+02  0.44856754663E+02  0.00000000000E+00 0.  1.
</event>
<event>
 7    1  0.4359248E-015  0.9000772E+02  0.7816164E-02  0.1186339E+00
        -11   -1    0    0    0    0  0.00000000000E+00  0.00000000000E+00  0.45593999997E+02  0.45594000000E+02  0.51100000000E-03 0. -1.
         11   -1    0    0    0    0 -0.00000000000E+00 -0.00000000000E+00 -0.45593999997E+02  0.45594000000E+02  0.51100000000E-03 0.  1.
    9900012    2    1    2    0    0 -0.96287288023E+00 -0.23561069910E+00 -0.64065282131E+00  0.90007715025E+02  0.89999976063E+02 0.  0.
        -12    1    1    2    0    0  0.96287288023E+00  0.23561069910E+00  0.64065282131E+00  0.11802849751E+01  0.00000000000E+00 0.  1.
         11    1    3    3    0    0  0.17445330845E+02  0.46978909665E+01 -0.14176424893E+02  0.22964772388E+02  0.51100000000E-03 0. -1.
        -11    1    3    3    0    0  0.19743483438E+02 -0.14112308979E+02  0.13565525680E+02  0.27802623801E+02  0.51100000000E-03 0.  1.
        -12    1    3    3    0    0 -0.38151687163E+02  0.91788073132E+01 -0.29753608615E-01  0.39240318836E+02  0.00000000000E+00 0.  1.
</event>
<event>
 7    1  0.4359248E-015  0.9000789E+02  0.7816164E-02  0.1186339E+00
        -11   -1    0    0    0    0  0.00000000000E+00  0.00000000000E+00  0.45593999997E+02  0.45594000000E+02  0.51100000000E-03 0.  1.
         11   -1    0    0    0    0 -0.00000000000E+00 -0.00000000000E+00 -0.45593999997E+02  0.45594000000E+02  0.51100000000E-03 0. -1.
    9900012    2    1    2    0    0 -0.61831149868E+00 -0.89705251983E+00 -0.45347171251E+00  0.90007894527E+02  0.90000157935E+02 0.  0.
        -12    1    1    2    0    0  0.61831149868E+00  0.89705251983E+00  0.45347171251E+00  0.11801054727E+01  0.00000000000E+00 0.  1.
         11    1    3    3    0    0  0.60194851469E+01 -0.40109689679E+00  0.10917476205E+02  0.12473426438E+02  0.51100000000E-03 0. -1.
        -11    1    3    3    0    0  0.33628726828E+02  0.36641030728E+01  0.43537371924E+01  0.34106772746E+02  0.51100000000E-03 0.  1.
         12    1    3    3    0    0 -0.40266523473E+02 -0.41600586958E+01 -0.15724685110E+02  0.43427695343E+02  0.00000000000E+00 0. -1.
</event>
<event>
 7    1  0.4359248E-015  0.9000772E+02  0.7816164E-02  0.1186339E+00
        -11   -1    0    0    0    0  0.00000000000E+00  0.00000000000E+00  0.45593999997E+02  0.45594000000E+02  0.51100000000E-03 0.  1.
         11   -1    0    0    0    0 -0.00000000000E+00 -0.00000000000E+00 -0.45593999997E+02  0.45594000000E+02  0.51100000000E-03 0. -1.
    9900012    2    1    2    0    0  0.34608246600E+00  0.11277806777E+01 -0.37402018521E-01  0.90007719846E+02  0.89999980948E+02 0.  0.
        -12    1    1    2    0    0 -0.34608246600E+00 -0.11277806777E+01  0.37402018521E-01  0.11802801538E+01  0.00000000000E+00 0.  1.
         11    1    3    3    0    0  0.57929159962E+01  0.41576343869E+01 -0.52950024847E+01  0.88814892337E+01  0.51100000000E-03 0. -1.
        -11    1    3    3    0    0 -0.19919722378E+02 -0.44399878244E+01 -0.33781028954E+02  0.39467287073E+02  0.51100000000E-03 0.  1.
         12    1    3    3    0    0  0.14472888848E+02  0.14101341153E+01  0.39038629420E+02  0.41658943539E+02  0.00000000000E+00 0. -1.
</event>
<event>
 7    1  0.4359248E-015  0.9000768E+02  0.7816164E-02  0.1186339E+00
        -11   -1    0    0    0    0  0.00000000000E+00  0.00000000000E+00  0.45593999997E+02  0.45594000000E+02  0.51100000000E-03 0.  1.
         11   -1    0    0    0    0 -0.00000000000E+00 -0.00000000000E+00 -0.45593999997E+02  0.45594000000E+02  0.51100000000E-03 0. -1.
    9900012    2    1    2    0    0 -0.11406833615E+01  0.29057969452E+00  0.86917653136E-01  0.90007682344E+02  0.89999942951E+02 0.  0.
        -12    1    1    2    0    0  0.11406833615E+01 -0.29057969452E+00 -0.86917653136E-01  0.11803176558E+01  0.00000000000E+00 0.  1.
         11    1    3    3    0    0  0.11142399144E+02  0.43708204599E+01 -0.17882725206E+01  0.12101861387E+02  0.51100000000E-03 0. -1.
        -11    1    3    3    0    0  0.58486515405E+01 -0.27706410243E+02  0.26861568995E+02  0.39030703075E+02  0.51100000000E-03 0.  1.
         12    1    3    3    0    0 -0.18131734046E+02  0.23626169478E+02 -0.24986378821E+02  0.38875117882E+02  0.00000000000E+00 0. -1.
</event>
<event>
 7    1  0.4359248E-015  0.9000777E+02  0.7816164E-02  0.1186339E+00
        -11   -1    0    0    0    0  0.00000000000E+00  0.00000000000E+00  0.45593999997E+02  0.45594000000E+02  0.51100000000E-03 0. -1.
         11   -1    0    0    0    0 -0.00000000000E+00 -0.00000000000E+00 -0.45593999997E+02  0.45594000000E+02  0.51100000000E-03 0.  1.
    9900012    2    1    2    0    0 -0.35829360977E+00 -0.93497530387E+00  0.62481603490E+00  0.90007767732E+02  0.90000029466E+02 0.  0.
        -12    1    1    2    0    0  0.35829360977E+00  0.93497530387E+00 -0.62481603490E+00  0.11802322683E+01  0.00000000000E+00 0.  1.
         11    1    3    3    0    0  0.11827290096E+01 -0.73068915262E+01 -0.47240608837E+01  0.87810172064E+01  0.51100000000E-03 0. -1.
        -11    1    3    3    0    0  0.22719882380E+02 -0.13605095431E+02 -0.25804468894E+02  0.36975157771E+02  0.51100000000E-03 0.  1.
         12    1    3    3    0    0 -0.24260904999E+02  0.19977011653E+02  0.31153345812E+02  0.44251592754E+02  0.00000000000E+00 0. -1.
</event>
<event>
 7    1  0.4359248E-015  0.9000769E+02  0.7816164E-02  0.1186339E+00
        -11   -1    0    0    0    0  0.00000000000E+00  0.00000000000E+00  0.45593999997E+02  0.45594000000E+02  0.51100000000E-03 0. -1.
         11   -1    0    0    0    0 -0.00000000000E+00 -0.00000000000E+00 -0.45593999997E+02  0.45594000000E+02  0.51100000000E-03 0.  1.
    9900012    2    1    2    0    0 -0.10690666016E+01 -0.49777121038E+00  0.49544166325E-01  0.90007688939E+02  0.89999949633E+02 0.  0.
        -12    1    1    2    0    0  0.10690666016E+01  0.49777121038E+00 -0.49544166325E-01  0.11803110611E+01  0.00000000000E+00 0.  1.
         11    1    3    3    0    0  0.18021834954E+01  0.40622742736E+02 -0.92871287801E+01  0.41709781274E+02  0.51100000000E-03 0. -1.
        -11    1    3    3    0    0 -0.47735606062E+01 -0.31996387815E+01  0.85739525659E+01  0.10321687462E+02  0.51100000000E-03 0.  1.
        -12    1    3    3    0    0  0.19023105093E+01 -0.37920875164E+02  0.76272038051E+00  0.37976220203E+02  0.00000000000E+00 0.  1.
</event>
<event>
 7    1  0.4359248E-015  0.9000770E+02  0.7816164E-02  0.1186339E+00
        -11   -1    0    0    0    0  0.00000000000E+00  0.00000000000E+00  0.45593999997E+02  0.45594000000E+02  0.51100000000E-03 0.  1.
         11   -1    0    0    0    0 -0.00000000000E+00 -0.00000000000E+00 -0.45593999997E+02  0.45594000000E+02  0.51100000000E-03 0. -1.
    9900012    2    1    2    0    0  0.53894000999E+00 -0.39755914677E+00 -0.97189872273E+00  0.90007704809E+02  0.89999965713E+02 0.  0.
        -12    1    1    2    0    0 -0.53894000999E+00  0.39755914677E+00  0.97189872273E+00  0.11802951905E+01  0.00000000000E+00 0.  1.
         11    1    3    3    0    0 -0.10485265493E+02 -0.20776101926E+02 -0.50942392833E+01  0.23823066088E+02  0.51100000000E-03 0. -1.
        -11    1    3    3    0    0 -0.13633333967E+02 -0.19544461903E+00  0.24580005447E+02  0.28108409093E+02  0.51100000000E-03 0.  1.
         12    1    3    3    0    0  0.24657539470E+02  0.20573987398E+02 -0.20457664887E+02  0.38076229629E+02  0.00000000000E+00 0. -1.
</event>
<event>
 7    1  0.4359248E-015  0.9000760E+02  0.7816164E-02  0.1186339E+00
        -11   -1    0    0    0    0  0.00000000000E+00  0.00000000000E+00  0.45593999997E+02  0.45594000000E+02  0.51100000000E-03 0.  1.
         11   -1    0    0    0    0 -0.00000000000E+00 -0.00000000000E+00 -0.45593999997E+02  0.45594000000E+02  0.51100000000E-03 0. -1.
    9900012    2    1    2    0    0  0.18170316639E+00 -0.10795658345E+01  0.44143771473E+00  0.90007599353E+02  0.89999858864E+02 0.  0.
        -12    1    1    2    0    0 -0.18170316639E+00  0.10795658345E+01 -0.44143771473E+00  0.11804006471E+01  0.00000000000E+00 0.  1.
         11    1    3    3    0    0  0.33906492687E+02  0.80679404172E+01  0.12401941414E+02  0.36993919230E+02  0.51100000000E-03 0. -1.
        -11    1    3    3    0    0  0.63024108057E+01  0.59528540704E+01 -0.37809844890E+01  0.94579436197E+01  0.51100000000E-03 0.  1.
        -12    1    3    3    0    0 -0.40027200326E+02 -0.15100360322E+02 -0.81795192105E+01  0.43555736503E+02  0.00000000000E+00 0.  1.
</event>
<event>
 7    1  0.4359248E-015  0.9000777E+02  0.7816164E-02  0.1186339E+00
        -11   -1    0    0    0    0  0.00000000000E+00  0.00000000000E+00  0.45593999997E+02  0.45594000000E+02  0.51100000000E-03 0. -1.
         11   -1    0    0    0    0 -0.00000000000E+00 -0.00000000000E+00 -0.45593999997E+02  0.45594000000E+02  0.51100000000E-03 0.  1.
    9900012    2    1    2    0    0  0.11190013912E+01 -0.21914030190E+00  0.30455074290E+00  0.90007772166E+02  0.90000033958E+02 0.  0.
        -12    1    1    2    0    0 -0.11190013912E+01  0.21914030190E+00 -0.30455074290E+00  0.11802278341E+01  0.00000000000E+00 0.  1.
         11    1    3    3    0    0 -0.24434635742E+01  0.86131914795E+01 -0.14747126782E+01  0.90737180607E+01  0.51100000000E-03 0. -1.
        -11    1    3    3    0    0 -0.71973145643E+01 -0.25959652751E+02 -0.31835069933E+02  0.41703436139E+02  0.51100000000E-03 0.  1.
         12    1    3    3    0    0  0.10759779530E+02  0.17127320970E+02  0.33614333354E+02  0.39230617966E+02  0.00000000000E+00 0. -1.
</event>
<event>
 7    1  0.4359248E-015  0.9000828E+02  0.7816164E-02  0.1186338E+00
        -11   -1    0    0    0    0  0.00000000000E+00  0.00000000000E+00  0.45593999997E+02  0.45594000000E+02  0.51100000000E-03 0.  1.
         11   -1    0    0    0    0 -0.00000000000E+00 -0.00000000000E+00 -0.45593999997E+02  0.45594000000E+02  0.51100000000E-03 0. -1.
    9900012    2    1    2    0    0  0.12532955283E+00  0.29566554986E+00 -0.11351688071E+01  0.90008282307E+02  0.90000550832E+02 0.  0.
        -12    1    1    2    0    0 -0.12532955283E+00 -0.29566554986E+00  0.11351688071E+01  0.11797176928E+01  0.00000000000E+00 0.  1.
         11    1    3    3    0    0 -0.46458545387E+01 -0.81510686387E+01 -0.27696595504E+01  0.97823769419E+01  0.51100000000E-03 0. -1.
        -11    1    3    3    0    0  0.29205255670E+02  0.47447251627E+01  0.30319005906E+02  0.42363917371E+02  0.51100000000E-03 0.  1.
         12    1    3    3    0    0 -0.24434071579E+02  0.37020090258E+01 -0.28684515163E+02  0.37861987994E+02  0.00000000000E+00 0. -1.
</event>
<event>
 7    1  0.4359248E-015  0.9000765E+02  0.7816164E-02  0.1186339E+00
        -11   -1    0    0    0    0  0.00000000000E+00  0.00000000000E+00  0.45593999997E+02  0.45594000000E+02  0.51100000000E-03 0. -1.
         11   -1    0    0    0    0 -0.00000000000E+00 -0.00000000000E+00 -0.45593999997E+02  0.45594000000E+02  0.51100000000E-03 0.  1.
    9900012    2    1    2    0    0  0.89817300690E+00 -0.67969707501E+00 -0.35288579241E+00  0.90007647829E+02  0.89999907981E+02 0.  0.
        -12    1    1    2    0    0 -0.89817300690E+00  0.67969707501E+00  0.35288579241E+00  0.11803521706E+01  0.00000000000E+00 0.  1.
         11    1    3    3    0    0  0.42570217666E+01 -0.51420442835E+01 -0.68688373468E+01  0.95782973692E+01  0.51100000000E-03 0. -1.
        -11    1    3    3    0    0  0.36278113157E+02 -0.93340085947E+01  0.85044414084E+01  0.38412898024E+02  0.51100000000E-03 0.  1.
         12    1    3    3    0    0 -0.39636961917E+02  0.13796355803E+02 -0.19884898539E+01  0.42016452436E+02  0.00000000000E+00 0. -1.
</event>
<event>
 7    1  0.5747252E-015  0.9000770E+02  0.7816164E-02  0.1186339E+00
        -11   -1    0    0    0    0  0.00000000000E+00  0.00000000000E+00  0.45593999997E+02  0.45594000000E+02  0.51100000000E-03 0. -1.
         11   -1    0    0    0    0 -0.00000000000E+00 -0.00000000000E+00 -0.45593999997E+02  0.45594000000E+02  0.51100000000E-03 0.  1.
    9900012    2    1    2    0    0  0.53430486632E+00 -0.31966567065E+00  0.10027106401E+01  0.90007704927E+02  0.89999965832E+02 0.  0.
        -12    1    1    2    0    0 -0.53430486632E+00  0.31966567065E+00 -0.10027106401E+01  0.11802950728E+01  0.00000000000E+00 0.  1.
         11    1    3    3    0    0 -0.35198428909E+02  0.63311672101E+01  0.91386038575E+01  0.36912425505E+02  0.51100000000E-03 0. -1.
        -11    1    3    3    0    0 -0.57214426334E+01  0.65553866614E+01  0.59345727593E+00  0.87212494453E+01  0.51100000000E-03 0.  1.
        -12    1    3    3    0    0  0.41454176409E+02 -0.13206219542E+02 -0.87293504933E+01  0.44374029977E+02  0.00000000000E+00 0.  1.
</event>
<event>
 7    1  0.4359248E-015  0.9000790E+02  0.7816164E-02  0.1186339E+00
        -11   -1    0    0    0    0  0.00000000000E+00  0.00000000000E+00  0.45593999997E+02  0.45594000000E+02  0.51100000000E-03 0.  1.
         11   -1    0    0    0    0 -0.00000000000E+00 -0.00000000000E+00 -0.45593999997E+02  0.45594000000E+02  0.51100000000E-03 0. -1.
    9900012    2    1    2    0    0 -0.45864451352E+00 -0.48576012134E+00 -0.97279240674E+00  0.90007897144E+02  0.90000160586E+02 0.  0.
        -12    1    1    2    0    0  0.45864451352E+00  0.48576012134E+00  0.97279240674E+00  0.11801028565E+01  0.00000000000E+00 0.  1.
         11    1    3    3    0    0 -0.63143732808E+01  0.31346067181E+02 -0.15619608996E+02  0.35586787199E+02  0.51100000000E-03 0. -1.
        -11    1    3    3    0    0  0.31407396484E+01  0.65455120050E+01 -0.71606244661E+01  0.10197181765E+02  0.51100000000E-03 0.  1.
        -12    1    3    3    0    0  0.27149891189E+01 -0.38377339308E+02  0.21807441055E+02  0.44223928180E+02  0.00000000000E+00 0.  1.
</event>
<event>
 7    1  0.4359248E-015  0.9000776E+02  0.7816164E-02  0.1186339E+00
        -11   -1    0    0    0    0  0.00000000000E+00  0.00000000000E+00  0.45593999997E+02  0.45594000000E+02  0.51100000000E-03 0. -1.
         11   -1    0    0    0    0 -0.00000000000E+00 -0.00000000000E+00 -0.45593999997E+02  0.45594000000E+02  0.51100000000E-03 0.  1.
    9900012    2    1    2    0    0  0.33861577304E+00 -0.71521864514E+00  0.87565870762E+00  0.90007755735E+02  0.90000017311E+02 0.  0.
        -12    1    1    2    0    0 -0.33861577304E+00  0.71521864514E+00 -0.87565870762E+00  0.11802442647E+01  0.00000000000E+00 0.  1.
         11    1    3    3    0    0  0.11368688533E+02  0.12746282196E+02  0.37754424575E+02  0.41438042473E+02  0.51100000000E-03 0. -1.
        -11    1    3    3    0    0  0.79340252435E+01 -0.68396825990E+01 -0.71191701766E+01  0.12665409543E+02  0.51100000000E-03 0.  1.
        -12    1    3    3    0    0 -0.18964098003E+02 -0.66218182417E+01 -0.29759595691E+02  0.35904303719E+02  0.00000000000E+00 0.  1.
</event>
<event>
 7    1  0.4359248E-015  0.9000773E+02  0.7816164E-02  0.1186339E+00
        -11   -1    0    0    0    0  0.00000000000E+00  0.00000000000E+00  0.45593999997E+02  0.45594000000E+02  0.51100000000E-03 0. -1.
         11   -1    0    0    0    0 -0.00000000000E+00 -0.00000000000E+00 -0.45593999997E+02  0.45594000000E+02  0.51100000000E-03 0.  1.
    9900012    2    1    2    0    0  0.84093645908E+00  0.78790839927E+00  0.25508571018E+00  0.90007727788E+02  0.89999988995E+02 0.  0.
        -12    1    1    2    0    0 -0.84093645908E+00 -0.78790839927E+00 -0.25508571018E+00  0.11802722116E+01  0.00000000000E+00 0.  1.
         11    1    3    3    0    0 -0.79099474430E+00 -0.65699432746E+01  0.57664428174E+01  0.87773395938E+01  0.51100000000E-03 0. -1.
        -11    1    3    3    0    0  0.13100241268E+02 -0.32030602484E+02  0.11996809595E+02  0.36626483007E+02  0.51100000000E-03 0.  1.
         12    1    3    3    0    0 -0.11468310065E+02  0.39388454158E+02 -0.17508166702E+02  0.44603905187E+02  0.00000000000E+00 0. -1.
</event>
<event>
 7    1  0.4359248E-015  0.9000754E+02  0.7816164E-02  0.1186339E+00
        -11   -1    0    0    0    0  0.00000000000E+00  0.00000000000E+00  0.45593999997E+02  0.45594000000E+02  0.51100000000E-03 0.  1.
         11   -1    0    0    0    0 -0.00000000000E+00 -0.00000000000E+00 -0.45593999997E+02  0.45594000000E+02  0.51100000000E-03 0. -1.
    9900012    2    1    2    0    0  0.62205835852E+00 -0.22971565848E+00 -0.97660875543E+00  0.90007537995E+02  0.89999796696E+02 0.  0.
        -12    1    1    2    0    0 -0.62205835852E+00  0.22971565848E+00  0.97660875543E+00  0.11804620055E+01  0.00000000000E+00 0.  1.
         11    1    3    3    0    0 -0.29541176130E+02 -0.49587424485E+01  0.25793563626E+02  0.39529459123E+02  0.51100000000E-03 0. -1.
        -11    1    3    3    0    0 -0.32389505843E+01  0.85802963704E+01 -0.57655567421E+01  0.10833001962E+02  0.51100000000E-03 0.  1.
        -12    1    3    3    0    0  0.33402185072E+02 -0.38512695804E+01 -0.21004615640E+02  0.39645076910E+02  0.00000000000E+00 0.  1.
</event>
<event>
 7    1  0.4359248E-015  0.9000774E+02  0.7816164E-02  0.1186339E+00
        -11   -1    0    0    0    0  0.00000000000E+00  0.00000000000E+00  0.45593999997E+02  0.45594000000E+02  0.51100000000E-03 0. -1.
         11   -1    0    0    0    0 -0.00000000000E+00 -0.00000000000E+00 -0.45593999997E+02  0.45594000000E+02  0.51100000000E-03 0.  1.
    9900012    2    1    2    0    0 -0.54490335402E+00  0.56066423208E+00  0.88416172645E+00  0.90007743246E+02  0.90000004657E+02 0.  0.
        -12    1    1    2    0    0  0.54490335402E+00 -0.56066423208E+00 -0.88416172645E+00  0.11802567538E+01  0.00000000000E+00 0.  1.
         11    1    3    3    0    0  0.16238235839E+01 -0.93252600907E+01  0.31445015649E+00  0.94708055599E+01  0.51100000000E-03 0. -1.
        -11    1    3    3    0    0 -0.34937926365E+02  0.33975849429E+01 -0.20874900155E+02  0.40840711782E+02  0.51100000000E-03 0.  1.
         12    1    3    3    0    0  0.32769199427E+02  0.64883393799E+01  0.21444611725E+02  0.39696225904E+02  0.00000000000E+00 0. -1.
</event>
<event>
 7    1  0.4359248E-015  0.9000762E+02  0.7816164E-02  0.1186339E+00
        -11   -1    0    0    0    0  0.00000000000E+00  0.00000000000E+00  0.45593999997E+02  0.45594000000E+02  0.51100000000E-03 0. -1.
         11   -1    0    0    0    0 -0.00000000000E+00 -0.00000000000E+00 -0.45593999997E+02  0.45594000000E+02  0.51100000000E-03 0.  1.
    9900012    2    1    2    0    0 -0.88725514532E+00 -0.31521965632E+00 -0.71184511696E+00  0.90007615065E+02  0.89999874784E+02 0.  0.
        -12    1    1    2    0    0  0.88725514532E+00  0.31521965632E+00  0.71184511696E+00  0.11803849352E+01  0.00000000000E+00 0.  1.
         11    1    3    3    0    0  0.24476406225E+02  0.42720759817E+01 -0.22613543048E+02  0.33596390049E+02  0.51100000000E-03 0. -1.
        -11    1    3    3    0    0  0.12356845237E+01  0.14320321982E+00 -0.12560210592E+02  0.12621660501E+02  0.51100000000E-03 0.  1.
        -12    1    3    3    0    0 -0.26599345894E+02 -0.47304988578E+01  0.34461908523E+02  0.43789564516E+02  0.00000000000E+00 0.  1.
</event>
<event>
 7    1  0.4359248E-015  0.9000775E+02  0.7816164E-02  0.1186339E+00
        -11   -1    0    0    0    0  0.00000000000E+00  0.00000000000E+00  0.45593999997E+02  0.45594000000E+02  0.51100000000E-03 0.  1.
         11   -1    0    0    0    0 -0.00000000000E+00 -0.00000000000E+00 -0.45593999997E+02  0.45594000000E+02  0.51100000000E-03 0. -1.
    9900012    2    1    2    0    0  0.25432604277E+00 -0.93078214309E+00  0.67967669581E+00  0.90007746830E+02  0.90000008288E+02 0.  0.
        -12    1    1    2    0    0 -0.25432604277E+00  0.93078214309E+00 -0.67967669581E+00  0.11802531698E+01  0.00000000000E+00 0.  1.
         11    1    3    3    0    0 -0.76528173792E+01 -0.86402628627E+01 -0.39514426664E+02  0.41165637017E+02  0.51100000000E-03 0. -1.
        -11    1    3    3    0    0  0.20480497671E+01  0.11430703067E+02  0.44593374444E+01  0.12439500439E+02  0.51100000000E-03 0.  1.
        -12    1    3    3    0    0  0.58590936548E+01 -0.37212223478E+01  0.35734765915E+02  0.36402609374E+02  0.00000000000E+00 0.  1.
</event>
<event>
 7    1  0.4359248E-015  0.9000784E+02  0.7816164E-02  0.1186339E+00
        -11   -1    0    0    0    0  0.00000000000E+00  0.00000000000E+00  0.45593999997E+02  0.45594000000E+02  0.51100000000E-03 0.  1.
         11   -1    0    0    0    0 -0.00000000000E+00 -0.00000000000E+00 -0.45593999997E+02  0.45594000000E+02  0.51100000000E-03 0. -1.
    9900012    2    1    2    0    0 -0.83972826409E+00  0.66687768419E+00 -0.49285608211E+00  0.90007840468E+02  0.90000103162E+02 0.  0.
        -12    1    1    2    0    0  0.83972826409E+00 -0.66687768419E+00  0.49285608211E+00  0.11801595319E+01  0.00000000000E+00 0.  1.
         11    1    3    3    0    0 -0.16765660877E+02 -0.18715573485E+02 -0.26193378830E+02  0.36296737736E+02  0.51100000000E-03 0. -1.
        -11    1    3    3    0    0 -0.41276680236E+01 -0.10189901098E+02  0.92838362753E+01  0.14389626262E+02  0.51100000000E-03 0.  1.
        -12    1    3    3    0    0  0.20053600636E+02  0.29572352267E+02  0.16416686473E+02  0.39321476470E+02  0.00000000000E+00 0.  1.
</event>
<event>
 7    1  0.4359248E-015  0.9000775E+02  0.7816164E-02  0.1186339E+00
        -11   -1    0    0    0    0  0.00000000000E+00  0.00000000000E+00  0.45593999997E+02  0.45594000000E+02  0.51100000000E-03 0.  1.
         11   -1    0    0    0    0 -0.00000000000E+00 -0.00000000000E+00 -0.45593999997E+02  0.45594000000E+02  0.51100000000E-03 0. -1.
    9900012    2    1    2    0    0  0.10422439975E+01 -0.43087229252E+00 -0.34795056430E+00  0.90007748723E+02  0.90000010206E+02 0.  0.
        -12    1    1    2    0    0 -0.10422439975E+01  0.43087229252E+00  0.34795056430E+00  0.11802512775E+01  0.00000000000E+00 0.  1.
         11    1    3    3    0    0  0.20251556091E+02 -0.29322758773E+02 -0.23458362920E+02  0.42664323472E+02  0.51100000000E-03 0. -1.
        -11    1    3    3    0    0  0.48414060952E+01  0.60262321465E+01  0.19049963548E+01  0.79613879591E+01  0.51100000000E-03 0.  1.
        -12    1    3    3    0    0 -0.24050718188E+02  0.22865654334E+02  0.21205416001E+02  0.39382037292E+02  0.00000000000E+00 0.  1.
</event>
<event>
 7    1  0.4359248E-015  0.9000773E+02  0.7816164E-02  0.1186339E+00
        -11   -1    0    0    0    0  0.00000000000E+00  0.00000000000E+00  0.45593999997E+02  0.45594000000E+02  0.51100000000E-03 0.  1.
         11   -1    0    0    0    0 -0.00000000000E+00 -0.00000000000E+00 -0.45593999997E+02  0.45594000000E+02  0.51100000000E-03 0. -1.
    9900012    2    1    2    0    0  0.46395240295E+00  0.85572031517E+00 -0.66748077767E+00  0.90007728981E+02  0.89999990203E+02 0.  0.
        -12    1    1    2    0    0 -0.46395240295E+00 -0.85572031517E+00  0.66748077767E+00  0.11802710191E+01  0.00000000000E+00 0.  1.
         11    1    3    3    0    0 -0.64024971116E+01 -0.39698318555E+01  0.53879816150E+01  0.92618508069E+01  0.51100000000E-03 0. -1.
        -11    1    3    3    0    0  0.25220745025E+02 -0.18385602023E+02  0.23388367629E+02  0.39001693322E+02  0.51100000000E-03 0.  1.
         12    1    3    3    0    0 -0.18354295510E+02  0.23211154193E+02 -0.29443830021E+02  0.41744184852E+02  0.00000000000E+00 0. -1.
</event>
<event>
 7    1  0.4743072E-015  0.9000774E+02  0.7816164E-02  0.1186339E+00
        -11   -1    0    0    0    0  0.00000000000E+00  0.00000000000E+00  0.45593999997E+02  0.45594000000E+02  0.51100000000E-03 0. -1.
         11   -1    0    0    0    0 -0.00000000000E+00 -0.00000000000E+00 -0.45593999997E+02  0.45594000000E+02  0.51100000000E-03 0.  1.
    9900012    2    1    2    0    0 -0.85669820118E+00 -0.73520715910E+00  0.34432749443E+00  0.90007736132E+02  0.89999997449E+02 0.  0.
        -12    1    1    2    0    0  0.85669820118E+00  0.73520715910E+00 -0.34432749443E+00  0.11802638680E+01  0.00000000000E+00 0.  1.
         11    1    3    3    0    0 -0.12195382668E+02 -0.17357034023E+02  0.31525961976E+02  0.37998424537E+02  0.51100000000E-03 0. -1.
        -11    1    3    3    0    0 -0.75043186327E+01  0.42355203368E+01  0.45597148297E+01  0.97491245891E+01  0.51100000000E-03 0.  1.
        -12    1    3    3    0    0  0.18843003099E+02  0.12386306527E+02 -0.35741349312E+02  0.42260187006E+02  0.00000000000E+00 0.  1.
</event>
<event>
 7    1  0.4359248E-015  0.9000778E+02  0.7816164E-02  0.1186339E+00
        -11   -1    0    0    0    0  0.00000000000E+00  0.00000000000E+00  0.45593999997E+02  0.45594000000E+02  0.51100000000E-03 0.  1.
         11   -1    0    0    0    0 -0.00000000000E+00 -0.00000000000E+00 -0.45593999997E+02  0.45594000000E+02  0.51100000000E-03 0. -1.
    9900012    2    1    2    0    0 -0.18912759321E+00 -0.29778464655E+00 -0.11262681396E+01  0.90007777621E+02  0.90000039485E+02 0.  0.
        -12    1    1    2    0    0  0.18912759321E+00  0.29778464655E+00  0.11262681396E+01  0.11802223793E+01  0.00000000000E+00 0.  1.
         11    1    3    3    0    0 -0.21760712629E+02 -0.29060645718E+02 -0.14785027707E+02  0.39200086584E+02  0.51100000000E-03 0. -1.
        -11    1    3    3    0    0  0.16426833645E+01  0.26650749089E+01 -0.99069884542E+01  0.10389872636E+02  0.51100000000E-03 0.  1.
        -12    1    3    3    0    0  0.19928901671E+02  0.26097786163E+02  0.23565748021E+02  0.40417818400E+02  0.00000000000E+00 0.  1.
</event>
<event>
 7    1  0.4359248E-015  0.9000780E+02  0.7816164E-02  0.1186339E+00
        -11   -1    0    0    0    0  0.00000000000E+00  0.00000000000E+00  0.45593999997E+02  0.45594000000E+02  0.51100000000E-03 0. -1.
         11   -1    0    0    0    0 -0.00000000000E+00 -0.00000000000E+00 -0.45593999997E+02  0.45594000000E+02  0.51100000000E-03 0.  1.
    9900012    2    1    2    0    0  0.10019496210E+01  0.54967957164E+00  0.29466625645E+00  0.90007797103E+02  0.90000059225E+02 0.  0.
        -12    1    1    2    0    0 -0.10019496210E+01 -0.54967957164E+00 -0.29466625645E+00  0.11802028966E+01  0.00000000000E+00 0.  1.
         11    1    3    3    0    0  0.16096194233E+02  0.25788375871E+02  0.22812620132E+02  0.38007149806E+02  0.51100000000E-03 0. -1.
        -11    1    3    3    0    0  0.43885502743E+01 -0.71625110287E+01  0.79531570377E+01  0.11567784787E+02  0.51100000000E-03 0.  1.
        -12    1    3    3    0    0 -0.19482794886E+02 -0.18076185270E+02 -0.30471110913E+02  0.40432862510E+02  0.00000000000E+00 0.  1.
</event>
<event>
 7    1  0.4359248E-015  0.9000773E+02  0.7816164E-02  0.1186339E+00
        -11   -1    0    0    0    0  0.00000000000E+00  0.00000000000E+00  0.45593999997E+02  0.45594000000E+02  0.51100000000E-03 0.  1.
         11   -1    0    0    0    0 -0.00000000000E+00 -0.00000000000E+00 -0.45593999997E+02  0.45594000000E+02  0.51100000000E-03 0. -1.
    9900012    2    1    2    0    0 -0.43413200004E+00  0.36884127514E+00 -0.10336919705E+01  0.90007731569E+02  0.89999992826E+02 0.  0.
        -12    1    1    2    0    0  0.43413200004E+00 -0.36884127514E+00  0.10336919705E+01  0.11802684312E+01  0.00000000000E+00 0.  1.
         11    1    3    3    0    0  0.23639583601E+01  0.48664049179E+01 -0.82069368792E+01  0.98297512254E+01  0.51100000000E-03 0. -1.
        -11    1    3    3    0    0  0.73991756697E+01 -0.20257386995E+02 -0.30927391998E+02  0.37704284963E+02  0.51100000000E-03 0.  1.
         12    1    3    3    0    0 -0.10197266030E+02  0.15759823352E+02  0.38100636907E+02  0.42473695381E+02  0.00000000000E+00 0. -1.
</event>
<event>
 7    1  0.4359248E-015  0.9000775E+02  0.7816164E-02  0.1186339E+00
        -11   -1    0    0    0    0  0.00000000000E+00  0.00000000000E+00  0.45593999997E+02  0.45594000000E+02  0.51100000000E-03 0. -1.
         11   -1    0    0    0    0 -0.00000000000E+00 -0.00000000000E+00 -0.45593999997E+02  0.45594000000E+02  0.51100000000E-03 0.  1.
    9900012    2    1    2    0    0  0.22833581701E-01  0.11500664794E+01  0.26423924034E+00  0.90007747207E+02  0.90000008670E+02 0.  0.
        -12    1    1    2    0    0 -0.22833581701E-01 -0.11500664794E+01 -0.26423924034E+00  0.11802527931E+01  0.00000000000E+00 0.  1.
         11    1    3    3    0    0 -0.14285328147E+01  0.54128721300E+01 -0.92415679870E+01  0.10804928034E+02  0.51100000000E-03 0. -1.
        -11    1    3    3    0    0  0.19147668232E+02 -0.32551835112E+02 -0.11855532870E+02  0.39582936068E+02  0.51100000000E-03 0.  1.
         12    1    3    3    0    0 -0.17696301836E+02  0.28289029461E+02  0.21361340097E+02  0.39619883105E+02  0.00000000000E+00 0. -1.
</event>
<event>
 7    1  0.4359248E-015  0.9000771E+02  0.7816164E-02  0.1186339E+00
        -11   -1    0    0    0    0  0.00000000000E+00  0.00000000000E+00  0.45593999997E+02  0.45594000000E+02  0.51100000000E-03 0.  1.
         11   -1    0    0    0    0 -0.00000000000E+00 -0.00000000000E+00 -0.45593999997E+02  0.45594000000E+02  0.51100000000E-03 0. -1.
    9900012    2    1    2    0    0  0.13576078488E+00  0.11563457540E+01  0.19372274895E+00  0.90007705547E+02  0.89999966460E+02 0.  0.
        -12    1    1    2    0    0 -0.13576078488E+00 -0.11563457540E+01 -0.19372274895E+00  0.11802944535E+01  0.00000000000E+00 0.  1.
         11    1    3    3    0    0  0.33227252037E+01  0.18519592201E+01  0.83369365449E+01  0.91637747106E+01  0.51100000000E-03 0. -1.
        -11    1    3    3    0    0  0.21467393272E+02  0.32421182575E+02 -0.72103857393E+01  0.39547082272E+02  0.51100000000E-03 0.  1.
         12    1    3    3    0    0 -0.24654357691E+02 -0.33116796041E+02 -0.93282805669E+00  0.41296848564E+02  0.00000000000E+00 0. -1.
</event>
<event>
 7    1  0.4359248E-015  0.9000775E+02  0.7816164E-02  0.1186339E+00
        -11   -1    0    0    0    0  0.00000000000E+00  0.00000000000E+00  0.45593999997E+02  0.45594000000E+02  0.51100000000E-03 0.  1.
         11   -1    0    0    0    0 -0.00000000000E+00 -0.00000000000E+00 -0.45593999997E+02  0.45594000000E+02  0.51100000000E-03 0. -1.
    9900012    2    1    2    0    0 -0.93192473723E+00  0.72404069984E+00 -0.16735332951E-01  0.90007746331E+02  0.90000007783E+02 0.  0.
        -12    1    1    2    0    0  0.93192473723E+00 -0.72404069984E+00  0.16735332951E-01  0.11802536686E+01  0.00000000000E+00 0.  1.
         11    1    3    3    0    0  0.88781897382E+01  0.90985451566E+00  0.23672636826E+01  0.92333106669E+01  0.51100000000E-03 0. -1.
        -11    1    3    3    0    0  0.17532757115E+02  0.25997176452E+02  0.19617745850E+02  0.36987926517E+02  0.51100000000E-03 0.  1.
         12    1    3    3    0    0 -0.27342871591E+02 -0.26182990268E+02 -0.22001744866E+02  0.43786509147E+02  0.00000000000E+00 0. -1.
</event>
<event>
 7    1  0.4359248E-015  0.9000761E+02  0.7816164E-02  0.1186339E+00
        -11   -1    0    0    0    0  0.00000000000E+00  0.00000000000E+00  0.45593999997E+02  0.45594000000E+02  0.51100000000E-03 0. -1.
         11   -1    0    0    0    0 -0.00000000000E+00 -0.00000000000E+00 -0.45593999997E+02  0.45594000000E+02  0.51100000000E-03 0.  1.
    9900012    2    1    2    0    0 -0.10145908709E+01 -0.37128214329E+00  0.47547478790E+00  0.90007609667E+02  0.89999869314E+02 0.  0.
        -12    1    1    2    0    0  0.10145908709E+01  0.37128214329E+00 -0.47547478790E+00  0.11803903334E+01  0.00000000000E+00 0.  1.
         11    1    3    3    0    0 -0.19542806033E+02 -0.30446009511E+02  0.17058407865E+02  0.39998375491E+02  0.51100000000E-03 0. -1.
        -11    1    3    3    0    0 -0.12819933026E+01  0.11591073636E+02  0.74116124991E+01  0.13817687757E+02  0.51100000000E-03 0.  1.
        -12    1    3    3    0    0  0.19810208465E+02  0.18483653732E+02 -0.23994545576E+02  0.36191546418E+02  0.00000000000E+00 0.  1.
</event>
<event>
 7    1  0.4359248E-015  0.9000692E+02  0.7816164E-02  0.1186341E+00
        -11   -1    0    0    0    0  0.00000000000E+00  0.00000000000E+00  0.45593999997E+02  0.45594000000E+02  0.51100000000E-03 0.  1.
         11   -1    0    0    0    0 -0.00000000000E+00 -0.00000000000E+00 -0.45593999997E+02  0.45594000000E+02  0.51100000000E-03 0. -1.
    9900012    2    1    2    0    0  0.74569313809E+00 -0.31203844623E+00 -0.86112428079E+00  0.90006915213E+02  0.89999165690E+02 0.  0.
        -12    1    1    2    0    0 -0.74569313809E+00  0.31203844623E+00  0.86112428079E+00  0.11810847874E+01  0.00000000000E+00 0.  1.
         11    1    3    3    0    0  0.17230100245E+01  0.66731993706E+01 -0.52553117548E+01  0.86671018966E+01  0.51100000000E-03 0. -1.
        -11    1    3    3    0    0  0.17493298377E+02  0.32786327363E+02 -0.88527120622E+00  0.37171796505E+02  0.51100000000E-03 0.  1.
         12    1    3    3    0    0 -0.18470615264E+02 -0.39771565180E+02  0.52794586802E+01  0.44168016811E+02  0.00000000000E+00 0. -1.
</event>
<event>
 7    1  0.4359248E-015  0.9000716E+02  0.7816164E-02  0.1186340E+00
        -11   -1    0    0    0    0  0.00000000000E+00  0.00000000000E+00  0.45593999997E+02  0.45594000000E+02  0.51100000000E-03 0.  1.
         11   -1    0    0    0    0 -0.00000000000E+00 -0.00000000000E+00 -0.45593999997E+02  0.45594000000E+02  0.51100000000E-03 0. -1.
    9900012    2    1    2    0    0  0.11123303724E+01 -0.39004313666E+00 -0.70460627089E-01  0.90007162498E+02  0.89999416241E+02 0.  0.
        -12    1    1    2    0    0 -0.11123303724E+01  0.39004313666E+00  0.70460627089E-01  0.11808375019E+01  0.00000000000E+00 0.  1.
         11    1    3    3    0    0  0.28223849081E+02 -0.25845807443E+01 -0.16230414378E+02  0.32660252077E+02  0.51100000000E-03 0. -1.
        -11    1    3    3    0    0 -0.73769886543E+01  0.61113118792E+00 -0.17104018324E+02  0.18637083625E+02  0.51100000000E-03 0.  1.
        -12    1    3    3    0    0 -0.19734530054E+02  0.15834064197E+01  0.33263972076E+02  0.38709826796E+02  0.00000000000E+00 0.  1.
</event>
<event>
 7    1  0.4359248E-015  0.9000772E+02  0.7816164E-02  0.1186339E+00
        -11   -1    0    0    0    0  0.00000000000E+00  0.00000000000E+00  0.45593999997E+02  0.45594000000E+02  0.51100000000E-03 0.  1.
         11   -1    0    0    0    0 -0.00000000000E+00 -0.00000000000E+00 -0.45593999997E+02  0.45594000000E+02  0.51100000000E-03 0. -1.
    9900012    2    1    2    0    0 -0.43123060204E+00 -0.99345303960E+00 -0.46919485684E+00  0.90007723512E+02  0.89999984663E+02 0.  0.
        -12    1    1    2    0    0  0.43123060204E+00  0.99345303960E+00  0.46919485684E+00  0.11802764878E+01  0.00000000000E+00 0.  1.
         11    1    3    3    0    0  0.87963884170E+01 -0.51587529446E+00  0.15720421028E+01  0.89506364655E+01  0.51100000000E-03 0. -1.
        -11    1    3    3    0    0  0.99313311932E+01 -0.28838864731E+02 -0.25339683468E+02  0.39653638127E+02  0.51100000000E-03 0.  1.
         12    1    3    3    0    0 -0.19158950212E+02  0.28361286986E+02  0.23298446508E+02  0.41403448919E+02  0.00000000000E+00 0. -1.
</event>
<event>
 7    1  0.4359248E-015  0.9000776E+02  0.7816164E-02  0.1186339E+00
        -11   -1    0    0    0    0  0.00000000000E+00  0.00000000000E+00  0.45593999997E+02  0.45594000000E+02  0.51100000000E-03 0.  1.
         11   -1    0    0    0    0 -0.00000000000E+00 -0.00000000000E+00 -0.45593999997E+02  0.45594000000E+02  0.51100000000E-03 0. -1.
    9900012    2    1    2    0    0  0.10456519301E+01 -0.36426613470E-01 -0.54612315581E+00  0.90007760466E+02  0.90000022104E+02 0.  0.
        -12    1    1    2    0    0 -0.10456519301E+01  0.36426613470E-01  0.54612315581E+00  0.11802395343E+01  0.00000000000E+00 0.  1.
         11    1    3    3    0    0  0.75032888380E+01  0.43064602933E+01  0.10675797327E+01  0.87169186293E+01  0.51100000000E-03 0. -1.
        -11    1    3    3    0    0 -0.38414240239E+02  0.41315636881E+01  0.18241621147E+02  0.42725641177E+02  0.51100000000E-03 0.  1.
         12    1    3    3    0    0  0.31956603331E+02 -0.84744505948E+01 -0.19855324036E+02  0.38565200659E+02  0.00000000000E+00 0. -1.
</event>
<event>
 7    1  0.4359248E-015  0.9000777E+02  0.7816164E-02  0.1186339E+00
        -11   -1    0    0    0    0  0.00000000000E+00  0.00000000000E+00  0.45593999997E+02  0.45594000000E+02  0.51100000000E-03 0.  1.
         11   -1    0    0    0    0 -0.00000000000E+00 -0.00000000000E+00 -0.45593999997E+02  0.45594000000E+02  0.51100000000E-03 0. -1.
    9900012    2    1    2    0    0  0.33756760926E+00  0.11264727336E+01 -0.10024750491E+00  0.90007770246E+02  0.90000032013E+02 0.  0.
        -12    1    1    2    0    0 -0.33756760926E+00 -0.11264727336E+01  0.10024750491E+00  0.11802297541E+01  0.00000000000E+00 0.  1.
         11    1    3    3    0    0 -0.32407119204E+02  0.82940219923E+00 -0.25424582227E+02  0.41198527459E+02  0.51100000000E-03 0. -1.
        -11    1    3    3    0    0 -0.74743477976E+00 -0.73339399865E+01  0.47041711537E+01  0.87449734694E+01  0.51100000000E-03 0.  1.
        -12    1    3    3    0    0  0.33492121593E+02  0.76310105208E+01  0.20620163568E+02  0.40064269318E+02  0.00000000000E+00 0.  1.
</event>
<event>
 7    1  0.4359248E-015  0.9000780E+02  0.7816164E-02  0.1186339E+00
        -11   -1    0    0    0    0  0.00000000000E+00  0.00000000000E+00  0.45593999997E+02  0.45594000000E+02  0.51100000000E-03 0. -1.
         11   -1    0    0    0    0 -0.00000000000E+00 -0.00000000000E+00 -0.45593999997E+02  0.45594000000E+02  0.51100000000E-03 0.  1.
    9900012    2    1    2    0    0  0.42929053190E+00 -0.10513116777E+01 -0.32143465529E+00  0.90007802202E+02  0.90000064391E+02 0.  0.
        -12    1    1    2    0    0 -0.42929053190E+00  0.10513116777E+01  0.32143465529E+00  0.11801977979E+01  0.00000000000E+00 0.  1.
         11    1    3    3    0    0 -0.15526357405E+01 -0.86924453551E+01 -0.77506602628E+01  0.11749128426E+02  0.51100000000E-03 0. -1.
        -11    1    3    3    0    0 -0.84807550689E+01 -0.10352483339E+02 -0.31438614992E+02  0.34168459589E+02  0.51100000000E-03 0.  1.
         12    1    3    3    0    0  0.10462681341E+02  0.17993617016E+02  0.38867840600E+02  0.44090214187E+02  0.00000000000E+00 0. -1.
</event>
<event>
 7    1  0.4359248E-015  0.9000761E+02  0.7816164E-02  0.1186339E+00
        -11   -1    0    0    0    0  0.00000000000E+00  0.00000000000E+00  0.45593999997E+02  0.45594000000E+02  0.51100000000E-03 0.  1.
         11   -1    0    0    0    0 -0.00000000000E+00 -0.00000000000E+00 -0.45593999997E+02  0.45594000000E+02  0.51100000000E-03 0. -1.
    9900012    2    1    2    0    0  0.77620700126E+00  0.84775466616E+00  0.26856330368E+00  0.90007613821E+02  0.89999873524E+02 0.  0.
        -12    1    1    2    0    0 -0.77620700126E+00 -0.84775466616E+00 -0.26856330368E+00  0.11803861787E+01  0.00000000000E+00 0.  1.
         11    1    3    3    0    0 -0.18061033366E+02  0.29552725336E+02 -0.13487780865E+02  0.37168329717E+02  0.51100000000E-03 0. -1.
        -11    1    3    3    0    0  0.67562118920E+01  0.44607666083E+01 -0.79947832381E+01  0.11378110438E+02  0.51100000000E-03 0.  1.
        -12    1    3    3    0    0  0.12081028475E+02 -0.33165737279E+02  0.21751127407E+02  0.41461173665E+02  0.00000000000E+00 0.  1.
</event>
<event>
 7    1  0.4359248E-015  0.9000775E+02  0.7816164E-02  0.1186339E+00
        -11   -1    0    0    0    0  0.00000000000E+00  0.00000000000E+00  0.45593999997E+02  0.45594000000E+02  0.51100000000E-03 0.  1.
         11   -1    0    0    0    0 -0.00000000000E+00 -0.00000000000E+00 -0.45593999997E+02  0.45594000000E+02  0.51100000000E-03 0. -1.
    9900012    2    1    2    0    0 -0.28500478728E+00  0.10463444097E+01  0.46574796741E+00  0.90007751924E+02  0.90000013449E+02 0.  0.
        -12    1    1    2    0    0  0.28500478728E+00 -0.10463444097E+01 -0.46574796741E+00  0.11802480763E+01  0.00000000000E+00 0.  1.
         11    1    3    3    0    0  0.88368533920E+01  0.22145434378E+02 -0.33719105098E+02  0.41297557924E+02  0.51100000000E-03 0. -1.
        -11    1    3    3    0    0  0.82346617275E+01 -0.34366247217E+01  0.43183359752E+01  0.99130252244E+01  0.51100000000E-03 0.  1.
        -12    1    3    3    0    0 -0.17356519907E+02 -0.17662465246E+02  0.29866517090E+02  0.38797168775E+02  0.00000000000E+00 0.  1.
</event>
<event>
 7    1  0.4359248E-015  0.9000778E+02  0.7816164E-02  0.1186339E+00
        -11   -1    0    0    0    0  0.00000000000E+00  0.00000000000E+00  0.45593999997E+02  0.45594000000E+02  0.51100000000E-03 0.  1.
         11   -1    0    0    0    0 -0.00000000000E+00 -0.00000000000E+00 -0.45593999997E+02  0.45594000000E+02  0.51100000000E-03 0. -1.
    9900012    2    1    2    0    0 -0.16170354741E+00 -0.63180540537E+00 -0.98366189298E+00  0.90007781026E+02  0.90000042935E+02 0.  0.
        -12    1    1    2    0    0  0.16170354741E+00  0.63180540537E+00  0.98366189298E+00  0.11802189743E+01  0.00000000000E+00 0.  1.
         11    1    3    3    0    0 -0.99387958948E+01  0.24286294570E+02 -0.26704658392E+02  0.37439852402E+02  0.51100000000E-03 0. -1.
        -11    1    3    3    0    0  0.48416292747E+01  0.38057584896E+01 -0.66136683838E+01  0.90369121644E+01  0.51100000000E-03 0.  1.
        -12    1    3    3    0    0  0.49354630727E+01 -0.28723858465E+02  0.32334664883E+02  0.43531016459E+02  0.00000000000E+00 0.  1.
</event>
<event>
 7    1  0.4359248E-015  0.9000767E+02  0.7816164E-02  0.1186339E+00
        -11   -1    0    0    0    0  0.00000000000E+00  0.00000000000E+00  0.45593999997E+02  0.45594000000E+02  0.51100000000E-03 0.  1.
         11   -1    0    0    0    0 -0.00000000000E+00 -0.00000000000E+00 -0.45593999997E+02  0.45594000000E+02  0.51100000000E-03 0. -1.
    9900012    2    1    2    0    0 -0.89293253873E+00 -0.39750950277E+00 -0.66168833290E+00  0.90007672175E+02  0.89999932648E+02 0.  0.
        -12    1    1    2    0    0  0.89293253873E+00  0.39750950277E+00  0.66168833290E+00  0.11803278246E+01  0.00000000000E+00 0.  1.
         11    1    3    3    0    0 -0.43371015756E+01  0.22873639641E+00 -0.92529610788E+01  0.10221548777E+02  0.51100000000E-03 0. -1.
        -11    1    3    3    0    0  0.33746320454E+02 -0.17104758573E+02 -0.11905678313E+02  0.39662729185E+02  0.51100000000E-03 0.  1.
         12    1    3    3    0    0 -0.30302151418E+02  0.16478512674E+02  0.20496951059E+02  0.40123394213E+02  0.00000000000E+00 0. -1.
</event>
<event>
 7    1  0.4359248E-015  0.9000781E+02  0.7816164E-02  0.1186339E+00
        -11   -1    0    0    0    0  0.00000000000E+00  0.00000000000E+00  0.45593999997E+02  0.45594000000E+02  0.51100000000E-03 0. -1.
         11   -1    0    0    0    0 -0.00000000000E+00 -0.00000000000E+00 -0.45593999997E+02  0.45594000000E+02  0.51100000000E-03 0.  1.
    9900012    2    1    2    0    0  0.85517968321E+00  0.67415834921E-01  0.81053087760E+00  0.90007814638E+02  0.90000076991E+02 0.  0.
        -12    1    1    2    0    0 -0.85517968321E+00 -0.67415834921E-01 -0.81053087760E+00  0.11801853621E+01  0.00000000000E+00 0.  1.
         11    1    3    3    0    0 -0.15698041000E+01  0.21346482745E+01 -0.97484781983E+01  0.10102169847E+02  0.51100000000E-03 0. -1.
        -11    1    3    3    0    0  0.34225388374E+02  0.19872024414E+02 -0.96967573031E+00  0.39588064299E+02  0.51100000000E-03 0.  1.
         12    1    3    3    0    0 -0.31800404591E+02 -0.21939256853E+02  0.11528684806E+02  0.40317580492E+02  0.00000000000E+00 0. -1.
</event>
<event>
 7    1  0.4359248E-015  0.9000777E+02  0.7816164E-02  0.1186339E+00
        -11   -1    0    0    0    0  0.00000000000E+00  0.00000000000E+00  0.45593999997E+02  0.45594000000E+02  0.51100000000E-03 0.  1.
         11   -1    0    0    0    0 -0.00000000000E+00 -0.00000000000E+00 -0.45593999997E+02  0.45594000000E+02  0.51100000000E-03 0. -1.
    9900012    2    1    2    0    0  0.74959201333E+00 -0.48399790332E+00 -0.77252963108E+00  0.90007769434E+02  0.90000031191E+02 0.  0.
        -12    1    1    2    0    0 -0.74959201333E+00  0.48399790332E+00  0.77252963108E+00  0.11802305655E+01  0.00000000000E+00 0.  1.
         11    1    3    3    0    0  0.34539842725E+02 -0.79349796172E+01 -0.65256139380E+01  0.36035375321E+02  0.51100000000E-03 0. -1.
        -11    1    3    3    0    0  0.55733158307E+01 -0.76236404008E+01 -0.46937784223E+01  0.10545771591E+02  0.51100000000E-03 0.  1.
        -12    1    3    3    0    0 -0.39363566542E+02  0.15074622115E+02  0.10446862729E+02  0.43426622523E+02  0.00000000000E+00 0.  1.
</event>
<event>
 7    1  0.4359248E-015  0.9000773E+02  0.7816164E-02  0.1186339E+00
        -11   -1    0    0    0    0  0.00000000000E+00  0.00000000000E+00  0.45593999997E+02  0.45594000000E+02  0.51100000000E-03 0. -1.
         11   -1    0    0    0    0 -0.00000000000E+00 -0.00000000000E+00 -0.45593999997E+02  0.45594000000E+02  0.51100000000E-03 0.  1.
    9900012    2    1    2    0    0  0.52681746780E+00  0.35526598721E+00  0.99463096373E+00  0.90007728285E+02  0.89999989499E+02 0.  0.
        -12    1    1    2    0    0 -0.52681746780E+00 -0.35526598721E+00 -0.99463096373E+00  0.11802717145E+01  0.00000000000E+00 0.  1.
         11    1    3    3    0    0  0.86890680558E+00  0.70808727392E+01 -0.68077776093E+01  0.98610138436E+01  0.51100000000E-03 0. -1.
        -11    1    3    3    0    0 -0.39007546196E+02  0.23769489727E+01 -0.23398735658E+01  0.39149885763E+02  0.51100000000E-03 0.  1.
         12    1    3    3    0    0  0.38665456858E+02 -0.91025557247E+01  0.10142282139E+02  0.40996828679E+02  0.00000000000E+00 0. -1.
</event>
<event>
 7    1  0.4977026E-015  0.9000759E+02  0.7816164E-02  0.1186339E+00
        -11   -1    0    0    0    0  0.00000000000E+00  0.00000000000E+00  0.45593999997E+02  0.45594000000E+02  0.51100000000E-03 0.  1.
         11   -1    0    0    0    0 -0.00000000000E+00 -0.00000000000E+00 -0.45593999997E+02  0.45594000000E+02  0.51100000000E-03 0. -1.
    9900012    2    1    2    0    0 -0.34567639402E+00 -0.93131912788E+00  0.63758765118E+00  0.90007590961E+02  0.89999850361E+02 0.  0.
        -12    1    1    2    0    0  0.34567639402E+00  0.93131912788E+00 -0.63758765118E+00  0.11804090394E+01  0.00000000000E+00 0.  1.
         11    1    3    3    0    0  0.24847395900E+02 -0.18796797976E+02  0.20450444767E+02  0.37268396646E+02  0.51100000000E-03 0. -1.
        -11    1    3    3    0    0  0.87612508862E+01 -0.24243168993E+01 -0.17587409646E+01  0.92590496035E+01  0.51100000000E-03 0.  1.
        -12    1    3    3    0    0 -0.33954323180E+02  0.20289795747E+02 -0.18054116152E+02  0.43480144711E+02  0.00000000000E+00 0.  1.
</event>
<event>
 7    1  0.4359248E-015  0.9000774E+02  0.7816164E-02  0.1186339E+00
        -11   -1    0    0    0    0  0.00000000000E+00  0.00000000000E+00  0.45593999997E+02  0.45594000000E+02  0.51100000000E-03 0. -1.
         11   -1    0    0    0    0 -0.00000000000E+00 -0.00000000000E+00 -0.45593999997E+02  0.45594000000E+02  0.51100000000E-03 0.  1.
    9900012    2    1    2    0    0 -0.10771510147E+01 -0.44681004466E+00  0.18197301974E+00  0.90007742526E+02  0.90000003928E+02 0.  0.
        -12    1    1    2    0    0  0.10771510147E+01  0.44681004466E+00 -0.18197301974E+00  0.11802574738E+01  0.00000000000E+00 0.  1.
         11    1    3    3    0    0  0.24972817209E+01 -0.96654801039E+01 -0.13587174069E+02  0.16860285320E+02  0.51100000000E-03 0. -1.
        -11    1    3    3    0    0  0.62652967692E+01  0.29911710517E+01 -0.28484586779E+02  0.29318470834E+02  0.51100000000E-03 0.  1.
         12    1    3    3    0    0 -0.98397295049E+01  0.62274990076E+01  0.42253733867E+02  0.43828986372E+02  0.00000000000E+00 0. -1.
</event>
<event>
 7    1  0.4359248E-015  0.9000727E+02  0.7816164E-02  0.1186340E+00
        -11   -1    0    0    0    0  0.00000000000E+00  0.00000000000E+00  0.45593999997E+02  0.45594000000E+02  0.51100000000E-03 0.  1.
         11   -1    0    0    0    0 -0.00000000000E+00 -0.00000000000E+00 -0.45593999997E+02  0.45594000000E+02  0.51100000000E-03 0. -1.
    9900012    2    1    2    0    0  0.54430590945E+00 -0.25460288236E+00 -0.10163764678E+01  0.90007274513E+02  0.89999529736E+02 0.  0.
        -12    1    1    2    0    0 -0.54430590945E+00  0.25460288236E+00  0.10163764678E+01  0.11807254867E+01  0.00000000000E+00 0.  1.
         11    1    3    3    0    0 -0.33270725486E+02  0.11684225709E+02 -0.19000576720E+02  0.40056013540E+02  0.51100000000E-03 0. -1.
        -11    1    3    3    0    0  0.13702629439E+01  0.82438731754E+01  0.24983041345E+01  0.87224187745E+01  0.51100000000E-03 0.  1.
        -12    1    3    3    0    0  0.32444768451E+02 -0.20182701767E+02  0.15485896118E+02  0.41228842199E+02  0.00000000000E+00 0.  1.
</event>
<event>
 7    1  0.4359248E-015  0.9000770E+02  0.7816164E-02  0.1186339E+00
        -11   -1    0    0    0    0  0.00000000000E+00  0.00000000000E+00  0.45593999997E+02  0.45594000000E+02  0.51100000000E-03 0.  1.
         11   -1    0    0    0    0 -0.00000000000E+00 -0.00000000000E+00 -0.45593999997E+02  0.45594000000E+02  0.51100000000E-03 0. -1.
    9900012    2    1    2    0    0  0.78699327442E+00 -0.74254052038E+00 -0.47157828177E+00  0.90007698804E+02  0.89999959628E+02 0.  0.
        -12    1    1    2    0    0 -0.78699327442E+00  0.74254052038E+00  0.47157828177E+00  0.11803011964E+01  0.00000000000E+00 0.  1.
         11    1    3    3    0    0 -0.96193812302E+01 -0.22687894223E+02 -0.28313525249E+02  0.37535699698E+02  0.51100000000E-03 0. -1.
        -11    1    3    3    0    0 -0.39214895938E+01  0.33033852089E+01 -0.80621212369E+01  0.95544876144E+01  0.51100000000E-03 0.  1.
        -12    1    3    3    0    0  0.14327864098E+02  0.18641968494E+02  0.35904068204E+02  0.42917511491E+02  0.00000000000E+00 0.  1.
</event>
<event>
 7    1  0.4359248E-015  0.9000764E+02  0.7816164E-02  0.1186339E+00
        -11   -1    0    0    0    0  0.00000000000E+00  0.00000000000E+00  0.45593999997E+02  0.45594000000E+02  0.51100000000E-03 0. -1.
         11   -1    0    0    0    0 -0.00000000000E+00 -0.00000000000E+00 -0.45593999997E+02  0.45594000000E+02  0.51100000000E-03 0.  1.
    9900012    2    1    2    0    0 -0.18777241501E+00 -0.41796035707E+00  0.10877962551E+01  0.90007639872E+02  0.89999899918E+02 0.  0.
        -12    1    1    2    0    0  0.18777241501E+00  0.41796035707E+00 -0.10877962551E+01  0.11803601283E+01  0.00000000000E+00 0.  1.
         11    1    3    3    0    0 -0.20964441799E+02  0.25743510443E+02 -0.13035306663E+02  0.35667287112E+02  0.51100000000E-03 0. -1.
        -11    1    3    3    0    0 -0.24245880799E+00  0.64596654264E+01  0.14124991408E+02  0.15533880591E+02  0.51100000000E-03 0.  1.
        -12    1    3    3    0    0  0.21019128192E+02 -0.32621136226E+02 -0.18884898553E-02  0.38806472169E+02  0.00000000000E+00 0.  1.
</event>
<event>
 7    1  0.4359248E-015  0.9000783E+02  0.7816164E-02  0.1186339E+00
        -11   -1    0    0    0    0  0.00000000000E+00  0.00000000000E+00  0.45593999997E+02  0.45594000000E+02  0.51100000000E-03 0.  1.
         11   -1    0    0    0    0 -0.00000000000E+00 -0.00000000000E+00 -0.45593999997E+02  0.45594000000E+02  0.51100000000E-03 0. -1.
    9900012    2    1    2    0    0 -0.75933072902E+00 -0.68709100248E+00  0.58662472256E+00  0.90007828077E+02  0.90000090608E+02 0.  0.
        -12    1    1    2    0    0  0.75933072902E+00  0.68709100248E+00 -0.58662472256E+00  0.11801719226E+01  0.00000000000E+00 0.  1.
         11    1    3    3    0    0  0.22789426752E+02  0.16424742711E+00 -0.29799201204E+02  0.37515028209E+02  0.51100000000E-03 0. -1.
        -11    1    3    3    0    0  0.50179688143E+01 -0.75404897585E+01 -0.14795894462E+01  0.91775912967E+01  0.51100000000E-03 0.  1.
        -12    1    3    3    0    0 -0.28566726295E+02  0.66891513289E+01  0.31865415373E+02  0.43315208571E+02  0.00000000000E+00 0.  1.
</event>
<event>
 7    1  0.4359248E-015  0.9000779E+02  0.7816164E-02  0.1186339E+00
        -11   -1    0    0    0    0  0.00000000000E+00  0.00000000000E+00  0.45593999997E+02  0.45594000000E+02  0.51100000000E-03 0. -1.
         11   -1    0    0    0    0 -0.00000000000E+00 -0.00000000000E+00 -0.45593999997E+02  0.45594000000E+02  0.51100000000E-03 0.  1.
    9900012    2    1    2    0    0  0.89602499503E+00 -0.76306334602E+00 -0.88160489611E-01  0.90007788691E+02  0.90000050702E+02 0.  0.
        -12    1    1    2    0    0 -0.89602499503E+00  0.76306334602E+00  0.88160489611E-01  0.11802113089E+01  0.00000000000E+00 0.  1.
         11    1    3    3    0    0  0.34327891170E+02 -0.13522351015E+02  0.68831017517E+01  0.37531788915E+02  0.51100000000E-03 0. -1.
        -11    1    3    3    0    0  0.71144250972E+01  0.57516780333E+01  0.38558655962E+01  0.99279677890E+01  0.51100000000E-03 0.  1.
        -12    1    3    3    0    0 -0.40546291272E+02  0.70076096358E+01 -0.10827127838E+02  0.42548031987E+02  0.00000000000E+00 0.  1.
</event>
<event>
 7    1  0.4359248E-015  0.9000778E+02  0.7816164E-02  0.1186339E+00
        -11   -1    0    0    0    0  0.00000000000E+00  0.00000000000E+00  0.45593999997E+02  0.45594000000E+02  0.51100000000E-03 0.  1.
         11   -1    0    0    0    0 -0.00000000000E+00 -0.00000000000E+00 -0.45593999997E+02  0.45594000000E+02  0.51100000000E-03 0. -1.
    9900012    2    1    2    0    0 -0.53207858812E-01  0.11336917645E+01 -0.32378878675E+00  0.90007776601E+02  0.90000038452E+02 0.  0.
        -12    1    1    2    0    0  0.53207858812E-01 -0.11336917645E+01  0.32378878675E+00  0.11802233990E+01  0.00000000000E+00 0.  1.
         11    1    3    3    0    0 -0.14160560391E+02  0.15182024760E+02 -0.29270955478E+02  0.35885988648E+02  0.51100000000E-03 0. -1.
        -11    1    3    3    0    0 -0.94221761279E+01  0.84055176343E+01  0.43897176638E+01  0.13367862623E+02  0.51100000000E-03 0.  1.
        -12    1    3    3    0    0  0.23529528660E+02 -0.22453850630E+02  0.24557449027E+02  0.40753925330E+02  0.00000000000E+00 0.  1.
</event>
<event>
 7    1  0.4359248E-015  0.9000774E+02  0.7816164E-02  0.1186339E+00
        -11   -1    0    0    0    0  0.00000000000E+00  0.00000000000E+00  0.45593999997E+02  0.45594000000E+02  0.51100000000E-03 0.  1.
         11   -1    0    0    0    0 -0.00000000000E+00 -0.00000000000E+00 -0.45593999997E+02  0.45594000000E+02  0.51100000000E-03 0. -1.
    9900012    2    1    2    0    0  0.10421096619E+01  0.99310227477E-02  0.55400655359E+00  0.90007739675E+02  0.90000001039E+02 0.  0.
        -12    1    1    2    0    0 -0.10421096619E+01 -0.99310227477E-02 -0.55400655359E+00  0.11802603247E+01  0.00000000000E+00 0.  1.
         11    1    3    3    0    0  0.13030843690E+02 -0.26640223599E+02  0.22417687235E+02  0.37176028593E+02  0.51100000000E-03 0. -1.
        -11    1    3    3    0    0 -0.54799163837E+01 -0.79100694382E+01  0.26288716949E+01  0.99754523075E+01  0.51100000000E-03 0.  1.
        -12    1    3    3    0    0 -0.65088176449E+01  0.34560224060E+02 -0.24492552377E+02  0.42856258775E+02  0.00000000000E+00 0.  1.
</event>
<event>
 7    1  0.4359248E-015  0.9000775E+02  0.7816164E-02  0.1186339E+00
        -11   -1    0    0    0    0  0.00000000000E+00  0.00000000000E+00  0.45593999997E+02  0.45594000000E+02  0.51100000000E-03 0.  1.
         11   -1    0    0    0    0 -0.00000000000E+00 -0.00000000000E+00 -0.45593999997E+02  0.45594000000E+02  0.51100000000E-03 0. -1.
    9900012    2    1    2    0    0 -0.46371800630E+00  0.10038763123E+01  0.41252584651E+00  0.90007754426E+02  0.90000015985E+02 0.  0.
        -12    1    1    2    0    0  0.46371800630E+00 -0.10038763123E+01 -0.41252584651E+00  0.11802455735E+01  0.00000000000E+00 0.  1.
         11    1    3    3    0    0 -0.51142026242E+01 -0.12470700644E+02 -0.42018519375E+01  0.14118392366E+02  0.51100000000E-03 0. -1.
        -11    1    3    3    0    0  0.11595371038E+02  0.33825688074E+02 -0.21761111731E+02  0.41858998879E+02  0.51100000000E-03 0.  1.
         12    1    3    3    0    0 -0.69448864197E+01 -0.20351111117E+02  0.26375489515E+02  0.34030363181E+02  0.00000000000E+00 0. -1.
</event>
<event>
 7    1  0.4359248E-015  0.9000776E+02  0.7816164E-02  0.1186339E+00
        -11   -1    0    0    0    0  0.00000000000E+00  0.00000000000E+00  0.45593999997E+02  0.45594000000E+02  0.51100000000E-03 0.  1.
         11   -1    0    0    0    0 -0.00000000000E+00 -0.00000000000E+00 -0.45593999997E+02  0.45594000000E+02  0.51100000000E-03 0. -1.
    9900012    2    1    2    0    0  0.23711927981E-02  0.11534479424E+01  0.25002666380E+00  0.90007762265E+02  0.90000023927E+02 0.  0.
        -12    1    1    2    0    0 -0.23711927981E-02 -0.11534479424E+01 -0.25002666380E+00  0.11802377350E+01  0.00000000000E+00 0.  1.
         11    1    3    3    0    0  0.36040524847E+02  0.83758043952E+01 -0.29292129773E+01  0.37116759280E+02  0.51100000000E-03 0. -1.
        -11    1    3    3    0    0  0.68189733093E+01 -0.21017476222E+01 -0.53196704485E+01  0.89002603334E+01  0.51100000000E-03 0.  1.
        -12    1    3    3    0    0 -0.42857126963E+02 -0.51206088306E+01  0.84989100896E+01  0.43990742652E+02  0.00000000000E+00 0.  1.
</event>
<event>
 7    1  0.4359248E-015  0.9000761E+02  0.7816164E-02  0.1186339E+00
        -11   -1    0    0    0    0  0.00000000000E+00  0.00000000000E+00  0.45593999997E+02  0.45594000000E+02  0.51100000000E-03 0.  1.
         11   -1    0    0    0    0 -0.00000000000E+00 -0.00000000000E+00 -0.45593999997E+02  0.45594000000E+02  0.51100000000E-03 0. -1.
    9900012    2    1    2    0    0  0.10411676736E+01  0.57035786972E-01 -0.55320396223E+00  0.90007611153E+02  0.89999870820E+02 0.  0.
        -12    1    1    2    0    0 -0.10411676736E+01 -0.57035786972E-01  0.55320396223E+00  0.11803888467E+01  0.00000000000E+00 0.  1.
         11    1    3    3    0    0 -0.87136613904E+01 -0.20599902150E+01 -0.51097032535E+01  0.10309244498E+02  0.51100000000E-03 0. -1.
        -11    1    3    3    0    0  0.19378400552E+01  0.78762475112E+01  0.41097046629E+02  0.41889828608E+02  0.51100000000E-03 0.  1.
         12    1    3    3    0    0  0.78169890089E+01 -0.57592215092E+01 -0.36540547338E+02  0.37808538048E+02  0.00000000000E+00 0. -1.
</event>
<event>
 7    1  0.4521278E-015  0.9000776E+02  0.7816164E-02  0.1186339E+00
        -11   -1    0    0    0    0  0.00000000000E+00  0.00000000000E+00  0.45593999997E+02  0.45594000000E+02  0.51100000000E-03 0. -1.
         11   -1    0    0    0    0 -0.00000000000E+00 -0.00000000000E+00 -0.45593999997E+02  0.45594000000E+02  0.51100000000E-03 0.  1.
    9900012    2    1    2    0    0 -0.32900571237E+00  0.73848769077E+00  0.85986355491E+00  0.90007756736E+02  0.90000018325E+02 0.  0.
        -12    1    1    2    0    0  0.32900571237E+00 -0.73848769077E+00 -0.85986355491E+00  0.11802432636E+01  0.00000000000E+00 0.  1.
         11    1    3    3    0    0  0.28886187971E+02  0.18746345283E+02  0.13405759038E+02  0.36953371871E+02  0.51100000000E-03 0. -1.
        -11    1    3    3    0    0  0.93166730835E+01 -0.35760930876E+01  0.19416855992E+00  0.99813095737E+01  0.51100000000E-03 0.  1.
        -12    1    3    3    0    0 -0.38531866767E+02 -0.14431764505E+02 -0.12740064043E+02  0.43073075292E+02  0.00000000000E+00 0.  1.
</event>
<event>
 7    1  0.4502522E-015  0.9000773E+02  0.7816164E-02  0.1186339E+00
        -11   -1    0    0    0    0  0.00000000000E+00  0.00000000000E+00  0.45593999997E+02  0.45594000000E+02  0.51100000000E-03 0.  1.
         11   -1    0    0    0    0 -0.00000000000E+00 -0.00000000000E+00 -0.45593999997E+02  0.45594000000E+02  0.51100000000E-03 0. -1.
    9900012    2    1    2    0    0  0.91976901190E+00 -0.65477113860E+00 -0.34399473336E+00  0.90007731956E+02  0.89999993218E+02 0.  0.
        -12    1    1    2    0    0 -0.91976901190E+00  0.65477113860E+00  0.34399473336E+00  0.11802680440E+01  0.00000000000E+00 0.  1.
         11    1    3    3    0    0 -0.82435525985E+01  0.16878531165E+01 -0.36702112596E+02  0.37654350039E+02  0.51100000000E-03 0. -1.
        -11    1    3    3    0    0  0.89081238448E+01  0.11604595157E+01 -0.53777165158E+01  0.10470012985E+02  0.51100000000E-03 0.  1.
        -12    1    3    3    0    0  0.25519776563E+00 -0.35030837707E+01  0.41735834379E+02  0.41883368932E+02  0.00000000000E+00 0.  1.
</event>
<event>
 7    1  0.4359248E-015  0.9000764E+02  0.7816164E-02  0.1186339E+00
        -11   -1    0    0    0    0  0.00000000000E+00  0.00000000000E+00  0.45593999997E+02  0.45594000000E+02  0.51100000000E-03 0.  1.
         11   -1    0    0    0    0 -0.00000000000E+00 -0.00000000000E+00 -0.45593999997E+02  0.45594000000E+02  0.51100000000E-03 0. -1.
    9900012    2    1    2    0    0  0.38178927387E+00 -0.17003930952E+00 -0.11038879934E+01  0.90007641953E+02  0.89999902027E+02 0.  0.
        -12    1    1    2    0    0 -0.38178927387E+00  0.17003930952E+00  0.11038879934E+01  0.11803580467E+01  0.00000000000E+00 0.  1.
         11    1    3    3    0    0  0.55091744546E+01 -0.19192700611E+01  0.77280804519E+01  0.96828626176E+01  0.51100000000E-03 0. -1.
        -11    1    3    3    0    0 -0.74036744663E+00  0.76747993080E+01  0.35019272043E+02  0.35858054926E+02  0.51100000000E-03 0.  1.
         12    1    3    3    0    0 -0.43870177341E+01 -0.59255685564E+01 -0.43851240489E+02  0.44466724410E+02  0.00000000000E+00 0. -1.
</event>
<event>
 7    1  0.4359248E-015  0.9000775E+02  0.7816164E-02  0.1186339E+00
        -11   -1    0    0    0    0  0.00000000000E+00  0.00000000000E+00  0.45593999997E+02  0.45594000000E+02  0.51100000000E-03 0. -1.
         11   -1    0    0    0    0 -0.00000000000E+00 -0.00000000000E+00 -0.45593999997E+02  0.45594000000E+02  0.51100000000E-03 0.  1.
    9900012    2    1    2    0    0 -0.27243957121E+00  0.90590282555E+00  0.70575889442E+00  0.90007754743E+02  0.90000016306E+02 0.  0.
        -12    1    1    2    0    0  0.27243957121E+00 -0.90590282555E+00 -0.70575889442E+00  0.11802452569E+01  0.00000000000E+00 0.  1.
         11    1    3    3    0    0 -0.18152013215E+01  0.30966697311E+01 -0.84904785092E+01  0.92180553718E+01  0.51100000000E-03 0. -1.
        -11    1    3    3    0    0 -0.55670037106E+01 -0.19283544446E+02 -0.30773835284E+02  0.36740652621E+02  0.51100000000E-03 0.  1.
         12    1    3    3    0    0  0.71097654609E+01  0.17092777541E+02  0.39970072687E+02  0.44049046750E+02  0.00000000000E+00 0. -1.
</event>
<event>
 7    1  0.4359248E-015  0.9000772E+02  0.7816164E-02  0.1186339E+00
        -11   -1    0    0    0    0  0.00000000000E+00  0.00000000000E+00  0.45593999997E+02  0.45594000000E+02  0.51100000000E-03 0.  1.
         11   -1    0    0    0    0 -0.00000000000E+00 -0.00000000000E+00 -0.45593999997E+02  0.45594000000E+02  0.51100000000E-03 0. -1.
    9900012    2    1    2    0    0 -0.65753932734E+00 -0.80301980001E+00 -0.56201469814E+00  0.90007720674E+02  0.89999981787E+02 0.  0.
        -12    1    1    2    0    0  0.65753932734E+00  0.80301980001E+00  0.56201469814E+00  0.11802793259E+01  0.00000000000E+00 0.  1.
         11    1    3    3    0    0  0.18069285222E+02  0.28025815445E+02 -0.24019565886E+02  0.41096045374E+02  0.51100000000E-03 0. -1.
        -11    1    3    3    0    0 -0.99341669267E+00 -0.10969538324E+02 -0.39501350732E+01  0.11701333904E+02  0.51100000000E-03 0.  1.
        -12    1    3    3    0    0 -0.17733407856E+02 -0.17859296921E+02  0.27407686261E+02  0.37210341397E+02  0.00000000000E+00 0.  1.
</event>
<event>
 7    1  0.4359248E-015  0.9000776E+02  0.7816164E-02  0.1186339E+00
        -11   -1    0    0    0    0  0.00000000000E+00  0.00000000000E+00  0.45593999997E+02  0.45594000000E+02  0.51100000000E-03 0. -1.
         11   -1    0    0    0    0 -0.00000000000E+00 -0.00000000000E+00 -0.45593999997E+02  0.45594000000E+02  0.51100000000E-03 0.  1.
    9900012    2    1    2    0    0 -0.94143241918E+00  0.70842461320E+00 -0.69302415145E-01  0.90007761356E+02  0.90000023006E+02 0.  0.
        -12    1    1    2    0    0  0.94143241918E+00 -0.70842461320E+00  0.69302415145E-01  0.11802386442E+01  0.00000000000E+00 0.  1.
         11    1    3    3    0    0  0.93136840972E+01 -0.35053768007E+02 -0.16400456293E+01  0.36307039440E+02  0.51100000000E-03 0. -1.
        -11    1    3    3    0    0  0.68368460651E+01 -0.48921682768E+01 -0.38891001668E+01  0.92628761697E+01  0.51100000000E-03 0.  1.
        -12    1    3    3    0    0 -0.17091962581E+02  0.40654360897E+02  0.54598433810E+01  0.44437845746E+02  0.00000000000E+00 0.  1.
</event>
<event>
 7    1  0.4359248E-015  0.9000769E+02  0.7816164E-02  0.1186339E+00
        -11   -1    0    0    0    0  0.00000000000E+00  0.00000000000E+00  0.45593999997E+02  0.45594000000E+02  0.51100000000E-03 0.  1.
         11   -1    0    0    0    0 -0.00000000000E+00 -0.00000000000E+00 -0.45593999997E+02  0.45594000000E+02  0.51100000000E-03 0. -1.
    9900012    2    1    2    0    0 -0.61855477394E+00 -0.82641320739E+00  0.57233054436E+00  0.90007690274E+02  0.89999950985E+02 0.  0.
        -12    1    1    2    0    0  0.61855477394E+00  0.82641320739E+00 -0.57233054436E+00  0.11803097262E+01  0.00000000000E+00 0.  1.
         11    1    3    3    0    0 -0.40002601437E+01 -0.31747788043E+01  0.83783934592E+01  0.98121750337E+01  0.51100000000E-03 0. -1.
        -11    1    3    3    0    0 -0.37839685002E+02 -0.30415731843E+01 -0.37065219953E+00  0.37963539242E+02  0.51100000000E-03 0.  1.
         12    1    3    3    0    0  0.41221390371E+02  0.53899387812E+01 -0.74354107153E+01  0.42231975998E+02  0.00000000000E+00 0. -1.
</event>
<event>
 7    1  0.4359248E-015  0.9000828E+02  0.7816164E-02  0.1186338E+00
        -11   -1    0    0    0    0  0.00000000000E+00  0.00000000000E+00  0.45593999997E+02  0.45594000000E+02  0.51100000000E-03 0.  1.
         11   -1    0    0    0    0 -0.00000000000E+00 -0.00000000000E+00 -0.45593999997E+02  0.45594000000E+02  0.51100000000E-03 0. -1.
    9900012    2    1    2    0    0 -0.86156673976E-01 -0.10052304515E+01  0.61141120429E+00  0.90008281858E+02  0.90000550377E+02 0.  0.
        -12    1    1    2    0    0  0.86156673976E-01  0.10052304515E+01 -0.61141120429E+00  0.11797181417E+01  0.00000000000E+00 0.  1.
         11    1    3    3    0    0  0.32227903610E+02 -0.65240398351E+01 -0.24016326748E+02  0.40718359712E+02  0.51100000000E-03 0. -1.
        -11    1    3    3    0    0  0.21212924104E+01  0.78983933764E+01  0.46240273012E+01  0.93950054903E+01  0.51100000000E-03 0.  1.
        -12    1    3    3    0    0 -0.34435352695E+02 -0.23795839929E+01  0.20003710651E+02  0.39894916656E+02  0.00000000000E+00 0.  1.
</event>
<event>
 7    1  0.4359248E-015  0.9000765E+02  0.7816164E-02  0.1186339E+00
        -11   -1    0    0    0    0  0.00000000000E+00  0.00000000000E+00  0.45593999997E+02  0.45594000000E+02  0.51100000000E-03 0. -1.
         11   -1    0    0    0    0 -0.00000000000E+00 -0.00000000000E+00 -0.45593999997E+02  0.45594000000E+02  0.51100000000E-03 0.  1.
    9900012    2    1    2    0    0 -0.81968682916E+00 -0.71881165773E+00  0.45237228110E+00  0.90007653704E+02  0.89999913933E+02 0.  0.
        -12    1    1    2    0    0  0.81968682916E+00  0.71881165773E+00 -0.45237228110E+00  0.11803462957E+01  0.00000000000E+00 0.  1.
         11    1    3    3    0    0  0.17414528086E+02  0.38140430194E+01  0.35286293962E+02  0.39533975950E+02  0.51100000000E-03 0. -1.
        -11    1    3    3    0    0 -0.89003889465E+01  0.68785155151E+01  0.14190878446E+01  0.11337755936E+02  0.51100000000E-03 0.  1.
        -12    1    3    3    0    0 -0.93338259688E+01 -0.11411370192E+02 -0.36253009526E+02  0.39135921818E+02  0.00000000000E+00 0.  1.
</event>
<event>
 7    1  0.4359248E-015  0.9000789E+02  0.7816164E-02  0.1186339E+00
        -11   -1    0    0    0    0  0.00000000000E+00  0.00000000000E+00  0.45593999997E+02  0.45594000000E+02  0.51100000000E-03 0. -1.
         11   -1    0    0    0    0 -0.00000000000E+00 -0.00000000000E+00 -0.45593999997E+02  0.45594000000E+02  0.51100000000E-03 0.  1.
    9900012    2    1    2    0    0  0.11731893938E+01  0.19367864069E-01 -0.12609328477E+00  0.90007894927E+02  0.90000158340E+02 0.  0.
        -12    1    1    2    0    0 -0.11731893938E+01 -0.19367864069E-01  0.12609328477E+00  0.11801050734E+01  0.00000000000E+00 0.  1.
         11    1    3    3    0    0  0.21892202844E+02  0.16020432661E+02 -0.23136934700E+02  0.35654460528E+02  0.51100000000E-03 0. -1.
        -11    1    3    3    0    0  0.18445294816E+00 -0.63425631566E+01 -0.11342394483E+02  0.12996616604E+02  0.51100000000E-03 0.  1.
        -12    1    3    3    0    0 -0.20903466398E+02 -0.96585016401E+01  0.34353235898E+02  0.41356817794E+02  0.00000000000E+00 0.  1.
</event>
<event>
 7    1  0.4359248E-015  0.9000774E+02  0.7816164E-02  0.1186339E+00
        -11   -1    0    0    0    0  0.00000000000E+00  0.00000000000E+00  0.45593999997E+02  0.45594000000E+02  0.51100000000E-03 0. -1.
         11   -1    0    0    0    0 -0.00000000000E+00 -0.00000000000E+00 -0.45593999997E+02  0.45594000000E+02  0.51100000000E-03 0.  1.
    9900012    2    1    2    0    0 -0.38425511981E+00  0.11091182773E+01  0.12337664178E+00  0.90007738526E+02  0.89999999875E+02 0.  0.
        -12    1    1    2    0    0  0.38425511981E+00 -0.11091182773E+01 -0.12337664178E+00  0.11802614735E+01  0.00000000000E+00 0.  1.
         11    1    3    3    0    0  0.11512219799E+02  0.33053878670E+02  0.23589897347E+02  0.42208688168E+02  0.51100000000E-03 0. -1.
        -11    1    3    3    0    0  0.27973030854E+01  0.54429520706E+00 -0.87882339327E+01  0.92387346396E+01  0.51100000000E-03 0.  1.
        -12    1    3    3    0    0 -0.14693778004E+02 -0.32489055599E+02 -0.14678286772E+02  0.38560315719E+02  0.00000000000E+00 0.  1.
</event>
<event>
 7    1  0.4359248E-015  0.9000773E+02  0.7816164E-02  0.1186339E+00
        -11   -1    0    0    0    0  0.00000000000E+00  0.00000000000E+00  0.45593999997E+02  0.45594000000E+02  0.51100000000E-03 0.  1.
         11   -1    0    0    0    0 -0.00000000000E+00 -0.00000000000E+00 -0.45593999997E+02  0.45594000000E+02  0.51100000000E-03 0. -1.
    9900012    2    1    2    0    0 -0.94012114395E+00  0.18597131624E+00 -0.68893719050E+00  0.90007725647E+02  0.89999986826E+02 0.  0.
        -12    1    1    2    0    0  0.94012114395E+00 -0.18597131624E+00  0.68893719050E+00  0.11802743529E+01  0.00000000000E+00 0.  1.
         11    1    3    3    0    0 -0.52936371593E+01 -0.61016375834E+01  0.44357268419E+01  0.92156523617E+01  0.51100000000E-03 0. -1.
        -11    1    3    3    0    0  0.17775507537E+02  0.25604066677E+02  0.26821222415E+02  0.41120735289E+02  0.51100000000E-03 0.  1.
         12    1    3    3    0    0 -0.13421991522E+02 -0.19316457778E+02 -0.31945886447E+02  0.39671337996E+02  0.00000000000E+00 0. -1.
</event>
<event>
 7    1  0.4359248E-015  0.9000764E+02  0.7816164E-02  0.1186339E+00
        -11   -1    0    0    0    0  0.00000000000E+00  0.00000000000E+00  0.45593999997E+02  0.45594000000E+02  0.51100000000E-03 0. -1.
         11   -1    0    0    0    0 -0.00000000000E+00 -0.00000000000E+00 -0.45593999997E+02  0.45594000000E+02  0.51100000000E-03 0.  1.
    9900012    2    1    2    0    0 -0.65683021761E+00 -0.70269662245E+00  0.68414207873E+00  0.90007636132E+02  0.89999896128E+02 0.  0.
        -12    1    1    2    0    0  0.65683021761E+00  0.70269662245E+00 -0.68414207873E+00  0.11803638684E+01  0.00000000000E+00 0.  1.
         11    1    3    3    0    0  0.59418059245E+01 -0.68867463951E+01 -0.31928055565E+01  0.96398309704E+01  0.51100000000E-03 0. -1.
        -11    1    3    3    0    0  0.33235522876E+02 -0.13212017982E+02  0.45762759366E+01  0.36056895342E+02  0.51100000000E-03 0.  1.
         12    1    3    3    0    0 -0.39834159018E+02  0.19396067754E+02 -0.69932830137E+00  0.44310909820E+02  0.00000000000E+00 0. -1.
</event>
<event>
 7    1  0.4359248E-015  0.9000775E+02  0.7816164E-02  0.1186339E+00
        -11   -1    0    0    0    0  0.00000000000E+00  0.00000000000E+00  0.45593999997E+02  0.45594000000E+02  0.51100000000E-03 0.  1.
         11   -1    0    0    0    0 -0.00000000000E+00 -0.00000000000E+00 -0.45593999997E+02  0.45594000000E+02  0.51100000000E-03 0. -1.
    9900012    2    1    2    0    0 -0.61237232528E+00 -0.10078592382E+01  0.46931784161E-01  0.90007753119E+02  0.90000014660E+02 0.  0.
        -12    1    1    2    0    0  0.61237232528E+00  0.10078592382E+01 -0.46931784161E-01  0.11802468814E+01  0.00000000000E+00 0.  1.
         11    1    3    3    0    0 -0.11151910719E+02 -0.10983955535E+02  0.10356205722E+02  0.18768681070E+02  0.51100000000E-03 0. -1.
        -11    1    3    3    0    0 -0.23568709405E+02  0.19874753514E+02  0.71736508529E+01  0.31653612069E+02  0.51100000000E-03 0.  1.
         12    1    3    3    0    0  0.34108247798E+02 -0.98986572162E+01 -0.17482924791E+02  0.39585459979E+02  0.00000000000E+00 0. -1.
</event>
<event>
 7    1  0.4359248E-015  0.9000776E+02  0.7816164E-02  0.1186339E+00
        -11   -1    0    0    0    0  0.00000000000E+00  0.00000000000E+00  0.45593999997E+02  0.45594000000E+02  0.51100000000E-03 0.  1.
         11   -1    0    0    0    0 -0.00000000000E+00 -0.00000000000E+00 -0.45593999997E+02  0.45594000000E+02  0.51100000000E-03 0. -1.
    9900012    2    1    2    0    0  0.99394283709E+00  0.14503942798E+00  0.61967749665E+00  0.90007763160E+02  0.90000024834E+02 0.  0.
        -12    1    1    2    0    0 -0.99394283709E+00 -0.14503942798E+00 -0.61967749665E+00  0.11802368402E+01  0.00000000000E+00 0.  1.
         11    1    3    3    0    0  0.54390014214E+01  0.27165162279E+02  0.15912281410E+02  0.31948857226E+02  0.51100000000E-03 0. -1.
        -11    1    3    3    0    0  0.16358964528E+02  0.56157610404E+01 -0.52271731279E+01  0.18068642220E+02  0.51100000000E-03 0.  1.
        -12    1    3    3    0    0 -0.20804023113E+02 -0.32635883891E+02 -0.10065430785E+02  0.39990263714E+02  0.00000000000E+00 0.  1.
</event>
<event>
 7    1  0.4359248E-015  0.9000772E+02  0.7816164E-02  0.1186339E+00
        -11   -1    0    0    0    0  0.00000000000E+00  0.00000000000E+00  0.45593999997E+02  0.45594000000E+02  0.51100000000E-03 0.  1.
         11   -1    0    0    0    0 -0.00000000000E+00 -0.00000000000E+00 -0.45593999997E+02  0.45594000000E+02  0.51100000000E-03 0. -1.
    9900012    2    1    2    0    0  0.11464189757E+01  0.27392788599E+00  0.61163103957E-01  0.90007722965E+02  0.89999984108E+02 0.  0.
        -12    1    1    2    0    0 -0.11464189757E+01 -0.27392788599E+00 -0.61163103957E-01  0.11802770352E+01  0.00000000000E+00 0.  1.
         11    1    3    3    0    0  0.94004935141E+01  0.50503982585E+01 -0.14459789668E+01  0.10768781561E+02  0.51100000000E-03 0. -1.
        -11    1    3    3    0    0 -0.50286669939E+01  0.27820351800E+02  0.25944523099E+02  0.38371574702E+02  0.51100000000E-03 0.  1.
         12    1    3    3    0    0 -0.32254075446E+01 -0.32596822172E+02 -0.24437381029E+02  0.40867366701E+02  0.00000000000E+00 0. -1.
</event>
<event>
 7    1  0.4359248E-015  0.9000773E+02  0.7816164E-02  0.1186339E+00
        -11   -1    0    0    0    0  0.00000000000E+00  0.00000000000E+00  0.45593999997E+02  0.45594000000E+02  0.51100000000E-03 0.  1.
         11   -1    0    0    0    0 -0.00000000000E+00 -0.00000000000E+00 -0.45593999997E+02  0.45594000000E+02  0.51100000000E-03 0. -1.
    9900012    2    1    2    0    0  0.73735708473E-01 -0.39356215859E+00 -0.11102756599E+01  0.90007728773E+02  0.89999989993E+02 0.  0.
        -12    1    1    2    0    0 -0.73735708473E-01  0.39356215859E+00  0.11102756599E+01  0.11802712266E+01  0.00000000000E+00 0.  1.
         11    1    3    3    0    0 -0.43350858019E+00 -0.64564126404E+01  0.74593354219E+01  0.98749622313E+01  0.51100000000E-03 0. -1.
        -11    1    3    3    0    0 -0.35658638609E+01 -0.17851498739E+02  0.29692409653E+02  0.34828588596E+02  0.51100000000E-03 0.  1.
         12    1    3    3    0    0  0.40731081496E+01  0.23914349221E+02 -0.38262020735E+02  0.45304177946E+02  0.00000000000E+00 0. -1.
</event>
<event>
 7    1  0.4359248E-015  0.9000776E+02  0.7816164E-02  0.1186339E+00
        -11   -1    0    0    0    0  0.00000000000E+00  0.00000000000E+00  0.45593999997E+02  0.45594000000E+02  0.51100000000E-03 0.  1.
         11   -1    0    0    0    0 -0.00000000000E+00 -0.00000000000E+00 -0.45593999997E+02  0.45594000000E+02  0.51100000000E-03 0. -1.
    9900012    2    1    2    0    0 -0.96355681145E+00 -0.36230013162E+00  0.57728948648E+00  0.90007760081E+02  0.90000021714E+02 0.  0.
        -12    1    1    2    0    0  0.96355681145E+00  0.36230013162E+00 -0.57728948648E+00  0.11802399186E+01  0.00000000000E+00 0.  1.
         11    1    3    3    0    0 -0.19312212499E+02  0.33529517708E+02  0.17021931683E+01  0.38730963985E+02  0.51100000000E-03 0. -1.
        -11    1    3    3    0    0 -0.38434570202E+01  0.12551345824E+01  0.77790510400E+01  0.87670496765E+01  0.51100000000E-03 0.  1.
        -12    1    3    3    0    0  0.22192112708E+02 -0.35146952422E+02 -0.89039547218E+01  0.42509746420E+02  0.00000000000E+00 0.  1.
</event>
<event>
 7    1  0.4359248E-015  0.9000770E+02  0.7816164E-02  0.1186339E+00
        -11   -1    0    0    0    0  0.00000000000E+00  0.00000000000E+00  0.45593999997E+02  0.45594000000E+02  0.51100000000E-03 0.  1.
         11   -1    0    0    0    0 -0.00000000000E+00 -0.00000000000E+00 -0.45593999997E+02  0.45594000000E+02  0.51100000000E-03 0. -1.
    9900012    2    1    2    0    0  0.11293820624E+01 -0.32280120135E+00 -0.11577319352E+00  0.90007700084E+02  0.89999960925E+02 0.  0.
        -12    1    1    2    0    0 -0.11293820624E+01  0.32280120135E+00  0.11577319352E+00  0.11802999157E+01  0.00000000000E+00 0.  1.
         11    1    3    3    0    0 -0.14109788917E+02  0.81805765737E+01 -0.29889642236E+02  0.34049944047E+02  0.51100000000E-03 0. -1.
        -11    1    3    3    0    0  0.11241839791E+02 -0.94122773102E+01 -0.88441564328E+01  0.17122763484E+02  0.51100000000E-03 0.  1.
        -12    1    3    3    0    0  0.39973311884E+01  0.90889953514E+00  0.38618025475E+02  0.38834992553E+02  0.00000000000E+00 0.  1.
</event>
<event>
 7    1  0.4359248E-015  0.9000776E+02  0.7816164E-02  0.1186339E+00
        -11   -1    0    0    0    0  0.00000000000E+00  0.00000000000E+00  0.45593999997E+02  0.45594000000E+02  0.51100000000E-03 0. -1.
         11   -1    0    0    0    0 -0.00000000000E+00 -0.00000000000E+00 -0.45593999997E+02  0.45594000000E+02  0.51100000000E-03 0.  1.
    9900012    2    1    2    0    0 -0.81769264307E+00 -0.90246707329E-01  0.84628484763E+00  0.90007761139E+02  0.90000022786E+02 0.  0.
        -12    1    1    2    0    0  0.81769264307E+00  0.90246707329E-01 -0.84628484763E+00  0.11802388614E+01  0.00000000000E+00 0.  1.
         11    1    3    3    0    0 -0.49524461184E+01  0.65978073042E+01  0.13704187851E+00  0.82508523509E+01  0.51100000000E-03 0. -1.
        -11    1    3    3    0    0 -0.17620329233E+02 -0.34537800374E+02  0.17609132290E+02  0.42584236487E+02  0.51100000000E-03 0.  1.
         12    1    3    3    0    0  0.21755082708E+02  0.27849746362E+02 -0.16899889321E+02  0.39172672300E+02  0.00000000000E+00 0. -1.
</event>
<event>
 7    1  0.4359248E-015  0.9000759E+02  0.7816164E-02  0.1186339E+00
        -11   -1    0    0    0    0  0.00000000000E+00  0.00000000000E+00  0.45593999997E+02  0.45594000000E+02  0.51100000000E-03 0.  1.
         11   -1    0    0    0    0 -0.00000000000E+00 -0.00000000000E+00 -0.45593999997E+02  0.45594000000E+02  0.51100000000E-03 0. -1.
    9900012    2    1    2    0    0  0.10035387001E+00  0.11727448797E+01 -0.89253215633E-01  0.90007590076E+02  0.89999849465E+02 0.  0.
        -12    1    1    2    0    0 -0.10035387001E+00 -0.11727448797E+01  0.89253215633E-01  0.11804099239E+01  0.00000000000E+00 0.  1.
         11    1    3    3    0    0  0.41521406540E+02  0.10037039764E+02 -0.13816836811E+01  0.42739658613E+02  0.51100000000E-03 0. -1.
        -11    1    3    3    0    0  0.17968084003E+01 -0.31216882116E+01 -0.48282025803E+00  0.36340849440E+01  0.51100000000E-03 0.  1.
        -12    1    3    3    0    0 -0.43217861071E+02 -0.57426066724E+01  0.17752507235E+01  0.43633846519E+02  0.00000000000E+00 0.  1.
</event>
<event>
 7    1  0.4359248E-015  0.9000766E+02  0.7816164E-02  0.1186339E+00
        -11   -1    0    0    0    0  0.00000000000E+00  0.00000000000E+00  0.45593999997E+02  0.45594000000E+02  0.51100000000E-03 0.  1.
         11   -1    0    0    0    0 -0.00000000000E+00 -0.00000000000E+00 -0.45593999997E+02  0.45594000000E+02  0.51100000000E-03 0. -1.
    9900012    2    1    2    0    0  0.57473773858E+00  0.83620946942E+00  0.60301990806E+00  0.90007659899E+02  0.89999920209E+02 0.  0.
        -12    1    1    2    0    0 -0.57473773858E+00 -0.83620946942E+00 -0.60301990806E+00  0.11803401012E+01  0.00000000000E+00 0.  1.
         11    1    3    3    0    0 -0.32204090397E+01  0.78035249140E+01  0.93552619130E+01  0.12601069843E+02  0.51100000000E-03 0. -1.
        -11    1    3    3    0    0  0.28160494062E+02 -0.29253630853E+02  0.63458557316E+01  0.41098153598E+02  0.51100000000E-03 0.  1.
         12    1    3    3    0    0 -0.24365347284E+02  0.22286315408E+02 -0.15098097736E+02  0.36308436458E+02  0.00000000000E+00 0. -1.
</event>
<event>
 7    1  0.4359248E-015  0.9000769E+02  0.7816164E-02  0.1186339E+00
        -11   -1    0    0    0    0  0.00000000000E+00  0.00000000000E+00  0.45593999997E+02  0.45594000000E+02  0.51100000000E-03 0. -1.
         11   -1    0    0    0    0 -0.00000000000E+00 -0.00000000000E+00 -0.45593999997E+02  0.45594000000E+02  0.51100000000E-03 0.  1.
    9900012    2    1    2    0    0 -0.33429334236E+00  0.57015580965E+00  0.97790508857E+00  0.90007691545E+02  0.89999952274E+02 0.  0.
        -12    1    1    2    0    0  0.33429334236E+00 -0.57015580965E+00 -0.97790508857E+00  0.11803084547E+01  0.00000000000E+00 0.  1.
         11    1    3    3    0    0  0.32642005010E+02  0.84237296394E+01  0.11770312985E+02  0.35707141864E+02  0.51100000000E-03 0. -1.
        -11    1    3    3    0    0  0.56524625788E+01  0.87521205040E+01 -0.58915373480E+01  0.11969133599E+02  0.51100000000E-03 0.  1.
        -12    1    3    3    0    0 -0.38628760931E+02 -0.16605694334E+02 -0.49008705482E+01  0.42331416082E+02  0.00000000000E+00 0.  1.
</event>
<event>
 7    1  0.4359248E-015  0.9000767E+02  0.7816164E-02  0.1186339E+00
        -11   -1    0    0    0    0  0.00000000000E+00  0.00000000000E+00  0.45593999997E+02  0.45594000000E+02  0.51100000000E-03 0. -1.
         11   -1    0    0    0    0 -0.00000000000E+00 -0.00000000000E+00 -0.45593999997E+02  0.45594000000E+02  0.51100000000E-03 0.  1.
    9900012    2    1    2    0    0  0.20590986521E+00 -0.48937580293E+00  0.10541740692E+01  0.90007673555E+02  0.89999934046E+02 0.  0.
        -12    1    1    2    0    0 -0.20590986521E+00  0.48937580293E+00 -0.10541740692E+01  0.11803264452E+01  0.00000000000E+00 0.  1.
         11    1    3    3    0    0 -0.69589348800E+01 -0.21195053579E+01 -0.65291261601E+01  0.97748946952E+01  0.51100000000E-03 0. -1.
        -11    1    3    3    0    0 -0.90270762562E+01  0.31039310434E+02 -0.18924329496E+02  0.37457404409E+02  0.51100000000E-03 0.  1.
         12    1    3    3    0    0  0.16191921001E+02 -0.29409180879E+02  0.26507629726E+02  0.42775374450E+02  0.00000000000E+00 0. -1.
</event>
<event>
 7    1  0.5545141E-015  0.9000775E+02  0.7816164E-02  0.1186339E+00
        -11   -1    0    0    0    0  0.00000000000E+00  0.00000000000E+00  0.45593999997E+02  0.45594000000E+02  0.51100000000E-03 0. -1.
         11   -1    0    0    0    0 -0.00000000000E+00 -0.00000000000E+00 -0.45593999997E+02  0.45594000000E+02  0.51100000000E-03 0.  1.
    9900012    2    1    2    0    0  0.24509920594E+00  0.16194533215E+00  0.11431031911E+01  0.90007752222E+02  0.90000013752E+02 0.  0.
        -12    1    1    2    0    0 -0.24509920594E+00 -0.16194533215E+00 -0.11431031911E+01  0.11802477777E+01  0.00000000000E+00 0.  1.
         11    1    3    3    0    0  0.84045212799E+01  0.39747918628E+01 -0.10496383530E+01  0.93561043832E+01  0.51100000000E-03 0. -1.
        -11    1    3    3    0    0 -0.18127071593E+02  0.28747259181E+00 -0.36355459069E+02  0.40625026393E+02  0.51100000000E-03 0.  1.
         12    1    3    3    0    0  0.99676495190E+01 -0.41003191225E+01  0.38548200614E+02  0.40026621446E+02  0.00000000000E+00 0. -1.
</event>
<event>
 7    1  0.4359248E-015  0.9000774E+02  0.7816164E-02  0.1186339E+00
        -11   -1    0    0    0    0  0.00000000000E+00  0.00000000000E+00  0.45593999997E+02  0.45594000000E+02  0.51100000000E-03 0. -1.
         11   -1    0    0    0    0 -0.00000000000E+00 -0.00000000000E+00 -0.45593999997E+02  0.45594000000E+02  0.51100000000E-03 0.  1.
    9900012    2    1    2    0    0 -0.10309637587E+01 -0.51228895509E+00  0.26014693009E+00  0.90007744659E+02  0.90000006088E+02 0.  0.
        -12    1    1    2    0    0  0.10309637587E+01  0.51228895509E+00 -0.26014693009E+00  0.11802553412E+01  0.00000000000E+00 0.  1.
         11    1    3    3    0    0  0.44707887069E+01  0.87690881963E+00  0.11219772938E+02  0.12109509725E+02  0.51100000000E-03 0. -1.
        -11    1    3    3    0    0  0.34285252632E+02 -0.10899186111E+02 -0.20685139772E+01  0.36035393105E+02  0.51100000000E-03 0.  1.
         12    1    3    3    0    0 -0.39787005098E+02  0.95099883365E+01 -0.88911120306E+01  0.41862841828E+02  0.00000000000E+00 0. -1.
</event>
<event>
 7    1  0.4359248E-015  0.9000786E+02  0.7816164E-02  0.1186339E+00
        -11   -1    0    0    0    0  0.00000000000E+00  0.00000000000E+00  0.45593999997E+02  0.45594000000E+02  0.51100000000E-03 0. -1.
         11   -1    0    0    0    0 -0.00000000000E+00 -0.00000000000E+00 -0.45593999997E+02  0.45594000000E+02  0.51100000000E-03 0.  1.
    9900012    2    1    2    0    0  0.10361028303E+01  0.70743236731E-01  0.56055579766E+00  0.90007857431E+02  0.90000120349E+02 0.  0.
        -12    1    1    2    0    0 -0.10361028303E+01 -0.70743236731E-01 -0.56055579766E+00  0.11801425688E+01  0.00000000000E+00 0.  1.
         11    1    3    3    0    0  0.69972407574E+01 -0.59046487029E+01 -0.42646389891E+01  0.10100168340E+02  0.51100000000E-03 0. -1.
        -11    1    3    3    0    0 -0.19633613810E+02 -0.25362718921E+02 -0.19870847462E+02  0.37730582839E+02  0.51100000000E-03 0.  1.
         12    1    3    3    0    0  0.13672475883E+02  0.31338110860E+02  0.24696042248E+02  0.42177106252E+02  0.00000000000E+00 0. -1.
</event>
<event>
 7    1  0.4359248E-015  0.9000767E+02  0.7816164E-02  0.1186339E+00
        -11   -1    0    0    0    0  0.00000000000E+00  0.00000000000E+00  0.45593999997E+02  0.45594000000E+02  0.51100000000E-03 0.  1.
         11   -1    0    0    0    0 -0.00000000000E+00 -0.00000000000E+00 -0.45593999997E+02  0.45594000000E+02  0.51100000000E-03 0. -1.
    9900012    2    1    2    0    0 -0.69066727332E+00 -0.62447068035E+00 -0.72538864033E+00  0.90007672252E+02  0.89999932726E+02 0.  0.
        -12    1    1    2    0    0  0.69066727332E+00  0.62447068035E+00  0.72538864033E+00  0.11803277480E+01  0.00000000000E+00 0.  1.
         11    1    3    3    0    0  0.16438877576E+01  0.34115904368E+01  0.69471229712E+01  0.79122584706E+01  0.51100000000E-03 0. -1.
        -11    1    3    3    0    0  0.16770242370E+02  0.33433780326E+02  0.59731479257E+01  0.37877924869E+02  0.51100000000E-03 0.  1.
         12    1    3    3    0    0 -0.19104797401E+02 -0.37469841443E+02 -0.13645659537E+02  0.44217488912E+02  0.00000000000E+00 0. -1.
</event>
<event>
 7    1  0.4359248E-015  0.9000770E+02  0.7816164E-02  0.1186339E+00
        -11   -1    0    0    0    0  0.00000000000E+00  0.00000000000E+00  0.45593999997E+02  0.45594000000E+02  0.51100000000E-03 0. -1.
         11   -1    0    0    0    0 -0.00000000000E+00 -0.00000000000E+00 -0.45593999997E+02  0.45594000000E+02  0.51100000000E-03 0.  1.
    9900012    2    1    2    0    0  0.10538311047E+01  0.23851157370E+00  0.47502503485E+00  0.90007704888E+02  0.89999965792E+02 0.  0.
        -12    1    1    2    0    0 -0.10538311047E+01 -0.23851157370E+00 -0.47502503485E+00  0.11802951122E+01  0.00000000000E+00 0.  1.
         11    1    3    3    0    0  0.37427830083E+01  0.80012039226E+01 -0.33401580409E+01  0.94437463359E+01  0.51100000000E-03 0. -1.
        -11    1    3    3    0    0 -0.21564477980E+02  0.11703312667E+02 -0.29005897079E+02  0.37991266148E+02  0.51100000000E-03 0.  1.
         12    1    3    3    0    0  0.18875526076E+02 -0.19466005016E+02  0.32821080155E+02  0.42572692403E+02  0.00000000000E+00 0. -1.
</event>
<event>
 7    1  0.4359248E-015  0.9000765E+02  0.7816164E-02  0.1186339E+00
        -11   -1    0    0    0    0  0.00000000000E+00  0.00000000000E+00  0.45593999997E+02  0.45594000000E+02  0.51100000000E-03 0.  1.
         11   -1    0    0    0    0 -0.00000000000E+00 -0.00000000000E+00 -0.45593999997E+02  0.45594000000E+02  0.51100000000E-03 0. -1.
    9900012    2    1    2    0    0  0.98699335908E+00  0.18625986655E+00 -0.61997704159E+00  0.90007652525E+02  0.89999912739E+02 0.  0.
        -12    1    1    2    0    0 -0.98699335908E+00 -0.18625986655E+00  0.61997704159E+00  0.11803474746E+01  0.00000000000E+00 0.  1.
         11    1    3    3    0    0  0.49384034882E+01  0.46980982662E+01 -0.65413187219E+01  0.94471586847E+01  0.51100000000E-03 0. -1.
        -11    1    3    3    0    0 -0.32617208126E+02 -0.23792610992E+02  0.17670385707E+02  0.44070547251E+02  0.51100000000E-03 0.  1.
         12    1    3    3    0    0  0.28665797997E+02  0.19280772592E+02 -0.11749044027E+02  0.36489946589E+02  0.00000000000E+00 0. -1.
</event>
<event>
 7    1  0.4359248E-015  0.9000777E+02  0.7816164E-02  0.1186339E+00
        -11   -1    0    0    0    0  0.00000000000E+00  0.00000000000E+00  0.45593999997E+02  0.45594000000E+02  0.51100000000E-03 0. -1.
         11   -1    0    0    0    0 -0.00000000000E+00 -0.00000000000E+00 -0.45593999997E+02  0.45594000000E+02  0.51100000000E-03 0.  1.
    9900012    2    1    2    0    0 -0.91101837393E+00 -0.61055288756E+00  0.43613925851E+00  0.90007768345E+02  0.90000030087E+02 0.  0.
        -12    1    1    2    0    0  0.91101837393E+00  0.61055288756E+00 -0.43613925851E+00  0.11802316548E+01  0.00000000000E+00 0.  1.
         11    1    3    3    0    0 -0.11274771376E+02 -0.18409567932E+01  0.74003380169E+01  0.13611561061E+02  0.51100000000E-03 0. -1.
        -11    1    3    3    0    0  0.17186936334E+02  0.97657882992E+00  0.32268804122E+02  0.36573490488E+02  0.51100000000E-03 0.  1.
         12    1    3    3    0    0 -0.68231833315E+01  0.25382507568E+00 -0.39233002881E+02  0.39822716796E+02  0.00000000000E+00 0. -1.
</event>
<event>
 7    1  0.4359248E-015  0.9000773E+02  0.7816164E-02  0.1186339E+00
        -11   -1    0    0    0    0  0.00000000000E+00  0.00000000000E+00  0.45593999997E+02  0.45594000000E+02  0.51100000000E-03 0.  1.
         11   -1    0    0    0    0 -0.00000000000E+00 -0.00000000000E+00 -0.45593999997E+02  0.45594000000E+02  0.51100000000E-03 0. -1.
    9900012    2    1    2    0    0  0.70943801985E+00 -0.70991786402E+00 -0.62108835091E+00  0.90007730362E+02  0.89999991603E+02 0.  0.
        -12    1    1    2    0    0 -0.70943801985E+00  0.70991786402E+00  0.62108835091E+00  0.11802696375E+01  0.00000000000E+00 0.  1.
         11    1    3    3    0    0 -0.39618118519E+02 -0.10339970329E+02 -0.27961206418E+01  0.41040572514E+02  0.51100000000E-03 0. -1.
        -11    1    3    3    0    0 -0.93712450468E+00  0.61967763929E+01  0.41435377158E+01  0.75131315085E+01  0.51100000000E-03 0.  1.
        -12    1    3    3    0    0  0.41264681043E+02  0.34332760723E+01 -0.19685054249E+01  0.41454026340E+02  0.00000000000E+00 0.  1.
</event>
<event>
 7    1  0.4359248E-015  0.9000774E+02  0.7816164E-02  0.1186339E+00
        -11   -1    0    0    0    0  0.00000000000E+00  0.00000000000E+00  0.45593999997E+02  0.45594000000E+02  0.51100000000E-03 0.  1.
         11   -1    0    0    0    0 -0.00000000000E+00 -0.00000000000E+00 -0.45593999997E+02  0.45594000000E+02  0.51100000000E-03 0. -1.
    9900012    2    1    2    0    0 -0.63217243891E-02  0.77530852035E+00 -0.88987541197E+00  0.90007736676E+02  0.89999998000E+02 0.  0.
        -12    1    1    2    0    0  0.63217243891E-02 -0.77530852035E+00  0.88987541197E+00  0.11802633243E+01  0.00000000000E+00 0.  1.
         11    1    3    3    0    0 -0.42256198557E+01  0.24701578124E+01 -0.39769343474E+02  0.40069417557E+02  0.51100000000E-03 0. -1.
        -11    1    3    3    0    0  0.63393387487E+01 -0.73403079564E+01 -0.86651372422E+00  0.97374628606E+01  0.51100000000E-03 0.  1.
        -12    1    3    3    0    0 -0.21200406174E+01  0.56454586644E+01  0.39745981786E+02  0.40200856258E+02  0.00000000000E+00 0.  1.
</event>
<event>
 7    1  0.4359248E-015  0.9000774E+02  0.7816164E-02  0.1186339E+00
        -11   -1    0    0    0    0  0.00000000000E+00  0.00000000000E+00  0.45593999997E+02  0.45594000000E+02  0.51100000000E-03 0.  1.
         11   -1    0    0    0    0 -0.00000000000E+00 -0.00000000000E+00 -0.45593999997E+02  0.45594000000E+02  0.51100000000E-03 0. -1.
    9900012    2    1    2    0    0  0.43028654032E+00 -0.90954544633E+00 -0.61692203970E+00  0.90007740610E+02  0.90000001986E+02 0.  0.
        -12    1    1    2    0    0 -0.43028654032E+00  0.90954544633E+00  0.61692203970E+00  0.11802593905E+01  0.00000000000E+00 0.  1.
         11    1    3    3    0    0 -0.62488070251E+01  0.13580691065E+01  0.72724976774E+01  0.96840675165E+01  0.51100000000E-03 0. -1.
        -11    1    3    3    0    0 -0.32081816127E+02 -0.48347414325E+01  0.14445524139E+02  0.35514656392E+02  0.51100000000E-03 0.  1.
         12    1    3    3    0    0  0.38760909693E+02  0.25671268798E+01 -0.22334943856E+02  0.44809016701E+02  0.00000000000E+00 0. -1.
</event>
<event>
 7    1  0.4359248E-015  0.9000774E+02  0.7816164E-02  0.1186339E+00
        -11   -1    0    0    0    0  0.00000000000E+00  0.00000000000E+00  0.45593999997E+02  0.45594000000E+02  0.51100000000E-03 0. -1.
         11   -1    0    0    0    0 -0.00000000000E+00 -0.00000000000E+00 -0.45593999997E+02  0.45594000000E+02  0.51100000000E-03 0.  1.
    9900012    2    1    2    0    0 -0.22127130965E+00 -0.24992098243E+00  0.11320700155E+01  0.90007744091E+02  0.90000005513E+02 0.  0.
        -12    1    1    2    0    0  0.22127130965E+00  0.24992098243E+00 -0.11320700155E+01  0.11802559087E+01  0.00000000000E+00 0.  1.
         11    1    3    3    0    0 -0.33195170634E+02  0.19213104922E+02 -0.86214807538E+01  0.39311482863E+02  0.51100000000E-03 0. -1.
        -11    1    3    3    0    0  0.50150351834E+00  0.75150427112E+01  0.15525449896E+01  0.76901085126E+01  0.51100000000E-03 0.  1.
        -12    1    3    3    0    0  0.32472395806E+02 -0.26978068616E+02  0.82010057796E+01  0.43006152716E+02  0.00000000000E+00 0.  1.
</event>
<event>
 7    1  0.4359248E-015  0.9000775E+02  0.7816164E-02  0.1186339E+00
        -11   -1    0    0    0    0  0.00000000000E+00  0.00000000000E+00  0.45593999997E+02  0.45594000000E+02  0.51100000000E-03 0.  1.
         11   -1    0    0    0    0 -0.00000000000E+00 -0.00000000000E+00 -0.45593999997E+02  0.45594000000E+02  0.51100000000E-03 0. -1.
    9900012    2    1    2    0    0  0.10415248948E+01 -0.14072083813E+00  0.53704528877E+00  0.90007748288E+02  0.90000009766E+02 0.  0.
        -12    1    1    2    0    0 -0.10415248948E+01  0.14072083813E+00 -0.53704528877E+00  0.11802517117E+01  0.00000000000E+00 0.  1.
         11    1    3    3    0    0  0.68205297448E+01  0.38408748230E+01  0.54970388025E+01  0.95650081685E+01  0.51100000000E-03 0. -1.
        -11    1    3    3    0    0  0.14383054806E+02  0.31259838549E+02 -0.16601386149E+02  0.38205441943E+02  0.51100000000E-03 0.  1.
         12    1    3    3    0    0 -0.20162059657E+02 -0.35241434210E+02  0.11641392636E+02  0.42237298177E+02  0.00000000000E+00 0. -1.
</event>
<event>
 7    1  0.4359248E-015  0.9000775E+02  0.7816164E-02  0.1186339E+00
        -11   -1    0    0    0    0  0.00000000000E+00  0.00000000000E+00  0.45593999997E+02  0.45594000000E+02  0.51100000000E-03 0. -1.
         11   -1    0    0    0    0 -0.00000000000E+00 -0.00000000000E+00 -0.45593999997E+02  0.45594000000E+02  0.51100000000E-03 0.  1.
    9900012    2    1    2    0    0  0.11271998604E+01 -0.32512762813E+00  0.12920813328E+00  0.90007753313E+02  0.90000014857E+02 0.  0.
        -12    1    1    2    0    0 -0.11271998604E+01  0.32512762813E+00 -0.12920813328E+00  0.11802466867E+01  0.00000000000E+00 0.  1.
         11    1    3    3    0    0 -0.13133703311E+01 -0.90023763411E+01  0.10645856345E+01  0.91597524119E+01  0.51100000000E-03 0. -1.
        -11    1    3    3    0    0 -0.16796767260E+02 -0.29429760645E+02 -0.13305440971E+02  0.36404353609E+02  0.51100000000E-03 0.  1.
         12    1    3    3    0    0  0.19237337452E+02  0.38107009358E+02  0.12370063469E+02  0.44443647292E+02  0.00000000000E+00 0. -1.
</event>
<event>
 7    1  0.4359248E-015  0.9000764E+02  0.7816164E-02  0.1186339E+00
        -11   -1    0    0    0    0  0.00000000000E+00  0.00000000000E+00  0.45593999997E+02  0.45594000000E+02  0.51100000000E-03 0. -1.
         11   -1    0    0    0    0 -0.00000000000E+00 -0.00000000000E+00 -0.45593999997E+02  0.45594000000E+02  0.51100000000E-03 0.  1.
    9900012    2    1    2    0    0 -0.59034716724E+00 -0.34213962389E+00  0.96315912071E+00  0.90007642092E+02  0.89999902167E+02 0.  0.
        -12    1    1    2    0    0  0.59034716724E+00  0.34213962389E+00 -0.96315912071E+00  0.11803579084E+01  0.00000000000E+00 0.  1.
         11    1    3    3    0    0  0.53882151206E+01  0.80389360385E+01  0.21487966652E+01  0.99133587742E+01  0.51100000000E-03 0. -1.
        -11    1    3    3    0    0  0.12128436805E+02 -0.29728373892E+02 -0.27049297953E+02  0.41982612039E+02  0.51100000000E-03 0.  1.
         12    1    3    3    0    0 -0.18106999093E+02  0.21347298230E+02  0.25863660409E+02  0.38111671278E+02  0.00000000000E+00 0. -1.
</event>
<event>
 7    1  0.4359248E-015  0.9000775E+02  0.7816164E-02  0.1186339E+00
        -11   -1    0    0    0    0  0.00000000000E+00  0.00000000000E+00  0.45593999997E+02  0.45594000000E+02  0.51100000000E-03 0.  1.
         11   -1    0    0    0    0 -0.00000000000E+00 -0.00000000000E+00 -0.45593999997E+02  0.45594000000E+02  0.51100000000E-03 0. -1.
    9900012    2    1    2    0    0 -0.10621216152E+01 -0.48026036576E+00  0.18500320677E+00  0.90007754885E+02  0.90000016450E+02 0.  0.
        -12    1    1    2    0    0  0.10621216152E+01  0.48026036576E+00 -0.18500320677E+00  0.11802451148E+01  0.00000000000E+00 0.  1.
         11    1    3    3    0    0 -0.11171861666E+01 -0.41519944718E+01  0.74734200372E+01  0.86220166051E+01  0.51100000000E-03 0. -1.
        -11    1    3    3    0    0 -0.34871907722E+02 -0.16357289129E+02 -0.13146649007E+02  0.40699450072E+02  0.51100000000E-03 0.  1.
         12    1    3    3    0    0  0.34926972273E+02  0.20029023235E+02  0.58582321764E+01  0.40686288208E+02  0.00000000000E+00 0. -1.
</event>
<event>
 7    1  0.4359248E-015  0.9000774E+02  0.7816164E-02  0.1186339E+00
        -11   -1    0    0    0    0  0.00000000000E+00  0.00000000000E+00  0.45593999997E+02  0.45594000000E+02  0.51100000000E-03 0. -1.
         11   -1    0    0    0    0 -0.00000000000E+00 -0.00000000000E+00 -0.45593999997E+02  0.45594000000E+02  0.51100000000E-03 0.  1.
    9900012    2    1    2    0    0 -0.44738443451E+00 -0.48891872016E+00  0.97663152811E+00  0.90007744312E+02  0.90000005737E+02 0.  0.
        -12    1    1    2    0    0  0.44738443451E+00  0.48891872016E+00 -0.97663152811E+00  0.11802556879E+01  0.00000000000E+00 0.  1.
         11    1    3    3    0    0 -0.21460457341E+02 -0.26197469732E+02  0.16375706036E+02  0.37616783463E+02  0.51100000000E-03 0. -1.
        -11    1    3    3    0    0 -0.60488310159E+01  0.49452067737E+00  0.69095191260E+01  0.91964320349E+01  0.51100000000E-03 0.  1.
        -12    1    3    3    0    0  0.27061903922E+02  0.25214030334E+02 -0.22308593634E+02  0.43194528815E+02  0.00000000000E+00 0.  1.
</event>
<event>
 7    1  0.4359248E-015  0.9000773E+02  0.7816164E-02  0.1186339E+00
        -11   -1    0    0    0    0  0.00000000000E+00  0.00000000000E+00  0.45593999997E+02  0.45594000000E+02  0.51100000000E-03 0.  1.
         11   -1    0    0    0    0 -0.00000000000E+00 -0.00000000000E+00 -0.45593999997E+02  0.45594000000E+02  0.51100000000E-03 0. -1.
    9900012    2    1    2    0    0 -0.14440150906E+00  0.11147783489E+01 -0.35979606165E+00  0.90007730637E+02  0.89999991881E+02 0.  0.
        -12    1    1    2    0    0  0.14440150906E+00 -0.11147783489E+01  0.35979606165E+00  0.11802693629E+01  0.00000000000E+00 0.  1.
         11    1    3    3    0    0  0.81831580671E+01  0.11287647528E+00 -0.97951543062E+01  0.12764084973E+02  0.51100000000E-03 0. -1.
        -11    1    3    3    0    0  0.14703094006E+02 -0.31563300673E+02  0.13070482549E+02  0.37192209360E+02  0.51100000000E-03 0.  1.
         12    1    3    3    0    0 -0.23030653582E+02  0.32565202547E+02 -0.36351243042E+01  0.40051436305E+02  0.00000000000E+00 0. -1.
</event>
<event>
 7    1  0.4359248E-015  0.9000761E+02  0.7816164E-02  0.1186339E+00
        -11   -1    0    0    0    0  0.00000000000E+00  0.00000000000E+00  0.45593999997E+02  0.45594000000E+02  0.51100000000E-03 0.  1.
         11   -1    0    0    0    0 -0.00000000000E+00 -0.00000000000E+00 -0.45593999997E+02  0.45594000000E+02  0.51100000000E-03 0. -1.
    9900012    2    1    2    0    0  0.10000195200E+01 -0.46279508948E+00 -0.42320910237E+00  0.90007608421E+02  0.89999868052E+02 0.  0.
        -12    1    1    2    0    0 -0.10000195200E+01  0.46279508948E+00  0.42320910237E+00  0.11803915789E+01  0.00000000000E+00 0.  1.
         11    1    3    3    0    0 -0.25678590310E+02  0.30184742470E+02  0.26336785746E+00  0.39630519062E+02  0.51100000000E-03 0. -1.
        -11    1    3    3    0    0 -0.43023519062E+01 -0.34119009451E+01 -0.67304638826E+01  0.86862215215E+01  0.51100000000E-03 0.  1.
        -12    1    3    3    0    0  0.30980961736E+02 -0.27235636614E+02  0.60438869227E+01  0.41690867837E+02  0.00000000000E+00 0.  1.
</event>
<event>
 7    1  0.4359248E-015  0.9000771E+02  0.7816164E-02  0.1186339E+00
        -11   -1    0    0    0    0  0.00000000000E+00  0.00000000000E+00  0.45593999997E+02  0.45594000000E+02  0.51100000000E-03 0.  1.
         11   -1    0    0    0    0 -0.00000000000E+00 -0.00000000000E+00 -0.45593999997E+02  0.45594000000E+02  0.51100000000E-03 0. -1.
    9900012    2    1    2    0    0 -0.11378820447E+01 -0.22433938194E+00 -0.21905925465E+00  0.90007707382E+02  0.89999968320E+02 0.  0.
        -12    1    1    2    0    0  0.11378820447E+01  0.22433938194E+00  0.21905925465E+00  0.11802926175E+01  0.00000000000E+00 0.  1.
         11    1    3    3    0    0 -0.24770321419E+02 -0.11116737620E+01 -0.25599337893E+02  0.35638893678E+02  0.51100000000E-03 0. -1.
        -11    1    3    3    0    0 -0.10468397327E+02 -0.44422696413E+01 -0.25586016394E+00  0.11374821618E+02  0.51100000000E-03 0.  1.
        -12    1    3    3    0    0  0.34100836702E+02  0.53296040213E+01  0.25636138802E+02  0.42993992086E+02  0.00000000000E+00 0.  1.
</event>
<event>
 7    1  0.4359248E-015  0.9000775E+02  0.7816164E-02  0.1186339E+00
        -11   -1    0    0    0    0  0.00000000000E+00  0.00000000000E+00  0.45593999997E+02  0.45594000000E+02  0.51100000000E-03 0. -1.
         11   -1    0    0    0    0 -0.00000000000E+00 -0.00000000000E+00 -0.45593999997E+02  0.45594000000E+02  0.51100000000E-03 0.  1.
    9900012    2    1    2    0    0  0.98941963663E-01  0.56041912459E+00  0.10339898096E+01  0.90007748318E+02  0.90000009795E+02 0.  0.
        -12    1    1    2    0    0 -0.98941963663E-01 -0.56041912459E+00 -0.10339898096E+01  0.11802516824E+01  0.00000000000E+00 0.  1.
         11    1    3    3    0    0 -0.73944721680E+01  0.26088766810E+01 -0.10672144071E+02  0.13243078023E+02  0.51100000000E-03 0. -1.
        -11    1    3    3    0    0  0.34943698656E+02 -0.14499693098E+02 -0.10573372746E+02  0.39282303741E+02  0.51100000000E-03 0.  1.
         12    1    3    3    0    0 -0.27450284524E+02  0.12451235542E+02  0.22279506627E+02  0.37482366554E+02  0.00000000000E+00 0. -1.
</event>
<event>
 7    1  0.4359248E-015  0.9000797E+02  0.7816164E-02  0.1186339E+00
        -11   -1    0    0    0    0  0.00000000000E+00  0.00000000000E+00  0.45593999997E+02  0.45594000000E+02  0.51100000000E-03 0. -1.
         11   -1    0    0    0    0 -0.00000000000E+00 -0.00000000000E+00 -0.45593999997E+02  0.45594000000E+02  0.51100000000E-03 0.  1.
    9900012    2    1    2    0    0  0.93575370951E+00 -0.65331082368E+00  0.30004324463E+00  0.90007967803E+02  0.90000232178E+02 0.  0.
        -12    1    1    2    0    0 -0.93575370951E+00  0.65331082368E+00 -0.30004324463E+00  0.11800321970E+01  0.00000000000E+00 0.  1.
         11    1    3    3    0    0  0.67970070761E+01  0.54007748175E+01  0.42367812993E+01  0.96601236980E+01  0.51100000000E-03 0. -1.
        -11    1    3    3    0    0 -0.36391760578E+02  0.18478070221E+02 -0.53104454807E+01  0.41158233059E+02  0.51100000000E-03 0.  1.
         12    1    3    3    0    0  0.30530507212E+02 -0.24532155862E+02  0.13737074260E+01  0.39189611046E+02  0.00000000000E+00 0. -1.
</event>
<event>
 7    1  0.4359248E-015  0.9000776E+02  0.7816164E-02  0.1186339E+00
        -11   -1    0    0    0    0  0.00000000000E+00  0.00000000000E+00  0.45593999997E+02  0.45594000000E+02  0.51100000000E-03 0.  1.
         11   -1    0    0    0    0 -0.00000000000E+00 -0.00000000000E+00 -0.45593999997E+02  0.45594000000E+02  0.51100000000E-03 0. -1.
    9900012    2    1    2    0    0  0.70642189266E+00 -0.69848306114E+00  0.63723235330E+00  0.90007756148E+02  0.90000017730E+02 0.  0.
        -12    1    1    2    0    0 -0.70642189266E+00  0.69848306114E+00 -0.63723235330E+00  0.11802438516E+01  0.00000000000E+00 0.  1.
         11    1    3    3    0    0  0.49221301349E+01 -0.83137704815E+00 -0.70774176451E+01  0.86607386317E+01  0.51100000000E-03 0. -1.
        -11    1    3    3    0    0 -0.28438572569E+02 -0.24690396197E+02  0.22247914288E+02  0.43741716525E+02  0.51100000000E-03 0.  1.
         12    1    3    3    0    0  0.24222864326E+02  0.24823290184E+02 -0.14533264290E+02  0.37605300992E+02  0.00000000000E+00 0. -1.
</event>
<event>
 7    1  0.4359248E-015  0.9000775E+02  0.7816164E-02  0.1186339E+00
        -11   -1    0    0    0    0  0.00000000000E+00  0.00000000000E+00  0.45593999997E+02  0.45594000000E+02  0.51100000000E-03 0.  1.
         11   -1    0    0    0    0 -0.00000000000E+00 -0.00000000000E+00 -0.45593999997E+02  0.45594000000E+02  0.51100000000E-03 0. -1.
    9900012    2    1    2    0    0 -0.55385205157E+00 -0.89359167033E-01 -0.10383906617E+01  0.90007749043E+02  0.90000010530E+02 0.  0.
        -12    1    1    2    0    0  0.55385205157E+00  0.89359167033E-01  0.10383906617E+01  0.11802509573E+01  0.00000000000E+00 0.  1.
         11    1    3    3    0    0 -0.33870046285E+02 -0.34149492059E+01 -0.24057111138E+02  0.41684367694E+02  0.51100000000E-03 0. -1.
        -11    1    3    3    0    0 -0.31562994870E+01 -0.80743026175E+00  0.80470453574E+01  0.86815384192E+01  0.51100000000E-03 0.  1.
        -12    1    3    3    0    0  0.36472493721E+02  0.41330203006E+01  0.14971675119E+02  0.39641842930E+02  0.00000000000E+00 0.  1.
</event>
<event>
 7    1  0.4359248E-015  0.9000774E+02  0.7816164E-02  0.1186339E+00
        -11   -1    0    0    0    0  0.00000000000E+00  0.00000000000E+00  0.45593999997E+02  0.45594000000E+02  0.51100000000E-03 0.  1.
         11   -1    0    0    0    0 -0.00000000000E+00 -0.00000000000E+00 -0.45593999997E+02  0.45594000000E+02  0.51100000000E-03 0. -1.
    9900012    2    1    2    0    0 -0.11144698458E+01 -0.85754805638E-01  0.37897004716E+00  0.90007739342E+02  0.90000000701E+02 0.  0.
        -12    1    1    2    0    0  0.11144698458E+01  0.85754805638E-01 -0.37897004716E+00  0.11802606579E+01  0.00000000000E+00 0.  1.
         11    1    3    3    0    0 -0.53065006793E+01 -0.21888366323E+01 -0.60141557808E+01  0.83138453966E+01  0.51100000000E-03 0. -1.
        -11    1    3    3    0    0  0.28094450323E+02 -0.29053737759E+02 -0.52010109073E+01  0.40748844541E+02  0.51100000000E-03 0.  1.
        -12    1    3    3    0    0 -0.23902419489E+02  0.31156819585E+02  0.11594136735E+02  0.40945049405E+02  0.00000000000E+00 0.  1.
</event>
<event>
 7    1  0.4359248E-015  0.9000742E+02  0.7816164E-02  0.1186340E+00
        -11   -1    0    0    0    0  0.00000000000E+00  0.00000000000E+00  0.45593999997E+02  0.45594000000E+02  0.51100000000E-03 0.  1.
         11   -1    0    0    0    0 -0.00000000000E+00 -0.00000000000E+00 -0.45593999997E+02  0.45594000000E+02  0.51100000000E-03 0. -1.
    9900012    2    1    2    0    0 -0.90518335390E+00 -0.70895955769E+00 -0.26794719280E+00  0.90007416984E+02  0.89999674088E+02 0.  0.
        -12    1    1    2    0    0  0.90518335390E+00  0.70895955769E+00  0.26794719280E+00  0.11805830156E+01  0.00000000000E+00 0.  1.
         11    1    3    3    0    0 -0.89661354324E+01 -0.36393035510E+01 -0.39752866569E+01  0.10461310587E+02  0.51100000000E-03 0. -1.
        -11    1    3    3    0    0  0.16680243513E+02 -0.30210373916E+02  0.21798656847E+02  0.40817626786E+02  0.51100000000E-03 0.  1.
         12    1    3    3    0    0 -0.86192914350E+01  0.33140717909E+02 -0.18091317383E+02  0.38728479612E+02  0.00000000000E+00 0. -1.
</event>
<event>
 7    1  0.4359248E-015  0.9000775E+02  0.7816164E-02  0.1186339E+00
        -11   -1    0    0    0    0  0.00000000000E+00  0.00000000000E+00  0.45593999997E+02  0.45594000000E+02  0.51100000000E-03 0.  1.
         11   -1    0    0    0    0 -0.00000000000E+00 -0.00000000000E+00 -0.45593999997E+02  0.45594000000E+02  0.51100000000E-03 0. -1.
    9900012    2    1    2    0    0 -0.13819196972E+00  0.10721267528E+01 -0.47374858941E+00  0.90007749806E+02  0.90000011303E+02 0.  0.
        -12    1    1    2    0    0  0.13819196972E+00 -0.10721267528E+01  0.47374858941E+00  0.11802501940E+01  0.00000000000E+00 0.  1.
         11    1    3    3    0    0 -0.45431872560E+01 -0.67679441366E+01  0.20359112559E+01  0.84018184449E+01  0.51100000000E-03 0.  1.
        -11    1    3    3    0    0  0.41900389008E+01  0.25443439391E+01  0.39227999114E+02  0.39533100394E+02  0.51100000000E-03 0. -1.
         12    1    3    3    0    0  0.21495638543E+00  0.52957269503E+01 -0.41737658959E+02  0.42072830967E+02  0.00000000000E+00 0. -1.
</event>
<event>
 7    1  0.4359248E-015  0.9000664E+02  0.7816164E-02  0.1186341E+00
        -11   -1    0    0    0    0  0.00000000000E+00  0.00000000000E+00  0.45593999997E+02  0.45594000000E+02  0.51100000000E-03 0.  1.
         11   -1    0    0    0    0 -0.00000000000E+00 -0.00000000000E+00 -0.45593999997E+02  0.45594000000E+02  0.51100000000E-03 0. -1.
    9900012    2    1    2    0    0  0.90631801943E+00  0.51923235127E+00  0.55189517660E+00  0.90006643630E+02  0.89998890519E+02 0.  0.
        -12    1    1    2    0    0 -0.90631801943E+00 -0.51923235127E+00 -0.55189517660E+00  0.11813563700E+01  0.00000000000E+00 0.  1.
         11    1    3    3    0    0  0.93420699196E-01  0.24998294027E+02 -0.30580183164E+02  0.39497734546E+02  0.51100000000E-03 0. -1.
        -11    1    3    3    0    0 -0.68704131566E+01  0.53845420520E+01  0.48126969237E+01  0.99678444005E+01  0.51100000000E-03 0.  1.
        -12    1    3    3    0    0  0.76833104769E+01 -0.29863603728E+02  0.26319381417E+02  0.40541064683E+02  0.00000000000E+00 0.  1.
</event>
<event>
 7    1  0.4359248E-015  0.9000775E+02  0.7816164E-02  0.1186339E+00
        -11   -1    0    0    0    0  0.00000000000E+00  0.00000000000E+00  0.45593999997E+02  0.45594000000E+02  0.51100000000E-03 0.  1.
         11   -1    0    0    0    0 -0.00000000000E+00 -0.00000000000E+00 -0.45593999997E+02  0.45594000000E+02  0.51100000000E-03 0. -1.
    9900012    2    1    2    0    0 -0.31174809769E+00  0.11056731517E+01 -0.27071939741E+00  0.90007750456E+02  0.90000011962E+02 0.  0.
        -12    1    1    2    0    0  0.31174809769E+00 -0.11056731517E+01  0.27071939741E+00  0.11802495443E+01  0.00000000000E+00 0.  1.
         11    1    3    3    0    0 -0.74506887094E+01  0.63326028066E+01  0.59007526278E+01  0.11420748766E+02  0.51100000000E-03 0. -1.
        -11    1    3    3    0    0 -0.32547908880E+02 -0.12526847801E+02 -0.13823906758E+02  0.37515179416E+02  0.51100000000E-03 0.  1.
         12    1    3    3    0    0  0.39686849491E+02  0.72999181464E+01  0.76524347332E+01  0.41071822273E+02  0.00000000000E+00 0. -1.
</event>
<event>
 7    1  0.4359248E-015  0.9000778E+02  0.7816164E-02  0.1186339E+00
        -11   -1    0    0    0    0  0.00000000000E+00  0.00000000000E+00  0.45593999997E+02  0.45594000000E+02  0.51100000000E-03 0. -1.
         11   -1    0    0    0    0 -0.00000000000E+00 -0.00000000000E+00 -0.45593999997E+02  0.45594000000E+02  0.51100000000E-03 0.  1.
    9900012    2    1    2    0    0 -0.32217075083E+00  0.10884869619E+01 -0.32297766885E+00  0.90007782887E+02  0.90000044821E+02 0.  0.
        -12    1    1    2    0    0  0.32217075083E+00 -0.10884869619E+01  0.32297766885E+00  0.11802171129E+01  0.00000000000E+00 0.  1.
         11    1    3    3    0    0  0.16797357079E+02 -0.10277593747E+01  0.83828444040E+01  0.18801052490E+02  0.51100000000E-03 0. -1.
        -11    1    3    3    0    0 -0.72846835121E-01  0.33425219784E+02 -0.11744557413E+02  0.35428593725E+02  0.51100000000E-03 0.  1.
         12    1    3    3    0    0 -0.17046680995E+02 -0.31308973447E+02  0.30387353398E+01  0.35778136672E+02  0.00000000000E+00 0. -1.
</event>
<event>
 7    1  0.4359248E-015  0.9000774E+02  0.7816164E-02  0.1186339E+00
        -11   -1    0    0    0    0  0.00000000000E+00  0.00000000000E+00  0.45593999997E+02  0.45594000000E+02  0.51100000000E-03 0. -1.
         11   -1    0    0    0    0 -0.00000000000E+00 -0.00000000000E+00 -0.45593999997E+02  0.45594000000E+02  0.51100000000E-03 0.  1.
    9900012    2    1    2    0    0  0.11529126212E+01 -0.24942546886E+00  0.39932132442E-01  0.90007739371E+02  0.90000000731E+02 0.  0.
        -12    1    1    2    0    0 -0.11529126212E+01  0.24942546886E+00 -0.39932132442E-01  0.11802606288E+01  0.00000000000E+00 0.  1.
         11    1    3    3    0    0 -0.64331377771E+01  0.30152392476E+01 -0.43901479647E+01  0.83516662285E+01  0.51100000000E-03 0. -1.
        -11    1    3    3    0    0 -0.30165974196E+02  0.17981999746E+02 -0.90879819568E+01  0.36275745759E+02  0.51100000000E-03 0.  1.
         12    1    3    3    0    0  0.37752024594E+02 -0.21246664463E+02  0.13518062054E+02  0.45380327384E+02  0.00000000000E+00 0. -1.
</event>
<event>
 7    1  0.4359248E-015  0.9000778E+02  0.7816164E-02  0.1186339E+00
        -11   -1    0    0    0    0  0.00000000000E+00  0.00000000000E+00  0.45593999997E+02  0.45594000000E+02  0.51100000000E-03 0.  1.
         11   -1    0    0    0    0 -0.00000000000E+00 -0.00000000000E+00 -0.45593999997E+02  0.45594000000E+02  0.51100000000E-03 0. -1.
    9900012    2    1    2    0    0 -0.63842330048E+00 -0.38952575634E+00 -0.91302363763E+00  0.90007776806E+02  0.90000038660E+02 0.  0.
        -12    1    1    2    0    0  0.63842330048E+00  0.38952575634E+00  0.91302363763E+00  0.11802231943E+01  0.00000000000E+00 0.  1.
         11    1    3    3    0    0 -0.17453058770E+02 -0.28875834012E+02  0.16525792885E+02  0.37570265917E+02  0.51100000000E-03 0. -1.
        -11    1    3    3    0    0  0.35698715205E+01  0.13475071387E+00  0.10124663812E+02  0.10736431344E+02  0.51100000000E-03 0.  1.
        -12    1    3    3    0    0  0.13244763949E+02  0.28351557542E+02 -0.27563480335E+02  0.41701079546E+02  0.00000000000E+00 0.  1.
</event>
<event>
 7    1  0.4359248E-015  0.9000709E+02  0.7816164E-02  0.1186340E+00
        -11   -1    0    0    0    0  0.00000000000E+00  0.00000000000E+00  0.45593999997E+02  0.45594000000E+02  0.51100000000E-03 0. -1.
         11   -1    0    0    0    0 -0.00000000000E+00 -0.00000000000E+00 -0.45593999997E+02  0.45594000000E+02  0.51100000000E-03 0.  1.
    9900012    2    1    2    0    0  0.10374592123E+01 -0.21280374419E+00  0.52244813301E+00  0.90007085480E+02  0.89999338206E+02 0.  0.
        -12    1    1    2    0    0 -0.10374592123E+01  0.21280374419E+00 -0.52244813301E+00  0.11809145195E+01  0.00000000000E+00 0.  1.
         11    1    3    3    0    0 -0.56401278978E+01 -0.33411924165E+02  0.70479989876E+01  0.34609854220E+02  0.51100000000E-03 0. -1.
        -11    1    3    3    0    0  0.53942692808E+01 -0.10193780780E+02 -0.26368474064E+00  0.11536066815E+02  0.51100000000E-03 0.  1.
        -12    1    3    3    0    0  0.12833178293E+01  0.43392901201E+02 -0.62618661139E+01  0.43861164445E+02  0.00000000000E+00 0.  1.
</event>
<event>
 7    1  0.4359248E-015  0.9000773E+02  0.7816164E-02  0.1186339E+00
        -11   -1    0    0    0    0  0.00000000000E+00  0.00000000000E+00  0.45593999997E+02  0.45594000000E+02  0.51100000000E-03 0. -1.
         11   -1    0    0    0    0 -0.00000000000E+00 -0.00000000000E+00 -0.45593999997E+02  0.45594000000E+02  0.51100000000E-03 0.  1.
    9900012    2    1    2    0    0  0.54172682695E+00  0.78837369282E+00  0.69140404922E+00  0.90007728593E+02  0.89999989811E+02 0.  0.
        -12    1    1    2    0    0 -0.54172682695E+00 -0.78837369282E+00 -0.69140404922E+00  0.11802714069E+01  0.00000000000E+00 0.  1.
         11    1    3    3    0    0  0.14498168240E+02 -0.10906720722E+02  0.28974331841E+02  0.34185747690E+02  0.51100000000E-03 0. -1.
        -11    1    3    3    0    0  0.75505340114E+01 -0.10354985173E+02  0.15895777769E+01  0.12913676454E+02  0.51100000000E-03 0.  1.
        -12    1    3    3    0    0 -0.21506975424E+02  0.22050079588E+02 -0.29872505569E+02  0.42908304449E+02  0.00000000000E+00 0.  1.
</event>
<event>
 7    1  0.4359248E-015  0.9000774E+02  0.7816164E-02  0.1186339E+00
        -11   -1    0    0    0    0  0.00000000000E+00  0.00000000000E+00  0.45593999997E+02  0.45594000000E+02  0.51100000000E-03 0.  1.
         11   -1    0    0    0    0 -0.00000000000E+00 -0.00000000000E+00 -0.45593999997E+02  0.45594000000E+02  0.51100000000E-03 0. -1.
    9900012    2    1    2    0    0  0.42365681350E+00  0.76986748037E+00 -0.78792716393E+00  0.90007741448E+02  0.90000002836E+02 0.  0.
        -12    1    1    2    0    0 -0.42365681350E+00 -0.76986748037E+00  0.78792716393E+00  0.11802585516E+01  0.00000000000E+00 0.  1.
         11    1    3    3    0    0 -0.54160330621E+00 -0.68957475246E+01  0.45812484028E+01  0.82965357381E+01  0.51100000000E-03 0. -1.
        -11    1    3    3    0    0 -0.39373711968E+02  0.10955933834E+02 -0.55004832387E+01  0.41238052772E+02  0.51100000000E-03 0.  1.
         12    1    3    3    0    0  0.40338972087E+02 -0.32903188292E+01  0.13130767191E+00  0.40473152938E+02  0.00000000000E+00 0. -1.
</event>
<event>
 7    1  0.4359248E-015  0.9000755E+02  0.7816164E-02  0.1186339E+00
        -11   -1    0    0    0    0  0.00000000000E+00  0.00000000000E+00  0.45593999997E+02  0.45594000000E+02  0.51100000000E-03 0.  1.
         11   -1    0    0    0    0 -0.00000000000E+00 -0.00000000000E+00 -0.45593999997E+02  0.45594000000E+02  0.51100000000E-03 0. -1.
    9900012    2    1    2    0    0  0.10016126137E+01 -0.47785501301E+00  0.40234480252E+00  0.90007553228E+02  0.89999812130E+02 0.  0.
        -12    1    1    2    0    0 -0.10016126137E+01  0.47785501301E+00 -0.40234480252E+00  0.11804467720E+01  0.00000000000E+00 0.  1.
         11    1    3    3    0    0  0.17228188387E+02 -0.92296807268E+01 -0.32325993350E+02  0.37775221082E+02  0.51100000000E-03 0. -1.
        -11    1    3    3    0    0 -0.16400087227E+01 -0.11977460412E+01 -0.77812865201E+01  0.80419303876E+01  0.51100000000E-03 0.  1.
        -12    1    3    3    0    0 -0.14586567051E+02  0.99495717549E+01  0.40509624673E+02  0.44190401759E+02  0.00000000000E+00 0.  1.
</event>
<event>
 7    1  0.4359248E-015  0.9000774E+02  0.7816164E-02  0.1186339E+00
        -11   -1    0    0    0    0  0.00000000000E+00  0.00000000000E+00  0.45593999997E+02  0.45594000000E+02  0.51100000000E-03 0.  1.
         11   -1    0    0    0    0 -0.00000000000E+00 -0.00000000000E+00 -0.45593999997E+02  0.45594000000E+02  0.51100000000E-03 0. -1.
    9900012    2    1    2    0    0  0.67224864990E+00  0.93255156079E+00  0.26729388361E+00  0.90007738723E+02  0.90000000075E+02 0.  0.
        -12    1    1    2    0    0 -0.67224864990E+00 -0.93255156079E+00 -0.26729388361E+00  0.11802612766E+01  0.00000000000E+00 0.  1.
         11    1    3    3    0    0  0.80560964652E+01 -0.61257807150E+01  0.14103152129E+01  0.10218359403E+02  0.51100000000E-03 0. -1.
        -11    1    3    3    0    0  0.23212412858E+02  0.28980194096E+02 -0.14484730409E+02  0.39855679342E+02  0.51100000000E-03 0.  1.
         12    1    3    3    0    0 -0.30596260673E+02 -0.21921861820E+02  0.13341709080E+02  0.39933699979E+02  0.00000000000E+00 0. -1.
</event>
<event>
 7    1  0.4359248E-015  0.9000778E+02  0.7816164E-02  0.1186339E+00
        -11   -1    0    0    0    0  0.00000000000E+00  0.00000000000E+00  0.45593999997E+02  0.45594000000E+02  0.51100000000E-03 0.  1.
         11   -1    0    0    0    0 -0.00000000000E+00 -0.00000000000E+00 -0.45593999997E+02  0.45594000000E+02  0.51100000000E-03 0. -1.
    9900012    2    1    2    0    0  0.11770254982E+01  0.86010144959E-01 -0.11834591674E-01  0.90007776790E+02  0.90000038643E+02 0.  0.
        -12    1    1    2    0    0 -0.11770254982E+01 -0.86010144959E-01  0.11834591674E-01  0.11802232103E+01  0.00000000000E+00 0.  1.
         11    1    3    3    0    0 -0.77211930203E+01 -0.63113036207E+01 -0.67938510324E+01  0.12066722304E+02  0.51100000000E-03 0. -1.
        -11    1    3    3    0    0  0.40371427260E+00 -0.73368817708E+01  0.40178613758E+02  0.40844997528E+02  0.51100000000E-03 0.  1.
         12    1    3    3    0    0  0.84945042459E+01  0.13734195537E+02 -0.33396597317E+02  0.37096056957E+02  0.00000000000E+00 0. -1.
</event>
<event>
 7    1  0.4359248E-015  0.9000776E+02  0.7816164E-02  0.1186339E+00
        -11   -1    0    0    0    0  0.00000000000E+00  0.00000000000E+00  0.45593999997E+02  0.45594000000E+02  0.51100000000E-03 0.  1.
         11   -1    0    0    0    0 -0.00000000000E+00 -0.00000000000E+00 -0.45593999997E+02  0.45594000000E+02  0.51100000000E-03 0. -1.
    9900012    2    1    2    0    0  0.45829640943E+00 -0.90914493570E+00 -0.59698399055E+00  0.90007758500E+02  0.90000020112E+02 0.  0.
        -12    1    1    2    0    0 -0.45829640943E+00  0.90914493570E+00  0.59698399055E+00  0.11802414999E+01  0.00000000000E+00 0.  1.
         11    1    3    3    0    0 -0.54283881073E+01 -0.26440954843E+00  0.51107944337E+01  0.74603974330E+01  0.51100000000E-03 0. -1.
        -11    1    3    3    0    0 -0.34210619166E+02  0.17380465222E+02 -0.34411551475E+01  0.38526466021E+02  0.51100000000E-03 0.  1.
         12    1    3    3    0    0  0.40097303683E+02 -0.18025200609E+02 -0.22666232767E+01  0.44020895046E+02  0.00000000000E+00 0. -1.
</event>
<event>
 7    1  0.4359248E-015  0.9000816E+02  0.7816164E-02  0.1186338E+00
        -11   -1    0    0    0    0  0.00000000000E+00  0.00000000000E+00  0.45593999997E+02  0.45594000000E+02  0.51100000000E-03 0.  1.
         11   -1    0    0    0    0 -0.00000000000E+00 -0.00000000000E+00 -0.45593999997E+02  0.45594000000E+02  0.51100000000E-03 0. -1.
    9900012    2    1    2    0    0 -0.85793871295E+00 -0.45988585865E+00  0.66667803326E+00  0.90008163809E+02  0.90000430770E+02 0.  0.
        -12    1    1    2    0    0  0.85793871295E+00  0.45988585865E+00 -0.66667803326E+00  0.11798361913E+01  0.00000000000E+00 0.  1.
         11    1    3    3    0    0  0.28099861854E+02  0.58653750344E+01 -0.28872782534E+02  0.40714155180E+02  0.51100000000E-03 0. -1.
        -11    1    3    3    0    0 -0.59999980643E+01  0.81303505344E+01  0.13912186068E+01  0.10199905198E+02  0.51100000000E-03 0.  1.
        -12    1    3    3    0    0 -0.22957802503E+02 -0.14455611427E+02  0.28148241961E+02  0.39094103430E+02  0.00000000000E+00 0.  1.
</event>
<event>
 7    1  0.4359248E-015  0.9000784E+02  0.7816164E-02  0.1186339E+00
        -11   -1    0    0    0    0  0.00000000000E+00  0.00000000000E+00  0.45593999997E+02  0.45594000000E+02  0.51100000000E-03 0.  1.
         11   -1    0    0    0    0 -0.00000000000E+00 -0.00000000000E+00 -0.45593999997E+02  0.45594000000E+02  0.51100000000E-03 0. -1.
    9900012    2    1    2    0    0 -0.54320538081E+00  0.93929221499E+00  0.46415727460E+00  0.90007837331E+02  0.90000099983E+02 0.  0.
        -12    1    1    2    0    0  0.54320538081E+00 -0.93929221499E+00 -0.46415727460E+00  0.11801626695E+01  0.00000000000E+00 0.  1.
         11    1    3    3    0    0  0.23258216561E+02  0.44591903061E+01 -0.29111305260E+02  0.37527284874E+02  0.51100000000E-03 0. -1.
        -11    1    3    3    0    0  0.55496779653E+01 -0.89540600854E+01  0.10657778696E+00  0.10534964481E+02  0.51100000000E-03 0.  1.
        -12    1    3    3    0    0 -0.29351099907E+02  0.54341619943E+01  0.29468884748E+02  0.41945587976E+02  0.00000000000E+00 0.  1.
</event>
<event>
 7    1  0.4359248E-015  0.9000773E+02  0.7816164E-02  0.1186339E+00
        -11   -1    0    0    0    0  0.00000000000E+00  0.00000000000E+00  0.45593999997E+02  0.45594000000E+02  0.51100000000E-03 0.  1.
         11   -1    0    0    0    0 -0.00000000000E+00 -0.00000000000E+00 -0.45593999997E+02  0.45594000000E+02  0.51100000000E-03 0. -1.
    9900012    2    1    2    0    0 -0.85709600459E+00 -0.19843796672E+00 -0.78679458883E+00  0.90007730153E+02  0.89999991391E+02 0.  0.
        -12    1    1    2    0    0  0.85709600459E+00  0.19843796672E+00  0.78679458883E+00  0.11802698474E+01  0.00000000000E+00 0.  1.
         11    1    3    3    0    0  0.89665049069E+00  0.12232824456E+02  0.61761609043E+01  0.13732841659E+02  0.51100000000E-03 0. -1.
        -11    1    3    3    0    0 -0.11182835309E+02  0.21350133497E+02  0.20570053410E+02  0.31686134245E+02  0.51100000000E-03 0.  1.
         12    1    3    3    0    0  0.94290888132E+01 -0.33781395919E+02 -0.27533008903E+02  0.44588754248E+02  0.00000000000E+00 0. -1.
</event>
<event>
 7    1  0.4359248E-015  0.9000776E+02  0.7816164E-02  0.1186339E+00
        -11   -1    0    0    0    0  0.00000000000E+00  0.00000000000E+00  0.45593999997E+02  0.45594000000E+02  0.51100000000E-03 0.  1.
         11   -1    0    0    0    0 -0.00000000000E+00 -0.00000000000E+00 -0.45593999997E+02  0.45594000000E+02  0.51100000000E-03 0. -1.
    9900012    2    1    2    0    0  0.10255346667E+01 -0.39849929785E+00 -0.42714075769E+00  0.90007757538E+02  0.90000019137E+02 0.  0.
        -12    1    1    2    0    0 -0.10255346667E+01  0.39849929785E+00  0.42714075769E+00  0.11802424623E+01  0.00000000000E+00 0.  1.
         11    1    3    3    0    0  0.46351523405E+01 -0.11333668880E+02  0.45459917161E+01  0.13061497940E+02  0.51100000000E-03 0. -1.
        -11    1    3    3    0    0  0.18335235401E+02 -0.27099138896E+02 -0.45429028758E+01  0.33033046377E+02  0.51100000000E-03 0.  1.
         12    1    3    3    0    0 -0.21944853075E+02  0.38034308478E+02 -0.43022959798E+00  0.43913213221E+02  0.00000000000E+00 0. -1.
</event>
<event>
 7    1  0.4359248E-015  0.9000775E+02  0.7816164E-02  0.1186339E+00
        -11   -1    0    0    0    0  0.00000000000E+00  0.00000000000E+00  0.45593999997E+02  0.45594000000E+02  0.51100000000E-03 0.  1.
         11   -1    0    0    0    0 -0.00000000000E+00 -0.00000000000E+00 -0.45593999997E+02  0.45594000000E+02  0.51100000000E-03 0. -1.
    9900012    2    1    2    0    0 -0.10562367703E+01  0.76117987316E-01 -0.52112423833E+00  0.90007745564E+02  0.90000007005E+02 0.  0.
        -12    1    1    2    0    0  0.10562367703E+01 -0.76117987316E-01  0.52112423833E+00  0.11802544364E+01  0.00000000000E+00 0.  1.
         11    1    3    3    0    0 -0.76706407124E+01  0.60113136955E+01  0.13875877093E+01  0.98437808385E+01  0.51100000000E-03 0. -1.
        -11    1    3    3    0    0  0.22646689279E+02  0.31617056269E+02  0.31597437206E+01  0.39019158923E+02  0.51100000000E-03 0.  1.
         12    1    3    3    0    0 -0.16032285336E+02 -0.37552251977E+02 -0.50684556682E+01  0.41144805802E+02  0.00000000000E+00 0. -1.
</event>
<event>
 7    1  0.4359248E-015  0.9000776E+02  0.7816164E-02  0.1186339E+00
        -11   -1    0    0    0    0  0.00000000000E+00  0.00000000000E+00  0.45593999997E+02  0.45594000000E+02  0.51100000000E-03 0. -1.
         11   -1    0    0    0    0 -0.00000000000E+00 -0.00000000000E+00 -0.45593999997E+02  0.45594000000E+02  0.51100000000E-03 0.  1.
    9900012    2    1    2    0    0  0.80318064241E+00 -0.12283003267E+00  0.85603257912E+00  0.90007755052E+02  0.90000016618E+02 0.  0.
        -12    1    1    2    0    0 -0.80318064241E+00  0.12283003267E+00 -0.85603257912E+00  0.11802449482E+01  0.00000000000E+00 0.  1.
         11    1    3    3    0    0 -0.56880386938E+01 -0.24290184155E+01 -0.56022967109E+01  0.83450370486E+01  0.51100000000E-03 0. -1.
        -11    1    3    3    0    0  0.10732778932E+02  0.27061349542E+02 -0.27081873548E+02  0.39760999205E+02  0.51100000000E-03 0.  1.
         12    1    3    3    0    0 -0.42415595957E+01 -0.24755161159E+02  0.33540202838E+02  0.41901718798E+02  0.00000000000E+00 0. -1.
</event>
<event>
 7    1  0.4359248E-015  0.9000775E+02  0.7816164E-02  0.1186339E+00
        -11   -1    0    0    0    0  0.00000000000E+00  0.00000000000E+00  0.45593999997E+02  0.45594000000E+02  0.51100000000E-03 0. -1.
         11   -1    0    0    0    0 -0.00000000000E+00 -0.00000000000E+00 -0.45593999997E+02  0.45594000000E+02  0.51100000000E-03 0.  1.
    9900012    2    1    2    0    0 -0.56189261536E+00  0.88301522542E+00 -0.54548814089E+00  0.90007747268E+02  0.90000008732E+02 0.  0.
        -12    1    1    2    0    0  0.56189261536E+00 -0.88301522542E+00  0.54548814089E+00  0.11802527320E+01  0.00000000000E+00 0.  1.
         11    1    3    3    0    0 -0.54284570705E+01 -0.51737781964E+01 -0.22558425744E+01  0.78310250270E+01  0.51100000000E-03 0. -1.
        -11    1    3    3    0    0 -0.16364524970E+02 -0.17516140318E+01 -0.35216084157E+02  0.38872077547E+02  0.51100000000E-03 0.  1.
         12    1    3    3    0    0  0.21231089425E+02  0.78084074536E+01  0.36926438590E+02  0.43304644694E+02  0.00000000000E+00 0. -1.
</event>
<event>
 7    1  0.4359248E-015  0.9000801E+02  0.7816164E-02  0.1186338E+00
        -11   -1    0    0    0    0  0.00000000000E+00  0.00000000000E+00  0.45593999997E+02  0.45594000000E+02  0.51100000000E-03 0.  1.
         11   -1    0    0    0    0 -0.00000000000E+00 -0.00000000000E+00 -0.45593999997E+02  0.45594000000E+02  0.51100000000E-03 0. -1.
    9900012    2    1    2    0    0 -0.58999198558E+00  0.57279971356E+00 -0.84627378318E+00  0.90008012978E+02  0.90000277949E+02 0.  0.
        -12    1    1    2    0    0  0.58999198558E+00 -0.57279971356E+00  0.84627378318E+00  0.11799870215E+01  0.00000000000E+00 0.  1.
         11    1    3    3    0    0  0.14649194792E+02 -0.38186836201E+02 -0.31232406982E+01  0.41019361280E+02  0.51100000000E-03 0. -1.
        -11    1    3    3    0    0 -0.34180749713E+01  0.21689432141E+01  0.90774007182E+01  0.99391526417E+01  0.51100000000E-03 0.  1.
        -12    1    3    3    0    0 -0.11821111807E+02  0.36590692701E+02 -0.68004338032E+01  0.39049499057E+02  0.00000000000E+00 0.  1.
</event>
<event>
 7    1  0.4359248E-015  0.9000773E+02  0.7816164E-02  0.1186339E+00
        -11   -1    0    0    0    0  0.00000000000E+00  0.00000000000E+00  0.45593999997E+02  0.45594000000E+02  0.51100000000E-03 0.  1.
         11   -1    0    0    0    0 -0.00000000000E+00 -0.00000000000E+00 -0.45593999997E+02  0.45594000000E+02  0.51100000000E-03 0. -1.
    9900012    2    1    2    0    0 -0.35006678483E+00 -0.37701699825E+00 -0.10622366026E+01  0.90007730891E+02  0.89999992138E+02 0.  0.
        -12    1    1    2    0    0  0.35006678483E+00  0.37701699825E+00  0.10622366026E+01  0.11802691095E+01  0.00000000000E+00 0.  1.
         11    1    3    3    0    0  0.55380174930E+00 -0.98310428241E+01  0.15379764101E+01  0.99660158080E+01  0.51100000000E-03 0. -1.
        -11    1    3    3    0    0 -0.19536198004E+02 -0.10983534944E+02  0.29899916538E+02  0.37367179203E+02  0.51100000000E-03 0.  1.
         12    1    3    3    0    0  0.18632329470E+02  0.20437560770E+02 -0.32500129551E+02  0.42674535880E+02  0.00000000000E+00 0. -1.
</event>
<event>
 7    1  0.4359248E-015  0.9000795E+02  0.7816164E-02  0.1186339E+00
        -11   -1    0    0    0    0  0.00000000000E+00  0.00000000000E+00  0.45593999997E+02  0.45594000000E+02  0.51100000000E-03 0.  1.
         11   -1    0    0    0    0 -0.00000000000E+00 -0.00000000000E+00 -0.45593999997E+02  0.45594000000E+02  0.51100000000E-03 0. -1.
    9900012    2    1    2    0    0 -0.10344351474E+01 -0.30583331820E-01 -0.56703731965E+00  0.90007947994E+02  0.90000212108E+02 0.  0.
        -12    1    1    2    0    0  0.10344351474E+01  0.30583331820E-01  0.56703731965E+00  0.11800520057E+01  0.00000000000E+00 0.  1.
         11    1    3    3    0    0 -0.98371473151E+01 -0.37581069771E+01 -0.60019642611E+00  0.10547657150E+02  0.51100000000E-03 0. -1.
        -11    1    3    3    0    0 -0.27984659488E+02 -0.27256347501E+01  0.22379817321E+02  0.35936422680E+02  0.51100000000E-03 0.  1.
         12    1    3    3    0    0  0.36787371656E+02  0.64531583953E+01 -0.22346658215E+02  0.43523868164E+02  0.00000000000E+00 0. -1.
</event>
<event>
 7    1  0.4359248E-015  0.9000773E+02  0.7816164E-02  0.1186339E+00
        -11   -1    0    0    0    0  0.00000000000E+00  0.00000000000E+00  0.45593999997E+02  0.45594000000E+02  0.51100000000E-03 0.  1.
         11   -1    0    0    0    0 -0.00000000000E+00 -0.00000000000E+00 -0.45593999997E+02  0.45594000000E+02  0.51100000000E-03 0. -1.
    9900012    2    1    2    0    0 -0.78221569094E+00  0.87796922393E+00 -0.10167372389E+00  0.90007733551E+02  0.89999994834E+02 0.  0.
        -12    1    1    2    0    0  0.78221569094E+00 -0.87796922393E+00  0.10167372389E+00  0.11802664493E+01  0.00000000000E+00 0.  1.
         11    1    3    3    0    0  0.11491956482E+02 -0.31926809061E+02 -0.12836568164E+02  0.36278970260E+02  0.51100000000E-03 0. -1.
        -11    1    3    3    0    0 -0.52811142881E+01  0.20340953734E+01 -0.12240626676E+02  0.13485572060E+02  0.51100000000E-03 0.  1.
        -12    1    3    3    0    0 -0.69930578847E+01  0.30770682912E+02  0.24975521116E+02  0.40243191231E+02  0.00000000000E+00 0.  1.
</event>
<event>
 7    1  0.4359248E-015  0.9000773E+02  0.7816164E-02  0.1186339E+00
        -11   -1    0    0    0    0  0.00000000000E+00  0.00000000000E+00  0.45593999997E+02  0.45594000000E+02  0.51100000000E-03 0.  1.
         11   -1    0    0    0    0 -0.00000000000E+00 -0.00000000000E+00 -0.45593999997E+02  0.45594000000E+02  0.51100000000E-03 0. -1.
    9900012    2    1    2    0    0  0.11190453870E+00 -0.83033347656E+00 -0.83129903017E+00  0.90007731223E+02  0.89999992475E+02 0.  0.
        -12    1    1    2    0    0 -0.11190453870E+00  0.83033347656E+00  0.83129903017E+00  0.11802687769E+01  0.00000000000E+00 0.  1.
         11    1    3    3    0    0 -0.36849785228E+02 -0.53181694937E+01  0.11064737016E+02  0.38840932064E+02  0.51100000000E-03 0. -1.
        -11    1    3    3    0    0 -0.26544366052E+01 -0.70831812042E+01 -0.56143720065E+01  0.94201201134E+01  0.51100000000E-03 0.  1.
        -12    1    3    3    0    0  0.39616126372E+02  0.11571017221E+02 -0.62816640394E+01  0.41746679046E+02  0.00000000000E+00 0.  1.
</event>
<event>
 7    1  0.4359248E-015  0.9000768E+02  0.7816164E-02  0.1186339E+00
        -11   -1    0    0    0    0  0.00000000000E+00  0.00000000000E+00  0.45593999997E+02  0.45594000000E+02  0.51100000000E-03 0. -1.
         11   -1    0    0    0    0 -0.00000000000E+00 -0.00000000000E+00 -0.45593999997E+02  0.45594000000E+02  0.51100000000E-03 0.  1.
    9900012    2    1    2    0    0 -0.78495302730E+00 -0.98318320813E-01  0.87597182418E+00  0.90007684625E+02  0.89999945262E+02 0.  0.
        -12    1    1    2    0    0  0.78495302730E+00  0.98318320813E-01 -0.87597182418E+00  0.11803153748E+01  0.00000000000E+00 0.  1.
         11    1    3    3    0    0  0.19198681734E+01  0.80571731393E+01 -0.27752485315E+01  0.87353269814E+01  0.51100000000E-03 0. -1.
        -11    1    3    3    0    0  0.16840261985E+02 -0.18739778227E+02 -0.31097584017E+02  0.40022911484E+02  0.51100000000E-03 0.  1.
         12    1    3    3    0    0 -0.19545083186E+02  0.10584286767E+02  0.34748804373E+02  0.41249446159E+02  0.00000000000E+00 0. -1.
</event>
<event>
 7    1  0.4359248E-015  0.9000770E+02  0.7816164E-02  0.1186339E+00
        -11   -1    0    0    0    0  0.00000000000E+00  0.00000000000E+00  0.45593999997E+02  0.45594000000E+02  0.51100000000E-03 0.  1.
         11   -1    0    0    0    0 -0.00000000000E+00 -0.00000000000E+00 -0.45593999997E+02  0.45594000000E+02  0.51100000000E-03 0. -1.
    9900012    2    1    2    0    0 -0.20906766161E-01 -0.11619861878E+01  0.20607534554E+00  0.90007696632E+02  0.89999957427E+02 0.  0.
        -12    1    1    2    0    0  0.20906766161E-01  0.11619861878E+01 -0.20607534554E+00  0.11803033684E+01  0.00000000000E+00 0.  1.
         11    1    3    3    0    0  0.16912023307E+02 -0.26376166491E+01  0.48687705687E+00  0.17123393457E+02  0.51100000000E-03 0. -1.
        -11    1    3    3    0    0  0.58074433806E+01 -0.10968583614E+01  0.32429171704E+02  0.32963323172E+02  0.51100000000E-03 0.  1.
         12    1    3    3    0    0 -0.22740373454E+02  0.25724888227E+01 -0.32709973415E+02  0.39920980003E+02  0.00000000000E+00 0. -1.
</event>
<event>
 7    1  0.4359248E-015  0.9000775E+02  0.7816164E-02  0.1186339E+00
        -11   -1    0    0    0    0  0.00000000000E+00  0.00000000000E+00  0.45593999997E+02  0.45594000000E+02  0.51100000000E-03 0.  1.
         11   -1    0    0    0    0 -0.00000000000E+00 -0.00000000000E+00 -0.45593999997E+02  0.45594000000E+02  0.51100000000E-03 0. -1.
    9900012    2    1    2    0    0  0.57770937492E+00  0.33322086688E+00 -0.97376394031E+00  0.90007745587E+02  0.90000007029E+02 0.  0.
        -12    1    1    2    0    0 -0.57770937492E+00 -0.33322086688E+00  0.97376394031E+00  0.11802544130E+01  0.00000000000E+00 0.  1.
         11    1    3    3    0    0 -0.23324806726E+01  0.17486327848E+02 -0.28835578708E+01  0.17875319128E+02  0.51100000000E-03 0. -1.
        -11    1    3    3    0    0  0.32869832386E+02  0.46485103472E+01  0.90274062856E+01  0.34402450408E+02  0.51100000000E-03 0.  1.
         12    1    3    3    0    0 -0.29959642339E+02 -0.21801617328E+02 -0.71176123551E+01  0.37729976051E+02  0.00000000000E+00 0. -1.
</event>
<event>
 7    1  0.4359248E-015  0.9000771E+02  0.7816164E-02  0.1186339E+00
        -11   -1    0    0    0    0  0.00000000000E+00  0.00000000000E+00  0.45593999997E+02  0.45594000000E+02  0.51100000000E-03 0.  1.
         11   -1    0    0    0    0 -0.00000000000E+00 -0.00000000000E+00 -0.45593999997E+02  0.45594000000E+02  0.51100000000E-03 0. -1.
    9900012    2    1    2    0    0 -0.64327576598E+00 -0.25452049709E+00 -0.95629537429E+00  0.90007709681E+02  0.89999970649E+02 0.  0.
        -12    1    1    2    0    0  0.64327576598E+00  0.25452049709E+00  0.95629537429E+00  0.11802903191E+01  0.00000000000E+00 0.  1.
         11    1    3    3    0    0 -0.81979062927E+01  0.66472818752E+00  0.47193878400E+01  0.94826237399E+01  0.51100000000E-03 0. -1.
        -11    1    3    3    0    0 -0.32440837846E+02  0.22249292423E+01  0.14517778989E+02  0.35610731210E+02  0.51100000000E-03 0.  1.
         12    1    3    3    0    0  0.39995468373E+02 -0.31441779269E+01 -0.20193462203E+02  0.44914354731E+02  0.00000000000E+00 0. -1.
</event>
<event>
 7    1  0.4359248E-015  0.9000776E+02  0.7816164E-02  0.1186339E+00
        -11   -1    0    0    0    0  0.00000000000E+00  0.00000000000E+00  0.45593999997E+02  0.45594000000E+02  0.51100000000E-03 0. -1.
         11   -1    0    0    0    0 -0.00000000000E+00 -0.00000000000E+00 -0.45593999997E+02  0.45594000000E+02  0.51100000000E-03 0.  1.
    9900012    2    1    2    0    0 -0.18155456855E+00 -0.46640674022E+00  0.10688670262E+01  0.90007756793E+02  0.90000018382E+02 0.  0.
        -12    1    1    2    0    0  0.18155456855E+00  0.46640674022E+00 -0.10688670262E+01  0.11802432073E+01  0.00000000000E+00 0.  1.
         11    1    3    3    0    0 -0.13500337171E+02 -0.37896956382E+02 -0.35024524603E+01  0.40381995744E+02  0.51100000000E-03 0. -1.
        -11    1    3    3    0    0 -0.12364247961E+01 -0.36360695460E+00 -0.73069778010E+01  0.74197628762E+01  0.51100000000E-03 0.  1.
        -12    1    3    3    0    0  0.14555207398E+02  0.37794156597E+02  0.11878297287E+02  0.42205998172E+02  0.00000000000E+00 0.  1.
</event>
<event>
 7    1  0.4359248E-015  0.9000768E+02  0.7816164E-02  0.1186339E+00
        -11   -1    0    0    0    0  0.00000000000E+00  0.00000000000E+00  0.45593999997E+02  0.45594000000E+02  0.51100000000E-03 0.  1.
         11   -1    0    0    0    0 -0.00000000000E+00 -0.00000000000E+00 -0.45593999997E+02  0.45594000000E+02  0.51100000000E-03 0. -1.
    9900012    2    1    2    0    0 -0.11829530944E+00 -0.80336162113E+00 -0.85659796610E+00  0.90007684894E+02  0.89999945534E+02 0.  0.
        -12    1    1    2    0    0  0.11829530944E+00  0.80336162113E+00  0.85659796610E+00  0.11803151063E+01  0.00000000000E+00 0.  1.
         11    1    3    3    0    0  0.70024549571E+01 -0.81005355367E+01 -0.54316747021E+01  0.12006504143E+02  0.51100000000E-03 0. -1.
        -11    1    3    3    0    0  0.81462490399E+01 -0.19055694183E+02  0.31262098925E+02  0.37507328400E+02  0.51100000000E-03 0.  1.
         12    1    3    3    0    0 -0.15266999306E+02  0.26352868099E+02 -0.26687022189E+02  0.40493852351E+02  0.00000000000E+00 0. -1.
</event>
<event>
 7    1  0.4405487E-015  0.9000771E+02  0.7816164E-02  0.1186339E+00
        -11   -1    0    0    0    0  0.00000000000E+00  0.00000000000E+00  0.45593999997E+02  0.45594000000E+02  0.51100000000E-03 0. -1.
         11   -1    0    0    0    0 -0.00000000000E+00 -0.00000000000E+00 -0.45593999997E+02  0.45594000000E+02  0.51100000000E-03 0.  1.
    9900012    2    1    2    0    0  0.24448691658E+00 -0.54035302974E+00  0.10204539640E+01  0.90007711246E+02  0.89999972235E+02 0.  0.
        -12    1    1    2    0    0 -0.24448691658E+00  0.54035302974E+00 -0.10204539640E+01  0.11802887535E+01  0.00000000000E+00 0.  1.
         11    1    3    3    0    0  0.25372506620E+01  0.16755883893E+02  0.33548230826E+02  0.37585649891E+02  0.51100000000E-03 0. -1.
        -11    1    3    3    0    0 -0.35714201197E+01  0.92369711955E+01  0.64467067960E+00  0.99243276389E+01  0.51100000000E-03 0.  1.
        -12    1    3    3    0    0  0.12786563743E+01 -0.26533208118E+02 -0.33172447541E+02  0.42497733716E+02  0.00000000000E+00 0.  1.
</event>
<event>
 7    1  0.4359248E-015  0.9000774E+02  0.7816164E-02  0.1186339E+00
        -11   -1    0    0    0    0  0.00000000000E+00  0.00000000000E+00  0.45593999997E+02  0.45594000000E+02  0.51100000000E-03 0. -1.
         11   -1    0    0    0    0 -0.00000000000E+00 -0.00000000000E+00 -0.45593999997E+02  0.45594000000E+02  0.51100000000E-03 0.  1.
    9900012    2    1    2    0    0  0.23951341178E+00 -0.74562310560E+00  0.88300882993E+00  0.90007735164E+02  0.89999996468E+02 0.  0.
        -12    1    1    2    0    0 -0.23951341178E+00  0.74562310560E+00 -0.88300882993E+00  0.11802648363E+01  0.00000000000E+00 0.  1.
         11    1    3    3    0    0 -0.65678841023E+01 -0.28731737467E+01  0.45849227221E+01  0.85096266421E+01  0.51100000000E-03 0. -1.
        -11    1    3    3    0    0  0.35479964659E+01 -0.34197073304E+02 -0.21875799817E+02  0.40750199010E+02  0.51100000000E-03 0.  1.
         12    1    3    3    0    0  0.32594010482E+01  0.36324623945E+02  0.18173885925E+02  0.40747909511E+02  0.00000000000E+00 0. -1.
</event>
<event>
 7    1  0.4359248E-015  0.9000770E+02  0.7816164E-02  0.1186339E+00
        -11   -1    0    0    0    0  0.00000000000E+00  0.00000000000E+00  0.45593999997E+02  0.45594000000E+02  0.51100000000E-03 0.  1.
         11   -1    0    0    0    0 -0.00000000000E+00 -0.00000000000E+00 -0.45593999997E+02  0.45594000000E+02  0.51100000000E-03 0. -1.
    9900012    2    1    2    0    0 -0.94214635640E+00 -0.43016834667E+00 -0.56605266977E+00  0.90007703347E+02  0.89999964232E+02 0.  0.
        -12    1    1    2    0    0  0.94214635640E+00  0.43016834667E+00  0.56605266977E+00  0.11802966527E+01  0.00000000000E+00 0.  1.
         11    1    3    3    0    0  0.50273350972E+01  0.48166899215E+01 -0.68408663041E+01  0.97607403424E+01  0.51100000000E-03 0. -1.
        -11    1    3    3    0    0  0.10757265002E+02  0.34127239834E+02  0.10414926205E+02  0.37267384361E+02  0.51100000000E-03 0.  1.
         12    1    3    3    0    0 -0.16726746456E+02 -0.39374098102E+02 -0.41401125706E+01  0.42979578644E+02  0.00000000000E+00 0. -1.
</event>
<event>
 7    1  0.4359248E-015  0.9000770E+02  0.7816164E-02  0.1186339E+00
        -11   -1    0    0    0    0  0.00000000000E+00  0.00000000000E+00  0.45593999997E+02  0.45594000000E+02  0.51100000000E-03 0.  1.
         11   -1    0    0    0    0 -0.00000000000E+00 -0.00000000000E+00 -0.45593999997E+02  0.45594000000E+02  0.51100000000E-03 0. -1.
    9900012    2    1    2    0    0 -0.24426088431E+00 -0.86544133893E+00 -0.76449026799E+00  0.90007704503E+02  0.89999965402E+02 0.  0.
        -12    1    1    2    0    0  0.24426088431E+00  0.86544133893E+00  0.76449026799E+00  0.11802954971E+01  0.00000000000E+00 0.  1.
         11    1    3    3    0    0 -0.39040539391E+01  0.50963188310E+01  0.13804859545E+01  0.65665702249E+01  0.51100000000E-03 0. -1.
        -11    1    3    3    0    0 -0.23169113132E+01  0.32622222155E+02 -0.22219728859E+02  0.39538510432E+02  0.51100000000E-03 0.  1.
         12    1    3    3    0    0  0.59767043680E+01 -0.38583982325E+02  0.20074752636E+02  0.43902623846E+02  0.00000000000E+00 0. -1.
</event>
<event>
 7    1  0.4359248E-015  0.9000865E+02  0.7816164E-02  0.1186337E+00
        -11   -1    0    0    0    0  0.00000000000E+00  0.00000000000E+00  0.45593999997E+02  0.45594000000E+02  0.51100000000E-03 0.  1.
         11   -1    0    0    0    0 -0.00000000000E+00 -0.00000000000E+00 -0.45593999997E+02  0.45594000000E+02  0.51100000000E-03 0. -1.
    9900012    2    1    2    0    0  0.45114612748E+00 -0.85596230329E+00 -0.67428434108E+00  0.90008651169E+02  0.90000924559E+02 0.  0.
        -12    1    1    2    0    0 -0.45114612748E+00  0.85596230329E+00  0.67428434108E+00  0.11793488312E+01  0.00000000000E+00 0.  1.
         11    1    3    3    0    0 -0.44405474391E+01  0.40756617834E+00 -0.84662406433E+01  0.95687931653E+01  0.51100000000E-03 0. -1.
        -11    1    3    3    0    0  0.37891176343E+02  0.17880407946E+02  0.33531567530E+01  0.42032057925E+02  0.51100000000E-03 0.  1.
         12    1    3    3    0    0 -0.32999482776E+02 -0.19143936428E+02  0.44387995492E+01  0.38407800078E+02  0.00000000000E+00 0. -1.
</event>
<event>
 7    1  0.4359248E-015  0.9000811E+02  0.7816164E-02  0.1186338E+00
        -11   -1    0    0    0    0  0.00000000000E+00  0.00000000000E+00  0.45593999997E+02  0.45594000000E+02  0.51100000000E-03 0. -1.
         11   -1    0    0    0    0 -0.00000000000E+00 -0.00000000000E+00 -0.45593999997E+02  0.45594000000E+02  0.51100000000E-03 0.  1.
    9900012    2    1    2    0    0 -0.22832953139E+00  0.77831814262E+00  0.85687411997E+00  0.90008107308E+02  0.90000373524E+02 0.  0.
        -12    1    1    2    0    0  0.22832953139E+00 -0.77831814262E+00 -0.85687411997E+00  0.11798926915E+01  0.00000000000E+00 0.  1.
         11    1    3    3    0    0  0.14270028540E+02 -0.26800847236E+02  0.19317256675E+02  0.35987157888E+02  0.51100000000E-03 0. -1.
        -11    1    3    3    0    0  0.29621255712E+01 -0.92443468605E+01 -0.12689586581E+01  0.97899128246E+01  0.51100000000E-03 0.  1.
        -12    1    3    3    0    0 -0.17460483643E+02  0.36823512240E+02 -0.17191423897E+02  0.44231036596E+02  0.00000000000E+00 0.  1.
</event>
<event>
 7    1  0.4359248E-015  0.9000776E+02  0.7816164E-02  0.1186339E+00
        -11   -1    0    0    0    0  0.00000000000E+00  0.00000000000E+00  0.45593999997E+02  0.45594000000E+02  0.51100000000E-03 0.  1.
         11   -1    0    0    0    0 -0.00000000000E+00 -0.00000000000E+00 -0.45593999997E+02  0.45594000000E+02  0.51100000000E-03 0. -1.
    9900012    2    1    2    0    0  0.11313442129E+01 -0.30942378422E+00  0.13146333077E+00  0.90007760442E+02  0.90000022080E+02 0.  0.
        -12    1    1    2    0    0 -0.11313442129E+01  0.30942378422E+00 -0.13146333077E+00  0.11802395577E+01  0.00000000000E+00 0.  1.
         11    1    3    3    0    0 -0.48440175478E+00 -0.31471999714E+02  0.25901212591E+02  0.40762657237E+02  0.51100000000E-03 0. -1.
        -11    1    3    3    0    0  0.82929404002E+01  0.26174461237E+01  0.19356657799E+01  0.89090227840E+01  0.51100000000E-03 0.  1.
        -12    1    3    3    0    0 -0.66771944326E+01  0.28545129806E+02 -0.27705415040E+02  0.40336080421E+02  0.00000000000E+00 0.  1.
</event>
<event>
 7    1  0.4359248E-015  0.9000784E+02  0.7816164E-02  0.1186339E+00
        -11   -1    0    0    0    0  0.00000000000E+00  0.00000000000E+00  0.45593999997E+02  0.45594000000E+02  0.51100000000E-03 0. -1.
         11   -1    0    0    0    0 -0.00000000000E+00 -0.00000000000E+00 -0.45593999997E+02  0.45594000000E+02  0.51100000000E-03 0.  1.
    9900012    2    1    2    0    0  0.10029404650E+00 -0.99662730494E+00  0.62406770489E+00  0.90007836714E+02  0.90000099359E+02 0.  0.
        -12    1    1    2    0    0 -0.10029404650E+00  0.99662730494E+00 -0.62406770489E+00  0.11801632857E+01  0.00000000000E+00 0.  1.
         11    1    3    3    0    0  0.83099842889E+01  0.49264628418E+01 -0.24056449232E+01  0.99555513544E+01  0.51100000000E-03 0. -1.
        -11    1    3    3    0    0  0.29996849838E+02  0.17331404054E+02 -0.36249407260E+01  0.34832868992E+02  0.51100000000E-03 0.  1.
         12    1    3    3    0    0 -0.38206540080E+02 -0.23254494201E+02  0.66546533540E+01  0.45219416368E+02  0.00000000000E+00 0. -1.
</event>
<event>
 7    1  0.4359248E-015  0.9000774E+02  0.7816164E-02  0.1186339E+00
        -11   -1    0    0    0    0  0.00000000000E+00  0.00000000000E+00  0.45593999997E+02  0.45594000000E+02  0.51100000000E-03 0. -1.
         11   -1    0    0    0    0 -0.00000000000E+00 -0.00000000000E+00 -0.45593999997E+02  0.45594000000E+02  0.51100000000E-03 0.  1.
    9900012    2    1    2    0    0 -0.98565262824E+00 -0.11029058532E+00 -0.63980120282E+00  0.90007737023E+02  0.89999998351E+02 0.  0.
        -12    1    1    2    0    0  0.98565262824E+00  0.11029058532E+00  0.63980120282E+00  0.11802629774E+01  0.00000000000E+00 0.  1.
         11    1    3    3    0    0 -0.37818050699E+01  0.74468980025E+01  0.32328301078E+01  0.89559773455E+01  0.51100000000E-03 0. -1.
        -11    1    3    3    0    0 -0.29401938174E+02 -0.25210641229E+02  0.12707708074E+02  0.40761946032E+02  0.51100000000E-03 0.  1.
         12    1    3    3    0    0  0.32198090616E+02  0.17653452641E+02 -0.16580339385E+02  0.40289813645E+02  0.00000000000E+00 0. -1.
</event>
<event>
 7    1  0.4359248E-015  0.9000771E+02  0.7816164E-02  0.1186339E+00
        -11   -1    0    0    0    0  0.00000000000E+00  0.00000000000E+00  0.45593999997E+02  0.45594000000E+02  0.51100000000E-03 0. -1.
         11   -1    0    0    0    0 -0.00000000000E+00 -0.00000000000E+00 -0.45593999997E+02  0.45594000000E+02  0.51100000000E-03 0.  1.
    9900012    2    1    2    0    0 -0.48383461508E-02  0.95970835447E+00 -0.68703826844E+00  0.90007709732E+02  0.89999970700E+02 0.  0.
        -12    1    1    2    0    0  0.48383461508E-02 -0.95970835447E+00  0.68703826844E+00  0.11802902683E+01  0.00000000000E+00 0.  1.
         11    1    3    3    0    0  0.22732609543E+02  0.28586485939E+02  0.12409198979E+02  0.38573915209E+02  0.51100000000E-03 0. -1.
        -11    1    3    3    0    0 -0.66750725551E+01  0.70411173820E+01  0.27278535254E+01  0.10078447932E+02  0.51100000000E-03 0.  1.
        -12    1    3    3    0    0 -0.16062375334E+02 -0.34667894967E+02 -0.15824090773E+02  0.41355346590E+02  0.00000000000E+00 0.  1.
</event>
<event>
 7    1  0.4359248E-015  0.9000779E+02  0.7816164E-02  0.1186339E+00
        -11   -1    0    0    0    0  0.00000000000E+00  0.00000000000E+00  0.45593999997E+02  0.45594000000E+02  0.51100000000E-03 0.  1.
         11   -1    0    0    0    0 -0.00000000000E+00 -0.00000000000E+00 -0.45593999997E+02  0.45594000000E+02  0.51100000000E-03 0. -1.
    9900012    2    1    2    0    0  0.84622108022E+00 -0.11922315508E+00  0.81399288926E+00  0.90007792941E+02  0.90000055008E+02 0.  0.
        -12    1    1    2    0    0 -0.84622108022E+00  0.11922315508E+00 -0.81399288926E+00  0.11802070586E+01  0.00000000000E+00 0.  1.
         11    1    3    3    0    0 -0.11163209141E+01  0.34670734496E+02  0.30493726107E+01  0.34822473726E+02  0.51100000000E-03 0. -1.
        -11    1    3    3    0    0 -0.14635889859E+00  0.70757649401E+01  0.93203899408E+01  0.11702885940E+02  0.51100000000E-03 0.  1.
        -12    1    3    3    0    0  0.21089008929E+01 -0.41865722591E+02 -0.11555769662E+02  0.43482433275E+02  0.00000000000E+00 0.  1.
</event>
<event>
 7    1  0.4359248E-015  0.9000885E+02  0.7816164E-02  0.1186337E+00
        -11   -1    0    0    0    0  0.00000000000E+00  0.00000000000E+00  0.45593999997E+02  0.45594000000E+02  0.51100000000E-03 0.  1.
         11   -1    0    0    0    0 -0.00000000000E+00 -0.00000000000E+00 -0.45593999997E+02  0.45594000000E+02  0.51100000000E-03 0. -1.
    9900012    2    1    2    0    0  0.99852793599E-01  0.42661829825E-01 -0.11741363003E+01  0.90008853417E+02  0.90001129475E+02 0.  0.
        -12    1    1    2    0    0 -0.99852793599E-01 -0.42661829825E-01  0.11741363003E+01  0.11791465828E+01  0.00000000000E+00 0.  1.
         11    1    3    3    0    0  0.21775547459E+01 -0.60361590770E+01  0.60281348280E+01  0.88042813926E+01  0.51100000000E-03 0. -1.
        -11    1    3    3    0    0 -0.26491548293E+02  0.21765341104E+02  0.21434598736E+02  0.40434814548E+02  0.51100000000E-03 0.  1.
         12    1    3    3    0    0  0.24413846341E+02 -0.15686520197E+02 -0.28636869865E+02  0.40769757476E+02  0.00000000000E+00 0. -1.
</event>
<event>
 7    1  0.4359248E-015  0.9000888E+02  0.7816164E-02  0.1186337E+00
        -11   -1    0    0    0    0  0.00000000000E+00  0.00000000000E+00  0.45593999997E+02  0.45594000000E+02  0.51100000000E-03 0. -1.
         11   -1    0    0    0    0 -0.00000000000E+00 -0.00000000000E+00 -0.45593999997E+02  0.45594000000E+02  0.51100000000E-03 0.  1.
    9900012    2    1    2    0    0  0.11127309026E+00  0.79007024649E+00  0.86817798642E+00  0.90008879264E+02  0.90001155662E+02 0.  0.
        -12    1    1    2    0    0 -0.11127309026E+00 -0.79007024649E+00 -0.86817798642E+00  0.11791207364E+01  0.00000000000E+00 0.  1.
         11    1    3    3    0    0  0.34436280323E+01 -0.84425932183E+01 -0.22127401477E+01  0.93825462161E+01  0.51100000000E-03 0. -1.
        -11    1    3    3    0    0 -0.23153535290E+02  0.19485998281E+02 -0.28756933357E+02  0.41746275784E+02  0.51100000000E-03 0.  1.
         12    1    3    3    0    0  0.19821180348E+02 -0.10253334817E+02  0.31837851491E+02  0.38880057264E+02  0.00000000000E+00 0. -1.
</event>
<event>
 7    1  0.4359248E-015  0.9000771E+02  0.7816164E-02  0.1186339E+00
        -11   -1    0    0    0    0  0.00000000000E+00  0.00000000000E+00  0.45593999997E+02  0.45594000000E+02  0.51100000000E-03 0.  1.
         11   -1    0    0    0    0 -0.00000000000E+00 -0.00000000000E+00 -0.45593999997E+02  0.45594000000E+02  0.51100000000E-03 0. -1.
    9900012    2    1    2    0    0 -0.74120943658E+00 -0.85632215413E+00  0.33227344576E+00  0.90007709907E+02  0.89999970878E+02 0.  0.
        -12    1    1    2    0    0  0.74120943658E+00  0.85632215413E+00 -0.33227344576E+00  0.11802900928E+01  0.00000000000E+00 0.  1.
         11    1    3    3    0    0  0.23183786725E+01 -0.14516365752E+02 -0.36495404624E+02  0.39344813041E+02  0.51100000000E-03 0. -1.
        -11    1    3    3    0    0 -0.60550794497E+01  0.75720439621E+01 -0.30875403222E+01  0.10175104049E+02  0.51100000000E-03 0.  1.
        -12    1    3    3    0    0  0.29954913406E+01  0.60879996362E+01  0.39915218392E+02  0.40487792817E+02  0.00000000000E+00 0.  1.
</event>
<event>
 7    1  0.4359248E-015  0.9000791E+02  0.7816164E-02  0.1186339E+00
        -11   -1    0    0    0    0  0.00000000000E+00  0.00000000000E+00  0.45593999997E+02  0.45594000000E+02  0.51100000000E-03 0. -1.
         11   -1    0    0    0    0 -0.00000000000E+00 -0.00000000000E+00 -0.45593999997E+02  0.45594000000E+02  0.51100000000E-03 0.  1.
    9900012    2    1    2    0    0 -0.63785454391E+00 -0.80886528567E+00  0.57575693055E+00  0.90007907837E+02  0.90000171421E+02 0.  0.
        -12    1    1    2    0    0  0.63785454391E+00  0.80886528567E+00 -0.57575693055E+00  0.11800921628E+01  0.00000000000E+00 0.  1.
         11    1    3    3    0    0  0.95853309872E+01  0.39327894542E+02  0.15178790424E+02  0.43231441548E+02  0.51100000000E-03 0. -1.
        -11    1    3    3    0    0  0.42028085770E+01 -0.64290253001E+01 -0.36939707681E+01  0.85229916426E+01  0.51100000000E-03 0.  1.
        -12    1    3    3    0    0 -0.14425994108E+02 -0.33707734528E+02 -0.10909062726E+02  0.38253474647E+02  0.00000000000E+00 0.  1.
</event>
<event>
 7    1  0.4359248E-015  0.9000771E+02  0.7816164E-02  0.1186339E+00
        -11   -1    0    0    0    0  0.00000000000E+00  0.00000000000E+00  0.45593999997E+02  0.45594000000E+02  0.51100000000E-03 0.  1.
         11   -1    0    0    0    0 -0.00000000000E+00 -0.00000000000E+00 -0.45593999997E+02  0.45594000000E+02  0.51100000000E-03 0. -1.
    9900012    2    1    2    0    0  0.10131113203E+01  0.29477796881E+00 -0.52895106926E+00  0.90007712818E+02  0.89999973827E+02 0.  0.
        -12    1    1    2    0    0 -0.10131113203E+01 -0.29477796881E+00  0.52895106926E+00  0.11802871820E+01  0.00000000000E+00 0.  1.
         11    1    3    3    0    0  0.58211275367E+01  0.63547780594E+01  0.16364522073E+01  0.87719271583E+01  0.51100000000E-03 0. -1.
        -11    1    3    3    0    0 -0.96417496297E+00  0.35383692479E+02  0.11834483014E+02  0.37322785471E+02  0.51100000000E-03 0.  1.
         12    1    3    3    0    0 -0.38438412534E+01 -0.41443692570E+02 -0.13999886291E+02  0.43913000189E+02  0.00000000000E+00 0. -1.
</event>
<event>
 7    1  0.4646106E-015  0.9000770E+02  0.7816164E-02  0.1186339E+00
        -11   -1    0    0    0    0  0.00000000000E+00  0.00000000000E+00  0.45593999997E+02  0.45594000000E+02  0.51100000000E-03 0. -1.
         11   -1    0    0    0    0 -0.00000000000E+00 -0.00000000000E+00 -0.45593999997E+02  0.45594000000E+02  0.51100000000E-03 0.  1.
    9900012    2    1    2    0    0 -0.93431364908E+00  0.32652732275E+00  0.64308386946E+00  0.90007695399E+02  0.89999956179E+02 0.  0.
        -12    1    1    2    0    0  0.93431364908E+00 -0.32652732275E+00 -0.64308386946E+00  0.11803046007E+01  0.00000000000E+00 0.  1.
         11    1    3    3    0    0 -0.31769367666E+02 -0.11956441713E+02  0.14069508658E+02  0.36745071703E+02  0.51100000000E-03 0. -1.
        -11    1    3    3    0    0 -0.93334767877E+01  0.25778074487E+01  0.38717277358E+00  0.96906544261E+01  0.51100000000E-03 0.  1.
        -12    1    3    3    0    0  0.40168530805E+02  0.97051615869E+01 -0.13813597563E+02  0.43571969270E+02  0.00000000000E+00 0.  1.
</event>
<event>
 7    1  0.4359248E-015  0.9000789E+02  0.7816164E-02  0.1186339E+00
        -11   -1    0    0    0    0  0.00000000000E+00  0.00000000000E+00  0.45593999997E+02  0.45594000000E+02  0.51100000000E-03 0. -1.
         11   -1    0    0    0    0 -0.00000000000E+00 -0.00000000000E+00 -0.45593999997E+02  0.45594000000E+02  0.51100000000E-03 0.  1.
    9900012    2    1    2    0    0  0.91843905055E+00 -0.74009261589E+00  0.37184380546E-01  0.90007894052E+02  0.90000157454E+02 0.  0.
        -12    1    1    2    0    0 -0.91843905055E+00  0.74009261589E+00 -0.37184380546E-01  0.11801059477E+01  0.00000000000E+00 0.  1.
         11    1    3    3    0    0 -0.17875225610E+01  0.83445224816E+01 -0.69193924994E+01  0.10986550194E+02  0.51100000000E-03 0. -1.
        -11    1    3    3    0    0 -0.11604734033E+02 -0.98237494565E+01 -0.33129012688E+02  0.36451438755E+02  0.51100000000E-03 0.  1.
         12    1    3    3    0    0  0.14310695644E+02  0.73913435891E+00  0.40085589568E+02  0.42569905103E+02  0.00000000000E+00 0. -1.
</event>
<event>
 7    1  0.4359248E-015  0.9000771E+02  0.7816164E-02  0.1186339E+00
        -11   -1    0    0    0    0  0.00000000000E+00  0.00000000000E+00  0.45593999997E+02  0.45594000000E+02  0.51100000000E-03 0.  1.
         11   -1    0    0    0    0 -0.00000000000E+00 -0.00000000000E+00 -0.45593999997E+02  0.45594000000E+02  0.51100000000E-03 0. -1.
    9900012    2    1    2    0    0  0.56815555275E+00 -0.20037472180E+00 -0.10149571225E+01  0.90007708205E+02  0.89999969153E+02 0.  0.
        -12    1    1    2    0    0 -0.56815555275E+00  0.20037472180E+00  0.10149571225E+01  0.11802917952E+01  0.00000000000E+00 0.  1.
         11    1    3    3    0    0  0.19455254624E+02  0.23111911018E+02  0.19159364985E+02  0.35773574469E+02  0.51100000000E-03 0. -1.
        -11    1    3    3    0    0 -0.13547499522E+01  0.35803593785E+01  0.96709668071E+01  0.10401053791E+02  0.51100000000E-03 0.  1.
        -12    1    3    3    0    0 -0.17532349119E+02 -0.26892645119E+02 -0.29845288914E+02  0.43833079945E+02  0.00000000000E+00 0.  1.
</event>
<event>
 7    1  0.4359248E-015  0.9000820E+02  0.7816164E-02  0.1186338E+00
        -11   -1    0    0    0    0  0.00000000000E+00  0.00000000000E+00  0.45593999997E+02  0.45594000000E+02  0.51100000000E-03 0.  1.
         11   -1    0    0    0    0 -0.00000000000E+00 -0.00000000000E+00 -0.45593999997E+02  0.45594000000E+02  0.51100000000E-03 0. -1.
    9900012    2    1    2    0    0  0.35233658353E+00 -0.11193127744E+01 -0.12217961543E+00  0.90008199164E+02  0.90000466591E+02 0.  0.
        -12    1    1    2    0    0 -0.35233658353E+00  0.11193127744E+01  0.12217961543E+00  0.11798008363E+01  0.00000000000E+00 0.  1.
         11    1    3    3    0    0 -0.25370176587E+01 -0.84903005829E+01 -0.35848148760E+01  0.95588995467E+01  0.51100000000E-03 0. -1.
        -11    1    3    3    0    0 -0.37497428426E+02 -0.16243323986E+01  0.92881921121E+01  0.38664791572E+02  0.51100000000E-03 0.  1.
         12    1    3    3    0    0  0.40386782668E+02  0.89953202071E+01 -0.58255568516E+01  0.41784508045E+02  0.00000000000E+00 0. -1.
</event>
<event>
 7    1  0.4359248E-015  0.9000771E+02  0.7816164E-02  0.1186339E+00
        -11   -1    0    0    0    0  0.00000000000E+00  0.00000000000E+00  0.45593999997E+02  0.45594000000E+02  0.51100000000E-03 0.  1.
         11   -1    0    0    0    0 -0.00000000000E+00 -0.00000000000E+00 -0.45593999997E+02  0.45594000000E+02  0.51100000000E-03 0. -1.
    9900012    2    1    2    0    0 -0.12339747814E+00 -0.22622096394E+00 -0.11518207100E+01  0.90007706049E+02  0.89999966969E+02 0.  0.
        -12    1    1    2    0    0  0.12339747814E+00  0.22622096394E+00  0.11518207100E+01  0.11802939507E+01  0.00000000000E+00 0.  1.
         11    1    3    3    0    0  0.11746234261E+02  0.18104970607E+02 -0.32292018194E+02  0.38839907560E+02  0.51100000000E-03 0. -1.
        -11    1    3    3    0    0 -0.11252091382E+02 -0.41274075524E+00 -0.38102976119E+01  0.11886895455E+02  0.51100000000E-03 0.  1.
        -12    1    3    3    0    0 -0.61754035718E+00 -0.17918450816E+02  0.34950495095E+02  0.39280903034E+02  0.00000000000E+00 0.  1.
</event>
<event>
 7    1  0.4359248E-015  0.9000771E+02  0.7816164E-02  0.1186339E+00
        -11   -1    0    0    0    0  0.00000000000E+00  0.00000000000E+00  0.45593999997E+02  0.45594000000E+02  0.51100000000E-03 0.  1.
         11   -1    0    0    0    0 -0.00000000000E+00 -0.00000000000E+00 -0.45593999997E+02  0.45594000000E+02  0.51100000000E-03 0. -1.
    9900012    2    1    2    0    0  0.90918041386E+00  0.71229651818E+00  0.24311020274E+00  0.90007712778E+02  0.89999973787E+02 0.  0.
        -12    1    1    2    0    0 -0.90918041386E+00 -0.71229651818E+00 -0.24311020274E+00  0.11802872216E+01  0.00000000000E+00 0.  1.
         11    1    3    3    0    0  0.17993338528E+02 -0.13743855392E+02  0.93679042343E+01  0.24503294114E+02  0.51100000000E-03 0. -1.
        -11    1    3    3    0    0  0.20997164436E+02  0.25776826055E+01  0.72795007805E+01  0.22372225948E+02  0.51100000000E-03 0.  1.
        -12    1    3    3    0    0 -0.38081322551E+02  0.11878469305E+02 -0.16404294812E+02  0.43132192717E+02  0.00000000000E+00 0.  1.
</event>
<event>
 7    1  0.4359248E-015  0.9000828E+02  0.7816164E-02  0.1186338E+00
        -11   -1    0    0    0    0  0.00000000000E+00  0.00000000000E+00  0.45593999997E+02  0.45594000000E+02  0.51100000000E-03 0.  1.
         11   -1    0    0    0    0 -0.00000000000E+00 -0.00000000000E+00 -0.45593999997E+02  0.45594000000E+02  0.51100000000E-03 0. -1.
    9900012    2    1    2    0    0  0.86939485440E+00  0.78092335331E+00  0.16139758463E+00  0.90008280594E+02  0.90000549096E+02 0.  0.
        -12    1    1    2    0    0 -0.86939485440E+00 -0.78092335331E+00 -0.16139758463E+00  0.11797194060E+01  0.00000000000E+00 0.  1.
         11    1    3    3    0    0 -0.11924330698E+02 -0.21156949228E+02 -0.16267388018E+02  0.29230704343E+02  0.51100000000E-03 0. -1.
        -11    1    3    3    0    0 -0.25855172786E+01 -0.16706276732E+02  0.40684024696E+01  0.17387825648E+02  0.51100000000E-03 0.  1.
        -12    1    3    3    0    0  0.15379242831E+02  0.38644149313E+02  0.12360383133E+02  0.43389750603E+02  0.00000000000E+00 0.  1.
</event>
<event>
 7    1  0.4359248E-015  0.9000782E+02  0.7816164E-02  0.1186339E+00
        -11   -1    0    0    0    0  0.00000000000E+00  0.00000000000E+00  0.45593999997E+02  0.45594000000E+02  0.51100000000E-03 0.  1.
         11   -1    0    0    0    0 -0.00000000000E+00 -0.00000000000E+00 -0.45593999997E+02  0.45594000000E+02  0.51100000000E-03 0. -1.
    9900012    2    1    2    0    0 -0.13907544143E+00  0.59648377392E+00 -0.10088059579E+01  0.90007820212E+02  0.90000082639E+02 0.  0.
        -12    1    1    2    0    0  0.13907544143E+00 -0.59648377392E+00  0.10088059579E+01  0.11801797879E+01  0.00000000000E+00 0.  1.
         11    1    3    3    0    0  0.26947423828E+02  0.59464950689E+01 -0.34767480954E+02  0.44388086090E+02  0.51100000000E-03 0. -1.
        -11    1    3    3    0    0 -0.23596784526E+01 -0.53648495814E+01  0.79584351084E+01  0.98836421964E+01  0.51100000000E-03 0.  1.
        -12    1    3    3    0    0 -0.24726820817E+02  0.14838286482E-01  0.25800239888E+02  0.35736091926E+02  0.00000000000E+00 0.  1.
</event>
<event>
 7    1  0.4359248E-015  0.9000762E+02  0.7816164E-02  0.1186339E+00
        -11   -1    0    0    0    0  0.00000000000E+00  0.00000000000E+00  0.45593999997E+02  0.45594000000E+02  0.51100000000E-03 0. -1.
         11   -1    0    0    0    0 -0.00000000000E+00 -0.00000000000E+00 -0.45593999997E+02  0.45594000000E+02  0.51100000000E-03 0.  1.
    9900012    2    1    2    0    0 -0.58914285532E+00  0.10057593166E+01 -0.18615620233E+00  0.90007620723E+02  0.89999880516E+02 0.  0.
        -12    1    1    2    0    0  0.58914285532E+00 -0.10057593166E+01  0.18615620233E+00  0.11803792774E+01  0.00000000000E+00 0.  1.
         11    1    3    3    0    0 -0.53159855980E+01  0.10142369688E+02 -0.27381399623E+01  0.11773902347E+02  0.51100000000E-03 0. -1.
        -11    1    3    3    0    0 -0.83958894791E+01  0.10454686510E+02 -0.32973023131E+02  0.35595107597E+02  0.51100000000E-03 0.  1.
         12    1    3    3    0    0  0.13122732222E+02 -0.19591296882E+02  0.35525006891E+02  0.42638610778E+02  0.00000000000E+00 0. -1.
</event>
<event>
 7    1  0.4359248E-015  0.9000776E+02  0.7816164E-02  0.1186339E+00
        -11   -1    0    0    0    0  0.00000000000E+00  0.00000000000E+00  0.45593999997E+02  0.45594000000E+02  0.51100000000E-03 0.  1.
         11   -1    0    0    0    0 -0.00000000000E+00 -0.00000000000E+00 -0.45593999997E+02  0.45594000000E+02  0.51100000000E-03 0. -1.
    9900012    2    1    2    0    0  0.94753387236E+00 -0.34901847779E+00 -0.61100151182E+00  0.90007763928E+02  0.90000025612E+02 0.  0.
        -12    1    1    2    0    0 -0.94753387236E+00  0.34901847779E+00  0.61100151182E+00  0.11802360715E+01  0.00000000000E+00 0.  1.
         11    1    3    3    0    0 -0.78228873060E+01 -0.33440878961E+02  0.10161839568E+02  0.35815540414E+02  0.51100000000E-03 0. -1.
        -11    1    3    3    0    0 -0.34451001164E+01 -0.87952002246E+01 -0.26510555571E+01  0.98108285905E+01  0.51100000000E-03 0.  1.
        -12    1    3    3    0    0  0.12215521295E+02  0.41887060708E+02 -0.81217855229E+01  0.44381394924E+02  0.00000000000E+00 0.  1.
</event>
<event>
 7    1  0.4359248E-015  0.9000773E+02  0.7816164E-02  0.1186339E+00
        -11   -1    0    0    0    0  0.00000000000E+00  0.00000000000E+00  0.45593999997E+02  0.45594000000E+02  0.51100000000E-03 0. -1.
         11   -1    0    0    0    0 -0.00000000000E+00 -0.00000000000E+00 -0.45593999997E+02  0.45594000000E+02  0.51100000000E-03 0.  1.
    9900012    2    1    2    0    0 -0.52979124878E-01 -0.57047302221E-01  0.11776969687E+01  0.90007732517E+02  0.89999993786E+02 0.  0.
        -12    1    1    2    0    0  0.52979124878E-01  0.57047302221E-01 -0.11776969687E+01  0.11802674835E+01  0.00000000000E+00 0.  1.
         11    1    3    3    0    0  0.23499535768E+01  0.70079539608E+01  0.72312995834E+01  0.10340473609E+02  0.51100000000E-03 0. -1.
        -11    1    3    3    0    0  0.16872384858E-01  0.21032535344E+02 -0.33990134652E+02  0.39971203155E+02  0.51100000000E-03 0.  1.
         12    1    3    3    0    0 -0.24198050865E+01 -0.28097536607E+02  0.27936532038E+02  0.39696055753E+02  0.00000000000E+00 0. -1.
</event>
<event>
 7    1  0.4359248E-015  0.9000788E+02  0.7816164E-02  0.1186339E+00
        -11   -1    0    0    0    0  0.00000000000E+00  0.00000000000E+00  0.45593999997E+02  0.45594000000E+02  0.51100000000E-03 0. -1.
         11   -1    0    0    0    0 -0.00000000000E+00 -0.00000000000E+00 -0.45593999997E+02  0.45594000000E+02  0.51100000000E-03 0.  1.
    9900012    2    1    2    0    0 -0.18844838138E+00  0.10596272706E+01  0.48411259131E+00  0.90007878080E+02  0.90000141271E+02 0.  0.
        -12    1    1    2    0    0  0.18844838138E+00 -0.10596272706E+01 -0.48411259131E+00  0.11801219200E+01  0.00000000000E+00 0.  1.
         11    1    3    3    0    0 -0.18201917233E+02  0.30617370985E+02  0.12765099284E+00  0.35619509992E+02  0.51100000000E-03 0. -1.
        -11    1    3    3    0    0 -0.15472496845E+01  0.93998196093E+01 -0.44821527916E+01  0.10528071247E+02  0.51100000000E-03 0.  1.
        -12    1    3    3    0    0  0.19560718536E+02 -0.38957563324E+02  0.48386143901E+01  0.43860296841E+02  0.00000000000E+00 0.  1.
</event>
<event>
 7    1  0.4359248E-015  0.9000819E+02  0.7816164E-02  0.1186338E+00
        -11   -1    0    0    0    0  0.00000000000E+00  0.00000000000E+00  0.45593999997E+02  0.45594000000E+02  0.51100000000E-03 0. -1.
         11   -1    0    0    0    0 -0.00000000000E+00 -0.00000000000E+00 -0.45593999997E+02  0.45594000000E+02  0.51100000000E-03 0.  1.
    9900012    2    1    2    0    0  0.11584441120E+01 -0.93783405254E-01  0.20290268577E+00  0.90008187478E+02  0.90000454751E+02 0.  0.
        -12    1    1    2    0    0 -0.11584441120E+01  0.93783405254E-01 -0.20290268577E+00  0.11798125223E+01  0.00000000000E+00 0.  1.
         11    1    3    3    0    0  0.60170150236E+00  0.78275521788E+01 -0.75235546658E+01  0.10873660510E+02  0.51100000000E-03 0. -1.
        -11    1    3    3    0    0 -0.28742099955E+02 -0.23324333070E+02 -0.13962039290E+02  0.39560982854E+02  0.51100000000E-03 0.  1.
         12    1    3    3    0    0  0.29298842565E+02  0.15402997486E+02  0.21688496642E+02  0.39573544114E+02  0.00000000000E+00 0. -1.
</event>
<event>
 7    1  0.4359248E-015  0.9000775E+02  0.7816164E-02  0.1186339E+00
        -11   -1    0    0    0    0  0.00000000000E+00  0.00000000000E+00  0.45593999997E+02  0.45594000000E+02  0.51100000000E-03 0. -1.
         11   -1    0    0    0    0 -0.00000000000E+00 -0.00000000000E+00 -0.45593999997E+02  0.45594000000E+02  0.51100000000E-03 0.  1.
    9900012    2    1    2    0    0  0.83514723222E+00  0.48759508296E+00 -0.67658701146E+00  0.90007750091E+02  0.90000011592E+02 0.  0.
        -12    1    1    2    0    0 -0.83514723222E+00 -0.48759508296E+00  0.67658701146E+00  0.11802499093E+01  0.00000000000E+00 0.  1.
         11    1    3    3    0    0 -0.91529364295E+01  0.38396081564E+01  0.61710408473E+01  0.11687625143E+02  0.51100000000E-03 0. -1.
        -11    1    3    3    0    0 -0.22509711644E+02  0.57878866634E+00 -0.30516688600E+02  0.37924799248E+02  0.51100000000E-03 0.  1.
         12    1    3    3    0    0  0.32497795306E+02 -0.39308017398E+01  0.23669060741E+02  0.40395325700E+02  0.00000000000E+00 0. -1.
</event>
<event>
 7    1  0.5292157E-015  0.9000777E+02  0.7816164E-02  0.1186339E+00
        -11   -1    0    0    0    0  0.00000000000E+00  0.00000000000E+00  0.45593999997E+02  0.45594000000E+02  0.51100000000E-03 0. -1.
         11   -1    0    0    0    0 -0.00000000000E+00 -0.00000000000E+00 -0.45593999997E+02  0.45594000000E+02  0.51100000000E-03 0.  1.
    9900012    2    1    2    0    0 -0.56525615994E+00 -0.21972598113E+00  0.10124912278E+01  0.90007774378E+02  0.90000036200E+02 0.  0.
        -12    1    1    2    0    0  0.56525615994E+00  0.21972598113E+00 -0.10124912278E+01  0.11802256223E+01  0.00000000000E+00 0.  1.
         11    1    3    3    0    0  0.23636381753E+02  0.15696349418E+02  0.27127395471E+02  0.39254929789E+02  0.51100000000E-03 0. -1.
        -11    1    3    3    0    0 -0.45341653146E+01  0.93134783684E+01 -0.16695022716E+01  0.10492224384E+02  0.51100000000E-03 0.  1.
        -12    1    3    3    0    0 -0.19667472598E+02 -0.25229553768E+02 -0.24445401972E+02  0.40260620205E+02  0.00000000000E+00 0.  1.
</event>
<event>
 7    1  0.4359248E-015  0.9000780E+02  0.7816164E-02  0.1186339E+00
        -11   -1    0    0    0    0  0.00000000000E+00  0.00000000000E+00  0.45593999997E+02  0.45594000000E+02  0.51100000000E-03 0. -1.
         11   -1    0    0    0    0 -0.00000000000E+00 -0.00000000000E+00 -0.45593999997E+02  0.45594000000E+02  0.51100000000E-03 0.  1.
    9900012    2    1    2    0    0 -0.63161509366E+00  0.92071005876E+00 -0.38240058292E+00  0.90007798812E+02  0.90000060956E+02 0.  0.
        -12    1    1    2    0    0  0.63161509366E+00 -0.92071005876E+00  0.38240058292E+00  0.11802011882E+01  0.00000000000E+00 0.  1.
         11    1    3    3    0    0  0.67591269379E+01  0.29209813126E+02  0.21866614762E+02  0.37108594978E+02  0.51100000000E-03 0. -1.
        -11    1    3    3    0    0 -0.73389093811E+01  0.84594672056E+01 -0.61768683799E+01  0.12789678634E+02  0.51100000000E-03 0.  1.
        -12    1    3    3    0    0 -0.51832650395E-01 -0.36748570273E+02 -0.16072146965E+02  0.40109525200E+02  0.00000000000E+00 0.  1.
</event>
<event>
 7    1  0.4359248E-015  0.9000774E+02  0.7816164E-02  0.1186339E+00
        -11   -1    0    0    0    0  0.00000000000E+00  0.00000000000E+00  0.45593999997E+02  0.45594000000E+02  0.51100000000E-03 0.  1.
         11   -1    0    0    0    0 -0.00000000000E+00 -0.00000000000E+00 -0.45593999997E+02  0.45594000000E+02  0.51100000000E-03 0. -1.
    9900012    2    1    2    0    0  0.49001219444E+00 -0.71459110700E+00 -0.80141550372E+00  0.90007737652E+02  0.89999998989E+02 0.  0.
        -12    1    1    2    0    0 -0.49001219444E+00  0.71459110700E+00  0.80141550372E+00  0.11802623482E+01  0.00000000000E+00 0.  1.
         11    1    3    3    0    0 -0.30583950635E+02 -0.21281705560E+02  0.34917087915E+01  0.37423001730E+02  0.51100000000E-03 0. -1.
        -11    1    3    3    0    0 -0.33957448832E+01 -0.99101525347E+00  0.91129504510E+01  0.97754314855E+01  0.51100000000E-03 0.  1.
        -12    1    3    3    0    0  0.34469707712E+02  0.21558129706E+02 -0.13406074746E+02  0.42809304436E+02  0.00000000000E+00 0.  1.
</event>
<event>
 7    1  0.4359248E-015  0.9000729E+02  0.7816164E-02  0.1186340E+00
        -11   -1    0    0    0    0  0.00000000000E+00  0.00000000000E+00  0.45593999997E+02  0.45594000000E+02  0.51100000000E-03 0.  1.
         11   -1    0    0    0    0 -0.00000000000E+00 -0.00000000000E+00 -0.45593999997E+02  0.45594000000E+02  0.51100000000E-03 0. -1.
    9900012    2    1    2    0    0 -0.52444526833E-01 -0.73377200944E+00  0.92353308760E+00  0.90007286168E+02  0.89999541544E+02 0.  0.
        -12    1    1    2    0    0  0.52444526833E-01  0.73377200944E+00 -0.92353308760E+00  0.11807138324E+01  0.00000000000E+00 0.  1.
         11    1    3    3    0    0 -0.22013759759E+02 -0.25921263277E+02  0.23077027953E+02  0.41098256994E+02  0.51100000000E-03 0. -1.
        -11    1    3    3    0    0  0.55360332816E+01  0.37306563241E+01  0.66441791529E+01  0.94186293048E+01  0.51100000000E-03 0.  1.
        -12    1    3    3    0    0  0.16425281951E+02  0.21456834943E+02 -0.28797674018E+02  0.39490399868E+02  0.00000000000E+00 0.  1.
</event>
<event>
 7    1  0.4359248E-015  0.9000774E+02  0.7816164E-02  0.1186339E+00
        -11   -1    0    0    0    0  0.00000000000E+00  0.00000000000E+00  0.45593999997E+02  0.45594000000E+02  0.51100000000E-03 0.  1.
         11   -1    0    0    0    0 -0.00000000000E+00 -0.00000000000E+00 -0.45593999997E+02  0.45594000000E+02  0.51100000000E-03 0. -1.
    9900012    2    1    2    0    0 -0.89963788923E+00 -0.45359673260E+00  0.61474048269E+00  0.90007744016E+02  0.90000005437E+02 0.  0.
        -12    1    1    2    0    0  0.89963788923E+00  0.45359673260E+00 -0.61474048269E+00  0.11802559844E+01  0.00000000000E+00 0.  1.
         11    1    3    3    0    0 -0.22996398527E+02  0.25654699181E+02 -0.18705263053E+02  0.39203122343E+02  0.51100000000E-03 0. -1.
        -11    1    3    3    0    0 -0.66814490854E+01 -0.14408051737E+02  0.55479875846E+01  0.16823016472E+02  0.51100000000E-03 0.  1.
        -12    1    3    3    0    0  0.28778209723E+02 -0.11700244177E+02  0.13772015951E+02  0.33981605201E+02  0.00000000000E+00 0.  1.
</event>
<event>
 7    1  0.4359248E-015  0.9000773E+02  0.7816164E-02  0.1186339E+00
        -11   -1    0    0    0    0  0.00000000000E+00  0.00000000000E+00  0.45593999997E+02  0.45594000000E+02  0.51100000000E-03 0. -1.
         11   -1    0    0    0    0 -0.00000000000E+00 -0.00000000000E+00 -0.45593999997E+02  0.45594000000E+02  0.51100000000E-03 0.  1.
    9900012    2    1    2    0    0  0.65478353712E+00 -0.77558013895E+00  0.60229645747E+00  0.90007734329E+02  0.89999995622E+02 0.  0.
        -12    1    1    2    0    0 -0.65478353712E+00  0.77558013895E+00 -0.60229645747E+00  0.11802656714E+01  0.00000000000E+00 0.  1.
         11    1    3    3    0    0  0.81463204589E+01  0.10304762954E+00 -0.26465619158E+01  0.85660636274E+01  0.51100000000E-03 0. -1.
        -11    1    3    3    0    0  0.14350128228E+02 -0.36383047090E+02  0.64294203558E+01  0.39635712963E+02  0.51100000000E-03 0.  1.
         12    1    3    3    0    0 -0.21841665150E+02  0.35504419321E+02 -0.31805619825E+01  0.41805957738E+02  0.00000000000E+00 0. -1.
</event>
<event>
 7    1  0.4359248E-015  0.9000771E+02  0.7816164E-02  0.1186339E+00
        -11   -1    0    0    0    0  0.00000000000E+00  0.00000000000E+00  0.45593999997E+02  0.45594000000E+02  0.51100000000E-03 0.  1.
         11   -1    0    0    0    0 -0.00000000000E+00 -0.00000000000E+00 -0.45593999997E+02  0.45594000000E+02  0.51100000000E-03 0. -1.
    9900012    2    1    2    0    0  0.20506727102E+00  0.59731648124E+00 -0.99712251276E+00  0.90007706448E+02  0.89999967373E+02 0.  0.
        -12    1    1    2    0    0 -0.20506727102E+00 -0.59731648124E+00  0.99712251276E+00  0.11802935524E+01  0.00000000000E+00 0.  1.
         11    1    3    3    0    0 -0.56916821905E+01 -0.53991806224E+01  0.59067323678E+01  0.98201774463E+01  0.51100000000E-03 0. -1.
        -11    1    3    3    0    0  0.15789286195E+02  0.82125178973E+00  0.34155481498E+02  0.37637387392E+02  0.51100000000E-03 0.  1.
         12    1    3    3    0    0 -0.98925367335E+01  0.51752453139E+01 -0.41059336379E+02  0.42550141609E+02  0.00000000000E+00 0. -1.
</event>
<event>
 7    1  0.4359248E-015  0.9000765E+02  0.7816164E-02  0.1186339E+00
        -11   -1    0    0    0    0  0.00000000000E+00  0.00000000000E+00  0.45593999997E+02  0.45594000000E+02  0.51100000000E-03 0. -1.
         11   -1    0    0    0    0 -0.00000000000E+00 -0.00000000000E+00 -0.45593999997E+02  0.45594000000E+02  0.51100000000E-03 0.  1.
    9900012    2    1    2    0    0  0.22564735654E-01  0.95805251478E+00  0.68910021339E+00  0.90007647132E+02  0.89999907274E+02 0.  0.
        -12    1    1    2    0    0 -0.22564735654E-01 -0.95805251478E+00 -0.68910021339E+00  0.11803528678E+01  0.00000000000E+00 0.  1.
         11    1    3    3    0    0  0.30140850262E+02  0.12426529125E+02 -0.16139947196E+02  0.36378391613E+02  0.51100000000E-03 0. -1.
        -11    1    3    3    0    0 -0.47274884087E+01  0.13966497976E+02  0.25829312167E+01  0.14969427053E+02  0.51100000000E-03 0.  1.
        -12    1    3    3    0    0 -0.25390797118E+02 -0.25434974586E+02  0.14246116192E+02  0.38659828466E+02  0.00000000000E+00 0.  1.
</event>
<event>
 7    1  0.4359248E-015  0.9000777E+02  0.7816164E-02  0.1186339E+00
        -11   -1    0    0    0    0  0.00000000000E+00  0.00000000000E+00  0.45593999997E+02  0.45594000000E+02  0.51100000000E-03 0. -1.
         11   -1    0    0    0    0 -0.00000000000E+00 -0.00000000000E+00 -0.45593999997E+02  0.45594000000E+02  0.51100000000E-03 0.  1.
    9900012    2    1    2    0    0 -0.11594111709E+00  0.79387610083E+00  0.86560524967E+00  0.90007765255E+02  0.90000026956E+02 0.  0.
        -12    1    1    2    0    0  0.11594111709E+00 -0.79387610083E+00 -0.86560524967E+00  0.11802347454E+01  0.00000000000E+00 0.  1.
         11    1    3    3    0    0  0.26690522102E+01  0.51803376182E+01 -0.68877837315E+01  0.90222670395E+01  0.51100000000E-03 0. -1.
        -11    1    3    3    0    0  0.36568028689E+02  0.12464819179E+01 -0.92614771985E+01  0.37743203356E+02  0.51100000000E-03 0.  1.
         12    1    3    3    0    0 -0.39353022017E+02 -0.56329434353E+01  0.17014866180E+02  0.43242294859E+02  0.00000000000E+00 0. -1.
</event>
<event>
 7    1  0.4359248E-015  0.9000756E+02  0.7816164E-02  0.1186339E+00
        -11   -1    0    0    0    0  0.00000000000E+00  0.00000000000E+00  0.45593999997E+02  0.45594000000E+02  0.51100000000E-03 0.  1.
         11   -1    0    0    0    0 -0.00000000000E+00 -0.00000000000E+00 -0.45593999997E+02  0.45594000000E+02  0.51100000000E-03 0. -1.
    9900012    2    1    2    0    0  0.11775615239E+01  0.18684160454E-01  0.80298269990E-01  0.90007555993E+02  0.89999814932E+02 0.  0.
        -12    1    1    2    0    0 -0.11775615239E+01 -0.18684160454E-01 -0.80298269990E-01  0.11804440065E+01  0.00000000000E+00 0.  1.
         11    1    3    3    0    0 -0.76212243218E+01  0.94738129056E+01 -0.19855862365E+02  0.23282857678E+02  0.51100000000E-03 0. -1.
        -11    1    3    3    0    0 -0.24453897273E+02 -0.13614762929E+02  0.17748395530E+02  0.33141520870E+02  0.51100000000E-03 0.  1.
         12    1    3    3    0    0  0.33252683119E+02  0.41596341839E+01  0.21877651051E+01  0.33583177445E+02  0.00000000000E+00 0. -1.
</event>
<event>
 7    1  0.4359248E-015  0.9000771E+02  0.7816164E-02  0.1186339E+00
        -11   -1    0    0    0    0  0.00000000000E+00  0.00000000000E+00  0.45593999997E+02  0.45594000000E+02  0.51100000000E-03 0. -1.
         11   -1    0    0    0    0 -0.00000000000E+00 -0.00000000000E+00 -0.45593999997E+02  0.45594000000E+02  0.51100000000E-03 0.  1.
    9900012    2    1    2    0    0 -0.21999839500E+00  0.66475207651E+00  0.95015104170E+00  0.90007711214E+02  0.89999972202E+02 0.  0.
        -12    1    1    2    0    0  0.21999839500E+00 -0.66475207651E+00 -0.95015104170E+00  0.11802887863E+01  0.00000000000E+00 0.  1.
         11    1    3    3    0    0 -0.14037632532E+01  0.67538455116E+01 -0.18790635638E+01  0.71495356915E+01  0.51100000000E-03 0. -1.
        -11    1    3    3    0    0 -0.38085474345E+02  0.16124141765E+01 -0.12332553961E+02  0.40064886409E+02  0.51100000000E-03 0.  1.
         12    1    3    3    0    0  0.39269239203E+02 -0.77015076116E+01  0.15161768566E+02  0.42793289113E+02  0.00000000000E+00 0. -1.
</event>
<event>
 7    1  0.4359248E-015  0.9000778E+02  0.7816164E-02  0.1186339E+00
        -11   -1    0    0    0    0  0.00000000000E+00  0.00000000000E+00  0.45593999997E+02  0.45594000000E+02  0.51100000000E-03 0.  1.
         11   -1    0    0    0    0 -0.00000000000E+00 -0.00000000000E+00 -0.45593999997E+02  0.45594000000E+02  0.51100000000E-03 0. -1.
    9900012    2    1    2    0    0 -0.54942735651E+00  0.51417190732E+00  0.90921416543E+00  0.90007782406E+02  0.90000044334E+02 0.  0.
        -12    1    1    2    0    0  0.54942735651E+00 -0.51417190732E+00 -0.90921416543E+00  0.11802175939E+01  0.00000000000E+00 0.  1.
         11    1    3    3    0    0 -0.16385339584E+02 -0.35816396642E+02  0.29921813600E+01  0.39499959130E+02  0.51100000000E-03 0. -1.
        -11    1    3    3    0    0 -0.78684494801E+01  0.15540700928E+01 -0.25574195404E+01  0.84183149169E+01  0.51100000000E-03 0.  1.
        -12    1    3    3    0    0  0.23704361708E+02  0.34776498457E+02  0.47445234585E+00  0.42089508359E+02  0.00000000000E+00 0.  1.
</event>
<event>
 7    1  0.4359248E-015  0.9000760E+02  0.7816164E-02  0.1186339E+00
        -11   -1    0    0    0    0  0.00000000000E+00  0.00000000000E+00  0.45593999997E+02  0.45594000000E+02  0.51100000000E-03 0. -1.
         11   -1    0    0    0    0 -0.00000000000E+00 -0.00000000000E+00 -0.45593999997E+02  0.45594000000E+02  0.51100000000E-03 0.  1.
    9900012    2    1    2    0    0 -0.37986565103E-01 -0.10901449363E+01  0.45108762948E+00  0.90007602181E+02  0.89999861730E+02 0.  0.
        -12    1    1    2    0    0  0.37986565103E-01  0.10901449363E+01 -0.45108762948E+00  0.11803978188E+01  0.00000000000E+00 0.  1.
         11    1    3    3    0    0 -0.31430540989E+02 -0.11241136681E+02  0.11315314008E+00  0.33380456328E+02  0.51100000000E-03 0. -1.
        -11    1    3    3    0    0 -0.83740089214E+01 -0.74644674496E+01 -0.59225694928E+01  0.12685390391E+02  0.51100000000E-03 0.  1.
        -12    1    3    3    0    0  0.39766563346E+02  0.17615459195E+02  0.62605039822E+01  0.43941755462E+02  0.00000000000E+00 0.  1.
</event>
<event>
 7    1  0.4359248E-015  0.9000785E+02  0.7816164E-02  0.1186339E+00
        -11   -1    0    0    0    0  0.00000000000E+00  0.00000000000E+00  0.45593999997E+02  0.45594000000E+02  0.51100000000E-03 0.  1.
         11   -1    0    0    0    0 -0.00000000000E+00 -0.00000000000E+00 -0.45593999997E+02  0.45594000000E+02  0.51100000000E-03 0. -1.
    9900012    2    1    2    0    0 -0.10363134345E+01 -0.12662846995E+00 -0.55024191636E+00  0.90007853200E+02  0.90000116062E+02 0.  0.
        -12    1    1    2    0    0  0.10363134345E+01  0.12662846995E+00  0.55024191636E+00  0.11801468004E+01  0.00000000000E+00 0.  1.
         11    1    3    3    0    0 -0.18679814452E+01 -0.92472882324E+00 -0.93999198224E+01  0.96282382088E+01  0.51100000000E-03 0. -1.
        -11    1    3    3    0    0 -0.54664564066E+01 -0.34947955868E+02  0.22135365937E+02  0.41727882649E+02  0.51100000000E-03 0.  1.
         12    1    3    3    0    0  0.62981244173E+01  0.35746056221E+02 -0.13285688031E+02  0.38651732341E+02  0.00000000000E+00 0. -1.
</event>
<event>
 7    1  0.4359248E-015  0.9000771E+02  0.7816164E-02  0.1186339E+00
        -11   -1    0    0    0    0  0.00000000000E+00  0.00000000000E+00  0.45593999997E+02  0.45594000000E+02  0.51100000000E-03 0. -1.
         11   -1    0    0    0    0 -0.00000000000E+00 -0.00000000000E+00 -0.45593999997E+02  0.45594000000E+02  0.51100000000E-03 0.  1.
    9900012    2    1    2    0    0  0.11346962109E+01 -0.32259377923E+00  0.38526705325E-01  0.90007709127E+02  0.89999970088E+02 0.  0.
        -12    1    1    2    0    0 -0.11346962109E+01  0.32259377923E+00 -0.38526705325E-01  0.11802908729E+01  0.00000000000E+00 0.  1.
         11    1    3    3    0    0 -0.70110851901E+01 -0.14751919108E+02  0.38547261342E+02  0.41864851489E+02  0.51100000000E-03 0. -1.
        -11    1    3    3    0    0  0.94175311182E+01  0.55378811179E+01 -0.27397728422E+01  0.11263408681E+02  0.51100000000E-03 0.  1.
        -12    1    3    3    0    0 -0.12717497172E+01  0.88914442108E+01 -0.35768961795E+02  0.36879448957E+02  0.00000000000E+00 0.  1.
</event>
<event>
 7    1  0.4359248E-015  0.9000765E+02  0.7816164E-02  0.1186339E+00
        -11   -1    0    0    0    0  0.00000000000E+00  0.00000000000E+00  0.45593999997E+02  0.45594000000E+02  0.51100000000E-03 0.  1.
         11   -1    0    0    0    0 -0.00000000000E+00 -0.00000000000E+00 -0.45593999997E+02  0.45594000000E+02  0.51100000000E-03 0. -1.
    9900012    2    1    2    0    0  0.81991078127E+00 -0.30772130350E+00  0.79138428150E+00  0.90007646167E+02  0.89999906296E+02 0.  0.
        -12    1    1    2    0    0 -0.81991078127E+00  0.30772130350E+00 -0.79138428150E+00  0.11803538329E+01  0.00000000000E+00 0.  1.
         11    1    3    3    0    0 -0.89236290173E+01  0.66773016520E+01  0.24423436388E+01  0.11409757004E+02  0.51100000000E-03 0. -1.
        -11    1    3    3    0    0  0.32853966130E+02  0.21181465752E+02  0.99951192023E+01  0.40347738350E+02  0.51100000000E-03 0.  1.
         12    1    3    3    0    0 -0.23110426331E+02 -0.28166488708E+02 -0.11646078560E+02  0.38250150812E+02  0.00000000000E+00 0. -1.
</event>
<event>
 7    1  0.4359248E-015  0.9000773E+02  0.7816164E-02  0.1186339E+00
        -11   -1    0    0    0    0  0.00000000000E+00  0.00000000000E+00  0.45593999997E+02  0.45594000000E+02  0.51100000000E-03 0.  1.
         11   -1    0    0    0    0 -0.00000000000E+00 -0.00000000000E+00 -0.45593999997E+02  0.45594000000E+02  0.51100000000E-03 0. -1.
    9900012    2    1    2    0    0  0.11499094308E+01 -0.25608723751E+00 -0.71830689881E-01  0.90007732225E+02  0.89999993491E+02 0.  0.
        -12    1    1    2    0    0 -0.11499094308E+01  0.25608723751E+00  0.71830689881E-01  0.11802677748E+01  0.00000000000E+00 0.  1.
         11    1    3    3    0    0 -0.49542804583E+01  0.49343044740E+01  0.66976334370E+01  0.96824867374E+01  0.51100000000E-03 0. -1.
        -11    1    3    3    0    0  0.36213754747E+02  0.62516075055E+01  0.16805089113E+02  0.40409524244E+02  0.51100000000E-03 0.  1.
         12    1    3    3    0    0 -0.30109564857E+02 -0.11441999217E+02 -0.23574553240E+02  0.39915721244E+02  0.00000000000E+00 0. -1.
</event>
<event>
 7    1  0.4359248E-015  0.9000785E+02  0.7816164E-02  0.1186339E+00
        -11   -1    0    0    0    0  0.00000000000E+00  0.00000000000E+00  0.45593999997E+02  0.45594000000E+02  0.51100000000E-03 0. -1.
         11   -1    0    0    0    0 -0.00000000000E+00 -0.00000000000E+00 -0.45593999997E+02  0.45594000000E+02  0.51100000000E-03 0.  1.
    9900012    2    1    2    0    0 -0.56425052330E-01  0.92585158219E+00  0.72963348087E+00  0.90007851723E+02  0.90000114566E+02 0.  0.
        -12    1    1    2    0    0  0.56425052330E-01 -0.92585158219E+00 -0.72963348087E+00  0.11801482768E+01  0.00000000000E+00 0.  1.
         11    1    3    3    0    0 -0.67136489157E+01 -0.66718606570E+01 -0.21768498410E+01  0.97121306561E+01  0.51100000000E-03 0. -1.
        -11    1    3    3    0    0 -0.10305456720E+02  0.97744025884E+01 -0.35509631054E+02  0.38244937992E+02  0.51100000000E-03 0.  1.
         12    1    3    3    0    0  0.16962680583E+02 -0.21766903493E+01  0.38416114376E+02  0.42050783075E+02  0.00000000000E+00 0. -1.
</event>
<event>
 7    1  0.4359248E-015  0.9000777E+02  0.7816164E-02  0.1186339E+00
        -11   -1    0    0    0    0  0.00000000000E+00  0.00000000000E+00  0.45593999997E+02  0.45594000000E+02  0.51100000000E-03 0.  1.
         11   -1    0    0    0    0 -0.00000000000E+00 -0.00000000000E+00 -0.45593999997E+02  0.45594000000E+02  0.51100000000E-03 0. -1.
    9900012    2    1    2    0    0  0.50364449621E+00 -0.85255360113E+00 -0.64221547588E+00  0.90007768608E+02  0.90000030354E+02 0.  0.
        -12    1    1    2    0    0 -0.50364449621E+00  0.85255360113E+00  0.64221547588E+00  0.11802313921E+01  0.00000000000E+00 0.  1.
         11    1    3    3    0    0 -0.60620746188E+01 -0.14455950912E+02 -0.94968551018E+01  0.18327943762E+02  0.51100000000E-03 0. -1.
        -11    1    3    3    0    0  0.24561579701E+02 -0.18917337724E+02  0.14253648186E+02  0.34121889614E+02  0.51100000000E-03 0.  1.
         12    1    3    3    0    0 -0.17995860586E+02  0.32520735035E+02 -0.53990085602E+01  0.37557935232E+02  0.00000000000E+00 0. -1.
</event>
<event>
 7    1  0.4359248E-015  0.9000770E+02  0.7816164E-02  0.1186339E+00
        -11   -1    0    0    0    0  0.00000000000E+00  0.00000000000E+00  0.45593999997E+02  0.45594000000E+02  0.51100000000E-03 0. -1.
         11   -1    0    0    0    0 -0.00000000000E+00 -0.00000000000E+00 -0.45593999997E+02  0.45594000000E+02  0.51100000000E-03 0.  1.
    9900012    2    1    2    0    0 -0.10483706051E+01 -0.29802152808E+00  0.45300569810E+00  0.90007698378E+02  0.89999959196E+02 0.  0.
        -12    1    1    2    0    0  0.10483706051E+01  0.29802152808E+00 -0.45300569810E+00  0.11803016222E+01  0.00000000000E+00 0.  1.
         11    1    3    3    0    0  0.17221074918E+01 -0.37936781560E+02  0.14798013914E+02  0.40757162136E+02  0.51100000000E-03 0. -1.
        -11    1    3    3    0    0 -0.65163552833E+01 -0.21549919022E+01 -0.40770275551E+01  0.79830464250E+01  0.51100000000E-03 0.  1.
        -12    1    3    3    0    0  0.37458771863E+01  0.39793751934E+02 -0.10267980661E+02  0.41267489816E+02  0.00000000000E+00 0.  1.
</event>
<event>
 7    1  0.4359248E-015  0.9000776E+02  0.7816164E-02  0.1186339E+00
        -11   -1    0    0    0    0  0.00000000000E+00  0.00000000000E+00  0.45593999997E+02  0.45594000000E+02  0.51100000000E-03 0.  1.
         11   -1    0    0    0    0 -0.00000000000E+00 -0.00000000000E+00 -0.45593999997E+02  0.45594000000E+02  0.51100000000E-03 0. -1.
    9900012    2    1    2    0    0  0.40313955802E+00  0.99403493055E+00 -0.49228722964E+00  0.90007756948E+02  0.90000018539E+02 0.  0.
        -12    1    1    2    0    0 -0.40313955802E+00 -0.99403493055E+00  0.49228722964E+00  0.11802430525E+01  0.00000000000E+00 0.  1.
         11    1    3    3    0    0  0.76509136305E+01 -0.17875328061E+01 -0.42833019012E+02  0.43547666652E+02  0.51100000000E-03 0. -1.
        -11    1    3    3    0    0 -0.67192784350E+01 -0.28967443617E+01  0.54309957102E+01  0.91123841693E+01  0.51100000000E-03 0.  1.
        -12    1    3    3    0    0 -0.52849563755E+00  0.56783120984E+01  0.36909736072E+02  0.37347706126E+02  0.00000000000E+00 0.  1.
</event>
<event>
 7    1  0.4359248E-015  0.9000775E+02  0.7816164E-02  0.1186339E+00
        -11   -1    0    0    0    0  0.00000000000E+00  0.00000000000E+00  0.45593999997E+02  0.45594000000E+02  0.51100000000E-03 0. -1.
         11   -1    0    0    0    0 -0.00000000000E+00 -0.00000000000E+00 -0.45593999997E+02  0.45594000000E+02  0.51100000000E-03 0.  1.
    9900012    2    1    2    0    0 -0.41408318784E+00 -0.60787526885E+00  0.92304511746E+00  0.90007750231E+02  0.90000011734E+02 0.  0.
        -12    1    1    2    0    0  0.41408318784E+00  0.60787526885E+00 -0.92304511746E+00  0.11802497692E+01  0.00000000000E+00 0.  1.
         11    1    3    3    0    0  0.28671293119E+02 -0.24580402289E+02  0.46692495167E+01  0.38053135444E+02  0.51100000000E-03 0. -1.
        -11    1    3    3    0    0  0.71508897026E+01 -0.53241808386E+00  0.28491236721E+01  0.77159703547E+01  0.51100000000E-03 0.  1.
        -12    1    3    3    0    0 -0.36236266009E+02  0.24504945104E+02 -0.65953280713E+01  0.44238644432E+02  0.00000000000E+00 0.  1.
</event>
<event>
 7    1  0.4359248E-015  0.9000773E+02  0.7816164E-02  0.1186339E+00
        -11   -1    0    0    0    0  0.00000000000E+00  0.00000000000E+00  0.45593999997E+02  0.45594000000E+02  0.51100000000E-03 0.  1.
         11   -1    0    0    0    0 -0.00000000000E+00 -0.00000000000E+00 -0.45593999997E+02  0.45594000000E+02  0.51100000000E-03 0. -1.
    9900012    2    1    2    0    0  0.63627192509E+00  0.98781281531E+00 -0.11143266861E+00  0.90007731657E+02  0.89999992915E+02 0.  0.
        -12    1    1    2    0    0 -0.63627192509E+00 -0.98781281531E+00  0.11143266861E+00  0.11802683425E+01  0.00000000000E+00 0.  1.
         11    1    3    3    0    0  0.39100895193E+02  0.12490283828E+01 -0.17567718529E+02  0.42884318945E+02  0.51100000000E-03 0. -1.
        -11    1    3    3    0    0 -0.73296455797E+01  0.63829201618E+01 -0.18457683519E+01  0.98930397344E+01  0.51100000000E-03 0.  1.
        -12    1    3    3    0    0 -0.31134977688E+02 -0.66441357293E+01  0.19302054213E+02  0.37230372978E+02  0.00000000000E+00 0.  1.
</event>
<event>
 7    1  0.5291830E-015  0.9000772E+02  0.7816164E-02  0.1186339E+00
        -11   -1    0    0    0    0  0.00000000000E+00  0.00000000000E+00  0.45593999997E+02  0.45594000000E+02  0.51100000000E-03 0. -1.
         11   -1    0    0    0    0 -0.00000000000E+00 -0.00000000000E+00 -0.45593999997E+02  0.45594000000E+02  0.51100000000E-03 0.  1.
    9900012    2    1    2    0    0  0.10487879510E-02 -0.83011779064E+00  0.83902409431E+00  0.90007721187E+02  0.89999982306E+02 0.  0.
        -12    1    1    2    0    0 -0.10487879510E-02  0.83011779064E+00 -0.83902409431E+00  0.11802788133E+01  0.00000000000E+00 0.  1.
         11    1    3    3    0    0 -0.27137608678E+00 -0.93937145451E+01  0.25318931621E+01  0.97327283524E+01  0.51100000000E-03 0. -1.
        -11    1    3    3    0    0  0.34831176581E+02 -0.15422593377E+02  0.11670033249E+01  0.38110748425E+02  0.51100000000E-03 0.  1.
         12    1    3    3    0    0 -0.34558751706E+02  0.23986190132E+02 -0.28598723927E+01  0.42164244409E+02  0.00000000000E+00 0. -1.
</event>
<event>
 7    1  0.4359248E-015  0.9000774E+02  0.7816164E-02  0.1186339E+00
        -11   -1    0    0    0    0  0.00000000000E+00  0.00000000000E+00  0.45593999997E+02  0.45594000000E+02  0.51100000000E-03 0.  1.
         11   -1    0    0    0    0 -0.00000000000E+00 -0.00000000000E+00 -0.45593999997E+02  0.45594000000E+02  0.51100000000E-03 0. -1.
    9900012    2    1    2    0    0  0.94372617825E+00  0.54721299390E+00  0.45051343911E+00  0.90007735827E+02  0.89999997140E+02 0.  0.
        -12    1    1    2    0    0 -0.94372617825E+00 -0.54721299390E+00 -0.45051343911E+00  0.11802641734E+01  0.00000000000E+00 0.  1.
         11    1    3    3    0    0  0.24117341781E+02 -0.14488479452E+02 -0.25527739152E+02  0.37989836508E+02  0.51100000000E-03 0. -1.
        -11    1    3    3    0    0 -0.33920480616E+01  0.38712210113E+01 -0.89669011893E+01  0.10339132428E+02  0.51100000000E-03 0.  1.
        -12    1    3    3    0    0 -0.19781567541E+02  0.11164471434E+02  0.34945153780E+02  0.41678766891E+02  0.00000000000E+00 0.  1.
</event>
<event>
 7    1  0.4359248E-015  0.9000780E+02  0.7816164E-02  0.1186339E+00
        -11   -1    0    0    0    0  0.00000000000E+00  0.00000000000E+00  0.45593999997E+02  0.45594000000E+02  0.51100000000E-03 0.  1.
         11   -1    0    0    0    0 -0.00000000000E+00 -0.00000000000E+00 -0.45593999997E+02  0.45594000000E+02  0.51100000000E-03 0. -1.
    9900012    2    1    2    0    0 -0.43531638811E+00  0.68943772220E+00  0.85325222403E+00  0.90007803369E+02  0.90000065573E+02 0.  0.
        -12    1    1    2    0    0  0.43531638811E+00 -0.68943772220E+00 -0.85325222403E+00  0.11801966312E+01  0.00000000000E+00 0.  1.
         11    1    3    3    0    0  0.80950157758E+01  0.60733577793E+01  0.30890457264E+02  0.32505927235E+02  0.51100000000E-03 0. -1.
        -11    1    3    3    0    0  0.10111097074E+02  0.66805061871E+01  0.72368983262E+01  0.14115103422E+02  0.51100000000E-03 0.  1.
         12    1    3    3    0    0 -0.18641429238E+02 -0.12064426244E+02 -0.37274103366E+02  0.43386772713E+02  0.00000000000E+00 0. -1.
</event>
<event>
 7    1  0.4533116E-015  0.9000769E+02  0.7816164E-02  0.1186339E+00
        -11   -1    0    0    0    0  0.00000000000E+00  0.00000000000E+00  0.45593999997E+02  0.45594000000E+02  0.51100000000E-03 0. -1.
         11   -1    0    0    0    0 -0.00000000000E+00 -0.00000000000E+00 -0.45593999997E+02  0.45594000000E+02  0.51100000000E-03 0.  1.
    9900012    2    1    2    0    0  0.33825697444E+00  0.96212750807E+00  0.59416053089E+00  0.90007689084E+02  0.89999949780E+02 0.  0.
        -12    1    1    2    0    0 -0.33825697444E+00 -0.96212750807E+00 -0.59416053089E+00  0.11803109162E+01  0.00000000000E+00 0.  1.
         11    1    3    3    0    0 -0.57187021877E+01  0.75497897509E+01  0.21558413841E+01  0.97134202179E+01  0.51100000000E-03 0. -1.
        -11    1    3    3    0    0 -0.67112051515E+01  0.23479907108E+02 -0.28801579185E+02  0.37760790196E+02  0.51100000000E-03 0.  1.
         12    1    3    3    0    0  0.12768164314E+02 -0.30067569351E+02  0.27239898332E+02  0.42533478670E+02  0.00000000000E+00 0. -1.
</event>
<event>
 7    1  0.4359248E-015  0.9000778E+02  0.7816164E-02  0.1186339E+00
        -11   -1    0    0    0    0  0.00000000000E+00  0.00000000000E+00  0.45593999997E+02  0.45594000000E+02  0.51100000000E-03 0.  1.
         11   -1    0    0    0    0 -0.00000000000E+00 -0.00000000000E+00 -0.45593999997E+02  0.45594000000E+02  0.51100000000E-03 0. -1.
    9900012    2    1    2    0    0 -0.92937940350E+00  0.42381254261E-01 -0.72621032876E+00  0.90007778119E+02  0.90000039990E+02 0.  0.
        -12    1    1    2    0    0  0.92937940350E+00 -0.42381254261E-01  0.72621032876E+00  0.11802218808E+01  0.00000000000E+00 0.  1.
         11    1    3    3    0    0  0.13628462634E+02  0.14025808336E+02 -0.39849372636E+01  0.19958407213E+02  0.51100000000E-03 0. -1.
        -11    1    3    3    0    0  0.23220884102E+02  0.42623275466E+01  0.13039332457E+02  0.26970374224E+02  0.51100000000E-03 0.  1.
        -12    1    3    3    0    0 -0.37778726140E+02 -0.18245754628E+02 -0.97806055224E+01  0.43078996682E+02  0.00000000000E+00 0.  1.
</event>
<event>
 7    1  0.4359248E-015  0.9000771E+02  0.7816164E-02  0.1186339E+00
        -11   -1    0    0    0    0  0.00000000000E+00  0.00000000000E+00  0.45593999997E+02  0.45594000000E+02  0.51100000000E-03 0. -1.
         11   -1    0    0    0    0 -0.00000000000E+00 -0.00000000000E+00 -0.45593999997E+02  0.45594000000E+02  0.51100000000E-03 0.  1.
    9900012    2    1    2    0    0  0.11702715292E+01 -0.14186034644E+00  0.58558071316E-01  0.90007708147E+02  0.89999969095E+02 0.  0.
        -12    1    1    2    0    0 -0.11702715292E+01  0.14186034644E+00 -0.58558071316E-01  0.11802918527E+01  0.00000000000E+00 0.  1.
         11    1    3    3    0    0 -0.84514818995E+01 -0.18424894287E+02  0.29901610952E+02  0.36124930638E+02  0.51100000000E-03 0. -1.
        -11    1    3    3    0    0 -0.93480250492E+01 -0.47482854569E+01  0.15192653195E+01  0.10594335962E+02  0.51100000000E-03 0.  1.
        -12    1    3    3    0    0  0.18969778478E+02  0.23031319398E+02 -0.31362318200E+02  0.43288441547E+02  0.00000000000E+00 0.  1.
</event>
<event>
 7    1  0.4359248E-015  0.9000830E+02  0.7816164E-02  0.1186338E+00
        -11   -1    0    0    0    0  0.00000000000E+00  0.00000000000E+00  0.45593999997E+02  0.45594000000E+02  0.51100000000E-03 0.  1.
         11   -1    0    0    0    0 -0.00000000000E+00 -0.00000000000E+00 -0.45593999997E+02  0.45594000000E+02  0.51100000000E-03 0. -1.
    9900012    2    1    2    0    0 -0.33132966532E+00  0.28267579749E+00 -0.10963624857E+01  0.90008298490E+02  0.90000567228E+02 0.  0.
        -12    1    1    2    0    0  0.33132966532E+00 -0.28267579749E+00  0.10963624857E+01  0.11797015104E+01  0.00000000000E+00 0.  1.
         11    1    3    3    0    0  0.52263607437E+01  0.14922802434E+01  0.80063234073E+01  0.96769293535E+01  0.51100000000E-03 0. -1.
        -11    1    3    3    0    0 -0.29516632227E+02 -0.17170376314E+02  0.19853491853E+02  0.39499551134E+02  0.51100000000E-03 0.  1.
         12    1    3    3    0    0  0.23958941818E+02  0.15960771868E+02 -0.28956177746E+02  0.40831818002E+02  0.00000000000E+00 0. -1.
</event>
<event>
 7    1  0.4359248E-015  0.9000775E+02  0.7816164E-02  0.1186339E+00
        -11   -1    0    0    0    0  0.00000000000E+00  0.00000000000E+00  0.45593999997E+02  0.45594000000E+02  0.51100000000E-03 0.  1.
         11   -1    0    0    0    0 -0.00000000000E+00 -0.00000000000E+00 -0.45593999997E+02  0.45594000000E+02  0.51100000000E-03 0. -1.
    9900012    2    1    2    0    0  0.23462859490E+00  0.42248578559E+00 -0.10767784842E+01  0.90007747179E+02  0.90000008642E+02 0.  0.
        -12    1    1    2    0    0 -0.23462859490E+00 -0.42248578559E+00  0.10767784842E+01  0.11802528206E+01  0.00000000000E+00 0.  1.
         11    1    3    3    0    0 -0.78808552664E+01 -0.62716493214E+01  0.19271592997E+02  0.21744787004E+02  0.51100000000E-03 0. -1.
        -11    1    3    3    0    0 -0.18677208405E+02  0.16792348861E+02  0.95455288643E+01  0.26868907973E+02  0.51100000000E-03 0.  1.
         12    1    3    3    0    0  0.26792692266E+02 -0.10098213754E+02 -0.29893900345E+02  0.41394052203E+02  0.00000000000E+00 0. -1.
</event>
<event>
 7    1  0.4359248E-015  0.9000780E+02  0.7816164E-02  0.1186339E+00
        -11   -1    0    0    0    0  0.00000000000E+00  0.00000000000E+00  0.45593999997E+02  0.45594000000E+02  0.51100000000E-03 0.  1.
         11   -1    0    0    0    0 -0.00000000000E+00 -0.00000000000E+00 -0.45593999997E+02  0.45594000000E+02  0.51100000000E-03 0. -1.
    9900012    2    1    2    0    0  0.53710378353E+00  0.66009613157E+00  0.81772261629E+00  0.90007797621E+02  0.90000059750E+02 0.  0.
        -12    1    1    2    0    0 -0.53710378353E+00 -0.66009613157E+00 -0.81772261629E+00  0.11802023786E+01  0.00000000000E+00 0.  1.
         11    1    3    3    0    0 -0.48299003612E+01  0.44235535754E+01  0.44627046019E+01  0.79253704240E+01  0.51100000000E-03 0. -1.
        -11    1    3    3    0    0  0.26186755799E+02  0.44941291066E+01  0.30999887934E+02  0.40828132799E+02  0.51100000000E-03 0.  1.
         12    1    3    3    0    0 -0.20819751654E+02 -0.82575865504E+01 -0.34644869919E+02  0.41254294398E+02  0.00000000000E+00 0. -1.
</event>
<event>
 7    1  0.4359248E-015  0.9000773E+02  0.7816164E-02  0.1186339E+00
        -11   -1    0    0    0    0  0.00000000000E+00  0.00000000000E+00  0.45593999997E+02  0.45594000000E+02  0.51100000000E-03 0.  1.
         11   -1    0    0    0    0 -0.00000000000E+00 -0.00000000000E+00 -0.45593999997E+02  0.45594000000E+02  0.51100000000E-03 0. -1.
    9900012    2    1    2    0    0  0.99567472661E+00 -0.19361608629E+00  0.60347097738E+00  0.90007731992E+02  0.89999993254E+02 0.  0.
        -12    1    1    2    0    0 -0.99567472661E+00  0.19361608629E+00 -0.60347097738E+00  0.11802680080E+01  0.00000000000E+00 0.  1.
         11    1    3    3    0    0  0.72200851781E+01  0.52570153473E+01  0.24328404067E+01  0.92565951108E+01  0.51100000000E-03 0. -1.
        -11    1    3    3    0    0  0.35585190932E+02 -0.14348118936E+01  0.10226268782E+02  0.37053219459E+02  0.51100000000E-03 0.  1.
         12    1    3    3    0    0 -0.41809601383E+02 -0.40158195400E+01 -0.12055638211E+02  0.43697917422E+02  0.00000000000E+00 0. -1.
</event>
<event>
 7    1  0.4359248E-015  0.9000776E+02  0.7816164E-02  0.1186339E+00
        -11   -1    0    0    0    0  0.00000000000E+00  0.00000000000E+00  0.45593999997E+02  0.45594000000E+02  0.51100000000E-03 0.  1.
         11   -1    0    0    0    0 -0.00000000000E+00 -0.00000000000E+00 -0.45593999997E+02  0.45594000000E+02  0.51100000000E-03 0. -1.
    9900012    2    1    2    0    0 -0.24322871695E+00  0.83742217501E-01 -0.11518633362E+01  0.90007761841E+02  0.90000023497E+02 0.  0.
        -12    1    1    2    0    0  0.24322871695E+00 -0.83742217501E-01  0.11518633362E+01  0.11802381594E+01  0.00000000000E+00 0.  1.
         11    1    3    3    0    0 -0.23919539371E+02 -0.13278943704E+02  0.14321098637E+02  0.30879905700E+02  0.51100000000E-03 0. -1.
        -11    1    3    3    0    0 -0.78748597382E+01 -0.12143102518E+02  0.26146937473E+01  0.14707310370E+02  0.51100000000E-03 0.  1.
        -12    1    3    3    0    0  0.31551170392E+02  0.25505788440E+02 -0.18087655720E+02  0.44420545770E+02  0.00000000000E+00 0.  1.
</event>
<event>
 7    1  0.4359248E-015  0.9000770E+02  0.7816164E-02  0.1186339E+00
        -11   -1    0    0    0    0  0.00000000000E+00  0.00000000000E+00  0.45593999997E+02  0.45594000000E+02  0.51100000000E-03 0.  1.
         11   -1    0    0    0    0 -0.00000000000E+00 -0.00000000000E+00 -0.45593999997E+02  0.45594000000E+02  0.51100000000E-03 0. -1.
    9900012    2    1    2    0    0  0.71011119226E+00  0.46531897940E-01 -0.94163433963E+00  0.90007704125E+02  0.89999965019E+02 0.  0.
        -12    1    1    2    0    0 -0.71011119226E+00 -0.46531897940E-01  0.94163433963E+00  0.11802958750E+01  0.00000000000E+00 0.  1.
         11    1    3    3    0    0  0.66778739249E+01 -0.29345121199E+01  0.64047976594E+01  0.97070487202E+01  0.51100000000E-03 0. -1.
        -11    1    3    3    0    0 -0.14728594038E+02  0.31220528845E+02  0.20110376149E+02  0.39950971613E+02  0.51100000000E-03 0.  1.
         12    1    3    3    0    0  0.87608313050E+01 -0.28239484827E+02 -0.27456808148E+02  0.40349683792E+02  0.00000000000E+00 0. -1.
</event>
<event>
 7    1  0.4359248E-015  0.9000743E+02  0.7816164E-02  0.1186340E+00
        -11   -1    0    0    0    0  0.00000000000E+00  0.00000000000E+00  0.45593999997E+02  0.45594000000E+02  0.51100000000E-03 0. -1.
         11   -1    0    0    0    0 -0.00000000000E+00 -0.00000000000E+00 -0.45593999997E+02  0.45594000000E+02  0.51100000000E-03 0.  1.
    9900012    2    1    2    0    0 -0.78233156641E+00 -0.16670782077E+00  0.86828138236E+00  0.90007429487E+02  0.89999686756E+02 0.  0.
        -12    1    1    2    0    0  0.78233156641E+00  0.16670782077E+00 -0.86828138236E+00  0.11805705130E+01  0.00000000000E+00 0.  1.
         11    1    3    3    0    0  0.43842157632E+01 -0.65617641639E+00 -0.12676690536E+02  0.13429460099E+02  0.51100000000E-03 0. -1.
        -11    1    3    3    0    0 -0.12700843894E+02  0.26359920724E+02 -0.18570718469E+02  0.34655857238E+02  0.51100000000E-03 0.  1.
         12    1    3    3    0    0  0.75342965641E+01 -0.25870452128E+02  0.32115690387E+02  0.41922112150E+02  0.00000000000E+00 0. -1.
</event>
<event>
 7    1  0.4359248E-015  0.9000741E+02  0.7816164E-02  0.1186340E+00
        -11   -1    0    0    0    0  0.00000000000E+00  0.00000000000E+00  0.45593999997E+02  0.45594000000E+02  0.51100000000E-03 0. -1.
         11   -1    0    0    0    0 -0.00000000000E+00 -0.00000000000E+00 -0.45593999997E+02  0.45594000000E+02  0.51100000000E-03 0.  1.
    9900012    2    1    2    0    0 -0.40535408611E+00 -0.10029537501E+01  0.47281608261E+00  0.90007414040E+02  0.89999671105E+02 0.  0.
        -12    1    1    2    0    0  0.40535408611E+00  0.10029537501E+01 -0.47281608261E+00  0.11805859596E+01  0.00000000000E+00 0.  1.
         11    1    3    3    0    0 -0.29298934328E+02  0.22529613879E+02  0.66654207632E+01  0.37555810316E+02  0.51100000000E-03 0. -1.
        -11    1    3    3    0    0 -0.55675539386E+01 -0.89443603285E-01 -0.91029807344E+01  0.10670984750E+02  0.51100000000E-03 0.  1.
        -12    1    3    3    0    0  0.34461134180E+02 -0.23443124026E+02  0.29103760538E+01  0.41780618974E+02  0.00000000000E+00 0.  1.
</event>
<event>
 7    1  0.4359248E-015  0.9000767E+02  0.7816164E-02  0.1186339E+00
        -11   -1    0    0    0    0  0.00000000000E+00  0.00000000000E+00  0.45593999997E+02  0.45594000000E+02  0.51100000000E-03 0.  1.
         11   -1    0    0    0    0 -0.00000000000E+00 -0.00000000000E+00 -0.45593999997E+02  0.45594000000E+02  0.51100000000E-03 0. -1.
    9900012    2    1    2    0    0 -0.52961713779E+00 -0.86310792088E+00 -0.60640375462E+00  0.90007671610E+02  0.89999932075E+02 0.  0.
        -12    1    1    2    0    0  0.52961713779E+00  0.86310792088E+00  0.60640375462E+00  0.11803283905E+01  0.00000000000E+00 0.  1.
         11    1    3    3    0    0 -0.85722064851E+01  0.15762610880E+01 -0.44888246524E+01  0.98039211574E+01  0.51100000000E-03 0. -1.
        -11    1    3    3    0    0 -0.25318015093E+02  0.24484587767E+02  0.10666389196E+02  0.36800391101E+02  0.51100000000E-03 0.  1.
         12    1    3    3    0    0  0.33360604441E+02 -0.26923956776E+02 -0.67839682987E+01  0.43403359352E+02  0.00000000000E+00 0. -1.
</event>
<event>
 7    1  0.4359248E-015  0.9000770E+02  0.7816164E-02  0.1186339E+00
        -11   -1    0    0    0    0  0.00000000000E+00  0.00000000000E+00  0.45593999997E+02  0.45594000000E+02  0.51100000000E-03 0. -1.
         11   -1    0    0    0    0 -0.00000000000E+00 -0.00000000000E+00 -0.45593999997E+02  0.45594000000E+02  0.51100000000E-03 0.  1.
    9900012    2    1    2    0    0  0.48359249200E+00  0.51723399614E+00  0.94430976594E+00  0.90007697649E+02  0.89999958458E+02 0.  0.
        -12    1    1    2    0    0 -0.48359249200E+00 -0.51723399614E+00 -0.94430976594E+00  0.11803023507E+01  0.00000000000E+00 0.  1.
         11    1    3    3    0    0 -0.94586554219E+01  0.52676426558E+01  0.37513450527E+00  0.10833048864E+02  0.51100000000E-03 0. -1.
        -11    1    3    3    0    0  0.12577181301E+02 -0.13046951498E+02 -0.36685011460E+02  0.40916970794E+02  0.51100000000E-03 0.  1.
         12    1    3    3    0    0 -0.26349333870E+01  0.82965428381E+01  0.37254186721E+02  0.38257677991E+02  0.00000000000E+00 0. -1.
</event>
<event>
 7    1  0.7368029E-015  0.9000783E+02  0.7816164E-02  0.1186339E+00
        -11   -1    0    0    0    0  0.00000000000E+00  0.00000000000E+00  0.45593999997E+02  0.45594000000E+02  0.51100000000E-03 0. -1.
         11   -1    0    0    0    0 -0.00000000000E+00 -0.00000000000E+00 -0.45593999997E+02  0.45594000000E+02  0.51100000000E-03 0.  1.
    9900012    2    1    2    0    0 -0.17324785174E+00  0.39135719889E+00  0.10998327238E+01  0.90007827430E+02  0.90000089952E+02 0.  0.
        -12    1    1    2    0    0  0.17324785174E+00 -0.39135719889E+00 -0.10998327238E+01  0.11801725703E+01  0.00000000000E+00 0.  1.
         11    1    3    3    0    0  0.50400107380E+01 -0.36748165632E+01  0.71366531349E+01  0.94782806057E+01  0.51100000000E-03 0. -1.
        -11    1    3    3    0    0  0.15793645951E+02 -0.98714868108E+01 -0.36506316921E+02  0.40982882765E+02  0.51100000000E-03 0.  1.
         12    1    3    3    0    0 -0.21006904541E+02  0.13937660573E+02  0.30469496510E+02  0.39546664059E+02  0.00000000000E+00 0. -1.
</event>
<event>
 7    1  0.4359248E-015  0.9000782E+02  0.7816164E-02  0.1186339E+00
        -11   -1    0    0    0    0  0.00000000000E+00  0.00000000000E+00  0.45593999997E+02  0.45594000000E+02  0.51100000000E-03 0.  1.
         11   -1    0    0    0    0 -0.00000000000E+00 -0.00000000000E+00 -0.45593999997E+02  0.45594000000E+02  0.51100000000E-03 0. -1.
    9900012    2    1    2    0    0  0.27478764731E+00  0.92283031328E+00 -0.68241905571E+00  0.90007822130E+02  0.90000084582E+02 0.  0.
        -12    1    1    2    0    0 -0.27478764731E+00 -0.92283031328E+00  0.68241905571E+00  0.11801778704E+01  0.00000000000E+00 0.  1.
         11    1    3    3    0    0  0.36267925774E+02 -0.57593955291E+01 -0.79346947101E+01  0.37569834405E+02  0.51100000000E-03 0. -1.
        -11    1    3    3    0    0  0.14694476503E+00 -0.88574522551E+01 -0.62549013281E+01  0.10844346181E+02  0.51100000000E-03 0.  1.
        -12    1    3    3    0    0 -0.36140082892E+02  0.15539678097E+02  0.13507176982E+02  0.41593641543E+02  0.00000000000E+00 0.  1.
</event>
<event>
 7    1  0.4359248E-015  0.9000754E+02  0.7816164E-02  0.1186339E+00
        -11   -1    0    0    0    0  0.00000000000E+00  0.00000000000E+00  0.45593999997E+02  0.45594000000E+02  0.51100000000E-03 0.  1.
         11   -1    0    0    0    0 -0.00000000000E+00 -0.00000000000E+00 -0.45593999997E+02  0.45594000000E+02  0.51100000000E-03 0. -1.
    9900012    2    1    2    0    0 -0.70533724308E-01  0.11441789211E+01 -0.28173572302E+00  0.90007535927E+02  0.89999794601E+02 0.  0.
        -12    1    1    2    0    0  0.70533724308E-01 -0.11441789211E+01  0.28173572302E+00  0.11804640729E+01  0.00000000000E+00 0.  1.
         11    1    3    3    0    0 -0.33859277437E+02 -0.78871330499E+01 -0.20293857958E+02  0.40255412150E+02  0.51100000000E-03 0. -1.
        -11    1    3    3    0    0  0.25093770842E+00  0.96576930934E+01 -0.16795245085E+01  0.98058558248E+01  0.51100000000E-03 0.  1.
        -12    1    3    3    0    0  0.33537806004E+02 -0.62638112235E+00  0.21691646743E+02  0.39946267952E+02  0.00000000000E+00 0.  1.
</event>
<event>
 7    1  0.4359248E-015  0.9000760E+02  0.7816164E-02  0.1186339E+00
        -11   -1    0    0    0    0  0.00000000000E+00  0.00000000000E+00  0.45593999997E+02  0.45594000000E+02  0.51100000000E-03 0.  1.
         11   -1    0    0    0    0 -0.00000000000E+00 -0.00000000000E+00 -0.45593999997E+02  0.45594000000E+02  0.51100000000E-03 0. -1.
    9900012    2    1    2    0    0  0.86530103150E+00  0.18307330807E+00 -0.78171792499E+00  0.90007599803E+02  0.89999859320E+02 0.  0.
        -12    1    1    2    0    0 -0.86530103150E+00 -0.18307330807E+00  0.78171792499E+00  0.11804001972E+01  0.00000000000E+00 0.  1.
         11    1    3    3    0    0  0.13284837379E+02 -0.68330372530E+01 -0.12159654756E-01  0.14939124820E+02  0.51100000000E-03 0. -1.
        -11    1    3    3    0    0 -0.10290813151E+02 -0.23164433147E+02 -0.25527574430E+02  0.35974280463E+02  0.51100000000E-03 0.  1.
         12    1    3    3    0    0 -0.21287231958E+01  0.30180543708E+02  0.24758016160E+02  0.39094194519E+02  0.00000000000E+00 0. -1.
</event>
<event>
 7    1  0.4359248E-015  0.9000802E+02  0.7816164E-02  0.1186338E+00
        -11   -1    0    0    0    0  0.00000000000E+00  0.00000000000E+00  0.45593999997E+02  0.45594000000E+02  0.51100000000E-03 0. -1.
         11   -1    0    0    0    0 -0.00000000000E+00 -0.00000000000E+00 -0.45593999997E+02  0.45594000000E+02  0.51100000000E-03 0.  1.
    9900012    2    1    2    0    0 -0.88816572353E+00  0.34500242495E+00  0.69605057023E+00  0.90008020584E+02  0.90000285655E+02 0.  0.
        -12    1    1    2    0    0  0.88816572353E+00 -0.34500242495E+00 -0.69605057023E+00  0.11799794159E+01  0.00000000000E+00 0.  1.
         11    1    3    3    0    0 -0.11617404330E+02 -0.28812932432E+02 -0.20590329103E+02  0.37270776910E+02  0.51100000000E-03 0. -1.
        -11    1    3    3    0    0  0.22389272675E+01 -0.89133194730E+01  0.30952024828E+01  0.96974397656E+01  0.51100000000E-03 0.  1.
        -12    1    3    3    0    0  0.84903113386E+01  0.38071254330E+02  0.18191177191E+02  0.43039803908E+02  0.00000000000E+00 0.  1.
</event>
<event>
 7    1  0.4359248E-015  0.9000773E+02  0.7816164E-02  0.1186339E+00
        -11   -1    0    0    0    0  0.00000000000E+00  0.00000000000E+00  0.45593999997E+02  0.45594000000E+02  0.51100000000E-03 0.  1.
         11   -1    0    0    0    0 -0.00000000000E+00 -0.00000000000E+00 -0.45593999997E+02  0.45594000000E+02  0.51100000000E-03 0. -1.
    9900012    2    1    2    0    0 -0.92169833637E+00  0.22427836095E+00 -0.70228589235E+00  0.90007731352E+02  0.89999992606E+02 0.  0.
        -12    1    1    2    0    0  0.92169833637E+00 -0.22427836095E+00  0.70228589235E+00  0.11802686478E+01  0.00000000000E+00 0.  1.
         11    1    3    3    0    0  0.34853691846E+02 -0.18219745058E+02 -0.57991606524E+01  0.39753857798E+02  0.51100000000E-03 0. -1.
        -11    1    3    3    0    0  0.22675472092E+01  0.10546932476E+02  0.35940558582E+01  0.11370874759E+02  0.51100000000E-03 0.  1.
        -12    1    3    3    0    0 -0.38042937391E+02  0.78970909431E+01  0.15028189018E+01  0.38882998796E+02  0.00000000000E+00 0.  1.
</event>
<event>
 7    1  0.4639468E-015  0.9000771E+02  0.7816164E-02  0.1186339E+00
        -11   -1    0    0    0    0  0.00000000000E+00  0.00000000000E+00  0.45593999997E+02  0.45594000000E+02  0.51100000000E-03 0. -1.
         11   -1    0    0    0    0 -0.00000000000E+00 -0.00000000000E+00 -0.45593999997E+02  0.45594000000E+02  0.51100000000E-03 0.  1.
    9900012    2    1    2    0    0  0.87822350989E+00  0.63601548280E+00  0.46613760073E+00  0.90007713386E+02  0.89999974403E+02 0.  0.
        -12    1    1    2    0    0 -0.87822350989E+00 -0.63601548280E+00 -0.46613760073E+00  0.11802866137E+01  0.00000000000E+00 0.  1.
         11    1    3    3    0    0  0.27581256663E+02  0.11500857366E+02  0.28979219043E+02  0.41626801173E+02  0.51100000000E-03 0. -1.
        -11    1    3    3    0    0 -0.49179078207E+01 -0.68833254325E+01  0.37458286083E+01  0.92518764889E+01  0.51100000000E-03 0.  1.
        -12    1    3    3    0    0 -0.21785125333E+02 -0.39815164509E+01 -0.32258910051E+02  0.39129035724E+02  0.00000000000E+00 0.  1.
</event>
<event>
 7    1  0.4359248E-015  0.9000775E+02  0.7816164E-02  0.1186339E+00
        -11   -1    0    0    0    0  0.00000000000E+00  0.00000000000E+00  0.45593999997E+02  0.45594000000E+02  0.51100000000E-03 0.  1.
         11   -1    0    0    0    0 -0.00000000000E+00 -0.00000000000E+00 -0.45593999997E+02  0.45594000000E+02  0.51100000000E-03 0. -1.
    9900012    2    1    2    0    0 -0.28953154056E+00  0.28648239352E+00 -0.11077444514E+01  0.90007746449E+02  0.90000007902E+02 0.  0.
        -12    1    1    2    0    0  0.28953154056E+00 -0.28648239352E+00  0.11077444514E+01  0.11802535509E+01  0.00000000000E+00 0.  1.
         11    1    3    3    0    0  0.67825950526E+01 -0.65855469642E+01 -0.39298703455E+00  0.94618953458E+01  0.51100000000E-03 0. -1.
        -11    1    3    3    0    0  0.22732701925E+01  0.58700552914E+01  0.39116967111E+02  0.39620227444E+02  0.51100000000E-03 0.  1.
         12    1    3    3    0    0 -0.93453967856E+01  0.10019740664E+01 -0.39831724527E+02  0.40925623660E+02  0.00000000000E+00 0. -1.
</event>
<event>
 7    1  0.4359248E-015  0.9000790E+02  0.7816164E-02  0.1186339E+00
        -11   -1    0    0    0    0  0.00000000000E+00  0.00000000000E+00  0.45593999997E+02  0.45594000000E+02  0.51100000000E-03 0. -1.
         11   -1    0    0    0    0 -0.00000000000E+00 -0.00000000000E+00 -0.45593999997E+02  0.45594000000E+02  0.51100000000E-03 0.  1.
    9900012    2    1    2    0    0 -0.21416280264E+00  0.64179304979E+00  0.96688905410E+00  0.90007898959E+02  0.90000162425E+02 0.  0.
        -12    1    1    2    0    0  0.21416280264E+00 -0.64179304979E+00 -0.96688905410E+00  0.11801010413E+01  0.00000000000E+00 0.  1.
         11    1    3    3    0    0 -0.17998144606E+01  0.45743761105E+01 -0.72672891483E+01  0.87736959555E+01  0.51100000000E-03 0. -1.
        -11    1    3    3    0    0  0.35094076323E+02 -0.22766423464E+02 -0.41756193260E+00  0.41833940628E+02  0.51100000000E-03 0.  1.
         12    1    3    3    0    0 -0.33508424665E+02  0.18833840403E+02  0.86517401350E+01  0.39400262375E+02  0.00000000000E+00 0. -1.
</event>
<event>
 7    1  0.4359248E-015  0.9000774E+02  0.7816164E-02  0.1186339E+00
        -11   -1    0    0    0    0  0.00000000000E+00  0.00000000000E+00  0.45593999997E+02  0.45594000000E+02  0.51100000000E-03 0.  1.
         11   -1    0    0    0    0 -0.00000000000E+00 -0.00000000000E+00 -0.45593999997E+02  0.45594000000E+02  0.51100000000E-03 0. -1.
    9900012    2    1    2    0    0 -0.13214364790E+00 -0.48433056278E+00 -0.10681648055E+01  0.90007739821E+02  0.90000001187E+02 0.  0.
        -12    1    1    2    0    0  0.13214364790E+00  0.48433056278E+00  0.10681648055E+01  0.11802601787E+01  0.00000000000E+00 0.  1.
         11    1    3    3    0    0 -0.20010321800E+02  0.19756939829E+02  0.19245859931E+02  0.34075691844E+02  0.51100000000E-03 0. -1.
        -11    1    3    3    0    0  0.86314366394E+00  0.11093354326E+01  0.12403324123E+02  0.12482711710E+02  0.51100000000E-03 0.  1.
        -12    1    3    3    0    0  0.19015034488E+02 -0.21350605824E+02 -0.32717348859E+02  0.43449336267E+02  0.00000000000E+00 0.  1.
</event>
<event>
 7    1  0.4359248E-015  0.9000779E+02  0.7816164E-02  0.1186339E+00
        -11   -1    0    0    0    0  0.00000000000E+00  0.00000000000E+00  0.45593999997E+02  0.45594000000E+02  0.51100000000E-03 0. -1.
         11   -1    0    0    0    0 -0.00000000000E+00 -0.00000000000E+00 -0.45593999997E+02  0.45594000000E+02  0.51100000000E-03 0.  1.
    9900012    2    1    2    0    0 -0.11407318162E+01  0.47640261343E-01  0.29891169447E+00  0.90007793716E+02  0.90000055793E+02 0.  0.
        -12    1    1    2    0    0  0.11407318162E+01 -0.47640261343E-01 -0.29891169447E+00  0.11802062837E+01  0.00000000000E+00 0.  1.
         11    1    3    3    0    0  0.68355760256E+01  0.66537874616E+01 -0.43815283393E+01  0.10497417684E+02  0.51100000000E-03 0. -1.
        -11    1    3    3    0    0 -0.42543485864E+02  0.41341601745E+01 -0.15925992007E+01  0.42773541381E+02  0.51100000000E-03 0.  1.
         12    1    3    3    0    0  0.34567178022E+02 -0.10740307375E+02  0.62730392345E+01  0.36736834651E+02  0.00000000000E+00 0. -1.
</event>
<event>
 7    1  0.4359248E-015  0.9000777E+02  0.7816164E-02  0.1186339E+00
        -11   -1    0    0    0    0  0.00000000000E+00  0.00000000000E+00  0.45593999997E+02  0.45594000000E+02  0.51100000000E-03 0.  1.
         11   -1    0    0    0    0 -0.00000000000E+00 -0.00000000000E+00 -0.45593999997E+02  0.45594000000E+02  0.51100000000E-03 0. -1.
    9900012    2    1    2    0    0 -0.50619047749E+00  0.63027546684E+00  0.85991966526E+00  0.90007772143E+02  0.90000033935E+02 0.  0.
        -12    1    1    2    0    0  0.50619047749E+00 -0.63027546684E+00 -0.85991966526E+00  0.11802278569E+01  0.00000000000E+00 0.  1.
         11    1    3    3    0    0  0.27529537911E+01 -0.81169865165E+01  0.28112811357E+01  0.90203950341E+01  0.51100000000E-03 0. -1.
        -11    1    3    3    0    0 -0.37299860419E+02  0.25052983262E+01  0.17511176522E+02  0.41281925954E+02  0.51100000000E-03 0.  1.
         12    1    3    3    0    0  0.34040716150E+02  0.62419636572E+01 -0.19462537993E+02  0.39705451155E+02  0.00000000000E+00 0. -1.
</event>
<event>
 7    1  0.4359248E-015  0.9000842E+02  0.7816164E-02  0.1186338E+00
        -11   -1    0    0    0    0  0.00000000000E+00  0.00000000000E+00  0.45593999997E+02  0.45594000000E+02  0.51100000000E-03 0.  1.
         11   -1    0    0    0    0 -0.00000000000E+00 -0.00000000000E+00 -0.45593999997E+02  0.45594000000E+02  0.51100000000E-03 0. -1.
    9900012    2    1    2    0    0  0.43885993882E+00 -0.77380820252E+00 -0.77462306241E+00  0.90008416146E+02  0.90000686436E+02 0.  0.
        -12    1    1    2    0    0 -0.43885993882E+00  0.77380820252E+00  0.77462306241E+00  0.11795838542E+01  0.00000000000E+00 0.  1.
         11    1    3    3    0    0 -0.61740119111E+00 -0.16474955005E+02 -0.28461590394E+02  0.32891753597E+02  0.51100000000E-03 0. -1.
        -11    1    3    3    0    0  0.44142086685E+01 -0.98423651589E+01 -0.77657658147E+01  0.13291520193E+02  0.51100000000E-03 0.  1.
        -12    1    3    3    0    0 -0.33579475386E+01  0.25543511962E+02  0.35452733146E+02  0.43825142356E+02  0.00000000000E+00 0.  1.
</event>
<event>
 7    1  0.4359248E-015  0.9000769E+02  0.7816164E-02  0.1186339E+00
        -11   -1    0    0    0    0  0.00000000000E+00  0.00000000000E+00  0.45593999997E+02  0.45594000000E+02  0.51100000000E-03 0. -1.
         11   -1    0    0    0    0 -0.00000000000E+00 -0.00000000000E+00 -0.45593999997E+02  0.45594000000E+02  0.51100000000E-03 0.  1.
    9900012    2    1    2    0    0  0.44976625748E+00 -0.10224841946E+01  0.38127681036E+00  0.90007688337E+02  0.89999949023E+02 0.  0.
        -12    1    1    2    0    0 -0.44976625748E+00  0.10224841946E+01 -0.38127681036E+00  0.11803116626E+01  0.00000000000E+00 0.  1.
         11    1    3    3    0    0 -0.22215687317E+01  0.14319965294E+01 -0.94088166960E+01  0.97730145589E+01  0.51100000000E-03 0. -1.
        -11    1    3    3    0    0  0.13070667686E+02  0.30299379653E+02  0.26216950961E+02  0.42145264017E+02  0.51100000000E-03 0.  1.
         12    1    3    3    0    0 -0.10399332697E+02 -0.32753860377E+02 -0.16426857454E+02  0.38089409762E+02  0.00000000000E+00 0. -1.
</event>
<event>
 7    1  0.4359248E-015  0.9000755E+02  0.7816164E-02  0.1186339E+00
        -11   -1    0    0    0    0  0.00000000000E+00  0.00000000000E+00  0.45593999997E+02  0.45594000000E+02  0.51100000000E-03 0. -1.
         11   -1    0    0    0    0 -0.00000000000E+00 -0.00000000000E+00 -0.45593999997E+02  0.45594000000E+02  0.51100000000E-03 0.  1.
    9900012    2    1    2    0    0 -0.10151719507E+01  0.59694003295E+00  0.80877541341E-01  0.90007554038E+02  0.89999812951E+02 0.  0.
        -12    1    1    2    0    0  0.10151719507E+01 -0.59694003295E+00 -0.80877541341E-01  0.11804459620E+01  0.00000000000E+00 0.  1.
         11    1    3    3    0    0 -0.22901867738E+01 -0.11397370350E+02  0.24359060006E+01  0.11877653163E+02  0.51100000000E-03 0. -1.
        -11    1    3    3    0    0 -0.11634083510E+02  0.28907502757E+02 -0.29993371449E+02  0.43250409777E+02  0.51100000000E-03 0.  1.
         12    1    3    3    0    0  0.12909098333E+02 -0.16913192374E+02  0.27638342990E+02  0.34879491098E+02  0.00000000000E+00 0. -1.
</event>
<event>
 7    1  0.4359248E-015  0.9000769E+02  0.7816164E-02  0.1186339E+00
        -11   -1    0    0    0    0  0.00000000000E+00  0.00000000000E+00  0.45593999997E+02  0.45594000000E+02  0.51100000000E-03 0.  1.
         11   -1    0    0    0    0 -0.00000000000E+00 -0.00000000000E+00 -0.45593999997E+02  0.45594000000E+02  0.51100000000E-03 0. -1.
    9900012    2    1    2    0    0  0.14658672755E-01 -0.54336585144E+00 -0.10477022495E+01  0.90007685919E+02  0.89999946574E+02 0.  0.
        -12    1    1    2    0    0 -0.14658672755E-01  0.54336585144E+00  0.10477022495E+01  0.11803140806E+01  0.00000000000E+00 0.  1.
         11    1    3    3    0    0 -0.88258531882E+00 -0.69042950891E+01 -0.14218152693E+01  0.71042104729E+01  0.51100000000E-03 0. -1.
        -11    1    3    3    0    0  0.10790574248E+02 -0.25239006982E+02  0.28418969436E+02  0.39510527586E+02  0.51100000000E-03 0.  1.
         12    1    3    3    0    0 -0.98933302563E+01  0.31599936220E+02 -0.28044856416E+02  0.43392947861E+02  0.00000000000E+00 0. -1.
</event>
<event>
 7    1  0.4359248E-015  0.9000888E+02  0.7816164E-02  0.1186337E+00
        -11   -1    0    0    0    0  0.00000000000E+00  0.00000000000E+00  0.45593999997E+02  0.45594000000E+02  0.51100000000E-03 0.  1.
         11   -1    0    0    0    0 -0.00000000000E+00 -0.00000000000E+00 -0.45593999997E+02  0.45594000000E+02  0.51100000000E-03 0. -1.
    9900012    2    1    2    0    0  0.10800410451E+01 -0.44064703470E+00  0.17226075451E+00  0.90008876497E+02  0.90001152859E+02 0.  0.
        -12    1    1    2    0    0 -0.10800410451E+01  0.44064703470E+00 -0.17226075451E+00  0.11791235032E+01  0.00000000000E+00 0.  1.
         11    1    3    3    0    0  0.34371390850E+01  0.85825803302E+01 -0.53847169615E+01  0.10699055436E+02  0.51100000000E-03 0. -1.
        -11    1    3    3    0    0 -0.57628795156E+01  0.27787650201E+02  0.24750872314E+02  0.37655941956E+02  0.51100000000E-03 0.  1.
         12    1    3    3    0    0  0.34057814756E+01 -0.36810877566E+02 -0.19193894598E+02  0.41653879105E+02  0.00000000000E+00 0. -1.
</event>
<event>
 7    1  0.4359248E-015  0.9000777E+02  0.7816164E-02  0.1186339E+00
        -11   -1    0    0    0    0  0.00000000000E+00  0.00000000000E+00  0.45593999997E+02  0.45594000000E+02  0.51100000000E-03 0.  1.
         11   -1    0    0    0    0 -0.00000000000E+00 -0.00000000000E+00 -0.45593999997E+02  0.45594000000E+02  0.51100000000E-03 0. -1.
    9900012    2    1    2    0    0  0.32038882378E+00  0.64017453999E+00 -0.93833225867E+00  0.90007771265E+02  0.90000033045E+02 0.  0.
        -12    1    1    2    0    0 -0.32038882378E+00 -0.64017453999E+00  0.93833225867E+00  0.11802287353E+01  0.00000000000E+00 0.  1.
         11    1    3    3    0    0 -0.78559783156E+01  0.25068622855E+01  0.33392798946E+01  0.88967153652E+01  0.51100000000E-03 0. -1.
        -11    1    3    3    0    0  0.16474509477E+02 -0.25021874148E+02  0.27676739887E+02  0.40786095417E+02  0.51100000000E-03 0.  1.
         12    1    3    3    0    0 -0.82981423375E+01  0.23155186402E+02 -0.31954352040E+02  0.40324960482E+02  0.00000000000E+00 0. -1.
</event>
<event>
 7    1  0.4359248E-015  0.9000799E+02  0.7816164E-02  0.1186339E+00
        -11   -1    0    0    0    0  0.00000000000E+00  0.00000000000E+00  0.45593999997E+02  0.45594000000E+02  0.51100000000E-03 0. -1.
         11   -1    0    0    0    0 -0.00000000000E+00 -0.00000000000E+00 -0.45593999997E+02  0.45594000000E+02  0.51100000000E-03 0.  1.
    9900012    2    1    2    0    0  0.89436203680E+00  0.14521795480E+00  0.75594019031E+00  0.90007992679E+02  0.90000257382E+02 0.  0.
        -12    1    1    2    0    0 -0.89436203680E+00 -0.14521795480E+00 -0.75594019031E+00  0.11800073214E+01  0.00000000000E+00 0.  1.
         11    1    3    3    0    0  0.38106560272E+01  0.11032249851E+02  0.35262435027E+02  0.37143922254E+02  0.51100000000E-03 0. -1.
        -11    1    3    3    0    0  0.12859422294E+02  0.47944184669E+01 -0.25983461265E+01  0.13967912980E+02  0.51100000000E-03 0.  1.
        -12    1    3    3    0    0 -0.15775716284E+02 -0.15681450363E+02 -0.31908148710E+02  0.38896157444E+02  0.00000000000E+00 0.  1.
</event>
<event>
 7    1  0.4359248E-015  0.9000768E+02  0.7816164E-02  0.1186339E+00
        -11   -1    0    0    0    0  0.00000000000E+00  0.00000000000E+00  0.45593999997E+02  0.45594000000E+02  0.51100000000E-03 0. -1.
         11   -1    0    0    0    0 -0.00000000000E+00 -0.00000000000E+00 -0.45593999997E+02  0.45594000000E+02  0.51100000000E-03 0.  1.
    9900012    2    1    2    0    0  0.10153578459E+01  0.23870640381E+00 -0.55246497468E+00  0.90007682309E+02  0.89999942916E+02 0.  0.
        -12    1    1    2    0    0 -0.10153578459E+01 -0.23870640381E+00  0.55246497468E+00  0.11803176906E+01  0.00000000000E+00 0.  1.
         11    1    3    3    0    0 -0.82375441240E+01 -0.63732746110E+01 -0.47060797078E+01  0.11429039721E+02  0.51100000000E-03 0. -1.
        -11    1    3    3    0    0  0.12416391694E+02  0.34201187524E+02 -0.20222853939E+02  0.41627536949E+02  0.51100000000E-03 0.  1.
         12    1    3    3    0    0 -0.31634897245E+01 -0.27589206509E+02  0.24376468672E+02  0.36951105639E+02  0.00000000000E+00 0. -1.
</event>
<event>
 7    1  0.4359248E-015  0.9000778E+02  0.7816164E-02  0.1186339E+00
        -11   -1    0    0    0    0  0.00000000000E+00  0.00000000000E+00  0.45593999997E+02  0.45594000000E+02  0.51100000000E-03 0. -1.
         11   -1    0    0    0    0 -0.00000000000E+00 -0.00000000000E+00 -0.45593999997E+02  0.45594000000E+02  0.51100000000E-03 0.  1.
    9900012    2    1    2    0    0  0.45026510204E+00  0.10338719346E+01  0.34825921935E+00  0.90007782087E+02  0.90000044010E+02 0.  0.
        -12    1    1    2    0    0 -0.45026510204E+00 -0.10338719346E+01 -0.34825921935E+00  0.11802179134E+01  0.00000000000E+00 0.  1.
         11    1    3    3    0    0 -0.18879572666E+01  0.33860416092E+01  0.10256357848E+02  0.10964603823E+02  0.51100000000E-03 0. -1.
        -11    1    3    3    0    0 -0.15469891884E+02 -0.28080962069E+02 -0.28286165096E+02  0.42754708767E+02  0.51100000000E-03 0.  1.
         12    1    3    3    0    0  0.17808114253E+02  0.25728792394E+02  0.18378066468E+02  0.36288469497E+02  0.00000000000E+00 0. -1.
</event>
<event>
 7    1  0.4359248E-015  0.9000779E+02  0.7816164E-02  0.1186339E+00
        -11   -1    0    0    0    0  0.00000000000E+00  0.00000000000E+00  0.45593999997E+02  0.45594000000E+02  0.51100000000E-03 0.  1.
         11   -1    0    0    0    0 -0.00000000000E+00 -0.00000000000E+00 -0.45593999997E+02  0.45594000000E+02  0.51100000000E-03 0. -1.
    9900012    2    1    2    0    0  0.50120123614E+00  0.48774121330E+00 -0.95068726066E+00  0.90007787969E+02  0.90000049970E+02 0.  0.
        -12    1    1    2    0    0 -0.50120123614E+00 -0.48774121330E+00  0.95068726066E+00  0.11802120309E+01  0.00000000000E+00 0.  1.
         11    1    3    3    0    0 -0.15686171715E+02 -0.64181264620E+01 -0.62352689768E+01  0.18058984186E+02  0.51100000000E-03 0. -1.
        -11    1    3    3    0    0  0.92801362505E+01 -0.11560095420E+02  0.34014636018E+02  0.37104611555E+02  0.51100000000E-03 0.  1.
         12    1    3    3    0    0  0.69072367004E+01  0.18465963095E+02 -0.28730054302E+02  0.34844192228E+02  0.00000000000E+00 0. -1.
</event>
<event>
 7    1  0.4359248E-015  0.9000779E+02  0.7816164E-02  0.1186339E+00
        -11   -1    0    0    0    0  0.00000000000E+00  0.00000000000E+00  0.45593999997E+02  0.45594000000E+02  0.51100000000E-03 0.  1.
         11   -1    0    0    0    0 -0.00000000000E+00 -0.00000000000E+00 -0.45593999997E+02  0.45594000000E+02  0.51100000000E-03 0. -1.
    9900012    2    1    2    0    0  0.98283468442E+00 -0.23343116811E+00 -0.61028456008E+00  0.90007787574E+02  0.90000049570E+02 0.  0.
        -12    1    1    2    0    0 -0.98283468442E+00  0.23343116811E+00  0.61028456008E+00  0.11802124264E+01  0.00000000000E+00 0.  1.
         11    1    3    3    0    0 -0.71032133820E+01 -0.32185562815E+01 -0.41927190474E+01  0.88540181928E+01  0.51100000000E-03 0. -1.
        -11    1    3    3    0    0 -0.10635903525E+02 -0.27216679749E+02  0.26021557943E+02  0.39127887477E+02  0.51100000000E-03 0.  1.
         12    1    3    3    0    0  0.18721951592E+02  0.30201804862E+02 -0.22439123456E+02  0.42025881904E+02  0.00000000000E+00 0. -1.
</event>
<event>
 7    1  0.4359248E-015  0.9000779E+02  0.7816164E-02  0.1186339E+00
        -11   -1    0    0    0    0  0.00000000000E+00  0.00000000000E+00  0.45593999997E+02  0.45594000000E+02  0.51100000000E-03 0.  1.
         11   -1    0    0    0    0 -0.00000000000E+00 -0.00000000000E+00 -0.45593999997E+02  0.45594000000E+02  0.51100000000E-03 0. -1.
    9900012    2    1    2    0    0 -0.11457660193E+01 -0.22151355081E+00 -0.17620580785E+00  0.90007789633E+02  0.90000051656E+02 0.  0.
        -12    1    1    2    0    0  0.11457660193E+01  0.22151355081E+00  0.17620580785E+00  0.11802103672E+01  0.00000000000E+00 0.  1.
         11    1    3    3    0    0  0.33452807637E+02  0.91549560114E+01 -0.25746016876E+02  0.43194455010E+02  0.51100000000E-03 0. -1.
        -11    1    3    3    0    0 -0.13863217791E+01  0.29480752008E+00  0.77935889615E+01  0.79214158275E+01  0.51100000000E-03 0.  1.
        -12    1    3    3    0    0 -0.33212251878E+02 -0.96712770823E+01  0.17776222107E+02  0.38891918795E+02  0.00000000000E+00 0.  1.
</event>
<event>
 7    1  0.4359248E-015  0.9000793E+02  0.7816164E-02  0.1186339E+00
        -11   -1    0    0    0    0  0.00000000000E+00  0.00000000000E+00  0.45593999997E+02  0.45594000000E+02  0.51100000000E-03 0.  1.
         11   -1    0    0    0    0 -0.00000000000E+00 -0.00000000000E+00 -0.45593999997E+02  0.45594000000E+02  0.51100000000E-03 0. -1.
    9900012    2    1    2    0    0 -0.10250799403E+01 -0.23273284846E-02 -0.58461772930E+00  0.90007927040E+02  0.90000190877E+02 0.  0.
        -12    1    1    2    0    0  0.10250799403E+01  0.23273284846E-02  0.58461772930E+00  0.11800729595E+01  0.00000000000E+00 0.  1.
         11    1    3    3    0    0 -0.37371464430E+02  0.12074315621E+02 -0.73159237252E+01  0.39949195131E+02  0.51100000000E-03 0. -1.
        -11    1    3    3    0    0  0.20642526378E+01  0.87014558730E+01 -0.16776131670E+01  0.90989482613E+01  0.51100000000E-03 0.  1.
        -12    1    3    3    0    0  0.34282131852E+02 -0.20778098823E+02  0.84089191628E+01  0.40959783648E+02  0.00000000000E+00 0.  1.
</event>
<event>
 7    1  0.4359248E-015  0.9000776E+02  0.7816164E-02  0.1186339E+00
        -11   -1    0    0    0    0  0.00000000000E+00  0.00000000000E+00  0.45593999997E+02  0.45594000000E+02  0.51100000000E-03 0. -1.
         11   -1    0    0    0    0 -0.00000000000E+00 -0.00000000000E+00 -0.45593999997E+02  0.45594000000E+02  0.51100000000E-03 0.  1.
    9900012    2    1    2    0    0  0.58513860898E+00  0.33238869268E+00  0.96958709929E+00  0.90007759102E+02  0.90000020722E+02 0.  0.
        -12    1    1    2    0    0 -0.58513860898E+00 -0.33238869268E+00 -0.96958709929E+00  0.11802408982E+01  0.00000000000E+00 0.  1.
         11    1    3    3    0    0  0.56414893440E+01  0.34079494719E+01 -0.15046377750E+01  0.67605071346E+01  0.51100000000E-03 0. -1.
        -11    1    3    3    0    0  0.15806074423E+02  0.69292264106E+01 -0.35104146771E+02  0.39117097133E+02  0.51100000000E-03 0.  1.
         12    1    3    3    0    0 -0.20862425158E+02 -0.10004787190E+02  0.37578371646E+02  0.44130154834E+02  0.00000000000E+00 0. -1.
</event>
<event>
 7    1  0.4359248E-015  0.9000755E+02  0.7816164E-02  0.1186339E+00
        -11   -1    0    0    0    0  0.00000000000E+00  0.00000000000E+00  0.45593999997E+02  0.45594000000E+02  0.51100000000E-03 0.  1.
         11   -1    0    0    0    0 -0.00000000000E+00 -0.00000000000E+00 -0.45593999997E+02  0.45594000000E+02  0.51100000000E-03 0. -1.
    9900012    2    1    2    0    0  0.28608084592E+00  0.11431036752E+01  0.70165716520E-01  0.90007554537E+02  0.89999813457E+02 0.  0.
        -12    1    1    2    0    0 -0.28608084592E+00 -0.11431036752E+01 -0.70165716520E-01  0.11804454627E+01  0.00000000000E+00 0.  1.
         11    1    3    3    0    0  0.20100386845E+00  0.11908196337E+02  0.66600684833E+01  0.13645587383E+02  0.51100000000E-03 0. -1.
        -11    1    3    3    0    0  0.34860897224E+02 -0.18615625515E+02  0.24075924548E+01  0.39593183381E+02  0.51100000000E-03 0.  1.
         12    1    3    3    0    0 -0.34775820247E+02  0.78505328528E+01 -0.89974952216E+01  0.36768783773E+02  0.00000000000E+00 0. -1.
</event>
<event>
 7    1  0.4359248E-015  0.9000761E+02  0.7816164E-02  0.1186339E+00
        -11   -1    0    0    0    0  0.00000000000E+00  0.00000000000E+00  0.45593999997E+02  0.45594000000E+02  0.51100000000E-03 0.  1.
         11   -1    0    0    0    0 -0.00000000000E+00 -0.00000000000E+00 -0.45593999997E+02  0.45594000000E+02  0.51100000000E-03 0. -1.
    9900012    2    1    2    0    0 -0.87700733366E+00 -0.74745304751E+00 -0.25591385471E+00  0.90007610309E+02  0.89999869965E+02 0.  0.
        -12    1    1    2    0    0  0.87700733366E+00  0.74745304751E+00  0.25591385471E+00  0.11803896910E+01  0.00000000000E+00 0.  1.
         11    1    3    3    0    0 -0.75853483343E+01 -0.14509804436E+02 -0.32204736830E+02  0.36127787210E+02  0.51100000000E-03 0. -1.
        -11    1    3    3    0    0  0.56809374266E+01 -0.75143308422E+01 -0.54185591136E+01  0.10867336434E+02  0.51100000000E-03 0.  1.
        -12    1    3    3    0    0  0.10274035740E+01  0.21276682231E+02  0.37367382089E+02  0.43012486664E+02  0.00000000000E+00 0.  1.
</event>
<event>
 7    1  0.4359248E-015  0.9000767E+02  0.7816164E-02  0.1186339E+00
        -11   -1    0    0    0    0  0.00000000000E+00  0.00000000000E+00  0.45593999997E+02  0.45594000000E+02  0.51100000000E-03 0. -1.
         11   -1    0    0    0    0 -0.00000000000E+00 -0.00000000000E+00 -0.45593999997E+02  0.45594000000E+02  0.51100000000E-03 0.  1.
    9900012    2    1    2    0    0  0.64979421366E+00  0.51315340425E+00  0.84119933503E+00  0.90007671547E+02  0.89999932011E+02 0.  0.
        -12    1    1    2    0    0 -0.64979421366E+00 -0.51315340425E+00 -0.84119933503E+00  0.11803284533E+01  0.00000000000E+00 0.  1.
         11    1    3    3    0    0  0.41191233755E+01 -0.52109953349E+01  0.41626787190E+02  0.42153422895E+02  0.51100000000E-03 0. -1.
        -11    1    3    3    0    0 -0.80090931600E+01 -0.52040245279E+01 -0.64203249243E+01  0.11508606211E+02  0.51100000000E-03 0.  1.
        -12    1    3    3    0    0  0.45397639981E+01  0.10928173267E+02 -0.34365262930E+02  0.36345642440E+02  0.00000000000E+00 0.  1.
</event>
<event>
 7    1  0.4359248E-015  0.9000752E+02  0.7816164E-02  0.1186339E+00
        -11   -1    0    0    0    0  0.00000000000E+00  0.00000000000E+00  0.45593999997E+02  0.45594000000E+02  0.51100000000E-03 0.  1.
         11   -1    0    0    0    0 -0.00000000000E+00 -0.00000000000E+00 -0.45593999997E+02  0.45594000000E+02  0.51100000000E-03 0. -1.
    9900012    2    1    2    0    0  0.70280596222E+00 -0.90769155931E+00 -0.27513441525E+00  0.90007517415E+02  0.89999775844E+02 0.  0.
        -12    1    1    2    0    0 -0.70280596222E+00  0.90769155931E+00  0.27513441525E+00  0.11804825851E+01  0.00000000000E+00 0.  1.
         11    1    3    3    0    0 -0.36395023686E+01  0.31160398962E+01  0.70650481657E+01  0.85364271197E+01  0.51100000000E-03 0. -1.
        -11    1    3    3    0    0 -0.22040694212E+01  0.34273764133E+02  0.14063785179E+02  0.37112516537E+02  0.51100000000E-03 0.  1.
         12    1    3    3    0    0  0.65463777519E+01 -0.38297495589E+02 -0.21403967760E+02  0.44358573759E+02  0.00000000000E+00 0. -1.
</event>
<event>
 7    1  0.4359248E-015  0.9000781E+02  0.7816164E-02  0.1186339E+00
        -11   -1    0    0    0    0  0.00000000000E+00  0.00000000000E+00  0.45593999997E+02  0.45594000000E+02  0.51100000000E-03 0.  1.
         11   -1    0    0    0    0 -0.00000000000E+00 -0.00000000000E+00 -0.45593999997E+02  0.45594000000E+02  0.51100000000E-03 0. -1.
    9900012    2    1    2    0    0  0.69596129925E+00  0.48782479283E+00 -0.81885244145E+00  0.90007807440E+02  0.90000069698E+02 0.  0.
        -12    1    1    2    0    0 -0.69596129925E+00 -0.48782479283E+00  0.81885244145E+00  0.11801925603E+01  0.00000000000E+00 0.  1.
         11    1    3    3    0    0 -0.60609854517E+01 -0.14002278382E+02  0.19276727924E+01  0.15379052870E+02  0.51100000000E-03 0. -1.
        -11    1    3    3    0    0  0.35075469544E+02 -0.66482334356E+01 -0.12739790669E+02  0.37905010726E+02  0.51100000000E-03 0.  1.
         12    1    3    3    0    0 -0.28318522793E+02  0.21138336610E+02  0.99932654355E+01  0.36723743844E+02  0.00000000000E+00 0. -1.
</event>
<event>
 7    1  0.4359248E-015  0.9000699E+02  0.7816164E-02  0.1186341E+00
        -11   -1    0    0    0    0  0.00000000000E+00  0.00000000000E+00  0.45593999997E+02  0.45594000000E+02  0.51100000000E-03 0.  1.
         11   -1    0    0    0    0 -0.00000000000E+00 -0.00000000000E+00 -0.45593999997E+02  0.45594000000E+02  0.51100000000E-03 0. -1.
    9900012    2    1    2    0    0 -0.95415703664E+00 -0.67176717205E+00  0.18191766972E+00  0.90006991608E+02  0.89999243094E+02 0.  0.
        -12    1    1    2    0    0  0.95415703664E+00  0.67176717205E+00 -0.18191766972E+00  0.11810083923E+01  0.00000000000E+00 0.  1.
         11    1    3    3    0    0 -0.19884480922E+02  0.28306928918E+02 -0.67851269236E+01  0.35252131197E+02  0.51100000000E-03 0. -1.
        -11    1    3    3    0    0 -0.12546745338E+02 -0.27786884705E+01 -0.14891823780E+01  0.12936753558E+02  0.51100000000E-03 0.  1.
        -12    1    3    3    0    0  0.31477069223E+02 -0.26200007620E+02  0.84562269714E+01  0.41818106853E+02  0.00000000000E+00 0.  1.
</event>
<event>
 7    1  0.4359248E-015  0.9000777E+02  0.7816164E-02  0.1186339E+00
        -11   -1    0    0    0    0  0.00000000000E+00  0.00000000000E+00  0.45593999997E+02  0.45594000000E+02  0.51100000000E-03 0.  1.
         11   -1    0    0    0    0 -0.00000000000E+00 -0.00000000000E+00 -0.45593999997E+02  0.45594000000E+02  0.51100000000E-03 0. -1.
    9900012    2    1    2    0    0 -0.81433008049E+00  0.24652680646E+00 -0.81793799273E+00  0.90007774807E+02  0.90000036634E+02 0.  0.
        -12    1    1    2    0    0  0.81433008049E+00 -0.24652680646E+00  0.81793799273E+00  0.11802251930E+01  0.00000000000E+00 0.  1.
         11    1    3    3    0    0 -0.63879015511E+00  0.75190604511E+01  0.79978497935E+01  0.10995904897E+02  0.51100000000E-03 0. -1.
        -11    1    3    3    0    0  0.33958401651E+02 -0.85137300631E+00  0.14756233320E+02  0.37035716555E+02  0.51100000000E-03 0.  1.
         12    1    3    3    0    0 -0.34133941576E+02 -0.64211606384E+01 -0.23572021106E+02  0.41976153355E+02  0.00000000000E+00 0. -1.
</event>
<event>
 7    1  0.4359248E-015  0.9000779E+02  0.7816164E-02  0.1186339E+00
        -11   -1    0    0    0    0  0.00000000000E+00  0.00000000000E+00  0.45593999997E+02  0.45594000000E+02  0.51100000000E-03 0.  1.
         11   -1    0    0    0    0 -0.00000000000E+00 -0.00000000000E+00 -0.45593999997E+02  0.45594000000E+02  0.51100000000E-03 0. -1.
    9900012    2    1    2    0    0  0.21628046507E+00  0.13972986006E+00 -0.11517821936E+01  0.90007786505E+02  0.90000048486E+02 0.  0.
        -12    1    1    2    0    0 -0.21628046507E+00 -0.13972986006E+00  0.11517821936E+01  0.11802134954E+01  0.00000000000E+00 0.  1.
         11    1    3    3    0    0  0.29755455283E+02  0.24165414833E+02  0.25694092120E+01  0.38418176129E+02  0.51100000000E-03 0. -1.
        -11    1    3    3    0    0 -0.18397757527E+01  0.84187189702E+01  0.97174739701E+00  0.86720180572E+01  0.51100000000E-03 0.  1.
        -12    1    3    3    0    0 -0.27699399065E+02 -0.32444403943E+02 -0.46929388026E+01  0.42917592318E+02  0.00000000000E+00 0.  1.
</event>
<event>
 7    1  0.4359248E-015  0.9000817E+02  0.7816164E-02  0.1186338E+00
        -11   -1    0    0    0    0  0.00000000000E+00  0.00000000000E+00  0.45593999997E+02  0.45594000000E+02  0.51100000000E-03 0. -1.
         11   -1    0    0    0    0 -0.00000000000E+00 -0.00000000000E+00 -0.45593999997E+02  0.45594000000E+02  0.51100000000E-03 0.  1.
    9900012    2    1    2    0    0  0.18283766369E+00 -0.10428675462E+01  0.52057455319E+00  0.90008169421E+02  0.90000436456E+02 0.  0.
        -12    1    1    2    0    0 -0.18283766369E+00  0.10428675462E+01 -0.52057455319E+00  0.11798305792E+01  0.00000000000E+00 0.  1.
         11    1    3    3    0    0  0.22484825506E+01  0.70605411110E+01 -0.78337438872E+01  0.10783063485E+02  0.51100000000E-03 0. -1.
        -11    1    3    3    0    0 -0.21214981688E+02  0.20548229476E+02 -0.19092855480E+02  0.35168769004E+02  0.51100000000E-03 0.  1.
         12    1    3    3    0    0  0.19149336801E+02 -0.28651638133E+02  0.27447173921E+02  0.44056336932E+02  0.00000000000E+00 0. -1.
</event>
<event>
 7    1  0.4359248E-015  0.9000779E+02  0.7816164E-02  0.1186339E+00
        -11   -1    0    0    0    0  0.00000000000E+00  0.00000000000E+00  0.45593999997E+02  0.45594000000E+02  0.51100000000E-03 0. -1.
         11   -1    0    0    0    0 -0.00000000000E+00 -0.00000000000E+00 -0.45593999997E+02  0.45594000000E+02  0.51100000000E-03 0.  1.
    9900012    2    1    2    0    0  0.86855638689E+00  0.79794603900E+00 -0.42412802542E-01  0.90007785221E+02  0.90000047186E+02 0.  0.
        -12    1    1    2    0    0 -0.86855638689E+00 -0.79794603900E+00  0.42412802542E-01  0.11802147788E+01  0.00000000000E+00 0.  1.
         11    1    3    3    0    0  0.23301462195E+02 -0.14781450557E+01  0.31489470064E+02  0.39201145116E+02  0.51100000000E-03 0. -1.
        -11    1    3    3    0    0  0.52266478760E+01  0.96426391302E+01 -0.11349065042E+02  0.15782889945E+02  0.51100000000E-03 0.  1.
        -12    1    3    3    0    0 -0.27659553684E+02 -0.73665480355E+01 -0.20182817824E+02  0.35023750160E+02  0.00000000000E+00 0.  1.
</event>
<event>
 7    1  0.4359248E-015  0.9000767E+02  0.7816164E-02  0.1186339E+00
        -11   -1    0    0    0    0  0.00000000000E+00  0.00000000000E+00  0.45593999997E+02  0.45594000000E+02  0.51100000000E-03 0. -1.
         11   -1    0    0    0    0 -0.00000000000E+00 -0.00000000000E+00 -0.45593999997E+02  0.45594000000E+02  0.51100000000E-03 0.  1.
    9900012    2    1    2    0    0 -0.22059073250E+00  0.71363203554E+00  0.91392112660E+00  0.90007668361E+02  0.89999928783E+02 0.  0.
        -12    1    1    2    0    0  0.22059073250E+00 -0.71363203554E+00 -0.91392112660E+00  0.11803316394E+01  0.00000000000E+00 0.  1.
         11    1    3    3    0    0  0.37842147161E+01  0.28194304193E+01 -0.61190427634E+01  0.77273639431E+01  0.51100000000E-03 0. -1.
        -11    1    3    3    0    0  0.24070218313E+01 -0.25183918308E+02 -0.29332602824E+02  0.38735320886E+02  0.51100000000E-03 0.  1.
         12    1    3    3    0    0 -0.64118272799E+01  0.23078119924E+02  0.36365566714E+02  0.43544983531E+02  0.00000000000E+00 0. -1.
</event>
<event>
 7    1  0.4359248E-015  0.9000768E+02  0.7816164E-02  0.1186339E+00
        -11   -1    0    0    0    0  0.00000000000E+00  0.00000000000E+00  0.45593999997E+02  0.45594000000E+02  0.51100000000E-03 0.  1.
         11   -1    0    0    0    0 -0.00000000000E+00 -0.00000000000E+00 -0.45593999997E+02  0.45594000000E+02  0.51100000000E-03 0. -1.
    9900012    2    1    2    0    0  0.10849788182E+01  0.66315351476E-01 -0.45997006423E+00  0.90007682576E+02  0.89999943186E+02 0.  0.
        -12    1    1    2    0    0 -0.10849788182E+01 -0.66315351476E-01  0.45997006423E+00  0.11803174242E+01  0.00000000000E+00 0.  1.
         11    1    3    3    0    0 -0.13856985924E+02 -0.36393036449E+02 -0.14167077575E+02  0.41438813305E+02  0.51100000000E-03 0. -1.
        -11    1    3    3    0    0  0.76946058370E-01  0.90529886631E+01 -0.67376195600E+01  0.11285302035E+02  0.51100000000E-03 0.  1.
        -12    1    3    3    0    0  0.14865018684E+02  0.27406363137E+02  0.20444727070E+02  0.37283567236E+02  0.00000000000E+00 0.  1.
</event>
<event>
 7    1  0.4359248E-015  0.9000745E+02  0.7816164E-02  0.1186340E+00
        -11   -1    0    0    0    0  0.00000000000E+00  0.00000000000E+00  0.45593999997E+02  0.45594000000E+02  0.51100000000E-03 0. -1.
         11   -1    0    0    0    0 -0.00000000000E+00 -0.00000000000E+00 -0.45593999997E+02  0.45594000000E+02  0.51100000000E-03 0.  1.
    9900012    2    1    2    0    0  0.27990578582E+00 -0.10539554158E+01  0.45223712085E+00  0.90007454499E+02  0.89999712097E+02 0.  0.
        -12    1    1    2    0    0 -0.27990578582E+00  0.10539554158E+01 -0.45223712085E+00  0.11805455014E+01  0.00000000000E+00 0.  1.
         11    1    3    3    0    0 -0.22760894536E+01  0.85357426701E+01 -0.59331993235E+01  0.10641538451E+02  0.51100000000E-03 0. -1.
        -11    1    3    3    0    0  0.70701025002E+01 -0.34317636504E+01 -0.35719729299E+02  0.36574067488E+02  0.51100000000E-03 0.  1.
         12    1    3    3    0    0 -0.45141072608E+01 -0.61579344356E+01  0.42105165744E+02  0.42791848560E+02  0.00000000000E+00 0. -1.
</event>
<event>
 7    1  0.4359248E-015  0.9000768E+02  0.7816164E-02  0.1186339E+00
        -11   -1    0    0    0    0  0.00000000000E+00  0.00000000000E+00  0.45593999997E+02  0.45594000000E+02  0.51100000000E-03 0.  1.
         11   -1    0    0    0    0 -0.00000000000E+00 -0.00000000000E+00 -0.45593999997E+02  0.45594000000E+02  0.51100000000E-03 0. -1.
    9900012    2    1    2    0    0 -0.15942053109E+00 -0.13673618800E+00 -0.11614810878E+01  0.90007682243E+02  0.89999942848E+02 0.  0.
        -12    1    1    2    0    0  0.15942053109E+00  0.13673618800E+00  0.11614810878E+01  0.11803177573E+01  0.00000000000E+00 0.  1.
         11    1    3    3    0    0 -0.70389555390E+01 -0.57862126846E+01 -0.86316202925E+00  0.91527155130E+01  0.51100000000E-03 0. -1.
        -11    1    3    3    0    0 -0.62491756480E+01  0.23819284802E+02  0.32716828151E+02  0.40948765174E+02  0.51100000000E-03 0.  1.
         12    1    3    3    0    0  0.13128710656E+02 -0.18169808305E+02 -0.33015147210E+02  0.39906201556E+02  0.00000000000E+00 0. -1.
</event>
<event>
 7    1  0.4359248E-015  0.9000778E+02  0.7816164E-02  0.1186339E+00
        -11   -1    0    0    0    0  0.00000000000E+00  0.00000000000E+00  0.45593999997E+02  0.45594000000E+02  0.51100000000E-03 0. -1.
         11   -1    0    0    0    0 -0.00000000000E+00 -0.00000000000E+00 -0.45593999997E+02  0.45594000000E+02  0.51100000000E-03 0.  1.
    9900012    2    1    2    0    0 -0.70602361246E-01 -0.10395786538E+01 -0.55425696404E+00  0.90007784235E+02  0.90000046186E+02 0.  0.
        -12    1    1    2    0    0  0.70602361246E-01  0.10395786538E+01  0.55425696404E+00  0.11802157654E+01  0.00000000000E+00 0.  1.
         11    1    3    3    0    0  0.21934656588E+02  0.10470328173E+01  0.30460304168E+02  0.37550706620E+02  0.51100000000E-03 0. -1.
        -11    1    3    3    0    0  0.38428052766E+01 -0.71558646091E+01  0.36628118220E+01  0.89100921096E+01  0.51100000000E-03 0.  1.
        -12    1    3    3    0    0 -0.25848064226E+02  0.50692531380E+01 -0.34677372954E+02  0.43546985505E+02  0.00000000000E+00 0.  1.
</event>
<event>
 7    1  0.4359248E-015  0.9000766E+02  0.7816164E-02  0.1186339E+00
        -11   -1    0    0    0    0  0.00000000000E+00  0.00000000000E+00  0.45593999997E+02  0.45594000000E+02  0.51100000000E-03 0.  1.
         11   -1    0    0    0    0 -0.00000000000E+00 -0.00000000000E+00 -0.45593999997E+02  0.45594000000E+02  0.51100000000E-03 0. -1.
    9900012    2    1    2    0    0  0.47383905172E+00 -0.10800868289E+01 -0.45743302066E-01  0.90007659602E+02  0.89999919909E+02 0.  0.
        -12    1    1    2    0    0 -0.47383905172E+00  0.10800868289E+01  0.45743302066E-01  0.11803403978E+01  0.00000000000E+00 0.  1.
         11    1    3    3    0    0 -0.74345390470E+01 -0.19797696995E+02 -0.32788033728E+02  0.39016359814E+02  0.51100000000E-03 0. -1.
        -11    1    3    3    0    0  0.73248943955E+01 -0.71494507381E+01  0.13714530582E+01  0.10327129684E+02  0.51100000000E-03 0.  1.
        -12    1    3    3    0    0  0.58348370325E+00  0.25867060904E+02  0.31370837368E+02  0.40664170104E+02  0.00000000000E+00 0.  1.
</event>
<event>
 7    1  0.4359248E-015  0.9000765E+02  0.7816164E-02  0.1186339E+00
        -11   -1    0    0    0    0  0.00000000000E+00  0.00000000000E+00  0.45593999997E+02  0.45594000000E+02  0.51100000000E-03 0. -1.
         11   -1    0    0    0    0 -0.00000000000E+00 -0.00000000000E+00 -0.45593999997E+02  0.45594000000E+02  0.51100000000E-03 0.  1.
    9900012    2    1    2    0    0 -0.10643930924E+01 -0.24308619511E+00  0.44854970735E+00  0.90007652427E+02  0.89999912639E+02 0.  0.
        -12    1    1    2    0    0  0.10643930924E+01  0.24308619511E+00 -0.44854970735E+00  0.11803475732E+01  0.00000000000E+00 0.  1.
         11    1    3    3    0    0 -0.10242691025E+02  0.47622452109E+01  0.39381129500E+02  0.40969074432E+02  0.51100000000E-03 0. -1.
        -11    1    3    3    0    0 -0.67100081011E+01  0.64286631608E+01 -0.72058299979E+01  0.11759077556E+02  0.51100000000E-03 0.  1.
        -12    1    3    3    0    0  0.15888306033E+02 -0.11433994567E+02 -0.31726749795E+02  0.37279500438E+02  0.00000000000E+00 0.  1.
</event>
<event>
 7    1  0.4359248E-015  0.9000794E+02  0.7816164E-02  0.1186339E+00
        -11   -1    0    0    0    0  0.00000000000E+00  0.00000000000E+00  0.45593999997E+02  0.45594000000E+02  0.51100000000E-03 0. -1.
         11   -1    0    0    0    0 -0.00000000000E+00 -0.00000000000E+00 -0.45593999997E+02  0.45594000000E+02  0.51100000000E-03 0.  1.
    9900012    2    1    2    0    0  0.10872067078E+01 -0.68502567271E-01  0.45369833747E+00  0.90007935083E+02  0.90000199026E+02 0.  0.
        -12    1    1    2    0    0 -0.10872067078E+01  0.68502567271E-01 -0.45369833747E+00  0.11800649171E+01  0.00000000000E+00 0.  1.
         11    1    3    3    0    0  0.10772144151E+01  0.32285489668E+02 -0.15234851451E+02  0.35715737889E+02  0.51100000000E-03 0. -1.
        -11    1    3    3    0    0 -0.15903927049E+01  0.96255694874E+01  0.49074862234E+01  0.10920822231E+02  0.51100000000E-03 0.  1.
        -12    1    3    3    0    0  0.16003849975E+01 -0.41979561722E+02  0.10781063565E+02  0.43371374962E+02  0.00000000000E+00 0.  1.
</event>
<event>
 7    1  0.4359248E-015  0.9000784E+02  0.7816164E-02  0.1186339E+00
        -11   -1    0    0    0    0  0.00000000000E+00  0.00000000000E+00  0.45593999997E+02  0.45594000000E+02  0.51100000000E-03 0. -1.
         11   -1    0    0    0    0 -0.00000000000E+00 -0.00000000000E+00 -0.45593999997E+02  0.45594000000E+02  0.51100000000E-03 0.  1.
    9900012    2    1    2    0    0 -0.11648425823E+00  0.10781952780E+01  0.46550943671E+00  0.90007842097E+02  0.90000104813E+02 0.  0.
        -12    1    1    2    0    0  0.11648425823E+00 -0.10781952780E+01 -0.46550943671E+00  0.11801579028E+01  0.00000000000E+00 0.  1.
         11    1    3    3    0    0 -0.37559199154E+02 -0.13155413152E+02  0.76975592884E+01  0.40534069072E+02  0.51100000000E-03 0. -1.
        -11    1    3    3    0    0 -0.23594498585E+01  0.82262598842E+01 -0.26610279756E+01  0.89621105474E+01  0.51100000000E-03 0.  1.
        -12    1    3    3    0    0  0.39802164754E+02  0.60073485458E+01 -0.45710218761E+01  0.40511662477E+02  0.00000000000E+00 0.  1.
</event>
<event>
 7    1  0.4359248E-015  0.9000773E+02  0.7816164E-02  0.1186339E+00
        -11   -1    0    0    0    0  0.00000000000E+00  0.00000000000E+00  0.45593999997E+02  0.45594000000E+02  0.51100000000E-03 0.  1.
         11   -1    0    0    0    0 -0.00000000000E+00 -0.00000000000E+00 -0.45593999997E+02  0.45594000000E+02  0.51100000000E-03 0. -1.
    9900012    2    1    2    0    0  0.41666083255E+00  0.30229372465E+00 -0.10620956487E+01  0.90007731000E+02  0.89999992249E+02 0.  0.
        -12    1    1    2    0    0 -0.41666083255E+00 -0.30229372465E+00  0.10620956487E+01  0.11802690000E+01  0.00000000000E+00 0.  1.
         11    1    3    3    0    0 -0.11852719230E+02 -0.37289400809E+02 -0.12671869034E+02  0.41128610855E+02  0.51100000000E-03 0. -1.
        -11    1    3    3    0    0 -0.68356430902E+01  0.36269015385E+01  0.53563923621E+01  0.94112364026E+01  0.51100000000E-03 0.  1.
        -12    1    3    3    0    0  0.19105023153E+02  0.33964792995E+02  0.62533810233E+01  0.39467883742E+02  0.00000000000E+00 0.  1.
</event>
<event>
 7    1  0.4359248E-015  0.9000772E+02  0.7816164E-02  0.1186339E+00
        -11   -1    0    0    0    0  0.00000000000E+00  0.00000000000E+00  0.45593999997E+02  0.45594000000E+02  0.51100000000E-03 0.  1.
         11   -1    0    0    0    0 -0.00000000000E+00 -0.00000000000E+00 -0.45593999997E+02  0.45594000000E+02  0.51100000000E-03 0. -1.
    9900012    2    1    2    0    0 -0.77514683608E+00  0.25428164956E+00 -0.85296202627E+00  0.90007722070E+02  0.89999983201E+02 0.  0.
        -12    1    1    2    0    0  0.77514683608E+00 -0.25428164956E+00  0.85296202627E+00  0.11802779304E+01  0.00000000000E+00 0.  1.
         11    1    3    3    0    0 -0.24050325592E+01 -0.72241692181E+01 -0.20789414158E+01  0.78927055040E+01  0.51100000000E-03 0. -1.
        -11    1    3    3    0    0  0.27350562976E+02  0.30134233958E+02 -0.16031983350E+02  0.43739568376E+02  0.51100000000E-03 0.  1.
         12    1    3    3    0    0 -0.25720677253E+02 -0.22655783091E+02  0.17257962739E+02  0.38375448189E+02  0.00000000000E+00 0. -1.
</event>
<event>
 7    1  0.4359248E-015  0.9000763E+02  0.7816164E-02  0.1186339E+00
        -11   -1    0    0    0    0  0.00000000000E+00  0.00000000000E+00  0.45593999997E+02  0.45594000000E+02  0.51100000000E-03 0. -1.
         11   -1    0    0    0    0 -0.00000000000E+00 -0.00000000000E+00 -0.45593999997E+02  0.45594000000E+02  0.51100000000E-03 0.  1.
    9900012    2    1    2    0    0  0.51688630882E+00 -0.16133987344E-01  0.10610544811E+01  0.90007632102E+02  0.89999892046E+02 0.  0.
        -12    1    1    2    0    0 -0.51688630882E+00  0.16133987344E-01 -0.10610544811E+01  0.11803678976E+01  0.00000000000E+00 0.  1.
         11    1    3    3    0    0  0.52290584457E+01  0.63645767402E+01 -0.50065818045E+01  0.96393335318E+01  0.51100000000E-03 0. -1.
        -11    1    3    3    0    0  0.34845642022E+02 -0.21678054916E+01  0.17393707200E+02  0.39005886722E+02  0.51100000000E-03 0.  1.
         12    1    3    3    0    0 -0.39557814159E+02 -0.42129052359E+01 -0.11326070915E+02  0.41362411848E+02  0.00000000000E+00 0. -1.
</event>
<event>
 7    1  0.4359248E-015  0.9000771E+02  0.7816164E-02  0.1186339E+00
        -11   -1    0    0    0    0  0.00000000000E+00  0.00000000000E+00  0.45593999997E+02  0.45594000000E+02  0.51100000000E-03 0. -1.
         11   -1    0    0    0    0 -0.00000000000E+00 -0.00000000000E+00 -0.45593999997E+02  0.45594000000E+02  0.51100000000E-03 0.  1.
    9900012    2    1    2    0    0 -0.32955946046E+00  0.90785710330E+00 -0.67842735633E+00  0.90007712901E+02  0.89999973911E+02 0.  0.
        -12    1    1    2    0    0  0.32955946046E+00 -0.90785710330E+00  0.67842735633E+00  0.11802870989E+01  0.00000000000E+00 0.  1.
         11    1    3    3    0    0 -0.63346875186E+01  0.68511112600E+01 -0.17039999974E+01  0.94852310308E+01  0.51100000000E-03 0. -1.
        -11    1    3    3    0    0 -0.38322167275E+01  0.20484895322E+02 -0.31313919837E+02  0.37614869363E+02  0.51100000000E-03 0.  1.
         12    1    3    3    0    0  0.98373447856E+01 -0.26428149479E+02  0.32339492478E+02  0.42907612507E+02  0.00000000000E+00 0. -1.
</event>
<event>
 7    1  0.4359248E-015  0.9000775E+02  0.7816164E-02  0.1186339E+00
        -11   -1    0    0    0    0  0.00000000000E+00  0.00000000000E+00  0.45593999997E+02  0.45594000000E+02  0.51100000000E-03 0.  1.
         11   -1    0    0    0    0 -0.00000000000E+00 -0.00000000000E+00 -0.45593999997E+02  0.45594000000E+02  0.51100000000E-03 0. -1.
    9900012    2    1    2    0    0  0.11484586675E+01 -0.10238298131E+00  0.25209446786E+00  0.90007749515E+02  0.90000011009E+02 0.  0.
        -12    1    1    2    0    0 -0.11484586675E+01  0.10238298131E+00 -0.25209446786E+00  0.11802504846E+01  0.00000000000E+00 0.  1.
         11    1    3    3    0    0 -0.59850695828E+01 -0.66486978168E+01  0.79173993662E+00  0.89807067071E+01  0.51100000000E-03 0. -1.
        -11    1    3    3    0    0 -0.94066581056E+01 -0.11315879741E+02  0.34989488041E+02  0.37957853267E+02  0.51100000000E-03 0.  1.
         12    1    3    3    0    0  0.16540186356E+02  0.17862194576E+02 -0.35529133510E+02  0.43069189541E+02  0.00000000000E+00 0. -1.
</event>
<event>
 7    1  0.4359248E-015  0.9000756E+02  0.7816164E-02  0.1186339E+00
        -11   -1    0    0    0    0  0.00000000000E+00  0.00000000000E+00  0.45593999997E+02  0.45594000000E+02  0.51100000000E-03 0. -1.
         11   -1    0    0    0    0 -0.00000000000E+00 -0.00000000000E+00 -0.45593999997E+02  0.45594000000E+02  0.51100000000E-03 0.  1.
    9900012    2    1    2    0    0  0.45264086898E+00  0.90358288300E+00  0.60998905152E+00  0.90007562613E+02  0.89999821639E+02 0.  0.
        -12    1    1    2    0    0 -0.45264086898E+00 -0.90358288300E+00 -0.60998905152E+00  0.11804373875E+01  0.00000000000E+00 0.  1.
         11    1    3    3    0    0  0.25557611622E+01  0.41464217152E+01  0.71705310818E+01  0.86684049522E+01  0.51100000000E-03 0. -1.
        -11    1    3    3    0    0  0.26738905137E+02 -0.28290193364E+02  0.92268169876E+01  0.40005477631E+02  0.51100000000E-03 0.  1.
         12    1    3    3    0    0 -0.28842025431E+02  0.25047354532E+02 -0.15787359018E+02  0.41333680029E+02  0.00000000000E+00 0. -1.
</event>
<event>
 7    1  0.4359248E-015  0.9000770E+02  0.7816164E-02  0.1186339E+00
        -11   -1    0    0    0    0  0.00000000000E+00  0.00000000000E+00  0.45593999997E+02  0.45594000000E+02  0.51100000000E-03 0. -1.
         11   -1    0    0    0    0 -0.00000000000E+00 -0.00000000000E+00 -0.45593999997E+02  0.45594000000E+02  0.51100000000E-03 0.  1.
    9900012    2    1    2    0    0 -0.66015492894E+00  0.47318362155E+00  0.85638484651E+00  0.90007702463E+02  0.89999963336E+02 0.  0.
        -12    1    1    2    0    0  0.66015492894E+00 -0.47318362155E+00 -0.85638484651E+00  0.11802975367E+01  0.00000000000E+00 0.  1.
         11    1    3    3    0    0  0.22386763680E+02 -0.11204809427E+02  0.27255297132E+02  0.37007650079E+02  0.51100000000E-03 0. -1.
        -11    1    3    3    0    0  0.49536551697E+01  0.79202307708E+01  0.51362903516E+01  0.10660686368E+02  0.51100000000E-03 0.  1.
        -12    1    3    3    0    0 -0.28000573779E+02  0.37577622775E+01 -0.31535202637E+02  0.42339366016E+02  0.00000000000E+00 0.  1.
</event>
<event>
 7    1  0.4359248E-015  0.9000771E+02  0.7816164E-02  0.1186339E+00
        -11   -1    0    0    0    0  0.00000000000E+00  0.00000000000E+00  0.45593999997E+02  0.45594000000E+02  0.51100000000E-03 0. -1.
         11   -1    0    0    0    0 -0.00000000000E+00 -0.00000000000E+00 -0.45593999997E+02  0.45594000000E+02  0.51100000000E-03 0.  1.
    9900012    2    1    2    0    0  0.29777464428E+00 -0.11096406460E+01 -0.27040781813E+00  0.90007706608E+02  0.89999967536E+02 0.  0.
        -12    1    1    2    0    0 -0.29777464428E+00  0.11096406460E+01  0.27040781813E+00  0.11802933915E+01  0.00000000000E+00 0.  1.
         11    1    3    3    0    0 -0.10439370807E+02  0.33853843721E+01 -0.76697839738E+01  0.13389058095E+02  0.51100000000E-03 0. -1.
        -11    1    3    3    0    0 -0.18746122099E+02 -0.11490096780E+02 -0.24296759217E+02  0.32768459324E+02  0.51100000000E-03 0.  1.
         12    1    3    3    0    0  0.29483267551E+02  0.69950717619E+01  0.31696135373E+02  0.43850189190E+02  0.00000000000E+00 0. -1.
</event>
<event>
 7    1  0.4359248E-015  0.9000791E+02  0.7816164E-02  0.1186339E+00
        -11   -1    0    0    0    0  0.00000000000E+00  0.00000000000E+00  0.45593999997E+02  0.45594000000E+02  0.51100000000E-03 0.  1.
         11   -1    0    0    0    0 -0.00000000000E+00 -0.00000000000E+00 -0.45593999997E+02  0.45594000000E+02  0.51100000000E-03 0. -1.
    9900012    2    1    2    0    0  0.90486077133E+00  0.53850285979E+00 -0.53278816341E+00  0.90007906117E+02  0.90000169678E+02 0.  0.
        -12    1    1    2    0    0 -0.90486077133E+00 -0.53850285979E+00  0.53278816341E+00  0.11800938829E+01  0.00000000000E+00 0.  1.
         11    1    3    3    0    0  0.65953485850E+01 -0.22939576046E+01  0.53038695817E+01  0.87688024980E+01  0.51100000000E-03 0. -1.
        -11    1    3    3    0    0  0.17926771520E+02 -0.33285679691E+02 -0.43944054366E+01  0.38060693754E+02  0.51100000000E-03 0.  1.
         12    1    3    3    0    0 -0.23617259334E+02  0.36118140156E+02 -0.14422523084E+01  0.43178409865E+02  0.00000000000E+00 0. -1.
</event>
<event>
 7    1  0.4359248E-015  0.9000776E+02  0.7816164E-02  0.1186339E+00
        -11   -1    0    0    0    0  0.00000000000E+00  0.00000000000E+00  0.45593999997E+02  0.45594000000E+02  0.51100000000E-03 0.  1.
         11   -1    0    0    0    0 -0.00000000000E+00 -0.00000000000E+00 -0.45593999997E+02  0.45594000000E+02  0.51100000000E-03 0. -1.
    9900012    2    1    2    0    0 -0.87656237772E+00 -0.78447164450E+00 -0.96003368021E-01  0.90007756801E+02  0.90000018390E+02 0.  0.
        -12    1    1    2    0    0  0.87656237772E+00  0.78447164450E+00  0.96003368021E-01  0.11802431994E+01  0.00000000000E+00 0.  1.
         11    1    3    3    0    0 -0.68395860383E+00  0.17898891696E+02  0.29831046858E+02  0.34795538223E+02  0.51100000000E-03 0. -1.
        -11    1    3    3    0    0 -0.50453297873E+01  0.85642017802E+01  0.46076413474E+01  0.10955878050E+02  0.51100000000E-03 0.  1.
        -12    1    3    3    0    0  0.48527260134E+01 -0.27247565121E+02 -0.34534691574E+02  0.44256340527E+02  0.00000000000E+00 0.  1.
</event>
<event>
 7    1  0.4359248E-015  0.9000783E+02  0.7816164E-02  0.1186339E+00
        -11   -1    0    0    0    0  0.00000000000E+00  0.00000000000E+00  0.45593999997E+02  0.45594000000E+02  0.51100000000E-03 0. -1.
         11   -1    0    0    0    0 -0.00000000000E+00 -0.00000000000E+00 -0.45593999997E+02  0.45594000000E+02  0.51100000000E-03 0.  1.
    9900012    2    1    2    0    0  0.68158446515E+00  0.38799253264E+00  0.88187923541E+00  0.90007827735E+02  0.90000090261E+02 0.  0.
        -12    1    1    2    0    0 -0.68158446515E+00 -0.38799253264E+00 -0.88187923541E+00  0.11801722647E+01  0.00000000000E+00 0.  1.
         11    1    3    3    0    0  0.53503625193E+01  0.60400557369E+01  0.56037023372E+01  0.98239570713E+01  0.51100000000E-03 0. -1.
        -11    1    3    3    0    0 -0.56952454573E+01  0.34518862993E+02  0.11531924672E+02  0.36837114573E+02  0.51100000000E-03 0.  1.
         12    1    3    3    0    0  0.10264674032E+01 -0.40170926198E+02 -0.16253747774E+02  0.43346756091E+02  0.00000000000E+00 0. -1.
</event>
<event>
 7    1  0.4359248E-015  0.9000777E+02  0.7816164E-02  0.1186339E+00
        -11   -1    0    0    0    0  0.00000000000E+00  0.00000000000E+00  0.45593999997E+02  0.45594000000E+02  0.51100000000E-03 0. -1.
         11   -1    0    0    0    0 -0.00000000000E+00 -0.00000000000E+00 -0.45593999997E+02  0.45594000000E+02  0.51100000000E-03 0.  1.
    9900012    2    1    2    0    0  0.33336655362E+00  0.53131957144E+00  0.99975552901E+00  0.90007769148E+02  0.90000030901E+02 0.  0.
        -12    1    1    2    0    0 -0.33336655362E+00 -0.53131957144E+00 -0.99975552901E+00  0.11802308519E+01  0.00000000000E+00 0.  1.
         11    1    3    3    0    0  0.18408091636E+02 -0.26477206846E+02  0.17699175462E+02  0.36785338552E+02  0.51100000000E-03 0. -1.
        -11    1    3    3    0    0  0.11667827870E+02  0.51866665309E+01 -0.87706365726E+01  0.15490764444E+02  0.51100000000E-03 0.  1.
         12    1    3    3    0    0 -0.29742552952E+02  0.21821859887E+02 -0.79287833608E+01  0.37731666152E+02  0.00000000000E+00 0. -1.
</event>
<event>
 7    1  0.4359248E-015  0.9000779E+02  0.7816164E-02  0.1186339E+00
        -11   -1    0    0    0    0  0.00000000000E+00  0.00000000000E+00  0.45593999997E+02  0.45594000000E+02  0.51100000000E-03 0. -1.
         11   -1    0    0    0    0 -0.00000000000E+00 -0.00000000000E+00 -0.45593999997E+02  0.45594000000E+02  0.51100000000E-03 0.  1.
    9900012    2    1    2    0    0 -0.11424968794E+01  0.12174587867E+00  0.26976433025E+00  0.90007790708E+02  0.90000052746E+02 0.  0.
        -12    1    1    2    0    0  0.11424968794E+01 -0.12174587867E+00 -0.26976433025E+00  0.11802092918E+01  0.00000000000E+00 0.  1.
         11    1    3    3    0    0 -0.14008147508E+02  0.38698782191E+02  0.21233301384E+01  0.41210829533E+02  0.51100000000E-03 0. -1.
        -11    1    3    3    0    0 -0.18678276534E+01 -0.33935216847E+01 -0.91728452922E+01  0.99572014433E+01  0.51100000000E-03 0.  1.
        -12    1    3    3    0    0  0.14733478282E+02 -0.35183514628E+02  0.73192794840E+01  0.38839759732E+02  0.00000000000E+00 0.  1.
</event>
<event>
 7    1  0.4359248E-015  0.9000768E+02  0.7816164E-02  0.1186339E+00
        -11   -1    0    0    0    0  0.00000000000E+00  0.00000000000E+00  0.45593999997E+02  0.45594000000E+02  0.51100000000E-03 0.  1.
         11   -1    0    0    0    0 -0.00000000000E+00 -0.00000000000E+00 -0.45593999997E+02  0.45594000000E+02  0.51100000000E-03 0. -1.
    9900012    2    1    2    0    0  0.10460076824E+01 -0.25070482443E+00 -0.48598341282E+00  0.90007675952E+02  0.89999936475E+02 0.  0.
        -12    1    1    2    0    0 -0.10460076824E+01  0.25070482443E+00  0.48598341282E+00  0.11803240480E+01  0.00000000000E+00 0.  1.
         11    1    3    3    0    0 -0.49861266331E+01  0.19525620477E+02 -0.33706310014E+02  0.39271193626E+02  0.51100000000E-03 0. -1.
        -11    1    3    3    0    0 -0.89905479312E+01  0.41816079669E+01  0.66904563444E+01  0.11961521795E+02  0.51100000000E-03 0.  1.
        -12    1    3    3    0    0  0.15022682247E+02 -0.23957933268E+02  0.26529870257E+02  0.38774960531E+02  0.00000000000E+00 0.  1.
</event>
<event>
 7    1  0.4359248E-015  0.9000774E+02  0.7816164E-02  0.1186339E+00
        -11   -1    0    0    0    0  0.00000000000E+00  0.00000000000E+00  0.45593999997E+02  0.45594000000E+02  0.51100000000E-03 0. -1.
         11   -1    0    0    0    0 -0.00000000000E+00 -0.00000000000E+00 -0.45593999997E+02  0.45594000000E+02  0.51100000000E-03 0.  1.
    9900012    2    1    2    0    0  0.53733827066E+00 -0.26404402646E+00  0.10171395776E+01  0.90007735375E+02  0.89999996682E+02 0.  0.
        -12    1    1    2    0    0 -0.53733827066E+00  0.26404402646E+00 -0.10171395776E+01  0.11802646251E+01  0.00000000000E+00 0.  1.
         11    1    3    3    0    0  0.33855967770E+01  0.72232529731E+01 -0.74005515048E+01  0.10881443465E+02  0.51100000000E-03 0. -1.
        -11    1    3    3    0    0 -0.34072434449E+02 -0.14382568222E+02 -0.14564028462E+02  0.39747955711E+02  0.51100000000E-03 0.  1.
         12    1    3    3    0    0  0.31224175943E+02  0.68952712220E+01  0.22981719545E+02  0.39378336198E+02  0.00000000000E+00 0. -1.
</event>
<event>
 7    1  0.4359248E-015  0.9000773E+02  0.7816164E-02  0.1186339E+00
        -11   -1    0    0    0    0  0.00000000000E+00  0.00000000000E+00  0.45593999997E+02  0.45594000000E+02  0.51100000000E-03 0. -1.
         11   -1    0    0    0    0 -0.00000000000E+00 -0.00000000000E+00 -0.45593999997E+02  0.45594000000E+02  0.51100000000E-03 0.  1.
    9900012    2    1    2    0    0  0.48762946284E+00 -0.29531554762E+00 -0.10334583296E+01  0.90007733130E+02  0.89999994407E+02 0.  0.
        -12    1    1    2    0    0 -0.48762946284E+00  0.29531554762E+00  0.10334583296E+01  0.11802668701E+01  0.00000000000E+00 0.  1.
         11    1    3    3    0    0 -0.54821872214E+01 -0.79700115131E+01 -0.62418389564E+00  0.96935579663E+01  0.51100000000E-03 0. -1.
        -11    1    3    3    0    0 -0.28890223836E+02 -0.20533755475E+02  0.82605123196E+00  0.35453667061E+02  0.51100000000E-03 0.  1.
         12    1    3    3    0    0  0.34860040520E+02  0.28208451440E+02 -0.12353256659E+01  0.44860508103E+02  0.00000000000E+00 0. -1.
</event>
<event>
 7    1  0.4359248E-015  0.9000775E+02  0.7816164E-02  0.1186339E+00
        -11   -1    0    0    0    0  0.00000000000E+00  0.00000000000E+00  0.45593999997E+02  0.45594000000E+02  0.51100000000E-03 0.  1.
         11   -1    0    0    0    0 -0.00000000000E+00 -0.00000000000E+00 -0.45593999997E+02  0.45594000000E+02  0.51100000000E-03 0. -1.
    9900012    2    1    2    0    0 -0.46409781338E+00  0.10849168083E+01 -0.23841493655E-01  0.90007745926E+02  0.90000007373E+02 0.  0.
        -12    1    1    2    0    0  0.46409781338E+00 -0.10849168083E+01  0.23841493655E-01  0.11802540735E+01  0.00000000000E+00 0.  1.
         11    1    3    3    0    0  0.27515272079E+02  0.31236954019E+02 -0.11408011510E+02  0.43162254585E+02  0.51100000000E-03 0. -1.
        -11    1    3    3    0    0 -0.57157414922E+01 -0.24236578718E+01 -0.47295958761E+01  0.78046714023E+01  0.51100000000E-03 0.  1.
        -12    1    3    3    0    0 -0.22263628400E+02 -0.27728379339E+02  0.16113765893E+02  0.39040819939E+02  0.00000000000E+00 0.  1.
</event>
<event>
 7    1  0.4359248E-015  0.9000819E+02  0.7816164E-02  0.1186338E+00
        -11   -1    0    0    0    0  0.00000000000E+00  0.00000000000E+00  0.45593999997E+02  0.45594000000E+02  0.51100000000E-03 0. -1.
         11   -1    0    0    0    0 -0.00000000000E+00 -0.00000000000E+00 -0.45593999997E+02  0.45594000000E+02  0.51100000000E-03 0.  1.
    9900012    2    1    2    0    0  0.96955979642E+00 -0.56465406739E+00  0.36477627611E+00  0.90008194022E+02  0.90000461382E+02 0.  0.
        -12    1    1    2    0    0 -0.96955979642E+00  0.56465406739E+00 -0.36477627611E+00  0.11798059782E+01  0.00000000000E+00 0.  1.
         11    1    3    3    0    0  0.73817961493E+01 -0.29257212890E+02  0.17116942927E+02  0.34690995314E+02  0.51100000000E-03 0. -1.
        -11    1    3    3    0    0 -0.64731307067E+00 -0.24510042750E+01  0.12166891817E+02  0.12428181400E+02  0.51100000000E-03 0.  1.
        -12    1    3    3    0    0 -0.57649232822E+01  0.31143563097E+02 -0.28919058469E+02  0.42889017307E+02  0.00000000000E+00 0.  1.
</event>
<event>
 7    1  0.4359248E-015  0.9000770E+02  0.7816164E-02  0.1186339E+00
        -11   -1    0    0    0    0  0.00000000000E+00  0.00000000000E+00  0.45593999997E+02  0.45594000000E+02  0.51100000000E-03 0. -1.
         11   -1    0    0    0    0 -0.00000000000E+00 -0.00000000000E+00 -0.45593999997E+02  0.45594000000E+02  0.51100000000E-03 0.  1.
    9900012    2    1    2    0    0  0.11322318327E+01 -0.35749190618E-03  0.33342253741E+00  0.90007695107E+02  0.89999955883E+02 0.  0.
        -12    1    1    2    0    0 -0.11322318327E+01  0.35749190619E-03 -0.33342253741E+00  0.11803048925E+01  0.00000000000E+00 0.  1.
         11    1    3    3    0    0  0.72326620335E+01  0.21616533866E+02  0.19540196697E+02  0.30023411260E+02  0.51100000000E-03 0. -1.
        -11    1    3    3    0    0 -0.20258186260E+02  0.38685315154E+01  0.59624760948E+01  0.21468832480E+02  0.51100000000E-03 0.  1.
        -12    1    3    3    0    0  0.14157756059E+02 -0.25485422873E+02 -0.25169250254E+02  0.38515451367E+02  0.00000000000E+00 0.  1.
</event>
<event>
 7    1  0.4359248E-015  0.9000774E+02  0.7816164E-02  0.1186339E+00
        -11   -1    0    0    0    0  0.00000000000E+00  0.00000000000E+00  0.45593999997E+02  0.45594000000E+02  0.51100000000E-03 0. -1.
         11   -1    0    0    0    0 -0.00000000000E+00 -0.00000000000E+00 -0.45593999997E+02  0.45594000000E+02  0.51100000000E-03 0.  1.
    9900012    2    1    2    0    0  0.81896355224E+00  0.40908370356E+00  0.74495795982E+00  0.90007740224E+02  0.90000001595E+02 0.  0.
        -12    1    1    2    0    0 -0.81896355224E+00 -0.40908370356E+00 -0.74495795982E+00  0.11802597758E+01  0.00000000000E+00 0.  1.
         11    1    3    3    0    0 -0.98547649968E+01 -0.28890145880E+01  0.33822037276E+01  0.10812127485E+02  0.51100000000E-03 0. -1.
        -11    1    3    3    0    0 -0.25201587576E+02 -0.14217485077E+02 -0.20497384649E+02  0.35459831866E+02  0.51100000000E-03 0.  1.
         12    1    3    3    0    0  0.35875316125E+02  0.17515583368E+02  0.17860138881E+02  0.43735780874E+02  0.00000000000E+00 0. -1.
</event>
<event>
 7    1  0.4359248E-015  0.9000768E+02  0.7816164E-02  0.1186339E+00
        -11   -1    0    0    0    0  0.00000000000E+00  0.00000000000E+00  0.45593999997E+02  0.45594000000E+02  0.51100000000E-03 0. -1.
         11   -1    0    0    0    0 -0.00000000000E+00 -0.00000000000E+00 -0.45593999997E+02  0.45594000000E+02  0.51100000000E-03 0.  1.
    9900012    2    1    2    0    0  0.11671974039E+01  0.15942699367E+00  0.73340682691E-01  0.90007684109E+02  0.89999944740E+02 0.  0.
        -12    1    1    2    0    0 -0.11671974039E+01 -0.15942699367E+00 -0.73340682691E-01  0.11803158907E+01  0.00000000000E+00 0.  1.
         11    1    3    3    0    0  0.14364124481E+02 -0.27252030994E+02  0.14882474819E+02  0.34212414741E+02  0.51100000000E-03 0. -1.
        -11    1    3    3    0    0 -0.46866097965E+00 -0.11512683444E+02  0.16874528901E+01  0.11645128626E+02  0.51100000000E-03 0.  1.
        -12    1    3    3    0    0 -0.12728266098E+02  0.38924141432E+02 -0.16496587026E+02  0.44150140742E+02  0.00000000000E+00 0.  1.
</event>
<event>
 7    1  0.4359248E-015  0.9000776E+02  0.7816164E-02  0.1186339E+00
        -11   -1    0    0    0    0  0.00000000000E+00  0.00000000000E+00  0.45593999997E+02  0.45594000000E+02  0.51100000000E-03 0. -1.
         11   -1    0    0    0    0 -0.00000000000E+00 -0.00000000000E+00 -0.45593999997E+02  0.45594000000E+02  0.51100000000E-03 0.  1.
    9900012    2    1    2    0    0 -0.97328832743E+00 -0.11121284983E+00  0.65826998750E+00  0.90007755177E+02  0.90000016745E+02 0.  0.
        -12    1    1    2    0    0  0.97328832743E+00  0.11121284983E+00 -0.65826998750E+00  0.11802448232E+01  0.00000000000E+00 0.  1.
         11    1    3    3    0    0  0.10745667530E+02 -0.32710387300E+02 -0.12145977656E+02  0.36509773780E+02  0.51100000000E-03 0. -1.
        -11    1    3    3    0    0 -0.67967068200E+01 -0.78537209989E+01 -0.10895377934E+01  0.10443335195E+02  0.51100000000E-03 0.  1.
        -12    1    3    3    0    0 -0.49222490376E+01  0.40452895449E+02  0.13893785437E+02  0.43054646202E+02  0.00000000000E+00 0.  1.
</event>
<event>
 7    1  0.4359248E-015  0.9000778E+02  0.7816164E-02  0.1186339E+00
        -11   -1    0    0    0    0  0.00000000000E+00  0.00000000000E+00  0.45593999997E+02  0.45594000000E+02  0.51100000000E-03 0.  1.
         11   -1    0    0    0    0 -0.00000000000E+00 -0.00000000000E+00 -0.45593999997E+02  0.45594000000E+02  0.51100000000E-03 0. -1.
    9900012    2    1    2    0    0 -0.76830019832E+00 -0.39071434400E+00  0.80621563846E+00  0.90007776907E+02  0.90000038762E+02 0.  0.
        -12    1    1    2    0    0  0.76830019832E+00  0.39071434400E+00 -0.80621563846E+00  0.11802230929E+01  0.00000000000E+00 0.  1.
         11    1    3    3    0    0  0.34238090368E+02  0.16462129908E+02 -0.94068944282E+01  0.39137427307E+02  0.51100000000E-03 0. -1.
        -11    1    3    3    0    0  0.45817614054E+01 -0.77501070203E+01  0.36842773585E+01  0.97278258783E+01  0.51100000000E-03 0.  1.
        -12    1    3    3    0    0 -0.39588151972E+02 -0.91027372321E+01  0.65288327081E+01  0.41142523722E+02  0.00000000000E+00 0.  1.
</event>
<event>
 7    1  0.4663556E-015  0.9000776E+02  0.7816164E-02  0.1186339E+00
        -11   -1    0    0    0    0  0.00000000000E+00  0.00000000000E+00  0.45593999997E+02  0.45594000000E+02  0.51100000000E-03 0. -1.
         11   -1    0    0    0    0 -0.00000000000E+00 -0.00000000000E+00 -0.45593999997E+02  0.45594000000E+02  0.51100000000E-03 0.  1.
    9900012    2    1    2    0    0  0.66261806400E+00  0.70847939913E+00  0.67227339755E+00  0.90007763889E+02  0.90000025572E+02 0.  0.
        -12    1    1    2    0    0 -0.66261806400E+00 -0.70847939913E+00 -0.67227339755E+00  0.11802361115E+01  0.00000000000E+00 0.  1.
         11    1    3    3    0    0 -0.20472448666E+02  0.32149845683E+02  0.11687393898E+02  0.39866388201E+02  0.51100000000E-03 0. -1.
        -11    1    3    3    0    0 -0.65664403164E+01 -0.18482276595E+01 -0.63827533543E+01  0.93420353539E+01  0.51100000000E-03 0.  1.
        -12    1    3    3    0    0  0.27701507046E+02 -0.29593138624E+02 -0.46323671463E+01  0.40799340334E+02  0.00000000000E+00 0.  1.
</event>
<event>
 7    1  0.4359248E-015  0.9000786E+02  0.7816164E-02  0.1186339E+00
        -11   -1    0    0    0    0  0.00000000000E+00  0.00000000000E+00  0.45593999997E+02  0.45594000000E+02  0.51100000000E-03 0. -1.
         11   -1    0    0    0    0 -0.00000000000E+00 -0.00000000000E+00 -0.45593999997E+02  0.45594000000E+02  0.51100000000E-03 0.  1.
    9900012    2    1    2    0    0  0.49902126206E+00  0.72548917058E+00  0.78572748128E+00  0.90007862537E+02  0.90000125522E+02 0.  0.
        -12    1    1    2    0    0 -0.49902126206E+00 -0.72548917058E+00 -0.78572748128E+00  0.11801374630E+01  0.00000000000E+00 0.  1.
         11    1    3    3    0    0  0.60426063776E+01 -0.36124378680E+01  0.14289141276E+01  0.71836338318E+01  0.51100000000E-03 0. -1.
        -11    1    3    3    0    0 -0.35672843959E+01  0.21377466100E+02 -0.36854822264E+02  0.42755110796E+02  0.51100000000E-03 0.  1.
         12    1    3    3    0    0 -0.19763007196E+01 -0.17039539061E+02  0.36211635618E+02  0.40069117909E+02  0.00000000000E+00 0. -1.
</event>
<event>
 7    1  0.4359248E-015  0.9000773E+02  0.7816164E-02  0.1186339E+00
        -11   -1    0    0    0    0  0.00000000000E+00  0.00000000000E+00  0.45593999997E+02  0.45594000000E+02  0.51100000000E-03 0.  1.
         11   -1    0    0    0    0 -0.00000000000E+00 -0.00000000000E+00 -0.45593999997E+02  0.45594000000E+02  0.51100000000E-03 0. -1.
    9900012    2    1    2    0    0 -0.95956569991E+00  0.50702527974E+00  0.46388456973E+00  0.90007733140E+02  0.89999994417E+02 0.  0.
        -12    1    1    2    0    0  0.95956569991E+00 -0.50702527974E+00 -0.46388456973E+00  0.11802668600E+01  0.00000000000E+00 0.  1.
         11    1    3    3    0    0  0.77642396140E+00 -0.76814009218E+01 -0.86962234439E+01  0.11628888887E+02  0.51100000000E-03 0. -1.
        -11    1    3    3    0    0 -0.31223001308E+02  0.26796144790E+02  0.13359550473E+02  0.43259528146E+02  0.51100000000E-03 0.  1.
         12    1    3    3    0    0  0.29487011647E+02 -0.18607718588E+02 -0.41994424588E+01  0.35119316108E+02  0.00000000000E+00 0. -1.
</event>
<event>
 7    1  0.4359248E-015  0.9000774E+02  0.7816164E-02  0.1186339E+00
        -11   -1    0    0    0    0  0.00000000000E+00  0.00000000000E+00  0.45593999997E+02  0.45594000000E+02  0.51100000000E-03 0. -1.
         11   -1    0    0    0    0 -0.00000000000E+00 -0.00000000000E+00 -0.45593999997E+02  0.45594000000E+02  0.51100000000E-03 0.  1.
    9900012    2    1    2    0    0  0.79142301426E+00  0.19938067826E+00  0.85259501516E+00  0.90007736766E+02  0.89999998091E+02 0.  0.
        -12    1    1    2    0    0 -0.79142301426E+00 -0.19938067826E+00 -0.85259501516E+00  0.11802632343E+01  0.00000000000E+00 0.  1.
         11    1    3    3    0    0 -0.38446670942E+02  0.16589606825E+01 -0.29184766930E+01  0.38592954843E+02  0.51100000000E-03 0. -1.
        -11    1    3    3    0    0 -0.17848720463E+01 -0.37142973362E+01  0.90963091727E+01  0.99862211947E+01  0.51100000000E-03 0.  1.
        -12    1    3    3    0    0  0.41022966003E+02  0.22547173319E+01 -0.53252374646E+01  0.41428560728E+02  0.00000000000E+00 0.  1.
</event>
<event>
 7    1  0.4359248E-015  0.9000805E+02  0.7816164E-02  0.1186338E+00
        -11   -1    0    0    0    0  0.00000000000E+00  0.00000000000E+00  0.45593999997E+02  0.45594000000E+02  0.51100000000E-03 0.  1.
         11   -1    0    0    0    0 -0.00000000000E+00 -0.00000000000E+00 -0.45593999997E+02  0.45594000000E+02  0.51100000000E-03 0. -1.
    9900012    2    1    2    0    0 -0.96680386615E+00 -0.22133457403E+00 -0.63920340482E+00  0.90008050975E+02  0.90000316447E+02 0.  0.
        -12    1    1    2    0    0  0.96680386615E+00  0.22133457403E+00  0.63920340482E+00  0.11799490252E+01  0.00000000000E+00 0.  1.
         11    1    3    3    0    0 -0.14519654309E+02  0.62161023623E+01 -0.39013274844E+02  0.42089142355E+02  0.51100000000E-03 0. -1.
        -11    1    3    3    0    0 -0.67416503971E+01  0.14925215262E+01  0.88309042343E+01  0.11209921518E+02  0.51100000000E-03 0.  1.
        -12    1    3    3    0    0  0.20294500840E+02 -0.79299584625E+01  0.29543167205E+02  0.36708987102E+02  0.00000000000E+00 0.  1.
</event>
<event>
 7    1  0.4359248E-015  0.9000769E+02  0.7816164E-02  0.1186339E+00
        -11   -1    0    0    0    0  0.00000000000E+00  0.00000000000E+00  0.45593999997E+02  0.45594000000E+02  0.51100000000E-03 0.  1.
         11   -1    0    0    0    0 -0.00000000000E+00 -0.00000000000E+00 -0.45593999997E+02  0.45594000000E+02  0.51100000000E-03 0. -1.
    9900012    2    1    2    0    0  0.11624320579E+01 -0.75445971035E-02 -0.20450827200E+00  0.90007691208E+02  0.89999951932E+02 0.  0.
        -12    1    1    2    0    0 -0.11624320579E+01  0.75445971035E-02  0.20450827200E+00  0.11803087916E+01  0.00000000000E+00 0.  1.
         11    1    3    3    0    0  0.24415435373E+01  0.33122518009E+01 -0.81957016672E+01  0.91706964248E+01  0.51100000000E-03 0. -1.
        -11    1    3    3    0    0  0.31305234038E+02  0.19358407272E+02  0.16336957175E+02  0.40269861935E+02  0.51100000000E-03 0.  1.
         12    1    3    3    0    0 -0.32584345517E+02 -0.22678203670E+02 -0.83457637798E+01  0.40567132849E+02  0.00000000000E+00 0. -1.
</event>
<event>
 7    1  0.4359248E-015  0.9000780E+02  0.7816164E-02  0.1186339E+00
        -11   -1    0    0    0    0  0.00000000000E+00  0.00000000000E+00  0.45593999997E+02  0.45594000000E+02  0.51100000000E-03 0.  1.
         11   -1    0    0    0    0 -0.00000000000E+00 -0.00000000000E+00 -0.45593999997E+02  0.45594000000E+02  0.51100000000E-03 0. -1.
    9900012    2    1    2    0    0 -0.47389719524E+00  0.10243727173E+01  0.34488979050E+00  0.90007802142E+02  0.90000064331E+02 0.  0.
        -12    1    1    2    0    0  0.47389719524E+00 -0.10243727173E+01 -0.34488979050E+00  0.11801978577E+01  0.00000000000E+00 0.  1.
         11    1    3    3    0    0  0.58690365782E+01  0.40005539786E+01  0.68859351699E+01  0.98927309636E+01  0.51100000000E-03 0. -1.
        -11    1    3    3    0    0  0.16763975108E+02 -0.32754559471E+02  0.11192389747E+02  0.38459870204E+02  0.51100000000E-03 0.  1.
         12    1    3    3    0    0 -0.23106908882E+02  0.29778378210E+02 -0.17733435126E+02  0.41655200975E+02  0.00000000000E+00 0. -1.
</event>
<event>
 7    1  0.4359248E-015  0.9000776E+02  0.7816164E-02  0.1186339E+00
        -11   -1    0    0    0    0  0.00000000000E+00  0.00000000000E+00  0.45593999997E+02  0.45594000000E+02  0.51100000000E-03 0. -1.
         11   -1    0    0    0    0 -0.00000000000E+00 -0.00000000000E+00 -0.45593999997E+02  0.45594000000E+02  0.51100000000E-03 0.  1.
    9900012    2    1    2    0    0 -0.68135184164E+00  0.74558311242E+00  0.61060595985E+00  0.90007756742E+02  0.90000018331E+02 0.  0.
        -12    1    1    2    0    0  0.68135184164E+00 -0.74558311242E+00 -0.61060595985E+00  0.11802432579E+01  0.00000000000E+00 0.  1.
         11    1    3    3    0    0  0.65468170238E+00 -0.11022832299E+02 -0.32122206219E+01  0.11499991374E+02  0.51100000000E-03 0. -1.
        -11    1    3    3    0    0 -0.51679787182E+01 -0.18999847828E+02 -0.27900346079E+02  0.34148668102E+02  0.51100000000E-03 0.  1.
         12    1    3    3    0    0  0.38319451742E+01  0.30768263239E+02  0.31723172661E+02  0.44359097266E+02  0.00000000000E+00 0. -1.
</event>
<event>
 7    1  0.5087015E-015  0.9000771E+02  0.7816164E-02  0.1186339E+00
        -11   -1    0    0    0    0  0.00000000000E+00  0.00000000000E+00  0.45593999997E+02  0.45594000000E+02  0.51100000000E-03 0. -1.
         11   -1    0    0    0    0 -0.00000000000E+00 -0.00000000000E+00 -0.45593999997E+02  0.45594000000E+02  0.51100000000E-03 0.  1.
    9900012    2    1    2    0    0  0.72550661954E+00  0.14233768576E+00  0.92003051289E+00  0.90007713587E+02  0.89999974606E+02 0.  0.
        -12    1    1    2    0    0 -0.72550661954E+00 -0.14233768576E+00 -0.92003051289E+00  0.11802864129E+01  0.00000000000E+00 0.  1.
         11    1    3    3    0    0  0.28791255262E+02  0.23055799456E+02 -0.50173046726E+01  0.37224717790E+02  0.51100000000E-03 0. -1.
        -11    1    3    3    0    0  0.12360719513E+01  0.84203994982E+01  0.50042711111E+01  0.98728785667E+01  0.51100000000E-03 0.  1.
        -12    1    3    3    0    0 -0.29301820594E+02 -0.31333861269E+02  0.93306407442E+00  0.42910117230E+02  0.00000000000E+00 0.  1.
</event>
<event>
 7    1  0.4359248E-015  0.9000778E+02  0.7816164E-02  0.1186339E+00
        -11   -1    0    0    0    0  0.00000000000E+00  0.00000000000E+00  0.45593999997E+02  0.45594000000E+02  0.51100000000E-03 0. -1.
         11   -1    0    0    0    0 -0.00000000000E+00 -0.00000000000E+00 -0.45593999997E+02  0.45594000000E+02  0.51100000000E-03 0.  1.
    9900012    2    1    2    0    0 -0.88683869429E+00 -0.74913109366E+00 -0.21270501165E+00  0.90007778120E+02  0.90000039991E+02 0.  0.
        -12    1    1    2    0    0  0.88683869429E+00  0.74913109366E+00  0.21270501165E+00  0.11802218805E+01  0.00000000000E+00 0.  1.
         11    1    3    3    0    0 -0.25095192450E+02  0.27047334836E+02 -0.15127929056E+01  0.36927165453E+02  0.51100000000E-03 0. -1.
        -11    1    3    3    0    0 -0.85215100122E+01  0.20341534863E+01 -0.31718812809E+00  0.87666710822E+01  0.51100000000E-03 0.  1.
        -12    1    3    3    0    0  0.32729863768E+02 -0.29830619416E+02  0.16172760220E+01  0.44313941584E+02  0.00000000000E+00 0.  1.
</event>
<event>
 7    1  0.4359248E-015  0.9000813E+02  0.7816164E-02  0.1186338E+00
        -11   -1    0    0    0    0  0.00000000000E+00  0.00000000000E+00  0.45593999997E+02  0.45594000000E+02  0.51100000000E-03 0. -1.
         11   -1    0    0    0    0 -0.00000000000E+00 -0.00000000000E+00 -0.45593999997E+02  0.45594000000E+02  0.51100000000E-03 0.  1.
    9900012    2    1    2    0    0 -0.15067697404E+00  0.80134108085E+00  0.85279052639E+00  0.90008125956E+02  0.90000392418E+02 0.  0.
        -12    1    1    2    0    0  0.15067697404E+00 -0.80134108085E+00 -0.85279052639E+00  0.11798740442E+01  0.00000000000E+00 0.  1.
         11    1    3    3    0    0 -0.67023356090E+01  0.36774647414E+01  0.17136543366E+01  0.78346449177E+01  0.51100000000E-03 0. -1.
        -11    1    3    3    0    0 -0.25151090168E+02 -0.27821661552E+02  0.12728017801E+02  0.39605866050E+02  0.51100000000E-03 0.  1.
         12    1    3    3    0    0  0.31702748803E+02  0.24945537892E+02 -0.13588881611E+02  0.42567614988E+02  0.00000000000E+00 0. -1.
</event>
<event>
 7    1  0.4359248E-015  0.9000784E+02  0.7816164E-02  0.1186339E+00
        -11   -1    0    0    0    0  0.00000000000E+00  0.00000000000E+00  0.45593999997E+02  0.45594000000E+02  0.51100000000E-03 0.  1.
         11   -1    0    0    0    0 -0.00000000000E+00 -0.00000000000E+00 -0.45593999997E+02  0.45594000000E+02  0.51100000000E-03 0. -1.
    9900012    2    1    2    0    0  0.65213560274E+00 -0.75712946038E-01 -0.98069661008E+00  0.90007839360E+02  0.90000102040E+02 0.  0.
        -12    1    1    2    0    0 -0.65213560274E+00  0.75712946038E-01  0.98069661008E+00  0.11801606397E+01  0.00000000000E+00 0.  1.
         11    1    3    3    0    0  0.88921256446E+01 -0.29360037024E+01 -0.24859641388E+01  0.96886549211E+01  0.51100000000E-03 0. -1.
        -11    1    3    3    0    0 -0.38246614313E+01 -0.12311358369E+02  0.38226944032E+02  0.40342246223E+02  0.51100000000E-03 0.  1.
         12    1    3    3    0    0 -0.44153286105E+01  0.15171649126E+02 -0.36721676504E+02  0.39976938217E+02  0.00000000000E+00 0. -1.
</event>
<event>
 7    1  0.4359248E-015  0.9000776E+02  0.7816164E-02  0.1186339E+00
        -11   -1    0    0    0    0  0.00000000000E+00  0.00000000000E+00  0.45593999997E+02  0.45594000000E+02  0.51100000000E-03 0.  1.
         11   -1    0    0    0    0 -0.00000000000E+00 -0.00000000000E+00 -0.45593999997E+02  0.45594000000E+02  0.51100000000E-03 0. -1.
    9900012    2    1    2    0    0 -0.75162006752E+00 -0.42543256380E+00  0.80438526259E+00  0.90007762209E+02  0.90000023870E+02 0.  0.
        -12    1    1    2    0    0  0.75162006752E+00  0.42543256380E+00 -0.80438526259E+00  0.11802377908E+01  0.00000000000E+00 0.  1.
         11    1    3    3    0    0 -0.40184126323E+02  0.33071834205E+01  0.10234616344E+02  0.41598663950E+02  0.51100000000E-03 0. -1.
        -11    1    3    3    0    0  0.34357476615E+01 -0.39628277905E+01 -0.11200938562E+02  0.12368079521E+02  0.51100000000E-03 0.  1.
        -12    1    3    3    0    0  0.35996758593E+02  0.23021180626E+00  0.17707074806E+01  0.36041018738E+02  0.00000000000E+00 0.  1.
</event>
<event>
 7    1  0.4359248E-015  0.9000790E+02  0.7816164E-02  0.1186339E+00
        -11   -1    0    0    0    0  0.00000000000E+00  0.00000000000E+00  0.45593999997E+02  0.45594000000E+02  0.51100000000E-03 0. -1.
         11   -1    0    0    0    0 -0.00000000000E+00 -0.00000000000E+00 -0.45593999997E+02  0.45594000000E+02  0.51100000000E-03 0.  1.
    9900012    2    1    2    0    0  0.73531225681E+00 -0.86034885996E+00  0.33430845039E+00  0.90007895591E+02  0.90000159013E+02 0.  0.
        -12    1    1    2    0    0 -0.73531225681E+00  0.86034885996E+00 -0.33430845039E+00  0.11801044089E+01  0.00000000000E+00 0.  1.
         11    1    3    3    0    0  0.99172116613E+00  0.33173087670E+02  0.17130137579E+02  0.37348077195E+02  0.51100000000E-03 0. -1.
        -11    1    3    3    0    0  0.73370152331E+00 -0.20284732277E+01  0.10416983057E+02  0.10637977150E+02  0.51100000000E-03 0.  1.
        -12    1    3    3    0    0 -0.99011043262E+00 -0.32004963302E+02 -0.27212812186E+02  0.42021841246E+02  0.00000000000E+00 0.  1.
</event>
<event>
 7    1  0.4359248E-015  0.9000776E+02  0.7816164E-02  0.1186339E+00
        -11   -1    0    0    0    0  0.00000000000E+00  0.00000000000E+00  0.45593999997E+02  0.45594000000E+02  0.51100000000E-03 0. -1.
         11   -1    0    0    0    0 -0.00000000000E+00 -0.00000000000E+00 -0.45593999997E+02  0.45594000000E+02  0.51100000000E-03 0.  1.
    9900012    2    1    2    0    0 -0.71757951021E+00  0.20083725913E+00  0.91525983969E+00  0.90007764205E+02  0.90000025892E+02 0.  0.
        -12    1    1    2    0    0  0.71757951021E+00 -0.20083725913E+00 -0.91525983969E+00  0.11802357952E+01  0.00000000000E+00 0.  1.
         11    1    3    3    0    0  0.11384313759E+02 -0.77130860249E+01 -0.75507017427E+01  0.15687810327E+02  0.51100000000E-03 0. -1.
        -11    1    3    3    0    0  0.25379875219E+02 -0.15405649665E+02  0.30940401667E+01  0.29850380107E+02  0.51100000000E-03 0.  1.
         12    1    3    3    0    0 -0.37481768489E+02  0.23319572949E+02  0.53719214157E+01  0.44469573770E+02  0.00000000000E+00 0. -1.
</event>
<event>
 7    1  0.4359248E-015  0.9000774E+02  0.7816164E-02  0.1186339E+00
        -11   -1    0    0    0    0  0.00000000000E+00  0.00000000000E+00  0.45593999997E+02  0.45594000000E+02  0.51100000000E-03 0.  1.
         11   -1    0    0    0    0 -0.00000000000E+00 -0.00000000000E+00 -0.45593999997E+02  0.45594000000E+02  0.51100000000E-03 0. -1.
    9900012    2    1    2    0    0  0.37456789887E+00 -0.11185586781E+01  0.39312263443E-01  0.90007737283E+02  0.89999998615E+02 0.  0.
        -12    1    1    2    0    0 -0.37456789887E+00  0.11185586781E+01 -0.39312263443E-01  0.11802627170E+01  0.00000000000E+00 0.  1.
         11    1    3    3    0    0 -0.17756049586E+02  0.10210284526E+02 -0.65241100442E+01  0.21496307104E+02  0.51100000000E-03 0. -1.
        -11    1    3    3    0    0 -0.43292934317E+01  0.13474725939E+02  0.26153359434E+02  0.29737337317E+02  0.51100000000E-03 0.  1.
        -12    1    3    3    0    0  0.22459910916E+02 -0.24803569143E+02 -0.19589937127E+02  0.38774092862E+02  0.00000000000E+00 0.  1.
</event>
<event>
 7    1  0.4359248E-015  0.9000773E+02  0.7816164E-02  0.1186339E+00
        -11   -1    0    0    0    0  0.00000000000E+00  0.00000000000E+00  0.45593999997E+02  0.45594000000E+02  0.51100000000E-03 0. -1.
         11   -1    0    0    0    0 -0.00000000000E+00 -0.00000000000E+00 -0.45593999997E+02  0.45594000000E+02  0.51100000000E-03 0.  1.
    9900012    2    1    2    0    0 -0.10234751049E+00 -0.72993839779E+00  0.92181568823E+00  0.90007733403E+02  0.89999994684E+02 0.  0.
        -12    1    1    2    0    0  0.10234751049E+00  0.72993839779E+00 -0.92181568823E+00  0.11802665972E+01  0.00000000000E+00 0.  1.
         11    1    3    3    0    0 -0.67985576215E+01 -0.44396846799E+01 -0.33721520332E+01  0.87921894534E+01  0.51100000000E-03 0. -1.
        -11    1    3    3    0    0 -0.16140472307E+02  0.28817828827E+02 -0.20775597106E+02  0.39020604044E+02  0.51100000000E-03 0.  1.
         12    1    3    3    0    0  0.22836682418E+02 -0.25108082545E+02  0.25069564828E+02  0.42194939905E+02  0.00000000000E+00 0. -1.
</event>
<event>
 7    1  0.4359248E-015  0.9000772E+02  0.7816164E-02  0.1186339E+00
        -11   -1    0    0    0    0  0.00000000000E+00  0.00000000000E+00  0.45593999997E+02  0.45594000000E+02  0.51100000000E-03 0. -1.
         11   -1    0    0    0    0 -0.00000000000E+00 -0.00000000000E+00 -0.45593999997E+02  0.45594000000E+02  0.51100000000E-03 0.  1.
    9900012    2    1    2    0    0 -0.95414062822E+00  0.16287248324E+00  0.67539320487E+00  0.90007717082E+02  0.89999978148E+02 0.  0.
        -12    1    1    2    0    0  0.95414062822E+00 -0.16287248324E+00 -0.67539320487E+00  0.11802829175E+01  0.00000000000E+00 0.  1.
         11    1    3    3    0    0 -0.27713787019E+02  0.18506403151E+02 -0.19557138964E+01  0.33382117453E+02  0.51100000000E-03 0. -1.
        -11    1    3    3    0    0 -0.44352936920E+01  0.97659009654E+01  0.91909091789E+01  0.14125065083E+02  0.51100000000E-03 0.  1.
        -12    1    3    3    0    0  0.31194940083E+02 -0.28109431633E+02 -0.65598020777E+01  0.42500534547E+02  0.00000000000E+00 0.  1.
</event>
<event>
 7    1  0.4359248E-015  0.9000773E+02  0.7816164E-02  0.1186339E+00
        -11   -1    0    0    0    0  0.00000000000E+00  0.00000000000E+00  0.45593999997E+02  0.45594000000E+02  0.51100000000E-03 0. -1.
         11   -1    0    0    0    0 -0.00000000000E+00 -0.00000000000E+00 -0.45593999997E+02  0.45594000000E+02  0.51100000000E-03 0.  1.
    9900012    2    1    2    0    0  0.11619568660E+01 -0.20323012154E+00 -0.39848739067E-01  0.90007731318E+02  0.89999992571E+02 0.  0.
        -12    1    1    2    0    0 -0.11619568660E+01  0.20323012154E+00  0.39848739067E-01  0.11802686824E+01  0.00000000000E+00 0.  1.
         11    1    3    3    0    0 -0.12942160108E+02 -0.70110227857E+01  0.13413823960E+02  0.19914432512E+02  0.51100000000E-03 0. -1.
        -11    1    3    3    0    0 -0.20210658953E+02 -0.16916749468E+02 -0.10157308132E+02  0.28245673238E+02  0.51100000000E-03 0.  1.
         12    1    3    3    0    0  0.34314775928E+02  0.23724542132E+02 -0.32963645665E+01  0.41847625568E+02  0.00000000000E+00 0. -1.
</event>
<event>
 7    1  0.4359248E-015  0.9000707E+02  0.7816164E-02  0.1186340E+00
        -11   -1    0    0    0    0  0.00000000000E+00  0.00000000000E+00  0.45593999997E+02  0.45594000000E+02  0.51100000000E-03 0. -1.
         11   -1    0    0    0    0 -0.00000000000E+00 -0.00000000000E+00 -0.45593999997E+02  0.45594000000E+02  0.51100000000E-03 0.  1.
    9900012    2    1    2    0    0 -0.70299620482E+00  0.84789573759E+00 -0.42599975759E+00  0.90007065354E+02  0.89999317814E+02 0.  0.
        -12    1    1    2    0    0  0.70299620482E+00 -0.84789573759E+00  0.42599975759E+00  0.11809346465E+01  0.00000000000E+00 0.  1.
         11    1    3    3    0    0  0.27070983883E+02  0.13191253587E+02 -0.31767961869E+02  0.43772716858E+02  0.51100000000E-03 0. -1.
        -11    1    3    3    0    0 -0.10859272949E+02 -0.22470488442E+01  0.26004186660E+01  0.11390136741E+02  0.51100000000E-03 0.  1.
        -12    1    3    3    0    0 -0.16914707139E+02 -0.10096309005E+02  0.28741543446E+02  0.34844211754E+02  0.00000000000E+00 0.  1.
</event>
<event>
 7    1  0.4359248E-015  0.9000769E+02  0.7816164E-02  0.1186339E+00
        -11   -1    0    0    0    0  0.00000000000E+00  0.00000000000E+00  0.45593999997E+02  0.45594000000E+02  0.51100000000E-03 0. -1.
         11   -1    0    0    0    0 -0.00000000000E+00 -0.00000000000E+00 -0.45593999997E+02  0.45594000000E+02  0.51100000000E-03 0.  1.
    9900012    2    1    2    0    0  0.70322974032E+00  0.11829457343E+00  0.94053949697E+00  0.90007686390E+02  0.89999947050E+02 0.  0.
        -12    1    1    2    0    0 -0.70322974032E+00 -0.11829457343E+00 -0.94053949697E+00  0.11803136105E+01  0.00000000000E+00 0.  1.
         11    1    3    3    0    0  0.82409143123E+00 -0.32148748012E+01 -0.86728089205E+01  0.92861273687E+01  0.51100000000E-03 0. -1.
        -11    1    3    3    0    0  0.20075333314E+02 -0.28791372499E+01 -0.29773616809E+02  0.36024667898E+02  0.51100000000E-03 0.  1.
         12    1    3    3    0    0 -0.20196195005E+02  0.62123066245E+01  0.39386965227E+02  0.44696891123E+02  0.00000000000E+00 0. -1.
</event>
<event>
 7    1  0.4359248E-015  0.9000771E+02  0.7816164E-02  0.1186339E+00
        -11   -1    0    0    0    0  0.00000000000E+00  0.00000000000E+00  0.45593999997E+02  0.45594000000E+02  0.51100000000E-03 0.  1.
         11   -1    0    0    0    0 -0.00000000000E+00 -0.00000000000E+00 -0.45593999997E+02  0.45594000000E+02  0.51100000000E-03 0. -1.
    9900012    2    1    2    0    0 -0.76932781520E+00 -0.68979669687E+00 -0.57042786269E+00  0.90007714985E+02  0.89999976023E+02 0.  0.
        -12    1    1    2    0    0  0.76932781520E+00  0.68979669687E+00  0.57042786269E+00  0.11802850151E+01  0.00000000000E+00 0.  1.
         11    1    3    3    0    0 -0.37381207805E+02  0.67768177309E+01  0.18241302928E+02  0.42142912670E+02  0.51100000000E-03 0. -1.
        -11    1    3    3    0    0  0.37658510525E+01  0.63023415089E+01 -0.75025761610E+01  0.10497132559E+02  0.51100000000E-03 0.  1.
        -12    1    3    3    0    0  0.32846028938E+02 -0.13768955937E+02 -0.11309154630E+02  0.37367669756E+02  0.00000000000E+00 0.  1.
</event>
<event>
 7    1  0.4359248E-015  0.9000775E+02  0.7816164E-02  0.1186339E+00
        -11   -1    0    0    0    0  0.00000000000E+00  0.00000000000E+00  0.45593999997E+02  0.45594000000E+02  0.51100000000E-03 0.  1.
         11   -1    0    0    0    0 -0.00000000000E+00 -0.00000000000E+00 -0.45593999997E+02  0.45594000000E+02  0.51100000000E-03 0. -1.
    9900012    2    1    2    0    0 -0.43566849084E+00 -0.63238397109E+00 -0.89625312827E+00  0.90007751640E+02  0.90000013162E+02 0.  0.
        -12    1    1    2    0    0  0.43566849084E+00  0.63238397109E+00  0.89625312827E+00  0.11802483598E+01  0.00000000000E+00 0.  1.
         11    1    3    3    0    0 -0.34346620489E+00 -0.20021936158E+02 -0.48494597683E+01  0.20603717064E+02  0.51100000000E-03 0. -1.
        -11    1    3    3    0    0  0.47212747157E+01  0.14035362797E+02  0.34751714941E+02  0.37775170885E+02  0.51100000000E-03 0.  1.
         12    1    3    3    0    0 -0.48134770016E+01  0.53541893892E+01 -0.30798508301E+02  0.31628863691E+02  0.00000000000E+00 0. -1.
</event>
<event>
 7    1  0.4359248E-015  0.9000766E+02  0.7816164E-02  0.1186339E+00
        -11   -1    0    0    0    0  0.00000000000E+00  0.00000000000E+00  0.45593999997E+02  0.45594000000E+02  0.51100000000E-03 0.  1.
         11   -1    0    0    0    0 -0.00000000000E+00 -0.00000000000E+00 -0.45593999997E+02  0.45594000000E+02  0.51100000000E-03 0. -1.
    9900012    2    1    2    0    0  0.54597922768E+00 -0.12721889545E+00 -0.10387122118E+01  0.90007660632E+02  0.89999920952E+02 0.  0.
        -12    1    1    2    0    0 -0.54597922768E+00  0.12721889545E+00  0.10387122118E+01  0.11803393678E+01  0.00000000000E+00 0.  1.
         11    1    3    3    0    0 -0.29537610547E+02 -0.20189942073E+02 -0.40646013400E+01  0.36008682037E+02  0.51100000000E-03 0. -1.
        -11    1    3    3    0    0 -0.57828878439E+01 -0.32236424271E+01 -0.74549960517E+01  0.99704878870E+01  0.51100000000E-03 0.  1.
        -12    1    3    3    0    0  0.35866477619E+02  0.23286365605E+02  0.10480885180E+02  0.44028490708E+02  0.00000000000E+00 0.  1.
</event>
<event>
 7    1  0.4359248E-015  0.9000776E+02  0.7816164E-02  0.1186339E+00
        -11   -1    0    0    0    0  0.00000000000E+00  0.00000000000E+00  0.45593999997E+02  0.45594000000E+02  0.51100000000E-03 0.  1.
         11   -1    0    0    0    0 -0.00000000000E+00 -0.00000000000E+00 -0.45593999997E+02  0.45594000000E+02  0.51100000000E-03 0. -1.
    9900012    2    1    2    0    0  0.27040312201E+00 -0.11453301252E+01  0.89818688022E-01  0.90007760050E+02  0.90000021682E+02 0.  0.
        -12    1    1    2    0    0 -0.27040312201E+00  0.11453301252E+01 -0.89818688022E-01  0.11802399505E+01  0.00000000000E+00 0.  1.
         11    1    3    3    0    0  0.10305771213E+02  0.26455144237E+02  0.21487421966E+02  0.35606079255E+02  0.51100000000E-03 0. -1.
        -11    1    3    3    0    0  0.75668280284E+01  0.73998765529E+01 -0.23594675307E+01  0.10843530177E+02  0.51100000000E-03 0.  1.
        -12    1    3    3    0    0 -0.17602196120E+02 -0.35000350916E+02 -0.19038135747E+02  0.43558150617E+02  0.00000000000E+00 0.  1.
</event>
<event>
 7    1  0.4359248E-015  0.9000774E+02  0.7816164E-02  0.1186339E+00
        -11   -1    0    0    0    0  0.00000000000E+00  0.00000000000E+00  0.45593999997E+02  0.45594000000E+02  0.51100000000E-03 0. -1.
         11   -1    0    0    0    0 -0.00000000000E+00 -0.00000000000E+00 -0.45593999997E+02  0.45594000000E+02  0.51100000000E-03 0.  1.
    9900012    2    1    2    0    0  0.77197462610E+00  0.41884273647E+00  0.78843963276E+00  0.90007741081E+02  0.90000002463E+02 0.  0.
        -12    1    1    2    0    0 -0.77197462610E+00 -0.41884273647E+00 -0.78843963276E+00  0.11802589189E+01  0.00000000000E+00 0.  1.
         11    1    3    3    0    0 -0.37189755450E+00  0.31603827274E+02  0.23728844112E+02  0.39522123542E+02  0.51100000000E-03 0. -1.
        -11    1    3    3    0    0 -0.53435748556E+01 -0.12156930659E+02  0.65403443644E+01  0.14802731503E+02  0.51100000000E-03 0.  1.
        -12    1    3    3    0    0  0.64874470362E+01 -0.19028053878E+02 -0.29480748844E+02  0.35682886035E+02  0.00000000000E+00 0.  1.
</event>
<event>
 7    1  0.4359248E-015  0.9000765E+02  0.7816164E-02  0.1186339E+00
        -11   -1    0    0    0    0  0.00000000000E+00  0.00000000000E+00  0.45593999997E+02  0.45594000000E+02  0.51100000000E-03 0. -1.
         11   -1    0    0    0    0 -0.00000000000E+00 -0.00000000000E+00 -0.45593999997E+02  0.45594000000E+02  0.51100000000E-03 0.  1.
    9900012    2    1    2    0    0  0.17982170744E-01 -0.11275088210E+01 -0.34874410399E+00  0.90007651767E+02  0.89999911971E+02 0.  0.
        -12    1    1    2    0    0 -0.17982170744E-01  0.11275088210E+01  0.34874410399E+00  0.11803482325E+01  0.00000000000E+00 0.  1.
         11    1    3    3    0    0  0.36938868935E+01 -0.24180310983E+01 -0.86385899619E+01  0.97013870949E+01  0.51100000000E-03 0. -1.
        -11    1    3    3    0    0  0.20797403007E+02  0.18515796184E+02 -0.23652133772E+02  0.36534779490E+02  0.51100000000E-03 0.  1.
         12    1    3    3    0    0 -0.24473307730E+02 -0.17225273907E+02  0.31941979630E+02  0.43771485182E+02  0.00000000000E+00 0. -1.
</event>
<event>
 7    1  0.4359248E-015  0.9000835E+02  0.7816164E-02  0.1186338E+00
        -11   -1    0    0    0    0  0.00000000000E+00  0.00000000000E+00  0.45593999997E+02  0.45594000000E+02  0.51100000000E-03 0.  1.
         11   -1    0    0    0    0 -0.00000000000E+00 -0.00000000000E+00 -0.45593999997E+02  0.45594000000E+02  0.51100000000E-03 0. -1.
    9900012    2    1    2    0    0  0.11441781058E+00 -0.19441080230E+00 -0.11578766298E+01  0.90008353746E+02  0.90000623213E+02 0.  0.
        -12    1    1    2    0    0 -0.11441781058E+00  0.19441080230E+00  0.11578766298E+01  0.11796462543E+01  0.00000000000E+00 0.  1.
         11    1    3    3    0    0 -0.35118466233E+02 -0.10088297904E+02  0.72632591593E+01  0.37253662358E+02  0.51100000000E-03 0. -1.
        -11    1    3    3    0    0 -0.76300339042E+01  0.32088891846E+01  0.10736943231E+01  0.83466883816E+01  0.51100000000E-03 0.  1.
        -12    1    3    3    0    0  0.42862917948E+02  0.66849979168E+01 -0.94948301121E+01  0.44408003007E+02  0.00000000000E+00 0.  1.
</event>
<event>
 7    1  0.4359248E-015  0.9000775E+02  0.7816164E-02  0.1186339E+00
        -11   -1    0    0    0    0  0.00000000000E+00  0.00000000000E+00  0.45593999997E+02  0.45594000000E+02  0.51100000000E-03 0. -1.
         11   -1    0    0    0    0 -0.00000000000E+00 -0.00000000000E+00 -0.45593999997E+02  0.45594000000E+02  0.51100000000E-03 0.  1.
    9900012    2    1    2    0    0 -0.83236806428E+00 -0.72383873709E+00  0.41977927878E+00  0.90007748436E+02  0.90000009915E+02 0.  0.
        -12    1    1    2    0    0  0.83236806428E+00  0.72383873709E+00 -0.41977927878E+00  0.11802515641E+01  0.00000000000E+00 0.  1.
         11    1    3    3    0    0  0.67335677862E+01  0.51906985566E+01 -0.18864544020E+01  0.87087884983E+01  0.51100000000E-03 0. -1.
        -11    1    3    3    0    0 -0.16116207741E+02 -0.35717581912E+02 -0.19129479133E+02  0.43605215075E+02  0.51100000000E-03 0.  1.
         12    1    3    3    0    0  0.85502718907E+01  0.29803044618E+02  0.21435712814E+02  0.37693744862E+02  0.00000000000E+00 0. -1.
</event>
<event>
 7    1  0.4359248E-015  0.9000768E+02  0.7816164E-02  0.1186339E+00
        -11   -1    0    0    0    0  0.00000000000E+00  0.00000000000E+00  0.45593999997E+02  0.45594000000E+02  0.51100000000E-03 0.  1.
         11   -1    0    0    0    0 -0.00000000000E+00 -0.00000000000E+00 -0.45593999997E+02  0.45594000000E+02  0.51100000000E-03 0. -1.
    9900012    2    1    2    0    0 -0.10147785983E+01 -0.57055397061E+00 -0.19456704394E+00  0.90007676412E+02  0.89999936941E+02 0.  0.
        -12    1    1    2    0    0  0.10147785983E+01  0.57055397061E+00  0.19456704394E+00  0.11803235876E+01  0.00000000000E+00 0.  1.
         11    1    3    3    0    0  0.24912511003E+02  0.29468929118E+01  0.38916248025E+01  0.25386258609E+02  0.51100000000E-03 0. -1.
        -11    1    3    3    0    0 -0.87069455721E+01 -0.25750171305E+02  0.14602173154E+02  0.30856209821E+02  0.51100000000E-03 0.  1.
         12    1    3    3    0    0 -0.17220344029E+02  0.22232724423E+02 -0.18688365000E+02  0.33765207983E+02  0.00000000000E+00 0. -1.
</event>
<event>
 7    1  0.4359248E-015  0.9000778E+02  0.7816164E-02  0.1186339E+00
        -11   -1    0    0    0    0  0.00000000000E+00  0.00000000000E+00  0.45593999997E+02  0.45594000000E+02  0.51100000000E-03 0. -1.
         11   -1    0    0    0    0 -0.00000000000E+00 -0.00000000000E+00 -0.45593999997E+02  0.45594000000E+02  0.51100000000E-03 0.  1.
    9900012    2    1    2    0    0  0.84600499589E+00 -0.20030358295E+00  0.79816269150E+00  0.90007784062E+02  0.90000046012E+02 0.  0.
        -12    1    1    2    0    0 -0.84600499589E+00  0.20030358295E+00 -0.79816269150E+00  0.11802159381E+01  0.00000000000E+00 0.  1.
         11    1    3    3    0    0 -0.25318951609E+01  0.33459853004E+01  0.85102970901E+01  0.94884807825E+01  0.51100000000E-03 0. -1.
        -11    1    3    3    0    0 -0.89015908518E+01 -0.32079552327E+02  0.20045658203E+02  0.38860833885E+02  0.51100000000E-03 0.  1.
         12    1    3    3    0    0  0.12279491009E+02  0.28533263444E+02 -0.27757792601E+02  0.41658469394E+02  0.00000000000E+00 0. -1.
</event>
<event>
 7    1  0.4359248E-015  0.9000775E+02  0.7816164E-02  0.1186339E+00
        -11   -1    0    0    0    0  0.00000000000E+00  0.00000000000E+00  0.45593999997E+02  0.45594000000E+02  0.51100000000E-03 0. -1.
         11   -1    0    0    0    0 -0.00000000000E+00 -0.00000000000E+00 -0.45593999997E+02  0.45594000000E+02  0.51100000000E-03 0.  1.
    9900012    2    1    2    0    0  0.10258604493E+01 -0.68738153798E-01  0.57954608221E+00  0.90007750765E+02  0.90000012275E+02 0.  0.
        -12    1    1    2    0    0 -0.10258604493E+01  0.68738153798E-01 -0.57954608221E+00  0.11802492350E+01  0.00000000000E+00 0.  1.
         11    1    3    3    0    0  0.28433430599E+02 -0.18284719034E+02  0.19629812379E+02  0.39091181360E+02  0.51100000000E-03 0. -1.
        -11    1    3    3    0    0 -0.68181785164E+01 -0.68373749105E+01  0.46826154800E+01  0.10731455723E+02  0.51100000000E-03 0.  1.
        -12    1    3    3    0    0 -0.20589391634E+02  0.25053355791E+02 -0.23732881777E+02  0.40185113682E+02  0.00000000000E+00 0.  1.
</event>
<event>
 7    1  0.4359248E-015  0.9000777E+02  0.7816164E-02  0.1186339E+00
        -11   -1    0    0    0    0  0.00000000000E+00  0.00000000000E+00  0.45593999997E+02  0.45594000000E+02  0.51100000000E-03 0.  1.
         11   -1    0    0    0    0 -0.00000000000E+00 -0.00000000000E+00 -0.45593999997E+02  0.45594000000E+02  0.51100000000E-03 0. -1.
    9900012    2    1    2    0    0  0.31367652061E-01 -0.11795264450E+01  0.26166334434E-01  0.90007766446E+02  0.90000028163E+02 0.  0.
        -12    1    1    2    0    0 -0.31367652061E-01  0.11795264450E+01 -0.26166334434E-01  0.11802335536E+01  0.00000000000E+00 0.  1.
         11    1    3    3    0    0 -0.10007171701E+02 -0.10288958201E+01  0.42380270826E+01  0.10916180003E+02  0.51100000000E-03 0. -1.
        -11    1    3    3    0    0 -0.12041773422E+02  0.34508972893E+02 -0.92134470921E+01  0.37692985088E+02  0.51100000000E-03 0.  1.
         12    1    3    3    0    0  0.22080312775E+02 -0.34659603517E+02  0.50015863440E+01  0.41398601355E+02  0.00000000000E+00 0. -1.
</event>
<event>
 7    1  0.4359248E-015  0.9000778E+02  0.7816164E-02  0.1186339E+00
        -11   -1    0    0    0    0  0.00000000000E+00  0.00000000000E+00  0.45593999997E+02  0.45594000000E+02  0.51100000000E-03 0.  1.
         11   -1    0    0    0    0 -0.00000000000E+00 -0.00000000000E+00 -0.45593999997E+02  0.45594000000E+02  0.51100000000E-03 0. -1.
    9900012    2    1    2    0    0 -0.29830454572E+00  0.59898409281E-01 -0.11403239642E+01  0.90007783001E+02  0.90000044937E+02 0.  0.
        -12    1    1    2    0    0  0.29830454572E+00 -0.59898409281E-01  0.11403239642E+01  0.11802169990E+01  0.00000000000E+00 0.  1.
         11    1    3    3    0    0  0.29086029850E+01  0.21098029473E+01 -0.85634129538E+01  0.92867260904E+01  0.51100000000E-03 0. -1.
        -11    1    3    3    0    0 -0.41036417837E+02  0.51212271769E+01 -0.74296982280E+00  0.41361413916E+02  0.51100000000E-03 0.  1.
         12    1    3    3    0    0  0.37829510307E+02 -0.71711317150E+01  0.81660588124E+01  0.39359642994E+02  0.00000000000E+00 0. -1.
</event>
<event>
 7    1  0.4359248E-015  0.9000787E+02  0.7816164E-02  0.1186339E+00
        -11   -1    0    0    0    0  0.00000000000E+00  0.00000000000E+00  0.45593999997E+02  0.45594000000E+02  0.51100000000E-03 0. -1.
         11   -1    0    0    0    0 -0.00000000000E+00 -0.00000000000E+00 -0.45593999997E+02  0.45594000000E+02  0.51100000000E-03 0.  1.
    9900012    2    1    2    0    0  0.54946768014E+00  0.40675800325E+00  0.96194803490E+00  0.90007868301E+02  0.90000131363E+02 0.  0.
        -12    1    1    2    0    0 -0.54946768014E+00 -0.40675800325E+00 -0.96194803490E+00  0.11801316988E+01  0.00000000000E+00 0.  1.
         11    1    3    3    0    0  0.52968225392E+01 -0.17412105501E+02  0.29557037986E+02  0.34711039192E+02  0.51100000000E-03 0. -1.
        -11    1    3    3    0    0 -0.18446540792E+02 -0.15564170182E+01 -0.49598868351E+00  0.18518728525E+02  0.51100000000E-03 0.  1.
        -12    1    3    3    0    0  0.13699185933E+02  0.19375280522E+02 -0.28099101268E+02  0.36778100585E+02  0.00000000000E+00 0.  1.
</event>
<event>
 7    1  0.4359248E-015  0.9000783E+02  0.7816164E-02  0.1186339E+00
        -11   -1    0    0    0    0  0.00000000000E+00  0.00000000000E+00  0.45593999997E+02  0.45594000000E+02  0.51100000000E-03 0. -1.
         11   -1    0    0    0    0 -0.00000000000E+00 -0.00000000000E+00 -0.45593999997E+02  0.45594000000E+02  0.51100000000E-03 0.  1.
    9900012    2    1    2    0    0  0.25818043009E+00  0.11281144999E+01  0.23127915245E+00  0.90007834967E+02  0.90000097588E+02 0.  0.
        -12    1    1    2    0    0 -0.25818043009E+00 -0.11281144999E+01 -0.23127915245E+00  0.11801650333E+01  0.00000000000E+00 0.  1.
         11    1    3    3    0    0  0.13512959284E+02 -0.12174026849E+02 -0.76944952819E+01  0.19748727965E+02  0.51100000000E-03 0. -1.
        -11    1    3    3    0    0 -0.16192309122E+02  0.24474731674E+01 -0.28097462289E+02  0.32521506529E+02  0.51100000000E-03 0.  1.
         12    1    3    3    0    0  0.29375302683E+01  0.10854668182E+02  0.36023236723E+02  0.37737600473E+02  0.00000000000E+00 0. -1.
</event>
<event>
 7    1  0.4359248E-015  0.9000772E+02  0.7816164E-02  0.1186339E+00
        -11   -1    0    0    0    0  0.00000000000E+00  0.00000000000E+00  0.45593999997E+02  0.45594000000E+02  0.51100000000E-03 0. -1.
         11   -1    0    0    0    0 -0.00000000000E+00 -0.00000000000E+00 -0.45593999997E+02  0.45594000000E+02  0.51100000000E-03 0.  1.
    9900012    2    1    2    0    0 -0.78171970871E+00 -0.60387200393E+00  0.64599548255E+00  0.90007721531E+02  0.89999982656E+02 0.  0.
        -12    1    1    2    0    0  0.78171970871E+00  0.60387200393E+00 -0.64599548255E+00  0.11802784687E+01  0.00000000000E+00 0.  1.
         11    1    3    3    0    0  0.61047698339E+01 -0.64568636465E+01  0.56550747708E+01  0.10532766673E+02  0.51100000000E-03 0. -1.
        -11    1    3    3    0    0 -0.24582424932E+00 -0.33201335719E+02 -0.18021335123E+02  0.37777740046E+02  0.51100000000E-03 0.  1.
         12    1    3    3    0    0 -0.66406652932E+01  0.39054327361E+02  0.13012255835E+02  0.41697214812E+02  0.00000000000E+00 0. -1.
</event>
<event>
 7    1  0.4359248E-015  0.9000775E+02  0.7816164E-02  0.1186339E+00
        -11   -1    0    0    0    0  0.00000000000E+00  0.00000000000E+00  0.45593999997E+02  0.45594000000E+02  0.51100000000E-03 0.  1.
         11   -1    0    0    0    0 -0.00000000000E+00 -0.00000000000E+00 -0.45593999997E+02  0.45594000000E+02  0.51100000000E-03 0. -1.
    9900012    2    1    2    0    0 -0.15654611611E+00 -0.11258752791E+01 -0.31764135599E+00  0.90007746696E+02  0.90000008152E+02 0.  0.
        -12    1    1    2    0    0  0.15654611611E+00  0.11258752791E+01  0.31764135599E+00  0.11802533040E+01  0.00000000000E+00 0.  1.
         11    1    3    3    0    0  0.11437974943E+02 -0.16082575555E+02 -0.28649916193E+02  0.34789282910E+02  0.51100000000E-03 0. -1.
        -11    1    3    3    0    0 -0.56497910537E+01 -0.57117253848E+01 -0.90436365546E+01  0.12096747836E+02  0.51100000000E-03 0.  1.
        -12    1    3    3    0    0 -0.59447300059E+01  0.20668425660E+02  0.37375911391E+02  0.43121715950E+02  0.00000000000E+00 0.  1.
</event>
<event>
 7    1  0.4359248E-015  0.9000773E+02  0.7816164E-02  0.1186339E+00
        -11   -1    0    0    0    0  0.00000000000E+00  0.00000000000E+00  0.45593999997E+02  0.45594000000E+02  0.51100000000E-03 0.  1.
         11   -1    0    0    0    0 -0.00000000000E+00 -0.00000000000E+00 -0.45593999997E+02  0.45594000000E+02  0.51100000000E-03 0. -1.
    9900012    2    1    2    0    0 -0.91578375133E+00  0.54597897417E+00 -0.50623824360E+00  0.90007733048E+02  0.89999994324E+02 0.  0.
        -12    1    1    2    0    0  0.91578375133E+00 -0.54597897417E+00  0.50623824360E+00  0.11802669523E+01  0.00000000000E+00 0.  1.
         11    1    3    3    0    0 -0.16951048310E+01  0.24669520010E+02 -0.25094021520E+02  0.35230221604E+02  0.51100000000E-03 0. -1.
        -11    1    3    3    0    0  0.68001532094E+01  0.43823131340E+01 -0.77832971879E+01  0.11226151052E+02  0.51100000000E-03 0.  1.
        -12    1    3    3    0    0 -0.60208321297E+01 -0.28505854170E+02  0.32371080465E+02  0.43551360391E+02  0.00000000000E+00 0.  1.
</event>
<event>
 7    1  0.4359248E-015  0.9000768E+02  0.7816164E-02  0.1186339E+00
        -11   -1    0    0    0    0  0.00000000000E+00  0.00000000000E+00  0.45593999997E+02  0.45594000000E+02  0.51100000000E-03 0.  1.
         11   -1    0    0    0    0 -0.00000000000E+00 -0.00000000000E+00 -0.45593999997E+02  0.45594000000E+02  0.51100000000E-03 0. -1.
    9900012    2    1    2    0    0 -0.32149949957E-01  0.49661906165E+00 -0.10702723377E+01  0.90007683522E+02  0.89999944144E+02 0.  0.
        -12    1    1    2    0    0  0.32149949957E-01 -0.49661906165E+00  0.10702723377E+01  0.11803164781E+01  0.00000000000E+00 0.  1.
         11    1    3    3    0    0  0.20337455532E+02  0.32219916351E+02 -0.18618270621E+02  0.42407253016E+02  0.51100000000E-03 0. -1.
        -11    1    3    3    0    0  0.42193320796E+01 -0.59606119417E+01  0.77821118989E+01  0.10672062771E+02  0.51100000000E-03 0.  1.
        -12    1    3    3    0    0 -0.24588937561E+02 -0.25762685348E+02  0.97658863847E+01  0.36928367735E+02  0.00000000000E+00 0.  1.
</event>
<event>
 7    1  0.4359248E-015  0.9000777E+02  0.7816164E-02  0.1186339E+00
        -11   -1    0    0    0    0  0.00000000000E+00  0.00000000000E+00  0.45593999997E+02  0.45594000000E+02  0.51100000000E-03 0.  1.
         11   -1    0    0    0    0 -0.00000000000E+00 -0.00000000000E+00 -0.45593999997E+02  0.45594000000E+02  0.51100000000E-03 0. -1.
    9900012    2    1    2    0    0  0.10943246827E+01 -0.31267974248E+00 -0.31245177271E+00  0.90007770682E+02  0.90000032455E+02 0.  0.
        -12    1    1    2    0    0 -0.10943246827E+01  0.31267974248E+00  0.31245177271E+00  0.11802293179E+01  0.00000000000E+00 0.  1.
         11    1    3    3    0    0 -0.76822909428E+01 -0.38729599387E+02 -0.15026271854E+01  0.39512749228E+02  0.51100000000E-03 0. -1.
        -11    1    3    3    0    0 -0.77680564457E+01  0.68393216795E+01 -0.86764505472E+01  0.13505547613E+02  0.51100000000E-03 0.  1.
        -12    1    3    3    0    0  0.16544672071E+02  0.31577597965E+02  0.98666259599E+01  0.36989473841E+02  0.00000000000E+00 0.  1.
</event>
<event>
 7    1  0.4359248E-015  0.9000777E+02  0.7816164E-02  0.1186339E+00
        -11   -1    0    0    0    0  0.00000000000E+00  0.00000000000E+00  0.45593999997E+02  0.45594000000E+02  0.51100000000E-03 0.  1.
         11   -1    0    0    0    0 -0.00000000000E+00 -0.00000000000E+00 -0.45593999997E+02  0.45594000000E+02  0.51100000000E-03 0. -1.
    9900012    2    1    2    0    0  0.11603743838E+01 -0.20006444277E+00  0.80237323574E-01  0.90007774377E+02  0.90000036199E+02 0.  0.
        -12    1    1    2    0    0 -0.11603743838E+01  0.20006444277E+00 -0.80237323574E-01  0.11802256225E+01  0.00000000000E+00 0.  1.
         11    1    3    3    0    0 -0.54131849826E+01 -0.35618211091E+02  0.63811680290E+01  0.36587960296E+02  0.51100000000E-03 0. -1.
        -11    1    3    3    0    0  0.26975194526E+01 -0.62783578968E+01  0.67018552330E+01  0.95712722719E+01  0.51100000000E-03 0.  1.
        -12    1    3    3    0    0  0.38760399138E+01  0.41696504545E+02 -0.13002785938E+02  0.43848541809E+02  0.00000000000E+00 0.  1.
</event>
<event>
 7    1  0.4359248E-015  0.9000764E+02  0.7816164E-02  0.1186339E+00
        -11   -1    0    0    0    0  0.00000000000E+00  0.00000000000E+00  0.45593999997E+02  0.45594000000E+02  0.51100000000E-03 0.  1.
         11   -1    0    0    0    0 -0.00000000000E+00 -0.00000000000E+00 -0.45593999997E+02  0.45594000000E+02  0.51100000000E-03 0. -1.
    9900012    2    1    2    0    0 -0.29635401913E+00 -0.11290535583E+01 -0.17512799177E+00  0.90007636727E+02  0.89999896732E+02 0.  0.
        -12    1    1    2    0    0  0.29635401913E+00  0.11290535583E+01  0.17512799177E+00  0.11803632727E+01  0.00000000000E+00 0.  1.
         11    1    3    3    0    0  0.35601871569E+02  0.23312243215E+01  0.14189824389E+02  0.38396340744E+02  0.51100000000E-03 0. -1.
        -11    1    3    3    0    0  0.31812041508E+00  0.64565743047E+01  0.60646948484E+01  0.88639199125E+01  0.51100000000E-03 0.  1.
        -12    1    3    3    0    0 -0.36216346003E+02 -0.99168521845E+01 -0.20429647229E+02  0.42747376071E+02  0.00000000000E+00 0.  1.
</event>
<event>
 7    1  0.4359248E-015  0.9000782E+02  0.7816164E-02  0.1186339E+00
        -11   -1    0    0    0    0  0.00000000000E+00  0.00000000000E+00  0.45593999997E+02  0.45594000000E+02  0.51100000000E-03 0.  1.
         11   -1    0    0    0    0 -0.00000000000E+00 -0.00000000000E+00 -0.45593999997E+02  0.45594000000E+02  0.51100000000E-03 0. -1.
    9900012    2    1    2    0    0 -0.21323897605E+00 -0.30513575155E+00 -0.11199282430E+01  0.90007822913E+02  0.90000085375E+02 0.  0.
        -12    1    1    2    0    0  0.21323897605E+00  0.30513575155E+00  0.11199282430E+01  0.11801770872E+01  0.00000000000E+00 0.  1.
         11    1    3    3    0    0  0.33317124185E+02 -0.27235220639E+02 -0.17059306261E+01  0.43066207249E+02  0.51100000000E-03 0. -1.
        -11    1    3    3    0    0 -0.78805798002E+01 -0.13864593249E+01 -0.30483990170E+01  0.85626248473E+01  0.51100000000E-03 0.  1.
        -12    1    3    3    0    0 -0.25649783361E+02  0.28316544212E+02  0.36344014001E+01  0.38378990817E+02  0.00000000000E+00 0.  1.
</event>
<event>
 7    1  0.4359248E-015  0.9000770E+02  0.7816164E-02  0.1186339E+00
        -11   -1    0    0    0    0  0.00000000000E+00  0.00000000000E+00  0.45593999997E+02  0.45594000000E+02  0.51100000000E-03 0.  1.
         11   -1    0    0    0    0 -0.00000000000E+00 -0.00000000000E+00 -0.45593999997E+02  0.45594000000E+02  0.51100000000E-03 0. -1.
    9900012    2    1    2    0    0  0.61159508898E+00 -0.88019822475E+00  0.49428042421E+00  0.90007698934E+02  0.89999959760E+02 0.  0.
        -12    1    1    2    0    0 -0.61159508898E+00  0.88019822475E+00 -0.49428042421E+00  0.11803010656E+01  0.00000000000E+00 0.  1.
         11    1    3    3    0    0 -0.20247339116E+01  0.37526204226E+02 -0.10938543249E+02  0.39140353597E+02  0.51100000000E-03 0. -1.
        -11    1    3    3    0    0  0.19374549039E+01 -0.58668443025E+01 -0.10101518734E+02  0.11841210858E+02  0.51100000000E-03 0.  1.
        -12    1    3    3    0    0  0.69887409673E+00 -0.32539558148E+02  0.21534342408E+02  0.39026134480E+02  0.00000000000E+00 0.  1.
</event>
<event>
 7    1  0.4359248E-015  0.9000664E+02  0.7816164E-02  0.1186341E+00
        -11   -1    0    0    0    0  0.00000000000E+00  0.00000000000E+00  0.45593999997E+02  0.45594000000E+02  0.51100000000E-03 0. -1.
         11   -1    0    0    0    0 -0.00000000000E+00 -0.00000000000E+00 -0.45593999997E+02  0.45594000000E+02  0.51100000000E-03 0.  1.
    9900012    2    1    2    0    0  0.18030795759E+00  0.11585788480E+00  0.11617593271E+01  0.90006636913E+02  0.89998883713E+02 0.  0.
        -12    1    1    2    0    0 -0.18030795759E+00 -0.11585788480E+00 -0.11617593271E+01  0.11813630869E+01  0.00000000000E+00 0.  1.
         11    1    3    3    0    0  0.50372079175E+01 -0.76169319217E+01  0.14742683269E+01  0.92501125866E+01  0.51100000000E-03 0. -1.
        -11    1    3    3    0    0 -0.20597593431E+02 -0.16285125814E+02 -0.29717270282E+02  0.39655798204E+02  0.51100000000E-03 0.  1.
         12    1    3    3    0    0  0.15740693471E+02  0.24017915621E+02  0.29404761282E+02  0.41100726122E+02  0.00000000000E+00 0. -1.
</event>
<event>
 7    1  0.4359248E-015  0.9000771E+02  0.7816164E-02  0.1186339E+00
        -11   -1    0    0    0    0  0.00000000000E+00  0.00000000000E+00  0.45593999997E+02  0.45594000000E+02  0.51100000000E-03 0.  1.
         11   -1    0    0    0    0 -0.00000000000E+00 -0.00000000000E+00 -0.45593999997E+02  0.45594000000E+02  0.51100000000E-03 0. -1.
    9900012    2    1    2    0    0  0.80900818435E+00  0.65042918594E+00  0.56172280604E+00  0.90007709833E+02  0.89999970802E+02 0.  0.
        -12    1    1    2    0    0 -0.80900818435E+00 -0.65042918594E+00 -0.56172280604E+00  0.11802901673E+01  0.00000000000E+00 0.  1.
         11    1    3    3    0    0  0.15716227277E+01 -0.20351307609E+02 -0.32059799860E+02  0.38006269045E+02  0.51100000000E-03 0. -1.
        -11    1    3    3    0    0  0.61076630824E+01 -0.43319068898E+01 -0.27303774172E+01  0.79701898805E+01  0.51100000000E-03 0.  1.
        -12    1    3    3    0    0 -0.68702776257E+01  0.25333643684E+02  0.35351900083E+02  0.44031250907E+02  0.00000000000E+00 0.  1.
</event>
<event>
 7    1  0.4359248E-015  0.9000775E+02  0.7816164E-02  0.1186339E+00
        -11   -1    0    0    0    0  0.00000000000E+00  0.00000000000E+00  0.45593999997E+02  0.45594000000E+02  0.51100000000E-03 0.  1.
         11   -1    0    0    0    0 -0.00000000000E+00 -0.00000000000E+00 -0.45593999997E+02  0.45594000000E+02  0.51100000000E-03 0. -1.
    9900012    2    1    2    0    0 -0.42798186598E+00  0.26485288104E+00 -0.10675594591E+01  0.90007746330E+02  0.90000007782E+02 0.  0.
        -12    1    1    2    0    0  0.42798186598E+00 -0.26485288104E+00  0.10675594591E+01  0.11802536697E+01  0.00000000000E+00 0.  1.
         11    1    3    3    0    0 -0.92774650425E+01 -0.30135919252E+01  0.68723575657E-01  0.97548868316E+01  0.51100000000E-03 0. -1.
        -11    1    3    3    0    0  0.38521906594E+02 -0.13124512620E+02  0.14116999951E+02  0.43075280696E+02  0.51100000000E-03 0.  1.
         12    1    3    3    0    0 -0.29672423418E+02  0.16402957426E+02 -0.15253282986E+02  0.37177578803E+02  0.00000000000E+00 0. -1.
</event>
<event>
 7    1  0.4359248E-015  0.9000778E+02  0.7816164E-02  0.1186339E+00
        -11   -1    0    0    0    0  0.00000000000E+00  0.00000000000E+00  0.45593999997E+02  0.45594000000E+02  0.51100000000E-03 0.  1.
         11   -1    0    0    0    0 -0.00000000000E+00 -0.00000000000E+00 -0.45593999997E+02  0.45594000000E+02  0.51100000000E-03 0. -1.
    9900012    2    1    2    0    0  0.21035032497E+00 -0.24496550659E+00 -0.11351891018E+01  0.90007784064E+02  0.90000046014E+02 0.  0.
        -12    1    1    2    0    0 -0.21035032497E+00  0.24496550659E+00  0.11351891018E+01  0.11802159359E+01  0.00000000000E+00 0.  1.
         11    1    3    3    0    0 -0.17477709108E+01  0.41357416031E+01  0.95191208884E+01  0.10524862209E+02  0.51100000000E-03 0. -1.
        -11    1    3    3    0    0  0.17295069235E+02 -0.49727695510E+01  0.30581424356E+02  0.35483395733E+02  0.51100000000E-03 0.  1.
         12    1    3    3    0    0 -0.15336948000E+02  0.59206244134E+00 -0.41235734346E+02  0.43999526122E+02  0.00000000000E+00 0. -1.
</event>
<event>
 7    1  0.4359248E-015  0.9000771E+02  0.7816164E-02  0.1186339E+00
        -11   -1    0    0    0    0  0.00000000000E+00  0.00000000000E+00  0.45593999997E+02  0.45594000000E+02  0.51100000000E-03 0.  1.
         11   -1    0    0    0    0 -0.00000000000E+00 -0.00000000000E+00 -0.45593999997E+02  0.45594000000E+02  0.51100000000E-03 0. -1.
    9900012    2    1    2    0    0 -0.10893854968E+01  0.41132124371E+00  0.19268354879E+00  0.90007714917E+02  0.89999975954E+02 0.  0.
        -12    1    1    2    0    0  0.10893854968E+01 -0.41132124371E+00 -0.19268354879E+00  0.11802850826E+01  0.00000000000E+00 0.  1.
         11    1    3    3    0    0  0.44516886368E+01  0.10595044414E+01  0.90335133371E+01  0.10126423103E+02  0.51100000000E-03 0. -1.
        -11    1    3    3    0    0 -0.16851424585E+01 -0.10294909655E+02  0.34121595477E+02  0.35680641083E+02  0.51100000000E-03 0.  1.
         12    1    3    3    0    0 -0.38559316751E+01  0.96467264576E+01 -0.42962425266E+02  0.44200650732E+02  0.00000000000E+00 0. -1.
</event>
<event>
 7    1  0.4359248E-015  0.9000661E+02  0.7816164E-02  0.1186341E+00
        -11   -1    0    0    0    0  0.00000000000E+00  0.00000000000E+00  0.45593999997E+02  0.45594000000E+02  0.51100000000E-03 0. -1.
         11   -1    0    0    0    0 -0.00000000000E+00 -0.00000000000E+00 -0.45593999997E+02  0.45594000000E+02  0.51100000000E-03 0.  1.
    9900012    2    1    2    0    0 -0.27244716826E+00  0.67177535487E+00  0.93283261879E+00  0.90006608328E+02  0.89998854751E+02 0.  0.
        -12    1    1    2    0    0  0.27244716826E+00 -0.67177535487E+00 -0.93283261879E+00  0.11813916715E+01  0.00000000000E+00 0.  1.
         11    1    3    3    0    0  0.28560612407E+01 -0.65859503728E+01 -0.71705996933E+01  0.10146394845E+02  0.51100000000E-03 0. -1.
        -11    1    3    3    0    0  0.15228308157E+01 -0.34199923863E+02 -0.79764285217E+01  0.35150778343E+02  0.51100000000E-03 0.  1.
         12    1    3    3    0    0 -0.46513392247E+01  0.41457649590E+02  0.16079860834E+02  0.44709435140E+02  0.00000000000E+00 0. -1.
</event>
<event>
 7    1  0.4359248E-015  0.9000770E+02  0.7816164E-02  0.1186339E+00
        -11   -1    0    0    0    0  0.00000000000E+00  0.00000000000E+00  0.45593999997E+02  0.45594000000E+02  0.51100000000E-03 0.  1.
         11   -1    0    0    0    0 -0.00000000000E+00 -0.00000000000E+00 -0.45593999997E+02  0.45594000000E+02  0.51100000000E-03 0. -1.
    9900012    2    1    2    0    0  0.81519152058E+00 -0.85126202249E+00  0.62617979531E-01  0.90007701200E+02  0.89999962056E+02 0.  0.
        -12    1    1    2    0    0 -0.81519152058E+00  0.85126202249E+00 -0.62617979531E-01  0.11802988001E+01  0.00000000000E+00 0.  1.
         11    1    3    3    0    0  0.23351186234E+02  0.20486360774E+02 -0.24295537223E+02  0.39436556714E+02  0.51100000000E-03 0. -1.
        -11    1    3    3    0    0  0.52170786483E+01  0.36488885146E+01  0.67683743741E+01  0.92921035801E+01  0.51100000000E-03 0.  1.
        -12    1    3    3    0    0 -0.27753073362E+02 -0.24986511311E+02  0.17589780828E+02  0.41279040906E+02  0.00000000000E+00 0.  1.
</event>
<event>
 7    1  0.4359248E-015  0.9000771E+02  0.7816164E-02  0.1186339E+00
        -11   -1    0    0    0    0  0.00000000000E+00  0.00000000000E+00  0.45593999997E+02  0.45594000000E+02  0.51100000000E-03 0.  1.
         11   -1    0    0    0    0 -0.00000000000E+00 -0.00000000000E+00 -0.45593999997E+02  0.45594000000E+02  0.51100000000E-03 0. -1.
    9900012    2    1    2    0    0 -0.87419178442E+00 -0.51388296912E+00  0.60397583205E+00  0.90007714531E+02  0.89999975563E+02 0.  0.
        -12    1    1    2    0    0  0.87419178442E+00  0.51388296912E+00 -0.60397583205E+00  0.11802854687E+01  0.00000000000E+00 0.  1.
         11    1    3    3    0    0  0.13745434616E+01  0.24818722894E+01  0.16042567608E+02  0.16291501941E+02  0.51100000000E-03 0. -1.
        -11    1    3    3    0    0 -0.34383384587E+02  0.11494129940E+02 -0.12480791881E+02  0.38341913423E+02  0.51100000000E-03 0.  1.
         12    1    3    3    0    0  0.32134649341E+02 -0.14489885198E+02 -0.29577998953E+01  0.35374299167E+02  0.00000000000E+00 0. -1.
</event>
<event>
 7    1  0.4359248E-015  0.9000774E+02  0.7816164E-02  0.1186339E+00
        -11   -1    0    0    0    0  0.00000000000E+00  0.00000000000E+00  0.45593999997E+02  0.45594000000E+02  0.51100000000E-03 0. -1.
         11   -1    0    0    0    0 -0.00000000000E+00 -0.00000000000E+00 -0.45593999997E+02  0.45594000000E+02  0.51100000000E-03 0.  1.
    9900012    2    1    2    0    0  0.11724305409E+00 -0.61194865400E+00  0.10023947329E+01  0.90007736347E+02  0.89999997667E+02 0.  0.
        -12    1    1    2    0    0 -0.11724305409E+00  0.61194865400E+00 -0.10023947329E+01  0.11802636525E+01  0.00000000000E+00 0.  1.
         11    1    3    3    0    0  0.18620653137E+01 -0.16253328079E+02  0.10441280685E+02  0.19407686711E+02  0.51100000000E-03 0. -1.
        -11    1    3    3    0    0 -0.13378284449E+02 -0.15970900092E+02  0.17704139553E+02  0.27340166461E+02  0.51100000000E-03 0.  1.
         12    1    3    3    0    0  0.11633462189E+02  0.31612279517E+02 -0.27143025505E+02  0.43259883175E+02  0.00000000000E+00 0. -1.
</event>
<event>
 7    1  0.4359248E-015  0.9000783E+02  0.7816164E-02  0.1186339E+00
        -11   -1    0    0    0    0  0.00000000000E+00  0.00000000000E+00  0.45593999997E+02  0.45594000000E+02  0.51100000000E-03 0.  1.
         11   -1    0    0    0    0 -0.00000000000E+00 -0.00000000000E+00 -0.45593999997E+02  0.45594000000E+02  0.51100000000E-03 0. -1.
    9900012    2    1    2    0    0  0.36826956075E-01  0.29568748586E+00 -0.11419310209E+01  0.90007833160E+02  0.90000095758E+02 0.  0.
        -12    1    1    2    0    0 -0.36826956075E-01 -0.29568748586E+00  0.11419310209E+01  0.11801668401E+01  0.00000000000E+00 0.  1.
         11    1    3    3    0    0  0.20637122965E+02 -0.34730730624E+02  0.10100418164E+02  0.41642921863E+02  0.51100000000E-03 0. -1.
        -11    1    3    3    0    0 -0.45087439411E+01  0.97478192181E+01  0.74282121811E+01  0.13058602065E+02  0.51100000000E-03 0.  1.
        -12    1    3    3    0    0 -0.16091552068E+02  0.25278598891E+02 -0.18670561366E+02  0.35306309232E+02  0.00000000000E+00 0.  1.
</event>
<event>
 7    1  0.4359248E-015  0.9000776E+02  0.7816164E-02  0.1186339E+00
        -11   -1    0    0    0    0  0.00000000000E+00  0.00000000000E+00  0.45593999997E+02  0.45594000000E+02  0.51100000000E-03 0. -1.
         11   -1    0    0    0    0 -0.00000000000E+00 -0.00000000000E+00 -0.45593999997E+02  0.45594000000E+02  0.51100000000E-03 0.  1.
    9900012    2    1    2    0    0  0.84213844969E+00 -0.76106814200E+00  0.32331779953E+00  0.90007764310E+02  0.90000025999E+02 0.  0.
        -12    1    1    2    0    0 -0.84213844969E+00  0.76106814200E+00 -0.32331779953E+00  0.11802356903E+01  0.00000000000E+00 0.  1.
         11    1    3    3    0    0 -0.58338641608E+01 -0.26061436706E+00  0.99069715676E+01  0.11499998991E+02  0.51100000000E-03 0. -1.
        -11    1    3    3    0    0 -0.21235691918E+02 -0.10698888517E+02 -0.32999579244E+02  0.40674230875E+02  0.51100000000E-03 0.  1.
         12    1    3    3    0    0  0.27911694528E+02  0.10198434742E+02  0.23415925476E+02  0.37833534444E+02  0.00000000000E+00 0. -1.
</event>
<event>
 7    1  0.5964585E-015  0.9000769E+02  0.7816164E-02  0.1186339E+00
        -11   -1    0    0    0    0  0.00000000000E+00  0.00000000000E+00  0.45593999997E+02  0.45594000000E+02  0.51100000000E-03 0.  1.
         11   -1    0    0    0    0 -0.00000000000E+00 -0.00000000000E+00 -0.45593999997E+02  0.45594000000E+02  0.51100000000E-03 0. -1.
    9900012    2    1    2    0    0 -0.39779393014E+00 -0.53479959292E+00 -0.97410463384E+00  0.90007690527E+02  0.89999951241E+02 0.  0.
        -12    1    1    2    0    0  0.39779393014E+00  0.53479959292E+00  0.97410463384E+00  0.11803094734E+01  0.00000000000E+00 0.  1.
         11    1    3    3    0    0  0.16436942427E+02 -0.30275652433E+01 -0.39867049730E+02  0.43228704376E+02  0.51100000000E-03 0. -1.
        -11    1    3    3    0    0 -0.84505189002E+01 -0.35180522223E+01  0.33146688482E+01  0.97352447815E+01  0.51100000000E-03 0.  1.
        -12    1    3    3    0    0 -0.83842174565E+01  0.60108178727E+01  0.35578276248E+02  0.37043741369E+02  0.00000000000E+00 0.  1.
</event>
<event>
 7    1  0.4359248E-015  0.9000764E+02  0.7816164E-02  0.1186339E+00
        -11   -1    0    0    0    0  0.00000000000E+00  0.00000000000E+00  0.45593999997E+02  0.45594000000E+02  0.51100000000E-03 0.  1.
         11   -1    0    0    0    0 -0.00000000000E+00 -0.00000000000E+00 -0.45593999997E+02  0.45594000000E+02  0.51100000000E-03 0. -1.
    9900012    2    1    2    0    0  0.36539183918E+00 -0.56096500543E+00 -0.97213716109E+00  0.90007642599E+02  0.89999902682E+02 0.  0.
        -12    1    1    2    0    0 -0.36539183918E+00  0.56096500543E+00  0.97213716109E+00  0.11803574007E+01  0.00000000000E+00 0.  1.
         11    1    3    3    0    0 -0.43812925683E+01  0.28103914263E+01 -0.87334189319E+01  0.10166938135E+02  0.51100000000E-03 0. -1.
        -11    1    3    3    0    0 -0.17484966819E+02  0.26564261218E+02 -0.16025465649E+02  0.35611790018E+02  0.51100000000E-03 0.  1.
         12    1    3    3    0    0  0.22231651226E+02 -0.29935617650E+02  0.23786747420E+02  0.44228914447E+02  0.00000000000E+00 0. -1.
</event>
<event>
 7    1  0.4359248E-015  0.9000809E+02  0.7816164E-02  0.1186338E+00
        -11   -1    0    0    0    0  0.00000000000E+00  0.00000000000E+00  0.45593999997E+02  0.45594000000E+02  0.51100000000E-03 0. -1.
         11   -1    0    0    0    0 -0.00000000000E+00 -0.00000000000E+00 -0.45593999997E+02  0.45594000000E+02  0.51100000000E-03 0.  1.
    9900012    2    1    2    0    0  0.50036901299E+00 -0.63078555874E+00  0.86251569108E+00  0.90008087763E+02  0.90000353721E+02 0.  0.
        -12    1    1    2    0    0 -0.50036901299E+00  0.63078555874E+00 -0.86251569108E+00  0.11799122373E+01  0.00000000000E+00 0.  1.
         11    1    3    3    0    0  0.63055968160E+01 -0.40432080816E+02 -0.98685184846E+01  0.42093958802E+02  0.51100000000E-03 0. -1.
        -11    1    3    3    0    0 -0.86516294948E+01  0.25657703272E+01  0.43907557647E+01  0.10035567086E+02  0.51100000000E-03 0.  1.
        -12    1    3    3    0    0  0.28464016918E+01  0.37235524930E+02  0.63402784110E+01  0.37878561875E+02  0.00000000000E+00 0.  1.
</event>
<event>
 7    1  0.4359248E-015  0.9000770E+02  0.7816164E-02  0.1186339E+00
        -11   -1    0    0    0    0  0.00000000000E+00  0.00000000000E+00  0.45593999997E+02  0.45594000000E+02  0.51100000000E-03 0. -1.
         11   -1    0    0    0    0 -0.00000000000E+00 -0.00000000000E+00 -0.45593999997E+02  0.45594000000E+02  0.51100000000E-03 0.  1.
    9900012    2    1    2    0    0  0.32527625384E+00 -0.11177973192E+01  0.19450200725E+00  0.90007700665E+02  0.89999961514E+02 0.  0.
        -12    1    1    2    0    0 -0.32527625384E+00  0.11177973192E+01 -0.19450200725E+00  0.11802993345E+01  0.00000000000E+00 0.  1.
         11    1    3    3    0    0 -0.35896623305E+01 -0.74913725895E+01 -0.43496931982E+01  0.93768955471E+01  0.51100000000E-03 0. -1.
        -11    1    3    3    0    0  0.25992744833E+02  0.40376322944E+01 -0.29791770561E+02  0.39742607513E+02  0.51100000000E-03 0.  1.
         12    1    3    3    0    0 -0.22077806248E+02  0.23359429759E+01  0.34335965767E+02  0.40888197606E+02  0.00000000000E+00 0. -1.
</event>
<event>
 7    1  0.4359248E-015  0.9000763E+02  0.7816164E-02  0.1186339E+00
        -11   -1    0    0    0    0  0.00000000000E+00  0.00000000000E+00  0.45593999997E+02  0.45594000000E+02  0.51100000000E-03 0. -1.
         11   -1    0    0    0    0 -0.00000000000E+00 -0.00000000000E+00 -0.45593999997E+02  0.45594000000E+02  0.51100000000E-03 0.  1.
    9900012    2    1    2    0    0 -0.81651190613E+00  0.34312246993E+00  0.78029152009E+00  0.90007627356E+02  0.89999887237E+02 0.  0.
        -12    1    1    2    0    0  0.81651190613E+00 -0.34312246993E+00 -0.78029152009E+00  0.11803726439E+01  0.00000000000E+00 0.  1.
         11    1    3    3    0    0 -0.22821146191E+01  0.25282807052E+01 -0.86820948271E+01  0.93262544093E+01  0.51100000000E-03 0. -1.
        -11    1    3    3    0    0 -0.72385672429E+01 -0.16780384610E+02 -0.31453289200E+02  0.36377019740E+02  0.51100000000E-03 0.  1.
         12    1    3    3    0    0  0.87041699559E+01  0.14595226374E+02  0.40915675548E+02  0.44304353207E+02  0.00000000000E+00 0. -1.
</event>
<event>
 7    1  0.4359248E-015  0.9000811E+02  0.7816164E-02  0.1186338E+00
        -11   -1    0    0    0    0  0.00000000000E+00  0.00000000000E+00  0.45593999997E+02  0.45594000000E+02  0.51100000000E-03 0.  1.
         11   -1    0    0    0    0 -0.00000000000E+00 -0.00000000000E+00 -0.45593999997E+02  0.45594000000E+02  0.51100000000E-03 0. -1.
    9900012    2    1    2    0    0 -0.48323717184E-01 -0.10601298385E+01 -0.51568024318E+00  0.90008111628E+02  0.90000377901E+02 0.  0.
        -12    1    1    2    0    0  0.48323717184E-01  0.10601298385E+01  0.51568024318E+00  0.11798883715E+01  0.00000000000E+00 0.  1.
         11    1    3    3    0    0 -0.64607882095E+01 -0.19320152314E+01  0.73978992134E+01  0.10010163844E+02  0.51100000000E-03 0. -1.
        -11    1    3    3    0    0  0.79781791939E+01 -0.21389494506E+02  0.28972837091E+02  0.36886137068E+02  0.51100000000E-03 0.  1.
         12    1    3    3    0    0 -0.15657147016E+01  0.22261379899E+02 -0.36886416548E+02  0.43111810716E+02  0.00000000000E+00 0. -1.
</event>
<event>
 7    1  0.4359248E-015  0.9000773E+02  0.7816164E-02  0.1186339E+00
        -11   -1    0    0    0    0  0.00000000000E+00  0.00000000000E+00  0.45593999997E+02  0.45594000000E+02  0.51100000000E-03 0.  1.
         11   -1    0    0    0    0 -0.00000000000E+00 -0.00000000000E+00 -0.45593999997E+02  0.45594000000E+02  0.51100000000E-03 0. -1.
    9900012    2    1    2    0    0  0.62599356773E+00 -0.93276234146E+00  0.36211728070E+00  0.90007727804E+02  0.89999989011E+02 0.  0.
        -12    1    1    2    0    0 -0.62599356773E+00  0.93276234146E+00 -0.36211728070E+00  0.11802721963E+01  0.00000000000E+00 0.  1.
         11    1    3    3    0    0 -0.46097388331E+01 -0.73312835459E+01 -0.38872201328E+01  0.94925176409E+01  0.51100000000E-03 0. -1.
        -11    1    3    3    0    0 -0.36449595020E+01 -0.34299042518E+02  0.14817592022E+02  0.37540259469E+02  0.51100000000E-03 0.  1.
         12    1    3    3    0    0  0.88806919029E+01  0.40697563723E+02 -0.10568254608E+02  0.42974950693E+02  0.00000000000E+00 0. -1.
</event>
<event>
 7    1  0.4359248E-015  0.9000768E+02  0.7816164E-02  0.1186339E+00
        -11   -1    0    0    0    0  0.00000000000E+00  0.00000000000E+00  0.45593999997E+02  0.45594000000E+02  0.51100000000E-03 0. -1.
         11   -1    0    0    0    0 -0.00000000000E+00 -0.00000000000E+00 -0.45593999997E+02  0.45594000000E+02  0.51100000000E-03 0.  1.
    9900012    2    1    2    0    0  0.10993264069E+01 -0.19672887105E+00  0.38200449537E+00  0.90007682995E+02  0.89999943611E+02 0.  0.
        -12    1    1    2    0    0 -0.10993264069E+01  0.19672887105E+00 -0.38200449537E+00  0.11803170049E+01  0.00000000000E+00 0.  1.
         11    1    3    3    0    0  0.52569982763E+01  0.18299676598E+01  0.36853527712E+01  0.66758248795E+01  0.51100000000E-03 0. -1.
        -11    1    3    3    0    0  0.33286675425E+02  0.48928945593E+01 -0.22711637452E+02  0.40592630538E+02  0.51100000000E-03 0.  1.
         12    1    3    3    0    0 -0.37444347295E+02 -0.69195910901E+01  0.19408289176E+02  0.42739227577E+02  0.00000000000E+00 0. -1.
</event>
<event>
 7    1  0.4359248E-015  0.9000775E+02  0.7816164E-02  0.1186339E+00
        -11   -1    0    0    0    0  0.00000000000E+00  0.00000000000E+00  0.45593999997E+02  0.45594000000E+02  0.51100000000E-03 0.  1.
         11   -1    0    0    0    0 -0.00000000000E+00 -0.00000000000E+00 -0.45593999997E+02  0.45594000000E+02  0.51100000000E-03 0. -1.
    9900012    2    1    2    0    0  0.91139367412E+00 -0.74515131333E+00 -0.84236434867E-01  0.90007752278E+02  0.90000013808E+02 0.  0.
        -12    1    1    2    0    0 -0.91139367412E+00  0.74515131333E+00  0.84236434867E-01  0.11802477223E+01  0.00000000000E+00 0.  1.
         11    1    3    3    0    0 -0.13429861545E+02 -0.17488367332E+02 -0.36431699019E+02  0.42584890123E+02  0.51100000000E-03 0. -1.
        -11    1    3    3    0    0 -0.37524828494E+01 -0.16578519016E+01  0.86069005398E+01  0.95345863898E+01  0.51100000000E-03 0.  1.
        -12    1    3    3    0    0  0.18093738069E+02  0.18401067920E+02  0.27740562045E+02  0.37888275765E+02  0.00000000000E+00 0.  1.
</event>
<event>
 7    1  0.4359248E-015  0.9000761E+02  0.7816164E-02  0.1186339E+00
        -11   -1    0    0    0    0  0.00000000000E+00  0.00000000000E+00  0.45593999997E+02  0.45594000000E+02  0.51100000000E-03 0.  1.
         11   -1    0    0    0    0 -0.00000000000E+00 -0.00000000000E+00 -0.45593999997E+02  0.45594000000E+02  0.51100000000E-03 0. -1.
    9900012    2    1    2    0    0 -0.30992956784E+00  0.10672269370E+01 -0.39784549345E+00  0.90007614170E+02  0.89999873877E+02 0.  0.
        -12    1    1    2    0    0  0.30992956784E+00 -0.10672269370E+01  0.39784549345E+00  0.11803858304E+01  0.00000000000E+00 0.  1.
         11    1    3    3    0    0 -0.15857759780E+00  0.78463834282E+01 -0.43257382327E+01  0.89611880505E+01  0.51100000000E-03 0. -1.
        -11    1    3    3    0    0  0.21533246204E+02  0.26419014357E+02  0.18525275265E+02  0.38792149149E+02  0.51100000000E-03 0.  1.
         12    1    3    3    0    0 -0.21684598174E+02 -0.33198170849E+02 -0.14597382526E+02  0.42254276970E+02  0.00000000000E+00 0. -1.
</event>
<event>
 7    1  0.4359248E-015  0.9000777E+02  0.7816164E-02  0.1186339E+00
        -11   -1    0    0    0    0  0.00000000000E+00  0.00000000000E+00  0.45593999997E+02  0.45594000000E+02  0.51100000000E-03 0.  1.
         11   -1    0    0    0    0 -0.00000000000E+00 -0.00000000000E+00 -0.45593999997E+02  0.45594000000E+02  0.51100000000E-03 0. -1.
    9900012    2    1    2    0    0  0.22627495431E+00 -0.86897331168E+00 -0.76591454397E+00  0.90007771183E+02  0.90000032963E+02 0.  0.
        -12    1    1    2    0    0 -0.22627495431E+00  0.86897331168E+00  0.76591454397E+00  0.11802288168E+01  0.00000000000E+00 0.  1.
         11    1    3    3    0    0  0.77880527370E+01 -0.19615280083E+01  0.48779241032E+01  0.93965685959E+01  0.51100000000E-03 0. -1.
        -11    1    3    3    0    0  0.51403133830E+01  0.20544412351E+01  0.36328789192E+02  0.36748122059E+02  0.51100000000E-03 0.  1.
         12    1    3    3    0    0 -0.12702091166E+02 -0.96188653850E+00 -0.41972627839E+02  0.43863080528E+02  0.00000000000E+00 0. -1.
</event>
<event>
 7    1  0.4359248E-015  0.9000771E+02  0.7816164E-02  0.1186339E+00
        -11   -1    0    0    0    0  0.00000000000E+00  0.00000000000E+00  0.45593999997E+02  0.45594000000E+02  0.51100000000E-03 0.  1.
         11   -1    0    0    0    0 -0.00000000000E+00 -0.00000000000E+00 -0.45593999997E+02  0.45594000000E+02  0.51100000000E-03 0. -1.
    9900012    2    1    2    0    0 -0.24510266500E+00  0.64909370836E+00 -0.95482526942E+00  0.90007707979E+02  0.89999968925E+02 0.  0.
        -12    1    1    2    0    0  0.24510266500E+00 -0.64909370836E+00  0.95482526942E+00  0.11802920205E+01  0.00000000000E+00 0.  1.
         11    1    3    3    0    0 -0.26294397222E+01  0.55161975918E+01  0.59197650213E+01  0.85079966674E+01  0.51100000000E-03 0. -1.
        -11    1    3    3    0    0 -0.22868026890E+02 -0.20761801941E+01  0.29343092226E+02  0.37259552329E+02  0.51100000000E-03 0.  1.
         12    1    3    3    0    0  0.25252363948E+02 -0.27909236894E+01 -0.36217682517E+02  0.44240158983E+02  0.00000000000E+00 0. -1.
</event>
<event>
 7    1  0.4359248E-015  0.9000786E+02  0.7816164E-02  0.1186339E+00
        -11   -1    0    0    0    0  0.00000000000E+00  0.00000000000E+00  0.45593999997E+02  0.45594000000E+02  0.51100000000E-03 0. -1.
         11   -1    0    0    0    0 -0.00000000000E+00 -0.00000000000E+00 -0.45593999997E+02  0.45594000000E+02  0.51100000000E-03 0.  1.
    9900012    2    1    2    0    0 -0.33856603635E+00  0.61848506580E+00  0.94634613823E+00  0.90007863673E+02  0.90000126673E+02 0.  0.
        -12    1    1    2    0    0  0.33856603635E+00 -0.61848506580E+00 -0.94634613823E+00  0.11801363273E+01  0.00000000000E+00 0.  1.
         11    1    3    3    0    0  0.22769997548E+02 -0.30004451165E+02  0.20324559201E+02  0.42799854965E+02  0.51100000000E-03 0. -1.
        -11    1    3    3    0    0 -0.62458948398E+01  0.50533343488E+01  0.37121038212E+01  0.88502601901E+01  0.51100000000E-03 0.  1.
        -12    1    3    3    0    0 -0.16862668744E+02  0.25569601882E+02 -0.23090316884E+02  0.38357748518E+02  0.00000000000E+00 0.  1.
</event>
<event>
 7    1  0.4359248E-015  0.9000775E+02  0.7816164E-02  0.1186339E+00
        -11   -1    0    0    0    0  0.00000000000E+00  0.00000000000E+00  0.45593999997E+02  0.45594000000E+02  0.51100000000E-03 0. -1.
         11   -1    0    0    0    0 -0.00000000000E+00 -0.00000000000E+00 -0.45593999997E+02  0.45594000000E+02  0.51100000000E-03 0.  1.
    9900012    2    1    2    0    0  0.99894672953E+00  0.12093705693E-01  0.62844522457E+00  0.90007752472E+02  0.90000014005E+02 0.  0.
        -12    1    1    2    0    0 -0.99894672953E+00 -0.12093705693E-01 -0.62844522457E+00  0.11802475276E+01  0.00000000000E+00 0.  1.
         11    1    3    3    0    0 -0.69886943899E+01 -0.56372791172E+01 -0.42819875990E+01  0.99476722493E+01  0.51100000000E-03 0. -1.
        -11    1    3    3    0    0  0.23175642592E+02 -0.17858790764E+02 -0.25442411144E+02  0.38773226615E+02  0.51100000000E-03 0.  1.
         12    1    3    3    0    0 -0.15188001472E+02  0.23508163587E+02  0.30352843967E+02  0.41286853608E+02  0.00000000000E+00 0. -1.
</event>
<event>
 7    1  0.4359248E-015  0.9000774E+02  0.7816164E-02  0.1186339E+00
        -11   -1    0    0    0    0  0.00000000000E+00  0.00000000000E+00  0.45593999997E+02  0.45594000000E+02  0.51100000000E-03 0. -1.
         11   -1    0    0    0    0 -0.00000000000E+00 -0.00000000000E+00 -0.45593999997E+02  0.45594000000E+02  0.51100000000E-03 0.  1.
    9900012    2    1    2    0    0  0.51713524293E+00  0.77100145809E+00 -0.72878873547E+00  0.90007743617E+02  0.90000005033E+02 0.  0.
        -12    1    1    2    0    0 -0.51713524293E+00 -0.77100145809E+00  0.72878873547E+00  0.11802563827E+01  0.00000000000E+00 0.  1.
         11    1    3    3    0    0 -0.13083637834E+02  0.18096959640E+02  0.37415514493E+02  0.43572953219E+02  0.51100000000E-03 0. -1.
        -11    1    3    3    0    0 -0.25059195794E+01 -0.16802139436E+01 -0.99151803486E+01  0.10364051015E+02  0.51100000000E-03 0.  1.
        -12    1    3    3    0    0  0.16106692656E+02 -0.15645744239E+02 -0.28229122880E+02  0.36070739383E+02  0.00000000000E+00 0.  1.
</event>
<event>
 7    1  0.4359248E-015  0.9000778E+02  0.7816164E-02  0.1186339E+00
        -11   -1    0    0    0    0  0.00000000000E+00  0.00000000000E+00  0.45593999997E+02  0.45594000000E+02  0.51100000000E-03 0. -1.
         11   -1    0    0    0    0 -0.00000000000E+00 -0.00000000000E+00 -0.45593999997E+02  0.45594000000E+02  0.51100000000E-03 0.  1.
    9900012    2    1    2    0    0  0.58554750953E+00 -0.94137165976E+00  0.40481498089E+00  0.90007778980E+02  0.90000040862E+02 0.  0.
        -12    1    1    2    0    0 -0.58554750953E+00  0.94137165976E+00 -0.40481498089E+00  0.11802210202E+01  0.00000000000E+00 0.  1.
         11    1    3    3    0    0  0.66746114121E+01 -0.28977901435E+01 -0.84273525487E+01  0.11134087141E+02  0.51100000000E-03 0. -1.
        -11    1    3    3    0    0  0.13828966811E+01  0.20437871456E+02 -0.29355379876E+02  0.35796051749E+02  0.51100000000E-03 0.  1.
         12    1    3    3    0    0 -0.74719605836E+01 -0.18481452972E+02  0.38187547405E+02  0.43077640090E+02  0.00000000000E+00 0. -1.
</event>
<event>
 7    1  0.4359248E-015  0.9000761E+02  0.7816164E-02  0.1186339E+00
        -11   -1    0    0    0    0  0.00000000000E+00  0.00000000000E+00  0.45593999997E+02  0.45594000000E+02  0.51100000000E-03 0.  1.
         11   -1    0    0    0    0 -0.00000000000E+00 -0.00000000000E+00 -0.45593999997E+02  0.45594000000E+02  0.51100000000E-03 0. -1.
    9900012    2    1    2    0    0 -0.98321369251E+00  0.35688526586E+00  0.54703951282E+00  0.90007606639E+02  0.89999866247E+02 0.  0.
        -12    1    1    2    0    0  0.98321369251E+00 -0.35688526586E+00 -0.54703951282E+00  0.11803933610E+01  0.00000000000E+00 0.  1.
         11    1    3    3    0    0  0.21527818628E+02  0.27963448175E+02 -0.88478682930E+01  0.36382498297E+02  0.51100000000E-03 0. -1.
        -11    1    3    3    0    0  0.77735446484E+01  0.14562955110E+01 -0.48765582172E+01  0.92913730591E+01  0.51100000000E-03 0.  1.
        -12    1    3    3    0    0 -0.30284576969E+02 -0.29062858420E+02  0.14271466023E+02  0.44333735283E+02  0.00000000000E+00 0.  1.
</event>
<event>
 7    1  0.4359248E-015  0.9000775E+02  0.7816164E-02  0.1186339E+00
        -11   -1    0    0    0    0  0.00000000000E+00  0.00000000000E+00  0.45593999997E+02  0.45594000000E+02  0.51100000000E-03 0. -1.
         11   -1    0    0    0    0 -0.00000000000E+00 -0.00000000000E+00 -0.45593999997E+02  0.45594000000E+02  0.51100000000E-03 0.  1.
    9900012    2    1    2    0    0 -0.44503569111E+00 -0.92337713685E+00 -0.58507688160E+00  0.90007747035E+02  0.90000008496E+02 0.  0.
        -12    1    1    2    0    0  0.44503569111E+00  0.92337713685E+00  0.58507688160E+00  0.11802529647E+01  0.00000000000E+00 0.  1.
         11    1    3    3    0    0  0.49400644825E+01 -0.45967152847E+01 -0.21637339998E+02  0.22665138670E+02  0.51100000000E-03 0. -1.
        -11    1    3    3    0    0  0.10425634321E+02  0.11784998174E+02 -0.18317808703E+02  0.24147922248E+02  0.51100000000E-03 0.  1.
         12    1    3    3    0    0 -0.15810734495E+02 -0.81116600257E+01  0.39370071820E+02  0.43194686117E+02  0.00000000000E+00 0. -1.
</event>
<event>
 7    1  0.4359248E-015  0.9000772E+02  0.7816164E-02  0.1186339E+00
        -11   -1    0    0    0    0  0.00000000000E+00  0.00000000000E+00  0.45593999997E+02  0.45594000000E+02  0.51100000000E-03 0.  1.
         11   -1    0    0    0    0 -0.00000000000E+00 -0.00000000000E+00 -0.45593999997E+02  0.45594000000E+02  0.51100000000E-03 0. -1.
    9900012    2    1    2    0    0 -0.53182211383E+00 -0.97743395900E+00 -0.39350431833E+00  0.90007721409E+02  0.89999982531E+02 0.  0.
        -12    1    1    2    0    0  0.53182211383E+00  0.97743395900E+00  0.39350431833E+00  0.11802785915E+01  0.00000000000E+00 0.  1.
         11    1    3    3    0    0  0.31484079402E+02  0.25311841514E+02 -0.37859137869E+01  0.40574249471E+02  0.51100000000E-03 0. -1.
        -11    1    3    3    0    0  0.15439593846E+01 -0.72363985476E+01 -0.62164747944E+01  0.96640485125E+01  0.51100000000E-03 0.  1.
        -12    1    3    3    0    0 -0.33559860901E+02 -0.19052876925E+02  0.96088842630E+01  0.39769423425E+02  0.00000000000E+00 0.  1.
</event>
<event>
 7    1  0.4359248E-015  0.9000775E+02  0.7816164E-02  0.1186339E+00
        -11   -1    0    0    0    0  0.00000000000E+00  0.00000000000E+00  0.45593999997E+02  0.45594000000E+02  0.51100000000E-03 0. -1.
         11   -1    0    0    0    0 -0.00000000000E+00 -0.00000000000E+00 -0.45593999997E+02  0.45594000000E+02  0.51100000000E-03 0.  1.
    9900012    2    1    2    0    0  0.26114385344E+00 -0.71077954112E-01  0.11487994327E+01  0.90007750736E+02  0.90000012246E+02 0.  0.
        -12    1    1    2    0    0 -0.26114385344E+00  0.71077954112E-01 -0.11487994327E+01  0.11802492636E+01  0.00000000000E+00 0.  1.
         11    1    3    3    0    0 -0.51949518256E+01  0.28807575719E+01 -0.69600459287E+01  0.91503294066E+01  0.51100000000E-03 0. -1.
        -11    1    3    3    0    0  0.38614072088E+02  0.93073495944E+01 -0.10252494244E+02  0.41021786385E+02  0.51100000000E-03 0.  1.
         12    1    3    3    0    0 -0.33157976409E+02 -0.12259185120E+02  0.18361339606E+02  0.39835634945E+02  0.00000000000E+00 0. -1.
</event>
<event>
 7    1  0.4359248E-015  0.9000765E+02  0.7816164E-02  0.1186339E+00
        -11   -1    0    0    0    0  0.00000000000E+00  0.00000000000E+00  0.45593999997E+02  0.45594000000E+02  0.51100000000E-03 0.  1.
         11   -1    0    0    0    0 -0.00000000000E+00 -0.00000000000E+00 -0.45593999997E+02  0.45594000000E+02  0.51100000000E-03 0. -1.
    9900012    2    1    2    0    0  0.59648062598E+00 -0.10173762539E+01 -0.48875414242E-01  0.90007647347E+02  0.89999907492E+02 0.  0.
        -12    1    1    2    0    0 -0.59648062598E+00  0.10173762539E+01  0.48875414242E-01  0.11803526529E+01  0.00000000000E+00 0.  1.
         11    1    3    3    0    0 -0.29459063110E+01 -0.35776310852E+02 -0.95183179851E+00  0.35910009276E+02  0.51100000000E-03 0. -1.
        -11    1    3    3    0    0 -0.16931443736E+02  0.19909553723E+02 -0.79228880561E+01  0.27310003146E+02  0.51100000000E-03 0.  1.
        -12    1    3    3    0    0  0.20473830673E+02  0.14849380875E+02  0.88258444404E+01  0.26787634925E+02  0.00000000000E+00 0.  1.
</event>
<event>
 7    1  0.4359248E-015  0.9000771E+02  0.7816164E-02  0.1186339E+00
        -11   -1    0    0    0    0  0.00000000000E+00  0.00000000000E+00  0.45593999997E+02  0.45594000000E+02  0.51100000000E-03 0.  1.
         11   -1    0    0    0    0 -0.00000000000E+00 -0.00000000000E+00 -0.45593999997E+02  0.45594000000E+02  0.51100000000E-03 0. -1.
    9900012    2    1    2    0    0  0.13024384704E+00  0.94678038438E+00 -0.69262017639E+00  0.90007712211E+02  0.89999973212E+02 0.  0.
        -12    1    1    2    0    0 -0.13024384704E+00 -0.94678038438E+00  0.69262017639E+00  0.11802877889E+01  0.00000000000E+00 0.  1.
         11    1    3    3    0    0 -0.85086553586E+01  0.74765829543E+01 -0.59942751796E+01  0.12815141196E+02  0.51100000000E-03 0. -1.
        -11    1    3    3    0    0 -0.32825048359E+02 -0.10015674478E+02  0.88186996173E+01  0.35433980840E+02  0.51100000000E-03 0.  1.
         12    1    3    3    0    0  0.41463947564E+02  0.34858719076E+01 -0.35170446140E+01  0.41758590175E+02  0.00000000000E+00 0. -1.
</event>
<event>
 7    1  0.4359248E-015  0.9000768E+02  0.7816164E-02  0.1186339E+00
        -11   -1    0    0    0    0  0.00000000000E+00  0.00000000000E+00  0.45593999997E+02  0.45594000000E+02  0.51100000000E-03 0. -1.
         11   -1    0    0    0    0 -0.00000000000E+00 -0.00000000000E+00 -0.45593999997E+02  0.45594000000E+02  0.51100000000E-03 0.  1.
    9900012    2    1    2    0    0 -0.34383512986E+00 -0.98121336134E+00 -0.55870243484E+00  0.90007681963E+02  0.89999942565E+02 0.  0.
        -12    1    1    2    0    0  0.34383512986E+00  0.98121336134E+00  0.55870243484E+00  0.11803180367E+01  0.00000000000E+00 0.  1.
         11    1    3    3    0    0  0.65509323124E+01 -0.66946817837E+01 -0.21186420790E+01  0.96032350209E+01  0.51100000000E-03 0. -1.
        -11    1    3    3    0    0  0.28228853717E+01 -0.35481039021E+02  0.10572860071E+02  0.37130286589E+02  0.51100000000E-03 0.  1.
         12    1    3    3    0    0 -0.97176528139E+01  0.41194507443E+02 -0.90129204271E+01  0.43274160354E+02  0.00000000000E+00 0. -1.
</event>
<event>
 7    1  0.4359248E-015  0.9000775E+02  0.7816164E-02  0.1186339E+00
        -11   -1    0    0    0    0  0.00000000000E+00  0.00000000000E+00  0.45593999997E+02  0.45594000000E+02  0.51100000000E-03 0. -1.
         11   -1    0    0    0    0 -0.00000000000E+00 -0.00000000000E+00 -0.45593999997E+02  0.45594000000E+02  0.51100000000E-03 0.  1.
    9900012    2    1    2    0    0 -0.86415576155E+00 -0.37783444452E+00  0.70955394300E+00  0.90007749668E+02  0.90000011164E+02 0.  0.
        -12    1    1    2    0    0  0.86415576155E+00  0.37783444452E+00 -0.70955394300E+00  0.11802503318E+01  0.00000000000E+00 0.  1.
         11    1    3    3    0    0 -0.30498971133E+02 -0.72120860563E+01  0.24059851876E+02  0.39510478332E+02  0.51100000000E-03 0. -1.
        -11    1    3    3    0    0  0.34875711288E+00  0.98111677044E+01  0.37268275661E+01  0.10500946968E+02  0.51100000000E-03 0.  1.
        -12    1    3    3    0    0  0.29286058259E+02 -0.29769160926E+01 -0.27077125499E+02  0.39996324369E+02  0.00000000000E+00 0.  1.
</event>
<event>
 7    1  0.4359248E-015  0.9000771E+02  0.7816164E-02  0.1186339E+00
        -11   -1    0    0    0    0  0.00000000000E+00  0.00000000000E+00  0.45593999997E+02  0.45594000000E+02  0.51100000000E-03 0. -1.
         11   -1    0    0    0    0 -0.00000000000E+00 -0.00000000000E+00 -0.45593999997E+02  0.45594000000E+02  0.51100000000E-03 0.  1.
    9900012    2    1    2    0    0  0.10401001966E+01 -0.38467810560E+00  0.40409450110E+00  0.90007712734E+02  0.89999973742E+02 0.  0.
        -12    1    1    2    0    0 -0.10401001966E+01  0.38467810560E+00 -0.40409450110E+00  0.11802872658E+01  0.00000000000E+00 0.  1.
         11    1    3    3    0    0  0.28441840937E+02  0.17793056283E-01 -0.73028319489E+01  0.29364434052E+02  0.51100000000E-03 0. -1.
        -11    1    3    3    0    0  0.22879569865E+01  0.15591154296E+02  0.19360594152E+02  0.24963001535E+02  0.51100000000E-03 0.  1.
        -12    1    3    3    0    0 -0.29689697727E+02 -0.15993625458E+02 -0.11653667702E+02  0.35680277147E+02  0.00000000000E+00 0.  1.
</event>
<event>
 7    1  0.4359248E-015  0.9000778E+02  0.7816164E-02  0.1186339E+00
        -11   -1    0    0    0    0  0.00000000000E+00  0.00000000000E+00  0.45593999997E+02  0.45594000000E+02  0.51100000000E-03 0.  1.
         11   -1    0    0    0    0 -0.00000000000E+00 -0.00000000000E+00 -0.45593999997E+02  0.45594000000E+02  0.51100000000E-03 0. -1.
    9900012    2    1    2    0    0  0.50522056503E+00  0.67200810370E+00 -0.82829113156E+00  0.90007784380E+02  0.90000046334E+02 0.  0.
        -12    1    1    2    0    0 -0.50522056503E+00 -0.67200810370E+00  0.82829113156E+00  0.11802156199E+01  0.00000000000E+00 0.  1.
         11    1    3    3    0    0  0.98230374685E+01 -0.59632413236E+01  0.10737524345E+02  0.15727261094E+02  0.51100000000E-03 0. -1.
        -11    1    3    3    0    0 -0.61492787965E+01 -0.22031296032E+02  0.20808771571E+02  0.30922428901E+02  0.51100000000E-03 0.  1.
         12    1    3    3    0    0 -0.31685381069E+01  0.28666545459E+02 -0.32374587048E+02  0.43358094386E+02  0.00000000000E+00 0. -1.
</event>
<event>
 7    1  0.4359248E-015  0.9000881E+02  0.7816164E-02  0.1186337E+00
        -11   -1    0    0    0    0  0.00000000000E+00  0.00000000000E+00  0.45593999997E+02  0.45594000000E+02  0.51100000000E-03 0. -1.
         11   -1    0    0    0    0 -0.00000000000E+00 -0.00000000000E+00 -0.45593999997E+02  0.45594000000E+02  0.51100000000E-03 0.  1.
    9900012    2    1    2    0    0  0.14439037164E+00  0.32198329405E+00  0.11251483039E+01  0.90008813617E+02  0.90001089150E+02 0.  0.
        -12    1    1    2    0    0 -0.14439037164E+00 -0.32198329405E+00 -0.11251483039E+01  0.11791863834E+01  0.00000000000E+00 0.  1.
         11    1    3    3    0    0 -0.19702274103E+01  0.69739521326E+01 -0.39093504785E+01  0.82341256865E+01  0.51100000000E-03 0. -1.
        -11    1    3    3    0    0 -0.21584731078E+01  0.36810134415E+01 -0.37527025709E+02  0.37768856548E+02  0.51100000000E-03 0.  1.
         12    1    3    3    0    0  0.42730908897E+01 -0.10332982280E+02  0.42561524492E+02  0.44005831382E+02  0.00000000000E+00 0. -1.
</event>
<event>
 7    1  0.4359248E-015  0.9000775E+02  0.7816164E-02  0.1186339E+00
        -11   -1    0    0    0    0  0.00000000000E+00  0.00000000000E+00  0.45593999997E+02  0.45594000000E+02  0.51100000000E-03 0.  1.
         11   -1    0    0    0    0 -0.00000000000E+00 -0.00000000000E+00 -0.45593999997E+02  0.45594000000E+02  0.51100000000E-03 0. -1.
    9900012    2    1    2    0    0 -0.88499750609E+00  0.39152834090E+00 -0.67562207975E+00  0.90007754169E+02  0.90000015724E+02 0.  0.
        -12    1    1    2    0    0  0.88499750609E+00 -0.39152834090E+00  0.67562207975E+00  0.11802458312E+01  0.00000000000E+00 0.  1.
         11    1    3    3    0    0 -0.79636289991E+01 -0.17615503651E+01 -0.91786925080E+01  0.12278877919E+02  0.51100000000E-03 0. -1.
        -11    1    3    3    0    0 -0.16155783731E+02  0.88807729903E+01  0.36401845602E+02  0.40804066469E+02  0.51100000000E-03 0.  1.
         12    1    3    3    0    0  0.23234415224E+02 -0.67276942843E+01 -0.27898775174E+02  0.36924809781E+02  0.00000000000E+00 0. -1.
</event>
<event>
 7    1  0.4359248E-015  0.9000785E+02  0.7816164E-02  0.1186339E+00
        -11   -1    0    0    0    0  0.00000000000E+00  0.00000000000E+00  0.45593999997E+02  0.45594000000E+02  0.51100000000E-03 0.  1.
         11   -1    0    0    0    0 -0.00000000000E+00 -0.00000000000E+00 -0.45593999997E+02  0.45594000000E+02  0.51100000000E-03 0. -1.
    9900012    2    1    2    0    0 -0.11711769097E+01  0.10008441776E+00  0.10525070779E+00  0.90007851723E+02  0.90000114566E+02 0.  0.
        -12    1    1    2    0    0  0.11711769097E+01 -0.10008441776E+00 -0.10525070779E+00  0.11801482771E+01  0.00000000000E+00 0.  1.
         11    1    3    3    0    0  0.21979018151E+02  0.29448598249E+02 -0.12101311453E+02  0.38687710152E+02  0.51100000000E-03 0. -1.
        -11    1    3    3    0    0 -0.68607305554E+01  0.58309433903E+01 -0.32672318933E+01  0.95783260062E+01  0.51100000000E-03 0.  1.
        -12    1    3    3    0    0 -0.16289464505E+02 -0.35179457221E+02  0.15473794054E+02  0.41741815565E+02  0.00000000000E+00 0.  1.
</event>
<event>
 7    1  0.4359248E-015  0.9000736E+02  0.7816164E-02  0.1186340E+00
        -11   -1    0    0    0    0  0.00000000000E+00  0.00000000000E+00  0.45593999997E+02  0.45594000000E+02  0.51100000000E-03 0.  1.
         11   -1    0    0    0    0 -0.00000000000E+00 -0.00000000000E+00 -0.45593999997E+02  0.45594000000E+02  0.51100000000E-03 0. -1.
    9900012    2    1    2    0    0  0.87915881372E+00  0.78398920616E+00 -0.79671550726E-01  0.90007361676E+02  0.89999618050E+02 0.  0.
        -12    1    1    2    0    0 -0.87915881372E+00 -0.78398920616E+00  0.79671550726E-01  0.11806383236E+01  0.00000000000E+00 0.  1.
         11    1    3    3    0    0 -0.43412460703E+01  0.77918590356E+01  0.27889454677E+01  0.93454642344E+01  0.51100000000E-03 0. -1.
        -11    1    3    3    0    0 -0.26556583219E+02 -0.18938856010E+01  0.26155477399E+02  0.37322217421E+02  0.51100000000E-03 0.  1.
         12    1    3    3    0    0  0.31776988103E+02 -0.51139842285E+01 -0.29024094418E+02  0.43339680021E+02  0.00000000000E+00 0. -1.
</event>
<event>
 7    1  0.4359248E-015  0.9000779E+02  0.7816164E-02  0.1186339E+00
        -11   -1    0    0    0    0  0.00000000000E+00  0.00000000000E+00  0.45593999997E+02  0.45594000000E+02  0.51100000000E-03 0. -1.
         11   -1    0    0    0    0 -0.00000000000E+00 -0.00000000000E+00 -0.45593999997E+02  0.45594000000E+02  0.51100000000E-03 0.  1.
    9900012    2    1    2    0    0  0.10968630410E+00 -0.99946993858E+00 -0.61800564148E+00  0.90007787216E+02  0.90000049207E+02 0.  0.
        -12    1    1    2    0    0 -0.10968630410E+00  0.99946993858E+00  0.61800564148E+00  0.11802127843E+01  0.00000000000E+00 0.  1.
         11    1    3    3    0    0  0.72740832286E+01  0.37633584109E+01  0.61217369911E+01  0.10225009408E+02  0.51100000000E-03 0. -1.
        -11    1    3    3    0    0  0.34520415898E+02 -0.37503188380E+01  0.78628402056E+01  0.35602644024E+02  0.51100000000E-03 0.  1.
         12    1    3    3    0    0 -0.41684812823E+02 -0.10125095114E+01 -0.14602582838E+02  0.44180133783E+02  0.00000000000E+00 0. -1.
</event>
<event>
 7    1  0.4359248E-015  0.9000774E+02  0.7816164E-02  0.1186339E+00
        -11   -1    0    0    0    0  0.00000000000E+00  0.00000000000E+00  0.45593999997E+02  0.45594000000E+02  0.51100000000E-03 0. -1.
         11   -1    0    0    0    0 -0.00000000000E+00 -0.00000000000E+00 -0.45593999997E+02  0.45594000000E+02  0.51100000000E-03 0.  1.
    9900012    2    1    2    0    0 -0.10154937960E+01 -0.56037791208E+00 -0.21852406263E+00  0.90007744172E+02  0.90000005595E+02 0.  0.
        -12    1    1    2    0    0  0.10154937960E+01  0.56037791208E+00  0.21852406263E+00  0.11802558282E+01  0.00000000000E+00 0.  1.
         11    1    3    3    0    0  0.25102772170E+02 -0.71858181201E+01 -0.22521260211E+02  0.34481767855E+02  0.51100000000E-03 0. -1.
        -11    1    3    3    0    0  0.24963705994E+01 -0.26188689854E+01 -0.10452342540E+02  0.11060823015E+02  0.51100000000E-03 0.  1.
         12    1    3    3    0    0 -0.28614636565E+02  0.92443091934E+01  0.32755078688E+02  0.44465153301E+02  0.00000000000E+00 0. -1.
</event>
<event>
 7    1  0.4359248E-015  0.9000773E+02  0.7816164E-02  0.1186339E+00
        -11   -1    0    0    0    0  0.00000000000E+00  0.00000000000E+00  0.45593999997E+02  0.45594000000E+02  0.51100000000E-03 0. -1.
         11   -1    0    0    0    0 -0.00000000000E+00 -0.00000000000E+00 -0.45593999997E+02  0.45594000000E+02  0.51100000000E-03 0.  1.
    9900012    2    1    2    0    0 -0.87307268361E+00  0.75235180404E+00 -0.25444431558E+00  0.90007732633E+02  0.89999993904E+02 0.  0.
        -12    1    1    2    0    0  0.87307268361E+00 -0.75235180404E+00  0.25444431558E+00  0.11802673670E+01  0.00000000000E+00 0.  1.
         11    1    3    3    0    0  0.16478860648E+01 -0.40895645386E+01 -0.76900144794E+01  0.88643324369E+01  0.51100000000E-03 0. -1.
        -11    1    3    3    0    0 -0.23710368574E+02 -0.30526337623E+02 -0.24989858742E+01  0.38733497096E+02  0.51100000000E-03 0.  1.
         12    1    3    3    0    0  0.21189409826E+02  0.35368253965E+02  0.99345560380E+01  0.42409903101E+02  0.00000000000E+00 0. -1.
</event>
<event>
 7    1  0.5771442E-015  0.9000770E+02  0.7816164E-02  0.1186339E+00
        -11   -1    0    0    0    0  0.00000000000E+00  0.00000000000E+00  0.45593999997E+02  0.45594000000E+02  0.51100000000E-03 0. -1.
         11   -1    0    0    0    0 -0.00000000000E+00 -0.00000000000E+00 -0.45593999997E+02  0.45594000000E+02  0.51100000000E-03 0.  1.
    9900012    2    1    2    0    0  0.71918532968E+00  0.82511840120E+00  0.44164746003E+00  0.90007703260E+02  0.89999964143E+02 0.  0.
        -12    1    1    2    0    0 -0.71918532968E+00 -0.82511840120E+00 -0.44164746003E+00  0.11802967395E+01  0.00000000000E+00 0.  1.
         11    1    3    3    0    0  0.86039731806E+01  0.23457685161E+02  0.30656406269E+02  0.39548787506E+02  0.51100000000E-03 0. -1.
        -11    1    3    3    0    0 -0.26921534941E+01 -0.65747145750E+01  0.67649880243E+01  0.98101796828E+01  0.51100000000E-03 0.  1.
        -12    1    3    3    0    0 -0.51926343568E+01 -0.16057852184E+02 -0.36979746834E+02  0.40648736072E+02  0.00000000000E+00 0.  1.
</event>
<event>
 7    1  0.4359248E-015  0.9000767E+02  0.7816164E-02  0.1186339E+00
        -11   -1    0    0    0    0  0.00000000000E+00  0.00000000000E+00  0.45593999997E+02  0.45594000000E+02  0.51100000000E-03 0.  1.
         11   -1    0    0    0    0 -0.00000000000E+00 -0.00000000000E+00 -0.45593999997E+02  0.45594000000E+02  0.51100000000E-03 0. -1.
    9900012    2    1    2    0    0 -0.69433225468E+00 -0.63216937397E+00 -0.71515583739E+00  0.90007668153E+02  0.89999928573E+02 0.  0.
        -12    1    1    2    0    0  0.69433225468E+00  0.63216937397E+00  0.71515583739E+00  0.11803318470E+01  0.00000000000E+00 0.  1.
         11    1    3    3    0    0  0.13893086236E+02 -0.10606365480E+02 -0.33347841815E+02  0.37650914834E+02  0.51100000000E-03 0. -1.
        -11    1    3    3    0    0  0.25773569165E+01  0.54536688439E+01 -0.68140911447E+01  0.91003907016E+01  0.51100000000E-03 0.  1.
        -12    1    3    3    0    0 -0.17164775407E+02  0.45205272624E+01  0.39446777122E+02  0.43256362617E+02  0.00000000000E+00 0.  1.
</event>
<event>
 7    1  0.4359248E-015  0.9000770E+02  0.7816164E-02  0.1186339E+00
        -11   -1    0    0    0    0  0.00000000000E+00  0.00000000000E+00  0.45593999997E+02  0.45594000000E+02  0.51100000000E-03 0.  1.
         11   -1    0    0    0    0 -0.00000000000E+00 -0.00000000000E+00 -0.45593999997E+02  0.45594000000E+02  0.51100000000E-03 0. -1.
    9900012    2    1    2    0    0  0.25111315911E+00 -0.88328991707E+00 -0.74151143294E+00  0.90007704231E+02  0.89999965127E+02 0.  0.
        -12    1    1    2    0    0 -0.25111315911E+00  0.88328991707E+00  0.74151143294E+00  0.11802957686E+01  0.00000000000E+00 0.  1.
         11    1    3    3    0    0  0.21628072664E+01  0.96539753610E+01 -0.31387239181E+01  0.10379237141E+02  0.51100000000E-03 0. -1.
        -11    1    3    3    0    0  0.22345459721E+02 -0.35596006329E+02 -0.89148678879E+01  0.42963590474E+02  0.51100000000E-03 0.  1.
         12    1    3    3    0    0 -0.24257153828E+02  0.25058741051E+02  0.11312080373E+02  0.36664876616E+02  0.00000000000E+00 0. -1.
</event>
<event>
 7    1  0.4359248E-015  0.9000743E+02  0.7816164E-02  0.1186340E+00
        -11   -1    0    0    0    0  0.00000000000E+00  0.00000000000E+00  0.45593999997E+02  0.45594000000E+02  0.51100000000E-03 0.  1.
         11   -1    0    0    0    0 -0.00000000000E+00 -0.00000000000E+00 -0.45593999997E+02  0.45594000000E+02  0.51100000000E-03 0. -1.
    9900012    2    1    2    0    0  0.33461450033E+00 -0.11319815944E+01  0.19697599913E-01  0.90007433530E+02  0.89999690852E+02 0.  0.
        -12    1    1    2    0    0 -0.33461450033E+00  0.11319815944E+01 -0.19697599913E-01  0.11805664697E+01  0.00000000000E+00 0.  1.
         11    1    3    3    0    0 -0.22553734388E+01 -0.70224865406E+01  0.51061304957E+01  0.89707633712E+01  0.51100000000E-03 0. -1.
        -11    1    3    3    0    0 -0.13983522884E+02 -0.32219456727E+02 -0.15191965477E+02  0.38267847069E+02  0.51100000000E-03 0.  1.
         12    1    3    3    0    0  0.16573510823E+02  0.38109961673E+02  0.10105532581E+02  0.42768823090E+02  0.00000000000E+00 0. -1.
</event>
<event>
 7    1  0.4359248E-015  0.9000771E+02  0.7816164E-02  0.1186339E+00
        -11   -1    0    0    0    0  0.00000000000E+00  0.00000000000E+00  0.45593999997E+02  0.45594000000E+02  0.51100000000E-03 0. -1.
         11   -1    0    0    0    0 -0.00000000000E+00 -0.00000000000E+00 -0.45593999997E+02  0.45594000000E+02  0.51100000000E-03 0.  1.
    9900012    2    1    2    0    0 -0.43775687365E-01 -0.43501575603E+00 -0.10963258126E+01  0.90007709652E+02  0.89999970619E+02 0.  0.
        -12    1    1    2    0    0  0.43775687365E-01  0.43501575603E+00  0.10963258126E+01  0.11802903482E+01  0.00000000000E+00 0.  1.
         11    1    3    3    0    0 -0.57590214285E+01 -0.12743059011E+01  0.36964594237E+02  0.37432224229E+02  0.51100000000E-03 0. -1.
        -11    1    3    3    0    0 -0.84189551354E+01  0.15905186046E+01  0.30512836483E+01  0.90949924225E+01  0.51100000000E-03 0.  1.
        -12    1    3    3    0    0  0.14134200877E+02 -0.75122845952E+00 -0.41112203698E+02  0.43480493000E+02  0.00000000000E+00 0.  1.
</event>
<event>
 7    1  0.4359248E-015  0.9000786E+02  0.7816164E-02  0.1186339E+00
        -11   -1    0    0    0    0  0.00000000000E+00  0.00000000000E+00  0.45593999997E+02  0.45594000000E+02  0.51100000000E-03 0. -1.
         11   -1    0    0    0    0 -0.00000000000E+00 -0.00000000000E+00 -0.45593999997E+02  0.45594000000E+02  0.51100000000E-03 0.  1.
    9900012    2    1    2    0    0 -0.11316503167E+01 -0.23746234435E+00 -0.23603730982E+00  0.90007858307E+02  0.90000121236E+02 0.  0.
        -12    1    1    2    0    0  0.11316503167E+01  0.23746234435E+00  0.23603730982E+00  0.11801416931E+01  0.00000000000E+00 0.  1.
         11    1    3    3    0    0  0.68577590441E+01  0.16388120441E+01 -0.13008097222E+02  0.14796119681E+02  0.51100000000E-03 0. -1.
        -11    1    3    3    0    0 -0.25808346304E+02  0.46600439593E+01 -0.22892224037E+02  0.34811501982E+02  0.51100000000E-03 0.  1.
         12    1    3    3    0    0  0.17818936943E+02 -0.65363183478E+01  0.35664283949E+02  0.40400236644E+02  0.00000000000E+00 0. -1.
</event>
<event>
 7    1  0.4359248E-015  0.9000774E+02  0.7816164E-02  0.1186339E+00
        -11   -1    0    0    0    0  0.00000000000E+00  0.00000000000E+00  0.45593999997E+02  0.45594000000E+02  0.51100000000E-03 0.  1.
         11   -1    0    0    0    0 -0.00000000000E+00 -0.00000000000E+00 -0.45593999997E+02  0.45594000000E+02  0.51100000000E-03 0. -1.
    9900012    2    1    2    0    0  0.11414987799E+01 -0.29779120074E+00  0.36098634504E-01  0.90007744869E+02  0.90000006301E+02 0.  0.
        -12    1    1    2    0    0 -0.11414987799E+01  0.29779120074E+00 -0.36098634504E-01  0.11802551314E+01  0.00000000000E+00 0.  1.
         11    1    3    3    0    0 -0.40143510947E+01  0.38629149574E+02  0.11933801567E+02  0.40629322313E+02  0.51100000000E-03 0. -1.
        -11    1    3    3    0    0  0.69979920751E+01  0.16486412028E+01 -0.57576260312E+00  0.72125871734E+01  0.51100000000E-03 0.  1.
        -12    1    3    3    0    0 -0.18421422005E+01 -0.40575581977E+02 -0.11321940329E+02  0.42165835382E+02  0.00000000000E+00 0.  1.
</event>
<event>
 7    1  0.4359248E-015  0.9000781E+02  0.7816164E-02  0.1186339E+00
        -11   -1    0    0    0    0  0.00000000000E+00  0.00000000000E+00  0.45593999997E+02  0.45594000000E+02  0.51100000000E-03 0.  1.
         11   -1    0    0    0    0 -0.00000000000E+00 -0.00000000000E+00 -0.45593999997E+02  0.45594000000E+02  0.51100000000E-03 0. -1.
    9900012    2    1    2    0    0 -0.54807767059E+00 -0.64843371091E+00 -0.81975223044E+00  0.90007809706E+02  0.90000071994E+02 0.  0.
        -12    1    1    2    0    0  0.54807767059E+00  0.64843371091E+00  0.81975223044E+00  0.11801902939E+01  0.00000000000E+00 0.  1.
         11    1    3    3    0    0  0.60183569129E+01  0.87741204087E+01  0.35679811795E+01  0.11222134326E+02  0.51100000000E-03 0. -1.
        -11    1    3    3    0    0 -0.19495297112E+02 -0.34994889999E+02  0.16502055287E+02  0.43324666928E+02  0.51100000000E-03 0.  1.
         12    1    3    3    0    0  0.12928862528E+02  0.25572335879E+02 -0.20889788697E+02  0.35461008451E+02  0.00000000000E+00 0. -1.
</event>
<event>
 7    1  0.4359248E-015  0.9000774E+02  0.7816164E-02  0.1186339E+00
        -11   -1    0    0    0    0  0.00000000000E+00  0.00000000000E+00  0.45593999997E+02  0.45594000000E+02  0.51100000000E-03 0.  1.
         11   -1    0    0    0    0 -0.00000000000E+00 -0.00000000000E+00 -0.45593999997E+02  0.45594000000E+02  0.51100000000E-03 0. -1.
    9900012    2    1    2    0    0 -0.82037034429E+00  0.58679729571E+00 -0.61292425631E+00  0.90007739558E+02  0.90000000920E+02 0.  0.
        -12    1    1    2    0    0  0.82037034429E+00 -0.58679729571E+00  0.61292425631E+00  0.11802604425E+01  0.00000000000E+00 0.  1.
         11    1    3    3    0    0 -0.24683736932E+02 -0.25562023352E+01 -0.26491748090E+02  0.36299225287E+02  0.51100000000E-03 0. -1.
        -11    1    3    3    0    0 -0.50534863466E+01  0.91317756308E+01 -0.44787578488E+01  0.11357214560E+02  0.51100000000E-03 0.  1.
        -12    1    3    3    0    0  0.28916852935E+02 -0.59887759999E+01  0.30357581682E+02  0.42351299711E+02  0.00000000000E+00 0.  1.
</event>
<event>
 7    1  0.4359248E-015  0.9000780E+02  0.7816164E-02  0.1186339E+00
        -11   -1    0    0    0    0  0.00000000000E+00  0.00000000000E+00  0.45593999997E+02  0.45594000000E+02  0.51100000000E-03 0.  1.
         11   -1    0    0    0    0 -0.00000000000E+00 -0.00000000000E+00 -0.45593999997E+02  0.45594000000E+02  0.51100000000E-03 0. -1.
    9900012    2    1    2    0    0  0.10296603573E+01 -0.56226252188E+00 -0.12858661051E+00  0.90007799123E+02  0.90000061271E+02 0.  0.
        -12    1    1    2    0    0 -0.10296603573E+01  0.56226252188E+00  0.12858661051E+00  0.11802008775E+01  0.00000000000E+00 0.  1.
         11    1    3    3    0    0  0.25700469302E+02  0.15602331303E+01 -0.21944119929E+02  0.33830353966E+02  0.51100000000E-03 0. -1.
        -11    1    3    3    0    0  0.12436587089E+02  0.34389686662E+01  0.26253802852E+00  0.12905972664E+02  0.51100000000E-03 0.  1.
        -12    1    3    3    0    0 -0.37107396034E+02 -0.55614643183E+01  0.21552995289E+02  0.43271472493E+02  0.00000000000E+00 0.  1.
</event>
<event>
 7    1  0.4359248E-015  0.9000785E+02  0.7816164E-02  0.1186339E+00
        -11   -1    0    0    0    0  0.00000000000E+00  0.00000000000E+00  0.45593999997E+02  0.45594000000E+02  0.51100000000E-03 0.  1.
         11   -1    0    0    0    0 -0.00000000000E+00 -0.00000000000E+00 -0.45593999997E+02  0.45594000000E+02  0.51100000000E-03 0. -1.
    9900012    2    1    2    0    0 -0.21626504333E+00  0.11125817455E+01 -0.32886768951E+00  0.90007846338E+02  0.90000109109E+02 0.  0.
        -12    1    1    2    0    0  0.21626504333E+00 -0.11125817455E+01  0.32886768951E+00  0.11801536623E+01  0.00000000000E+00 0.  1.
         11    1    3    3    0    0 -0.11510856681E+02  0.39701931908E+02 -0.11987872334E+02  0.43040124327E+02  0.51100000000E-03 0. -1.
        -11    1    3    3    0    0  0.17220221522E+01 -0.19522086199E+01  0.85908237032E+01  0.89765656544E+01  0.51100000000E-03 0.  1.
        -12    1    3    3    0    0  0.95725694854E+01 -0.36637141543E+02  0.30681809417E+01  0.37991156356E+02  0.00000000000E+00 0.  1.
</event>
<event>
 7    1  0.4359248E-015  0.9000777E+02  0.7816164E-02  0.1186339E+00
        -11   -1    0    0    0    0  0.00000000000E+00  0.00000000000E+00  0.45593999997E+02  0.45594000000E+02  0.51100000000E-03 0. -1.
         11   -1    0    0    0    0 -0.00000000000E+00 -0.00000000000E+00 -0.45593999997E+02  0.45594000000E+02  0.51100000000E-03 0.  1.
    9900012    2    1    2    0    0 -0.68530303021E+00 -0.55327684188E-01  0.95928950644E+00  0.90007772161E+02  0.90000033953E+02 0.  0.
        -12    1    1    2    0    0  0.68530303021E+00  0.55327684188E-01 -0.95928950644E+00  0.11802278394E+01  0.00000000000E+00 0.  1.
         11    1    3    3    0    0 -0.12014297780E+02 -0.94506630608E+01  0.34587455905E+02  0.37814686164E+02  0.51100000000E-03 0. -1.
        -11    1    3    3    0    0  0.11389437835E+02  0.50457020272E+01  0.49249876262E+01  0.13395294193E+02  0.51100000000E-03 0.  1.
        -12    1    3    3    0    0 -0.60443084596E-01  0.43496333495E+01 -0.38553154024E+02  0.38797791804E+02  0.00000000000E+00 0.  1.
</event>
<event>
 7    1  0.4359248E-015  0.9000777E+02  0.7816164E-02  0.1186339E+00
        -11   -1    0    0    0    0  0.00000000000E+00  0.00000000000E+00  0.45593999997E+02  0.45594000000E+02  0.51100000000E-03 0. -1.
         11   -1    0    0    0    0 -0.00000000000E+00 -0.00000000000E+00 -0.45593999997E+02  0.45594000000E+02  0.51100000000E-03 0.  1.
    9900012    2    1    2    0    0  0.50990447569E+00 -0.10604126266E+01  0.91955482171E-01  0.90007774037E+02  0.90000035854E+02 0.  0.
        -12    1    1    2    0    0 -0.50990447569E+00  0.10604126266E+01 -0.91955482171E-01  0.11802259630E+01  0.00000000000E+00 0.  1.
         11    1    3    3    0    0  0.73977719583E+01 -0.36169124348E+02  0.63189374062E+01  0.37454793502E+02  0.51100000000E-03 0. -1.
        -11    1    3    3    0    0  0.89668536175E+01 -0.40215623496E+01 -0.26672950675E+01  0.10182921524E+02  0.51100000000E-03 0.  1.
        -12    1    3    3    0    0 -0.15854721100E+02  0.39130274071E+02 -0.35596868565E+01  0.42370059011E+02  0.00000000000E+00 0.  1.
</event>
<event>
 7    1  0.4359248E-015  0.9000762E+02  0.7816164E-02  0.1186339E+00
        -11   -1    0    0    0    0  0.00000000000E+00  0.00000000000E+00  0.45593999997E+02  0.45594000000E+02  0.51100000000E-03 0.  1.
         11   -1    0    0    0    0 -0.00000000000E+00 -0.00000000000E+00 -0.45593999997E+02  0.45594000000E+02  0.51100000000E-03 0. -1.
    9900012    2    1    2    0    0  0.34972620489E+00 -0.92318323811E+00 -0.64707820273E+00  0.90007624674E+02  0.89999884520E+02 0.  0.
        -12    1    1    2    0    0 -0.34972620489E+00  0.92318323811E+00  0.64707820273E+00  0.11803753259E+01  0.00000000000E+00 0.  1.
         11    1    3    3    0    0 -0.37426329471E+02 -0.48346603559E+00 -0.15651157821E+02  0.40569971881E+02  0.51100000000E-03 0. -1.
        -11    1    3    3    0    0  0.35482274488E+01 -0.56684090436E+01 -0.59625209075E+01  0.89594885427E+01  0.51100000000E-03 0.  1.
        -12    1    3    3    0    0  0.34227828227E+02  0.52286918411E+01  0.20966600525E+02  0.40478164250E+02  0.00000000000E+00 0.  1.
</event>
<event>
 7    1  0.4359248E-015  0.9000800E+02  0.7816164E-02  0.1186339E+00
        -11   -1    0    0    0    0  0.00000000000E+00  0.00000000000E+00  0.45593999997E+02  0.45594000000E+02  0.51100000000E-03 0.  1.
         11   -1    0    0    0    0 -0.00000000000E+00 -0.00000000000E+00 -0.45593999997E+02  0.45594000000E+02  0.51100000000E-03 0. -1.
    9900012    2    1    2    0    0  0.52266519239E-03 -0.91564441999E+00 -0.74430060161E+00  0.90008004931E+02  0.90000269796E+02 0.  0.
        -12    1    1    2    0    0 -0.52266519239E-03  0.91564441999E+00  0.74430060161E+00  0.11799950689E+01  0.00000000000E+00 0.  1.
         11    1    3    3    0    0 -0.77218791345E+01 -0.36718608447E+01  0.43809711688E+01  0.96074392048E+01  0.51100000000E-03 0. -1.
        -11    1    3    3    0    0 -0.70509491174E+01 -0.35711770560E+02  0.77729618768E+01  0.37221840048E+02  0.51100000000E-03 0.  1.
         12    1    3    3    0    0  0.14773350917E+02  0.38467986985E+02 -0.12898233647E+02  0.43178725678E+02  0.00000000000E+00 0. -1.
</event>
<event>
 7    1  0.4359248E-015  0.9000773E+02  0.7816164E-02  0.1186339E+00
        -11   -1    0    0    0    0  0.00000000000E+00  0.00000000000E+00  0.45593999997E+02  0.45594000000E+02  0.51100000000E-03 0.  1.
         11   -1    0    0    0    0 -0.00000000000E+00 -0.00000000000E+00 -0.45593999997E+02  0.45594000000E+02  0.51100000000E-03 0. -1.
    9900012    2    1    2    0    0  0.96980729167E+00  0.44319424193E+00 -0.50606159372E+00  0.90007726449E+02  0.89999987638E+02 0.  0.
        -12    1    1    2    0    0 -0.96980729167E+00 -0.44319424193E+00  0.50606159372E+00  0.11802735512E+01  0.00000000000E+00 0.  1.
         11    1    3    3    0    0  0.12007485269E+01 -0.49157001521E+00  0.94301317807E+01  0.95189717810E+01  0.51100000000E-03 0. -1.
        -11    1    3    3    0    0  0.13449314242E+02  0.25205190905E+02  0.23481600028E+02  0.36980687422E+02  0.51100000000E-03 0.  1.
         12    1    3    3    0    0 -0.13680255477E+02 -0.24270426648E+02 -0.33417793402E+02  0.43508067245E+02  0.00000000000E+00 0. -1.
</event>
<event>
 7    1  0.4359248E-015  0.9000774E+02  0.7816164E-02  0.1186339E+00
        -11   -1    0    0    0    0  0.00000000000E+00  0.00000000000E+00  0.45593999997E+02  0.45594000000E+02  0.51100000000E-03 0.  1.
         11   -1    0    0    0    0 -0.00000000000E+00 -0.00000000000E+00 -0.45593999997E+02  0.45594000000E+02  0.51100000000E-03 0. -1.
    9900012    2    1    2    0    0  0.41809377510E+00 -0.28222459793E+00 -0.10670332015E+01  0.90007740291E+02  0.90000001662E+02 0.  0.
        -12    1    1    2    0    0 -0.41809377510E+00  0.28222459793E+00  0.10670332015E+01  0.11802597094E+01  0.00000000000E+00 0.  1.
         11    1    3    3    0    0  0.25312261924E+02  0.15619792321E+02 -0.23480434770E+02  0.37894845733E+02  0.51100000000E-03 0. -1.
        -11    1    3    3    0    0  0.64085499746E+00 -0.31488572306E+01 -0.90668942644E+01  0.96194890118E+01  0.51100000000E-03 0.  1.
        -12    1    3    3    0    0 -0.25535023147E+02 -0.12753159688E+02  0.31480295833E+02  0.42493405546E+02  0.00000000000E+00 0.  1.
</event>
<event>
 7    1  0.4359248E-015  0.9000838E+02  0.7816164E-02  0.1186338E+00
        -11   -1    0    0    0    0  0.00000000000E+00  0.00000000000E+00  0.45593999997E+02  0.45594000000E+02  0.51100000000E-03 0. -1.
         11   -1    0    0    0    0 -0.00000000000E+00 -0.00000000000E+00 -0.45593999997E+02  0.45594000000E+02  0.51100000000E-03 0.  1.
    9900012    2    1    2    0    0 -0.75664282958E+00 -0.12653940128E+00  0.89609282231E+00  0.90008380172E+02  0.90000649988E+02 0.  0.
        -12    1    1    2    0    0  0.75664282958E+00  0.12653940128E+00 -0.89609282231E+00  0.11796198277E+01  0.00000000000E+00 0.  1.
         11    1    3    3    0    0  0.18415956784E+02 -0.13059153346E+02  0.31898739638E+01  0.22800531717E+02  0.51100000000E-03 0. -1.
        -11    1    3    3    0    0  0.22224649434E+02 -0.23204917984E+01  0.38157803689E+01  0.22668919355E+02  0.51100000000E-03 0.  1.
         12    1    3    3    0    0 -0.41397249048E+02  0.15253105743E+02 -0.61095615104E+01  0.44538929100E+02  0.00000000000E+00 0. -1.
</event>
<event>
 7    1  0.4359248E-015  0.9000795E+02  0.7816164E-02  0.1186339E+00
        -11   -1    0    0    0    0  0.00000000000E+00  0.00000000000E+00  0.45593999997E+02  0.45594000000E+02  0.51100000000E-03 0. -1.
         11   -1    0    0    0    0 -0.00000000000E+00 -0.00000000000E+00 -0.45593999997E+02  0.45594000000E+02  0.51100000000E-03 0.  1.
    9900012    2    1    2    0    0 -0.89329373134E+00  0.75654343757E-01  0.76734623320E+00  0.90007950208E+02  0.90000214350E+02 0.  0.
        -12    1    1    2    0    0  0.89329373134E+00 -0.75654343757E-01 -0.76734623320E+00  0.11800497921E+01  0.00000000000E+00 0.  1.
         11    1    3    3    0    0  0.84138256364E+01 -0.40757427959E+01 -0.40307812983E+00  0.93577034265E+01  0.51100000000E-03 0. -1.
        -11    1    3    3    0    0  0.12605402848E+02 -0.31118014137E+02 -0.14092277396E+02  0.36411801209E+02  0.51100000000E-03 0.  1.
         12    1    3    3    0    0 -0.21912522216E+02  0.35269411277E+02  0.15262701759E+02  0.44238445572E+02  0.00000000000E+00 0. -1.
</event>
<event>
 7    1  0.4359248E-015  0.9000780E+02  0.7816164E-02  0.1186339E+00
        -11   -1    0    0    0    0  0.00000000000E+00  0.00000000000E+00  0.45593999997E+02  0.45594000000E+02  0.51100000000E-03 0. -1.
         11   -1    0    0    0    0 -0.00000000000E+00 -0.00000000000E+00 -0.45593999997E+02  0.45594000000E+02  0.51100000000E-03 0.  1.
    9900012    2    1    2    0    0  0.25764776356E+00  0.11516981754E+01 -0.87447932769E-02  0.90007801911E+02  0.90000064096E+02 0.  0.
        -12    1    1    2    0    0 -0.25764776356E+00 -0.11516981754E+01  0.87447932769E-02  0.11801980887E+01  0.00000000000E+00 0.  1.
         11    1    3    3    0    0  0.21702183579E+02  0.16134612103E+02  0.29758683824E+02  0.40210567554E+02  0.51100000000E-03 0. -1.
        -11    1    3    3    0    0 -0.68331754966E+01  0.24398915122E+01  0.45981146490E+01  0.85899951423E+01  0.51100000000E-03 0.  1.
        -12    1    3    3    0    0 -0.14611360319E+02 -0.17422805440E+02 -0.34365543266E+02  0.41207239215E+02  0.00000000000E+00 0.  1.
</event>
<event>
 7    1  0.4359248E-015  0.9000778E+02  0.7816164E-02  0.1186339E+00
        -11   -1    0    0    0    0  0.00000000000E+00  0.00000000000E+00  0.45593999997E+02  0.45594000000E+02  0.51100000000E-03 0. -1.
         11   -1    0    0    0    0 -0.00000000000E+00 -0.00000000000E+00 -0.45593999997E+02  0.45594000000E+02  0.51100000000E-03 0.  1.
    9900012    2    1    2    0    0  0.21344875038E-01  0.11045970696E+01  0.41512388208E+00  0.90007780475E+02  0.90000042377E+02 0.  0.
        -12    1    1    2    0    0 -0.21344875038E-01 -0.11045970696E+01 -0.41512388208E+00  0.11802195251E+01  0.00000000000E+00 0.  1.
         11    1    3    3    0    0  0.12104174672E+02  0.17763231911E+02  0.96018160495E+01  0.23542266758E+02  0.51100000000E-03 0. -1.
        -11    1    3    3    0    0  0.21776531276E+02 -0.89776826957E+01 -0.19136472679E+02  0.30348322653E+02  0.51100000000E-03 0.  1.
         12    1    3    3    0    0 -0.33859361073E+02 -0.76809521453E+01  0.99497805118E+01  0.36117191064E+02  0.00000000000E+00 0. -1.
</event>
<event>
 7    1  0.4359248E-015  0.9000777E+02  0.7816164E-02  0.1186339E+00
        -11   -1    0    0    0    0  0.00000000000E+00  0.00000000000E+00  0.45593999997E+02  0.45594000000E+02  0.51100000000E-03 0.  1.
         11   -1    0    0    0    0 -0.00000000000E+00 -0.00000000000E+00 -0.45593999997E+02  0.45594000000E+02  0.51100000000E-03 0. -1.
    9900012    2    1    2    0    0  0.36406535063E+00 -0.10913025848E+01  0.26354494383E+00  0.90007770849E+02  0.90000032624E+02 0.  0.
        -12    1    1    2    0    0 -0.36406535063E+00  0.10913025848E+01 -0.26354494383E+00  0.11802291509E+01  0.00000000000E+00 0.  1.
         11    1    3    3    0    0  0.47860665547E+01  0.16041502451E+01  0.18785565614E+02  0.19451920387E+02  0.51100000000E-03 0. -1.
        -11    1    3    3    0    0 -0.76162174999E+01  0.23703688936E+02  0.13986445513E+02  0.28556825743E+02  0.51100000000E-03 0.  1.
         12    1    3    3    0    0  0.31942162958E+01 -0.26399141766E+02 -0.32508466183E+02  0.41999024718E+02  0.00000000000E+00 0. -1.
</event>
<event>
 7    1  0.4359248E-015  0.9000739E+02  0.7816164E-02  0.1186340E+00
        -11   -1    0    0    0    0  0.00000000000E+00  0.00000000000E+00  0.45593999997E+02  0.45594000000E+02  0.51100000000E-03 0.  1.
         11   -1    0    0    0    0 -0.00000000000E+00 -0.00000000000E+00 -0.45593999997E+02  0.45594000000E+02  0.51100000000E-03 0. -1.
    9900012    2    1    2    0    0  0.97582961342E+00  0.54751435087E+00 -0.37660195701E+00  0.90007388111E+02  0.89999644833E+02 0.  0.
        -12    1    1    2    0    0 -0.97582961342E+00 -0.54751435087E+00  0.37660195701E+00  0.11806118892E+01  0.00000000000E+00 0.  1.
         11    1    3    3    0    0 -0.37704638911E+01 -0.14245296761E+01  0.86704781430E+01  0.95615309570E+01  0.51100000000E-03 0. -1.
        -11    1    3    3    0    0 -0.26651415139E+02 -0.14507249793E+02  0.18504089183E+02  0.35540955843E+02  0.51100000000E-03 0.  1.
         12    1    3    3    0    0  0.31397708644E+02  0.16479293820E+02 -0.27551169283E+02  0.44904901311E+02  0.00000000000E+00 0. -1.
</event>
<event>
 7    1  0.4359248E-015  0.9000767E+02  0.7816164E-02  0.1186339E+00
        -11   -1    0    0    0    0  0.00000000000E+00  0.00000000000E+00  0.45593999997E+02  0.45594000000E+02  0.51100000000E-03 0.  1.
         11   -1    0    0    0    0 -0.00000000000E+00 -0.00000000000E+00 -0.45593999997E+02  0.45594000000E+02  0.51100000000E-03 0. -1.
    9900012    2    1    2    0    0 -0.69302510308E+00 -0.80316356803E-01 -0.95206874954E+00  0.90007674022E+02  0.89999934519E+02 0.  0.
        -12    1    1    2    0    0  0.69302510308E+00  0.80316356803E-01  0.95206874954E+00  0.11803259781E+01  0.00000000000E+00 0.  1.
         11    1    3    3    0    0  0.11069245852E+02 -0.72507119519E+01 -0.35394001882E+02  0.37786722497E+02  0.51100000000E-03 0. -1.
        -11    1    3    3    0    0  0.77192377491E+01 -0.29520820629E+01 -0.30207501925E+01  0.87992245067E+01  0.51100000000E-03 0.  1.
        -12    1    3    3    0    0 -0.19481508705E+02  0.10122477658E+02  0.37462683325E+02  0.43421727018E+02  0.00000000000E+00 0.  1.
</event>
<event>
 7    1  0.4359248E-015  0.9000774E+02  0.7816164E-02  0.1186339E+00
        -11   -1    0    0    0    0  0.00000000000E+00  0.00000000000E+00  0.45593999997E+02  0.45594000000E+02  0.51100000000E-03 0. -1.
         11   -1    0    0    0    0 -0.00000000000E+00 -0.00000000000E+00 -0.45593999997E+02  0.45594000000E+02  0.51100000000E-03 0.  1.
    9900012    2    1    2    0    0 -0.77129465933E+00  0.89292721213E+00  0.28465756389E-01  0.90007735302E+02  0.89999996608E+02 0.  0.
        -12    1    1    2    0    0  0.77129465933E+00 -0.89292721213E+00 -0.28465756389E-01  0.11802646978E+01  0.00000000000E+00 0.  1.
         11    1    3    3    0    0  0.41007596288E+01  0.58910218452E+01 -0.50945245144E+01  0.88019627472E+01  0.51100000000E-03 0. -1.
        -11    1    3    3    0    0 -0.29008546038E+02  0.13257014006E+02 -0.23448781690E+02  0.39586481614E+02  0.51100000000E-03 0.  1.
         12    1    3    3    0    0  0.24136491749E+02 -0.18255108640E+02  0.28571771961E+02  0.41619290941E+02  0.00000000000E+00 0. -1.
</event>
<event>
 7    1  0.4359248E-015  0.9000775E+02  0.7816164E-02  0.1186339E+00
        -11   -1    0    0    0    0  0.00000000000E+00  0.00000000000E+00  0.45593999997E+02  0.45594000000E+02  0.51100000000E-03 0. -1.
         11   -1    0    0    0    0 -0.00000000000E+00 -0.00000000000E+00 -0.45593999997E+02  0.45594000000E+02  0.51100000000E-03 0.  1.
    9900012    2    1    2    0    0  0.75069816887E+00 -0.70362267086E+00 -0.57822669625E+00  0.90007754807E+02  0.90000016370E+02 0.  0.
        -12    1    1    2    0    0 -0.75069816887E+00  0.70362267086E+00  0.57822669625E+00  0.11802451932E+01  0.00000000000E+00 0.  1.
         11    1    3    3    0    0 -0.99898198165E+00 -0.17858115052E+01  0.28457094432E+00  0.20659304478E+01  0.51100000000E-03 0. -1.
        -11    1    3    3    0    0  0.18278600021E+02 -0.91962368955E+01 -0.39608732682E+02  0.44581719311E+02  0.51100000000E-03 0.  1.
         12    1    3    3    0    0 -0.16528919870E+02  0.10278425730E+02  0.38745935042E+02  0.43360105048E+02  0.00000000000E+00 0. -1.
</event>
<event>
 7    1  0.4359248E-015  0.9000772E+02  0.7816164E-02  0.1186339E+00
        -11   -1    0    0    0    0  0.00000000000E+00  0.00000000000E+00  0.45593999997E+02  0.45594000000E+02  0.51100000000E-03 0.  1.
         11   -1    0    0    0    0 -0.00000000000E+00 -0.00000000000E+00 -0.45593999997E+02  0.45594000000E+02  0.51100000000E-03 0. -1.
    9900012    2    1    2    0    0  0.85366711789E+00  0.31511729335E+00 -0.75167835852E+00  0.90007717487E+02  0.89999978557E+02 0.  0.
        -12    1    1    2    0    0 -0.85366711789E+00 -0.31511729335E+00  0.75167835852E+00  0.11802825134E+01  0.00000000000E+00 0.  1.
         11    1    3    3    0    0  0.78301060845E+01 -0.10641144579E+02 -0.20671656858E+02  0.24532874205E+02  0.51100000000E-03 0. -1.
        -11    1    3    3    0    0  0.25155241879E+02  0.35618702348E+01  0.20269962238E+02  0.32501453551E+02  0.51100000000E-03 0.  1.
         12    1    3    3    0    0 -0.32131680846E+02  0.73943916377E+01 -0.34998373808E+00  0.32973389730E+02  0.00000000000E+00 0. -1.
</event>
<event>
 7    1  0.4359248E-015  0.9000777E+02  0.7816164E-02  0.1186339E+00
        -11   -1    0    0    0    0  0.00000000000E+00  0.00000000000E+00  0.45593999997E+02  0.45594000000E+02  0.51100000000E-03 0.  1.
         11   -1    0    0    0    0 -0.00000000000E+00 -0.00000000000E+00 -0.45593999997E+02  0.45594000000E+02  0.51100000000E-03 0. -1.
    9900012    2    1    2    0    0  0.42994229769E+00  0.10072659100E+01  0.43989105795E+00  0.90007771575E+02  0.90000033360E+02 0.  0.
        -12    1    1    2    0    0 -0.42994229769E+00 -0.10072659100E+01 -0.43989105795E+00  0.11802284252E+01  0.00000000000E+00 0.  1.
         11    1    3    3    0    0  0.48353410687E+01  0.29816851361E+01 -0.88207568283E+01  0.10491745364E+02  0.51100000000E-03 0. -1.
        -11    1    3    3    0    0  0.59773453522E+01 -0.13857047952E+02 -0.31978731123E+02  0.35360792976E+02  0.51100000000E-03 0.  1.
         12    1    3    3    0    0 -0.10382744123E+02  0.11882628726E+02  0.41239379009E+02  0.44155233235E+02  0.00000000000E+00 0. -1.
</event>
<event>
 7    1  0.4359248E-015  0.9000780E+02  0.7816164E-02  0.1186339E+00
        -11   -1    0    0    0    0  0.00000000000E+00  0.00000000000E+00  0.45593999997E+02  0.45594000000E+02  0.51100000000E-03 0.  1.
         11   -1    0    0    0    0 -0.00000000000E+00 -0.00000000000E+00 -0.45593999997E+02  0.45594000000E+02  0.51100000000E-03 0. -1.
    9900012    2    1    2    0    0 -0.79049222975E+00 -0.70561678923E+00 -0.51971150274E+00  0.90007799566E+02  0.90000061720E+02 0.  0.
        -12    1    1    2    0    0  0.79049222975E+00  0.70561678923E+00  0.51971150274E+00  0.11802004341E+01  0.00000000000E+00 0.  1.
         11    1    3    3    0    0 -0.34956729478E+02  0.22564439351E+02 -0.13300614373E+02  0.43681039388E+02  0.51100000000E-03 0. -1.
        -11    1    3    3    0    0  0.38999872439E+01  0.14189811761E+01  0.50043039792E+01  0.65012665426E+01  0.51100000000E-03 0.  1.
        -12    1    3    3    0    0  0.30266250005E+02 -0.24689037317E+02  0.77765988913E+01  0.39825493635E+02  0.00000000000E+00 0.  1.
</event>
<event>
 7    1  0.4359248E-015  0.9000776E+02  0.7816164E-02  0.1186339E+00
        -11   -1    0    0    0    0  0.00000000000E+00  0.00000000000E+00  0.45593999997E+02  0.45594000000E+02  0.51100000000E-03 0. -1.
         11   -1    0    0    0    0 -0.00000000000E+00 -0.00000000000E+00 -0.45593999997E+02  0.45594000000E+02  0.51100000000E-03 0.  1.
    9900012    2    1    2    0    0 -0.53758138219E+00 -0.91872148010E+00  0.50982680298E+00  0.90007760080E+02  0.90000021713E+02 0.  0.
        -12    1    1    2    0    0  0.53758138219E+00  0.91872148010E+00 -0.50982680298E+00  0.11802399203E+01  0.00000000000E+00 0.  1.
         11    1    3    3    0    0  0.44744892276E+01 -0.31958528991E+02  0.21001958809E+02  0.38502609044E+02  0.51100000000E-03 0. -1.
        -11    1    3    3    0    0 -0.81959755651E+01 -0.56830620276E+01 -0.16540787339E+01  0.10109756980E+02  0.51100000000E-03 0.  1.
        -12    1    3    3    0    0  0.31839049553E+01  0.36722869539E+02 -0.18838053273E+02  0.41395394056E+02  0.00000000000E+00 0.  1.
</event>
<event>
 7    1  0.4359248E-015  0.9000779E+02  0.7816164E-02  0.1186339E+00
        -11   -1    0    0    0    0  0.00000000000E+00  0.00000000000E+00  0.45593999997E+02  0.45594000000E+02  0.51100000000E-03 0.  1.
         11   -1    0    0    0    0 -0.00000000000E+00 -0.00000000000E+00 -0.45593999997E+02  0.45594000000E+02  0.51100000000E-03 0. -1.
    9900012    2    1    2    0    0  0.10744917052E+01 -0.18677750458E+00 -0.45109291262E+00  0.90007786851E+02  0.90000048838E+02 0.  0.
        -12    1    1    2    0    0 -0.10744917052E+01  0.18677750458E+00  0.45109291262E+00  0.11802131488E+01  0.00000000000E+00 0.  1.
         11    1    3    3    0    0 -0.45925060864E+01 -0.52508484558E+00  0.71309502545E+01  0.84980749609E+01  0.51100000000E-03 0. -1.
        -11    1    3    3    0    0 -0.23947466513E+02  0.26739099218E+02  0.11217491625E+02  0.37607083083E+02  0.51100000000E-03 0.  1.
         12    1    3    3    0    0  0.29614464305E+02 -0.26400791877E+02 -0.18799534792E+02  0.43902628807E+02  0.00000000000E+00 0. -1.
</event>
<event>
 7    1  0.4359248E-015  0.9000789E+02  0.7816164E-02  0.1186339E+00
        -11   -1    0    0    0    0  0.00000000000E+00  0.00000000000E+00  0.45593999997E+02  0.45594000000E+02  0.51100000000E-03 0. -1.
         11   -1    0    0    0    0 -0.00000000000E+00 -0.00000000000E+00 -0.45593999997E+02  0.45594000000E+02  0.51100000000E-03 0.  1.
    9900012    2    1    2    0    0  0.54851212764E+00 -0.49600909150E-01  0.10437064757E+01  0.90007894491E+02  0.90000157898E+02 0.  0.
        -12    1    1    2    0    0 -0.54851212764E+00  0.49600909150E-01 -0.10437064757E+01  0.11801055088E+01  0.00000000000E+00 0.  1.
         11    1    3    3    0    0  0.43256214525E+01 -0.23384334798E+02  0.36730373687E+02  0.43756810514E+02  0.51100000000E-03 0. -1.
        -11    1    3    3    0    0  0.90018904316E-03 -0.25264179684E+01 -0.70096272563E+01  0.74510175879E+01  0.51100000000E-03 0.  1.
        -12    1    3    3    0    0 -0.37780095139E+01  0.25861151857E+02 -0.28677039955E+02  0.38800066390E+02  0.00000000000E+00 0.  1.
</event>
<event>
 7    1  0.4359248E-015  0.9000808E+02  0.7816164E-02  0.1186338E+00
        -11   -1    0    0    0    0  0.00000000000E+00  0.00000000000E+00  0.45593999997E+02  0.45594000000E+02  0.51100000000E-03 0.  1.
         11   -1    0    0    0    0 -0.00000000000E+00 -0.00000000000E+00 -0.45593999997E+02  0.45594000000E+02  0.51100000000E-03 0. -1.
    9900012    2    1    2    0    0 -0.42598177364E+00  0.10177236848E+00 -0.10956236007E+01  0.90008080867E+02  0.90000346734E+02 0.  0.
        -12    1    1    2    0    0  0.42598177364E+00 -0.10177236848E+00  0.10956236007E+01  0.11799191332E+01  0.00000000000E+00 0.  1.
         11    1    3    3    0    0  0.33390628266E+00  0.33550128335E+01 -0.74826305297E+01  0.82071532472E+01  0.51100000000E-03 0. -1.
        -11    1    3    3    0    0  0.17483893221E+02  0.31057851433E+02  0.19701051774E+02  0.40723557053E+02  0.51100000000E-03 0.  1.
         12    1    3    3    0    0 -0.18243781277E+02 -0.34311091898E+02 -0.13314044845E+02  0.41077370567E+02  0.00000000000E+00 0. -1.
</event>
<event>
 7    1  0.4359248E-015  0.9000773E+02  0.7816164E-02  0.1186339E+00
        -11   -1    0    0    0    0  0.00000000000E+00  0.00000000000E+00  0.45593999997E+02  0.45594000000E+02  0.51100000000E-03 0. -1.
         11   -1    0    0    0    0 -0.00000000000E+00 -0.00000000000E+00 -0.45593999997E+02  0.45594000000E+02  0.51100000000E-03 0.  1.
    9900012    2    1    2    0    0 -0.20771855174E+00 -0.74926743872E+00  0.88797345129E+00  0.90007726497E+02  0.89999987687E+02 0.  0.
        -12    1    1    2    0    0  0.20771855174E+00  0.74926743872E+00 -0.88797345129E+00  0.11802735029E+01  0.00000000000E+00 0.  1.
         11    1    3    3    0    0 -0.99931094827E+01 -0.13776594681E+01  0.43373775632E+01  0.10980574991E+02  0.51100000000E-03 0. -1.
        -11    1    3    3    0    0 -0.18546801346E+02  0.31063838167E+02 -0.84295139426E+01  0.37148386067E+02  0.51100000000E-03 0.  1.
         12    1    3    3    0    0  0.28332192277E+02 -0.30435446137E+02  0.49801098307E+01  0.41878765439E+02  0.00000000000E+00 0. -1.
</event>
<event>
 7    1  0.4367519E-015  0.9000771E+02  0.7816164E-02  0.1186339E+00
        -11   -1    0    0    0    0  0.00000000000E+00  0.00000000000E+00  0.45593999997E+02  0.45594000000E+02  0.51100000000E-03 0. -1.
         11   -1    0    0    0    0 -0.00000000000E+00 -0.00000000000E+00 -0.45593999997E+02  0.45594000000E+02  0.51100000000E-03 0.  1.
    9900012    2    1    2    0    0  0.10422302260E+01 -0.51613132522E+00 -0.20112315579E+00  0.90007709395E+02  0.89999970359E+02 0.  0.
        -12    1    1    2    0    0 -0.10422302260E+01  0.51613132522E+00  0.20112315579E+00  0.11802906052E+01  0.00000000000E+00 0.  1.
         11    1    3    3    0    0 -0.32748817870E+02  0.13592649087E+02 -0.19185995844E+01  0.35509522747E+02  0.51100000000E-03 0. -1.
        -11    1    3    3    0    0 -0.58655089614E+01  0.58298293967E+01 -0.49125110348E+01  0.96189329501E+01  0.51100000000E-03 0.  1.
        -12    1    3    3    0    0  0.39656557057E+02 -0.19938609809E+02  0.66299874634E+01  0.44879253698E+02  0.00000000000E+00 0.  1.
</event>
<event>
 7    1  0.4428015E-015  0.9000772E+02  0.7816164E-02  0.1186339E+00
        -11   -1    0    0    0    0  0.00000000000E+00  0.00000000000E+00  0.45593999997E+02  0.45594000000E+02  0.51100000000E-03 0.  1.
         11   -1    0    0    0    0 -0.00000000000E+00 -0.00000000000E+00 -0.45593999997E+02  0.45594000000E+02  0.51100000000E-03 0. -1.
    9900012    2    1    2    0    0  0.11778978417E+01  0.11665175428E-02 -0.74934792819E-01  0.90007720410E+02  0.89999981520E+02 0.  0.
        -12    1    1    2    0    0 -0.11778978417E+01 -0.11665175428E-02  0.74934792819E-01  0.11802795895E+01  0.00000000000E+00 0.  1.
         11    1    3    3    0    0  0.13871252528E+02 -0.17277406329E+02 -0.36907731212E+02  0.43047660095E+02  0.51100000000E-03 0. -1.
        -11    1    3    3    0    0  0.24062027104E+01 -0.23927464557E+01  0.93311546687E+01  0.99290228520E+01  0.51100000000E-03 0.  1.
        -12    1    3    3    0    0 -0.15099557397E+02  0.19671319302E+02  0.27501641750E+02  0.37031037464E+02  0.00000000000E+00 0.  1.
</event>
<event>
 7    1  0.4359248E-015  0.9000782E+02  0.7816164E-02  0.1186339E+00
        -11   -1    0    0    0    0  0.00000000000E+00  0.00000000000E+00  0.45593999997E+02  0.45594000000E+02  0.51100000000E-03 0.  1.
         11   -1    0    0    0    0 -0.00000000000E+00 -0.00000000000E+00 -0.45593999997E+02  0.45594000000E+02  0.51100000000E-03 0. -1.
    9900012    2    1    2    0    0 -0.74928021083E+00 -0.80405997520E+00  0.42997971727E+00  0.90007823812E+02  0.90000086286E+02 0.  0.
        -12    1    1    2    0    0  0.74928021083E+00  0.80405997520E+00 -0.42997971727E+00  0.11801761883E+01  0.00000000000E+00 0.  1.
         11    1    3    3    0    0 -0.31091561006E+02 -0.21556683331E+02 -0.61207130081E+01  0.38325433983E+02  0.51100000000E-03 0. -1.
        -11    1    3    3    0    0 -0.24645984061E+01 -0.51556731519E+01  0.80264422474E+01  0.98528669109E+01  0.51100000000E-03 0.  1.
        -12    1    3    3    0    0  0.32806879201E+02  0.25908296508E+02 -0.14757495220E+01  0.41829522918E+02  0.00000000000E+00 0.  1.
</event>
<event>
 7    1  0.4359248E-015  0.9000775E+02  0.7816164E-02  0.1186339E+00
        -11   -1    0    0    0    0  0.00000000000E+00  0.00000000000E+00  0.45593999997E+02  0.45594000000E+02  0.51100000000E-03 0. -1.
         11   -1    0    0    0    0 -0.00000000000E+00 -0.00000000000E+00 -0.45593999997E+02  0.45594000000E+02  0.51100000000E-03 0.  1.
    9900012    2    1    2    0    0  0.79449493599E+00  0.69162168052E+00  0.53237981136E+00  0.90007749596E+02  0.90000011091E+02 0.  0.
        -12    1    1    2    0    0 -0.79449493599E+00 -0.69162168052E+00 -0.53237981136E+00  0.11802504039E+01  0.00000000000E+00 0.  1.
         11    1    3    3    0    0 -0.22353315972E+02 -0.28090527833E+02 -0.80093402021E+01  0.36781762052E+02  0.51100000000E-03 0. -1.
        -11    1    3    3    0    0  0.71540572631E+00 -0.87438864120E+01  0.22386648188E+01  0.90542241728E+01  0.51100000000E-03 0.  1.
        -12    1    3    3    0    0  0.22432405182E+02  0.37526035926E+02  0.63030551946E+01  0.44171763371E+02  0.00000000000E+00 0.  1.
</event>
<event>
 7    1  0.4359248E-015  0.9000771E+02  0.7816164E-02  0.1186339E+00
        -11   -1    0    0    0    0  0.00000000000E+00  0.00000000000E+00  0.45593999997E+02  0.45594000000E+02  0.51100000000E-03 0. -1.
         11   -1    0    0    0    0 -0.00000000000E+00 -0.00000000000E+00 -0.45593999997E+02  0.45594000000E+02  0.51100000000E-03 0.  1.
    9900012    2    1    2    0    0  0.45391715007E+00  0.81375412173E+00  0.72446261003E+00  0.90007710788E+02  0.89999971771E+02 0.  0.
        -12    1    1    2    0    0 -0.45391715007E+00 -0.81375412173E+00 -0.72446261003E+00  0.11802892116E+01  0.00000000000E+00 0.  1.
         11    1    3    3    0    0  0.62700486787E+01  0.37185052220E+02  0.14319441597E+02  0.40337179214E+02  0.51100000000E-03 0. -1.
        -11    1    3    3    0    0  0.36171649312E+01  0.19411045509E+00 -0.11268379800E+02  0.11836297757E+02  0.51100000000E-03 0.  1.
        -12    1    3    3    0    0 -0.94332964598E+01 -0.36565408553E+02 -0.23265991871E+01  0.37834233817E+02  0.00000000000E+00 0.  1.
</event>
<event>
 7    1  0.4359248E-015  0.9000771E+02  0.7816164E-02  0.1186339E+00
        -11   -1    0    0    0    0  0.00000000000E+00  0.00000000000E+00  0.45593999997E+02  0.45594000000E+02  0.51100000000E-03 0.  1.
         11   -1    0    0    0    0 -0.00000000000E+00 -0.00000000000E+00 -0.45593999997E+02  0.45594000000E+02  0.51100000000E-03 0. -1.
    9900012    2    1    2    0    0  0.32215712213E+00  0.88749664335E+00 -0.70827012230E+00  0.90007711023E+02  0.89999972008E+02 0.  0.
        -12    1    1    2    0    0 -0.32215712213E+00 -0.88749664335E+00  0.70827012230E+00  0.11802889771E+01  0.00000000000E+00 0.  1.
         11    1    3    3    0    0 -0.69814545584E+01  0.49004455496E+01  0.60629853061E+01  0.10464935041E+02  0.51100000000E-03 0. -1.
        -11    1    3    3    0    0 -0.29873958101E+01 -0.27341110432E+01  0.35646492755E+02  0.35875790485E+02  0.51100000000E-03 0.  1.
         12    1    3    3    0    0  0.10291007491E+02 -0.12788378631E+01 -0.42417748183E+02  0.43666985497E+02  0.00000000000E+00 0. -1.
</event>
<event>
 7    1  0.4359248E-015  0.9000773E+02  0.7816164E-02  0.1186339E+00
        -11   -1    0    0    0    0  0.00000000000E+00  0.00000000000E+00  0.45593999997E+02  0.45594000000E+02  0.51100000000E-03 0.  1.
         11   -1    0    0    0    0 -0.00000000000E+00 -0.00000000000E+00 -0.45593999997E+02  0.45594000000E+02  0.51100000000E-03 0. -1.
    9900012    2    1    2    0    0 -0.11033538733E+01  0.38271197509E+00 -0.17083732494E+00  0.90007727312E+02  0.89999988513E+02 0.  0.
        -12    1    1    2    0    0  0.11033538733E+01 -0.38271197509E+00  0.17083732494E+00  0.11802726876E+01  0.00000000000E+00 0.  1.
         11    1    3    3    0    0 -0.88812887376E+01  0.21569603322E+02 -0.18840460781E+01  0.23402450876E+02  0.51100000000E-03 0. -1.
        -11    1    3    3    0    0  0.26832595960E+02 -0.13485166886E+02  0.22384747409E+02  0.37455504919E+02  0.51100000000E-03 0.  1.
         12    1    3    3    0    0 -0.19054661095E+02 -0.77017244610E+01 -0.20671538656E+02  0.29149771518E+02  0.00000000000E+00 0. -1.
</event>
<event>
 7    1  0.4359248E-015  0.9000836E+02  0.7816164E-02  0.1186338E+00
        -11   -1    0    0    0    0  0.00000000000E+00  0.00000000000E+00  0.45593999997E+02  0.45594000000E+02  0.51100000000E-03 0. -1.
         11   -1    0    0    0    0 -0.00000000000E+00 -0.00000000000E+00 -0.45593999997E+02  0.45594000000E+02  0.51100000000E-03 0.  1.
    9900012    2    1    2    0    0  0.50521338649E+00  0.86813247525E-01  0.10624393836E+01  0.90008358296E+02  0.90000627823E+02 0.  0.
        -12    1    1    2    0    0 -0.50521338649E+00 -0.86813247525E-01 -0.10624393836E+01  0.11796417039E+01  0.00000000000E+00 0.  1.
         11    1    3    3    0    0 -0.52876988532E+01 -0.74895605490E+01 -0.41200435634E+01  0.10051270348E+02  0.51100000000E-03 0. -1.
        -11    1    3    3    0    0  0.28330830522E+02 -0.25810682281E+02 -0.43237886199E+01  0.38568412285E+02  0.51100000000E-03 0.  1.
         12    1    3    3    0    0 -0.22537918283E+02  0.33387056078E+02  0.95062715669E+01  0.41388675663E+02  0.00000000000E+00 0. -1.
</event>
<event>
 7    1  0.4359248E-015  0.9000756E+02  0.7816164E-02  0.1186339E+00
        -11   -1    0    0    0    0  0.00000000000E+00  0.00000000000E+00  0.45593999997E+02  0.45594000000E+02  0.51100000000E-03 0. -1.
         11   -1    0    0    0    0 -0.00000000000E+00 -0.00000000000E+00 -0.45593999997E+02  0.45594000000E+02  0.51100000000E-03 0.  1.
    9900012    2    1    2    0    0  0.89355741104E+00 -0.28570771098E+00  0.71650095061E+00  0.90007556289E+02  0.89999815232E+02 0.  0.
        -12    1    1    2    0    0 -0.89355741104E+00  0.28570771098E+00 -0.71650095061E+00  0.11804437111E+01  0.00000000000E+00 0.  1.
         11    1    3    3    0    0  0.31605047328E+02  0.30725768902E+01 -0.18625697866E+02  0.36813535100E+02  0.51100000000E-03 0. -1.
        -11    1    3    3    0    0  0.18595529462E+01  0.11353142595E+02 -0.18376233087E+01  0.11650263672E+02  0.51100000000E-03 0.  1.
        -12    1    3    3    0    0 -0.32571042863E+02 -0.14711427196E+02  0.21179822125E+02  0.41543757516E+02  0.00000000000E+00 0.  1.
</event>
<event>
 7    1  0.4359248E-015  0.9000776E+02  0.7816164E-02  0.1186339E+00
        -11   -1    0    0    0    0  0.00000000000E+00  0.00000000000E+00  0.45593999997E+02  0.45594000000E+02  0.51100000000E-03 0.  1.
         11   -1    0    0    0    0 -0.00000000000E+00 -0.00000000000E+00 -0.45593999997E+02  0.45594000000E+02  0.51100000000E-03 0. -1.
    9900012    2    1    2    0    0  0.39664979032E+00 -0.10604055994E+01 -0.33343294794E+00  0.90007759083E+02  0.90000020703E+02 0.  0.
        -12    1    1    2    0    0 -0.39664979032E+00  0.10604055994E+01  0.33343294794E+00  0.11802409170E+01  0.00000000000E+00 0.  1.
         11    1    3    3    0    0  0.48487044971E+01  0.26147445230E+00 -0.27153085850E+01  0.55633807314E+01  0.51100000000E-03 0. -1.
        -11    1    3    3    0    0  0.23009219737E+02 -0.18660615104E+02  0.29741876725E+02  0.41978827763E+02  0.51100000000E-03 0.  1.
         12    1    3    3    0    0 -0.27461274443E+02  0.17338735052E+02 -0.27360001088E+02  0.42465550589E+02  0.00000000000E+00 0. -1.
</event>
<event>
 7    1  0.4359248E-015  0.9000777E+02  0.7816164E-02  0.1186339E+00
        -11   -1    0    0    0    0  0.00000000000E+00  0.00000000000E+00  0.45593999997E+02  0.45594000000E+02  0.51100000000E-03 0.  1.
         11   -1    0    0    0    0 -0.00000000000E+00 -0.00000000000E+00 -0.45593999997E+02  0.45594000000E+02  0.51100000000E-03 0. -1.
    9900012    2    1    2    0    0  0.49649223424E+00  0.89745158135E+00  0.58397236950E+00  0.90007767986E+02  0.90000029723E+02 0.  0.
        -12    1    1    2    0    0 -0.49649223424E+00 -0.89745158135E+00 -0.58397236950E+00  0.11802320144E+01  0.00000000000E+00 0.  1.
         11    1    3    3    0    0 -0.31071413107E+02  0.19454831435E+02 -0.13451696300E+02  0.39049600667E+02  0.51100000000E-03 0. -1.
        -11    1    3    3    0    0  0.35779499248E+01  0.22309981256E+01 -0.84689441404E+01  0.94605546040E+01  0.51100000000E-03 0.  1.
        -12    1    3    3    0    0  0.27989955417E+02 -0.20788377980E+02  0.22504612810E+02  0.41497612714E+02  0.00000000000E+00 0.  1.
</event>
<event>
 7    1  0.4359248E-015  0.9000775E+02  0.7816164E-02  0.1186339E+00
        -11   -1    0    0    0    0  0.00000000000E+00  0.00000000000E+00  0.45593999997E+02  0.45594000000E+02  0.51100000000E-03 0. -1.
         11   -1    0    0    0    0 -0.00000000000E+00 -0.00000000000E+00 -0.45593999997E+02  0.45594000000E+02  0.51100000000E-03 0.  1.
    9900012    2    1    2    0    0  0.75537388229E+00  0.35753547909E+00  0.83340630727E+00  0.90007751131E+02  0.90000012645E+02 0.  0.
        -12    1    1    2    0    0 -0.75537388229E+00 -0.35753547909E+00 -0.83340630727E+00  0.11802488695E+01  0.00000000000E+00 0.  1.
         11    1    3    3    0    0 -0.27963356970E+01 -0.39244685219E+01 -0.86769175159E+01  0.99252125593E+01  0.51100000000E-03 0. -1.
        -11    1    3    3    0    0 -0.31068408119E+02 -0.19842404424E+02  0.16932949280E+00  0.36864558442E+02  0.51100000000E-03 0.  1.
         12    1    3    3    0    0  0.34620117699E+02  0.24124408425E+02  0.93409943303E+01  0.43217980129E+02  0.00000000000E+00 0. -1.
</event>
<event>
 7    1  0.4359248E-015  0.9000750E+02  0.7816164E-02  0.1186340E+00
        -11   -1    0    0    0    0  0.00000000000E+00  0.00000000000E+00  0.45593999997E+02  0.45594000000E+02  0.51100000000E-03 0.  1.
         11   -1    0    0    0    0 -0.00000000000E+00 -0.00000000000E+00 -0.45593999997E+02  0.45594000000E+02  0.51100000000E-03 0. -1.
    9900012    2    1    2    0    0 -0.28362721252E+00 -0.10498449095E+01 -0.45929659010E+00  0.90007503457E+02  0.89999761703E+02 0.  0.
        -12    1    1    2    0    0  0.28362721252E+00  0.10498449095E+01  0.45929659010E+00  0.11804965427E+01  0.00000000000E+00 0.  1.
         11    1    3    3    0    0 -0.20416360728E+01 -0.50846775462E+01 -0.39778669662E+01  0.67709415493E+01  0.51100000000E-03 0. -1.
        -11    1    3    3    0    0 -0.17059664336E+02 -0.34513809391E+02 -0.68509333668E+01  0.39104609373E+02  0.51100000000E-03 0.  1.
         12    1    3    3    0    0  0.18817673197E+02  0.38548642028E+02  0.10369503743E+02  0.44131952535E+02  0.00000000000E+00 0. -1.
</event>
<event>
 7    1  0.4359248E-015  0.9000771E+02  0.7816164E-02  0.1186339E+00
        -11   -1    0    0    0    0  0.00000000000E+00  0.00000000000E+00  0.45593999997E+02  0.45594000000E+02  0.51100000000E-03 0.  1.
         11   -1    0    0    0    0 -0.00000000000E+00 -0.00000000000E+00 -0.45593999997E+02  0.45594000000E+02  0.51100000000E-03 0. -1.
    9900012    2    1    2    0    0  0.39353648683E+00  0.26094199545E+00 -0.10817206150E+01  0.90007711400E+02  0.89999972390E+02 0.  0.
        -12    1    1    2    0    0 -0.39353648683E+00 -0.26094199545E+00  0.10817206150E+01  0.11802886005E+01  0.00000000000E+00 0.  1.
         11    1    3    3    0    0 -0.27158658175E+02 -0.30428627240E+00 -0.24166885562E+02  0.36355517628E+02  0.51100000000E-03 0. -1.
        -11    1    3    3    0    0 -0.71084791809E+01  0.10089445929E+02  0.41276319615E+01  0.13014020950E+02  0.51100000000E-03 0.  1.
        -12    1    3    3    0    0  0.34660673843E+02 -0.95242176615E+01  0.18957532985E+02  0.40638172821E+02  0.00000000000E+00 0.  1.
</event>
<event>
 7    1  0.4359248E-015  0.9000774E+02  0.7816164E-02  0.1186339E+00
        -11   -1    0    0    0    0  0.00000000000E+00  0.00000000000E+00  0.45593999997E+02  0.45594000000E+02  0.51100000000E-03 0. -1.
         11   -1    0    0    0    0 -0.00000000000E+00 -0.00000000000E+00 -0.45593999997E+02  0.45594000000E+02  0.51100000000E-03 0.  1.
    9900012    2    1    2    0    0  0.62019334813E+00 -0.62954532653E+00  0.78232899842E+00  0.90007743346E+02  0.90000004758E+02 0.  0.
        -12    1    1    2    0    0 -0.62019334813E+00  0.62954532653E+00 -0.78232899842E+00  0.11802566539E+01  0.00000000000E+00 0.  1.
         11    1    3    3    0    0  0.44478319252E+01  0.58202898824E+01 -0.57774517965E+01  0.93294122362E+01  0.51100000000E-03 0. -1.
        -11    1    3    3    0    0  0.43830292863E+01 -0.23786501769E+02 -0.30513096807E+02  0.38936585484E+02  0.51100000000E-03 0.  1.
         12    1    3    3    0    0 -0.82106678633E+01  0.17336666560E+02  0.37072877602E+02  0.41741745626E+02  0.00000000000E+00 0. -1.
</event>
<event>
 7    1  0.4732686E-015  0.9000773E+02  0.7816164E-02  0.1186339E+00
        -11   -1    0    0    0    0  0.00000000000E+00  0.00000000000E+00  0.45593999997E+02  0.45594000000E+02  0.51100000000E-03 0.  1.
         11   -1    0    0    0    0 -0.00000000000E+00 -0.00000000000E+00 -0.45593999997E+02  0.45594000000E+02  0.51100000000E-03 0. -1.
    9900012    2    1    2    0    0  0.88537792214E+00 -0.61373710453E+00 -0.48214879340E+00  0.90007731066E+02  0.89999992316E+02 0.  0.
        -12    1    1    2    0    0 -0.88537792214E+00  0.61373710453E+00  0.48214879340E+00  0.11802689344E+01  0.00000000000E+00 0.  1.
         11    1    3    3    0    0 -0.23826570627E+02 -0.95529903806E+01 -0.29683728687E+02  0.39243965677E+02  0.51100000000E-03 0. -1.
        -11    1    3    3    0    0 -0.78212485639E+01  0.16714221008E+00  0.51758819340E+01  0.93802782300E+01  0.51100000000E-03 0.  1.
        -12    1    3    3    0    0  0.32533197113E+02  0.87721110660E+01  0.24025697960E+02  0.41383487158E+02  0.00000000000E+00 0.  1.
</event>
<event>
 7    1  0.4359248E-015  0.9000785E+02  0.7816164E-02  0.1186339E+00
        -11   -1    0    0    0    0  0.00000000000E+00  0.00000000000E+00  0.45593999997E+02  0.45594000000E+02  0.51100000000E-03 0.  1.
         11   -1    0    0    0    0 -0.00000000000E+00 -0.00000000000E+00 -0.45593999997E+02  0.45594000000E+02  0.51100000000E-03 0. -1.
    9900012    2    1    2    0    0  0.44304090437E+00  0.87211387441E+00 -0.66022473217E+00  0.90007845540E+02  0.90000108301E+02 0.  0.
        -12    1    1    2    0    0 -0.44304090437E+00 -0.87211387441E+00  0.66022473217E+00  0.11801544602E+01  0.00000000000E+00 0.  1.
         11    1    3    3    0    0 -0.69813489979E+01 -0.19404568192E+01  0.14964529854E+01  0.73989173733E+01  0.51100000000E-03 0. -1.
        -11    1    3    3    0    0 -0.20083541066E+01 -0.34243149316E+02  0.18684398475E+02  0.39060638857E+02  0.51100000000E-03 0.  1.
         12    1    3    3    0    0  0.94327440089E+01  0.37055720009E+02 -0.20841076193E+02  0.43548289310E+02  0.00000000000E+00 0. -1.
</event>
<event>
 7    1  0.4359248E-015  0.9000759E+02  0.7816164E-02  0.1186339E+00
        -11   -1    0    0    0    0  0.00000000000E+00  0.00000000000E+00  0.45593999997E+02  0.45594000000E+02  0.51100000000E-03 0. -1.
         11   -1    0    0    0    0 -0.00000000000E+00 -0.00000000000E+00 -0.45593999997E+02  0.45594000000E+02  0.51100000000E-03 0.  1.
    9900012    2    1    2    0    0 -0.65989347922E+00  0.97579074015E+00 -0.75775565333E-01  0.90007589517E+02  0.89999848898E+02 0.  0.
        -12    1    1    2    0    0  0.65989347922E+00 -0.97579074015E+00  0.75775565333E-01  0.11804104832E+01  0.00000000000E+00 0.  1.
         11    1    3    3    0    0 -0.27913947368E+02  0.20561397490E+02  0.28538745225E+01  0.34786550913E+02  0.51100000000E-03 0. -1.
        -11    1    3    3    0    0 -0.11556367182E+02 -0.52818789103E+00 -0.31271270703E+01  0.11983635879E+02  0.51100000000E-03 0.  1.
        -12    1    3    3    0    0  0.38810421071E+02 -0.19057418859E+02  0.19747698243E+00  0.43237402725E+02  0.00000000000E+00 0.  1.
</event>
<event>
 7    1  0.4359248E-015  0.9000772E+02  0.7816164E-02  0.1186339E+00
        -11   -1    0    0    0    0  0.00000000000E+00  0.00000000000E+00  0.45593999997E+02  0.45594000000E+02  0.51100000000E-03 0.  1.
         11   -1    0    0    0    0 -0.00000000000E+00 -0.00000000000E+00 -0.45593999997E+02  0.45594000000E+02  0.51100000000E-03 0. -1.
    9900012    2    1    2    0    0  0.27099849821E+00  0.11057747736E+01 -0.31124258053E+00  0.90007724617E+02  0.89999985782E+02 0.  0.
        -12    1    1    2    0    0 -0.27099849821E+00 -0.11057747736E+01  0.31124258053E+00  0.11802753831E+01  0.00000000000E+00 0.  1.
         11    1    3    3    0    0 -0.38277976674E+01 -0.23548550720E+01  0.95441867443E+01  0.10549354400E+02  0.51100000000E-03 0. -1.
        -11    1    3    3    0    0 -0.30102623381E+02 -0.81571293826E+01  0.15985166222E+02  0.35046144347E+02  0.51100000000E-03 0.  1.
         12    1    3    3    0    0  0.34201419546E+02  0.11617759228E+02 -0.25840595547E+02  0.44412225870E+02  0.00000000000E+00 0. -1.
</event>
<event>
 7    1  0.4359248E-015  0.9000777E+02  0.7816164E-02  0.1186339E+00
        -11   -1    0    0    0    0  0.00000000000E+00  0.00000000000E+00  0.45593999997E+02  0.45594000000E+02  0.51100000000E-03 0. -1.
         11   -1    0    0    0    0 -0.00000000000E+00 -0.00000000000E+00 -0.45593999997E+02  0.45594000000E+02  0.51100000000E-03 0.  1.
    9900012    2    1    2    0    0 -0.25336520568E+00 -0.87865311789E+00  0.74613569687E+00  0.90007769638E+02  0.90000031397E+02 0.  0.
        -12    1    1    2    0    0  0.25336520568E+00  0.87865311789E+00 -0.74613569687E+00  0.11802303619E+01  0.00000000000E+00 0.  1.
         11    1    3    3    0    0 -0.17946269380E+02  0.31972731518E+02 -0.13515703439E+01  0.36689928973E+02  0.51100000000E-03 0. -1.
        -11    1    3    3    0    0  0.35073683792E+01  0.86232082762E+01 -0.10677494366E+01  0.93702424218E+01  0.51100000000E-03 0.  1.
        -12    1    3    3    0    0  0.14185535795E+02 -0.41474592912E+02  0.31654554774E+01  0.43947598244E+02  0.00000000000E+00 0.  1.
</event>
<event>
 7    1  0.4359248E-015  0.9000775E+02  0.7816164E-02  0.1186339E+00
        -11   -1    0    0    0    0  0.00000000000E+00  0.00000000000E+00  0.45593999997E+02  0.45594000000E+02  0.51100000000E-03 0. -1.
         11   -1    0    0    0    0 -0.00000000000E+00 -0.00000000000E+00 -0.45593999997E+02  0.45594000000E+02  0.51100000000E-03 0.  1.
    9900012    2    1    2    0    0 -0.10124654137E+01  0.12979672011E+00  0.59249400264E+00  0.90007753184E+02  0.90000014726E+02 0.  0.
        -12    1    1    2    0    0  0.10124654137E+01 -0.12979672011E+00 -0.59249400264E+00  0.11802468156E+01  0.00000000000E+00 0.  1.
         11    1    3    3    0    0  0.90958165030E+01 -0.52014316608E+00  0.39276375453E+01  0.99212279339E+01  0.51100000000E-03 0. -1.
        -11    1    3    3    0    0  0.30843301518E+02 -0.11849654244E+02 -0.14120889277E+02  0.35932200997E+02  0.51100000000E-03 0.  1.
         12    1    3    3    0    0 -0.40951583435E+02  0.12499594130E+02  0.10785745734E+02  0.44154324254E+02  0.00000000000E+00 0. -1.
</event>
<event>
 7    1  0.4359248E-015  0.9000802E+02  0.7816164E-02  0.1186338E+00
        -11   -1    0    0    0    0  0.00000000000E+00  0.00000000000E+00  0.45593999997E+02  0.45594000000E+02  0.51100000000E-03 0. -1.
         11   -1    0    0    0    0 -0.00000000000E+00 -0.00000000000E+00 -0.45593999997E+02  0.45594000000E+02  0.51100000000E-03 0.  1.
    9900012    2    1    2    0    0  0.73701141389E+00  0.89132040514E+00 -0.23392597298E+00  0.90008017267E+02  0.90000282295E+02 0.  0.
        -12    1    1    2    0    0 -0.73701141389E+00 -0.89132040514E+00  0.23392597298E+00  0.11799827328E+01  0.00000000000E+00 0.  1.
         11    1    3    3    0    0  0.57601389846E+01 -0.73141992862E+01 -0.21233897528E+01  0.95491097293E+01  0.51100000000E-03 0. -1.
        -11    1    3    3    0    0  0.36381199421E+02 -0.55460356294E+01  0.13925770428E+01  0.36827835310E+02  0.51100000000E-03 0.  1.
         12    1    3    3    0    0 -0.41404326992E+02  0.13751555321E+02  0.49688673702E+00  0.43631072228E+02  0.00000000000E+00 0. -1.
</event>
<event>
 7    1  0.4359248E-015  0.9000772E+02  0.7816164E-02  0.1186339E+00
        -11   -1    0    0    0    0  0.00000000000E+00  0.00000000000E+00  0.45593999997E+02  0.45594000000E+02  0.51100000000E-03 0. -1.
         11   -1    0    0    0    0 -0.00000000000E+00 -0.00000000000E+00 -0.45593999997E+02  0.45594000000E+02  0.51100000000E-03 0.  1.
    9900012    2    1    2    0    0 -0.10474085119E+01  0.18255692264E+00  0.51251089334E+00  0.90007720780E+02  0.89999981895E+02 0.  0.
        -12    1    1    2    0    0  0.10474085119E+01 -0.18255692264E+00 -0.51251089334E+00  0.11802792197E+01  0.00000000000E+00 0.  1.
         11    1    3    3    0    0 -0.37552289652E+01 -0.21519757075E-01  0.94867881204E+01  0.10203007242E+02  0.51100000000E-03 0. -1.
        -11    1    3    3    0    0 -0.18021669780E+02  0.17555444624E+01 -0.39165848749E+02  0.43148884417E+02  0.51100000000E-03 0.  1.
         12    1    3    3    0    0  0.20729490233E+02 -0.15514677827E+01  0.30191571522E+02  0.36655829121E+02  0.00000000000E+00 0. -1.
</event>
<event>
 7    1  0.4359248E-015  0.9000770E+02  0.7816164E-02  0.1186339E+00
        -11   -1    0    0    0    0  0.00000000000E+00  0.00000000000E+00  0.45593999997E+02  0.45594000000E+02  0.51100000000E-03 0. -1.
         11   -1    0    0    0    0 -0.00000000000E+00 -0.00000000000E+00 -0.45593999997E+02  0.45594000000E+02  0.51100000000E-03 0.  1.
    9900012    2    1    2    0    0  0.17158298928E+00  0.11672458309E+01 -0.34545688860E-01  0.90007704716E+02  0.89999965619E+02 0.  0.
        -12    1    1    2    0    0 -0.17158298928E+00 -0.11672458309E+01  0.34545688860E-01  0.11802952837E+01  0.00000000000E+00 0.  1.
         11    1    3    3    0    0  0.11603552178E+01 -0.73997545610E+01  0.66056434896E+01  0.99868572618E+01  0.51100000000E-03 0. -1.
        -11    1    3    3    0    0  0.69835378015E+01 -0.25980129832E+02 -0.27837358263E+02  0.38712471655E+02  0.51100000000E-03 0.  1.
         12    1    3    3    0    0 -0.79723100300E+01  0.34547130224E+02  0.21197169085E+02  0.41308375799E+02  0.00000000000E+00 0. -1.
</event>
<event>
 7    1  0.4359248E-015  0.9000776E+02  0.7816164E-02  0.1186339E+00
        -11   -1    0    0    0    0  0.00000000000E+00  0.00000000000E+00  0.45593999997E+02  0.45594000000E+02  0.51100000000E-03 0.  1.
         11   -1    0    0    0    0 -0.00000000000E+00 -0.00000000000E+00 -0.45593999997E+02  0.45594000000E+02  0.51100000000E-03 0. -1.
    9900012    2    1    2    0    0  0.11470294292E+01 -0.21585405304E+00  0.17518843812E+00  0.90007762536E+02  0.90000024201E+02 0.  0.
        -12    1    1    2    0    0 -0.11470294292E+01  0.21585405304E+00 -0.17518843812E+00  0.11802374644E+01  0.00000000000E+00 0.  1.
         11    1    3    3    0    0 -0.91169820685E+01 -0.39380611301E+02  0.88254417577E+01  0.41374392213E+02  0.51100000000E-03 0. -1.
        -11    1    3    3    0    0 -0.58404689751E+01  0.51046994223E+01  0.42072046899E+01  0.88243756496E+01  0.51100000000E-03 0.  1.
        -12    1    3    3    0    0  0.16104480473E+02  0.34060057826E+02 -0.12857458010E+02  0.39808994673E+02  0.00000000000E+00 0.  1.
</event>
<event>
 7    1  0.4359248E-015  0.9000733E+02  0.7816164E-02  0.1186340E+00
        -11   -1    0    0    0    0  0.00000000000E+00  0.00000000000E+00  0.45593999997E+02  0.45594000000E+02  0.51100000000E-03 0. -1.
         11   -1    0    0    0    0 -0.00000000000E+00 -0.00000000000E+00 -0.45593999997E+02  0.45594000000E+02  0.51100000000E-03 0.  1.
    9900012    2    1    2    0    0  0.43497863559E+00  0.14051167576E-01  0.10975300178E+01  0.90007332397E+02  0.89999588384E+02 0.  0.
        -12    1    1    2    0    0 -0.43497863559E+00 -0.14051167576E-01 -0.10975300178E+01  0.11806676030E+01  0.00000000000E+00 0.  1.
         11    1    3    3    0    0  0.40648854746E+01 -0.11975148810E+01 -0.19133770372E+02  0.19597410663E+02  0.51100000000E-03 0. -1.
        -11    1    3    3    0    0  0.13165434602E+02 -0.14831761369E+02 -0.17270596603E+02  0.26297971801E+02  0.51100000000E-03 0.  1.
         12    1    3    3    0    0 -0.16795341441E+02  0.16043327418E+02  0.37501896992E+02  0.44111949932E+02  0.00000000000E+00 0. -1.
</event>
<event>
 7    1  0.4359248E-015  0.9000764E+02  0.7816164E-02  0.1186339E+00
        -11   -1    0    0    0    0  0.00000000000E+00  0.00000000000E+00  0.45593999997E+02  0.45594000000E+02  0.51100000000E-03 0.  1.
         11   -1    0    0    0    0 -0.00000000000E+00 -0.00000000000E+00 -0.45593999997E+02  0.45594000000E+02  0.51100000000E-03 0. -1.
    9900012    2    1    2    0    0  0.55199634975E+00  0.67444441467E+00 -0.79603775206E+00  0.90007639317E+02  0.89999899356E+02 0.  0.
        -12    1    1    2    0    0 -0.55199634975E+00 -0.67444441467E+00  0.79603775206E+00  0.11803606827E+01  0.00000000000E+00 0.  1.
         11    1    3    3    0    0 -0.31400689355E+02  0.26570329439E+02  0.16812542057E+01  0.41168098261E+02  0.51100000000E-03 0. -1.
        -11    1    3    3    0    0  0.11714109814E+01 -0.68905579072E+01  0.85284618902E+01  0.11026633867E+02  0.51100000000E-03 0.  1.
        -12    1    3    3    0    0  0.30781274723E+02 -0.19005327117E+02 -0.11005753848E+02  0.37812907190E+02  0.00000000000E+00 0.  1.
</event>
<event>
 7    1  0.4359248E-015  0.9000823E+02  0.7816164E-02  0.1186338E+00
        -11   -1    0    0    0    0  0.00000000000E+00  0.00000000000E+00  0.45593999997E+02  0.45594000000E+02  0.51100000000E-03 0.  1.
         11   -1    0    0    0    0 -0.00000000000E+00 -0.00000000000E+00 -0.45593999997E+02  0.45594000000E+02  0.51100000000E-03 0. -1.
    9900012    2    1    2    0    0  0.22002524294E+00  0.82046753093E+00 -0.81870481334E+00  0.90008230680E+02  0.90000498524E+02 0.  0.
        -12    1    1    2    0    0 -0.22002524294E+00 -0.82046753093E+00  0.81870481334E+00  0.11797693199E+01  0.00000000000E+00 0.  1.
         11    1    3    3    0    0  0.27525420983E+02 -0.17124333138E+02 -0.22236996659E+02  0.39311265642E+02  0.51100000000E-03 0. -1.
        -11    1    3    3    0    0 -0.50106294991E+01 -0.38945430319E+01 -0.63099634172E+01  0.89492743836E+01  0.51100000000E-03 0.  1.
        -12    1    3    3    0    0 -0.22294766241E+02  0.21839343701E+02  0.27728255263E+02  0.41747690654E+02  0.00000000000E+00 0.  1.
</event>
<event>
 7    1  0.4359248E-015  0.9000775E+02  0.7816164E-02  0.1186339E+00
        -11   -1    0    0    0    0  0.00000000000E+00  0.00000000000E+00  0.45593999997E+02  0.45594000000E+02  0.51100000000E-03 0. -1.
         11   -1    0    0    0    0 -0.00000000000E+00 -0.00000000000E+00 -0.45593999997E+02  0.45594000000E+02  0.51100000000E-03 0.  1.
    9900012    2    1    2    0    0  0.80442554474E+00 -0.43469952931E+00  0.74626795912E+00  0.90007754261E+02  0.90000015817E+02 0.  0.
        -12    1    1    2    0    0 -0.80442554474E+00  0.43469952931E+00 -0.74626795912E+00  0.11802457391E+01  0.00000000000E+00 0.  1.
         11    1    3    3    0    0 -0.71231303902E+01 -0.56824427965E+01 -0.15451137055E+01  0.92421057836E+01  0.51100000000E-03 0. -1.
        -11    1    3    3    0    0  0.30922414835E+02 -0.23637566223E+02 -0.12664910277E+02  0.40930798047E+02  0.51100000000E-03 0.  1.
         12    1    3    3    0    0 -0.22994858900E+02  0.28885309490E+02  0.14956291941E+02  0.39834850430E+02  0.00000000000E+00 0. -1.
</event>
<event>
 7    1  0.4359248E-015  0.9000774E+02  0.7816164E-02  0.1186339E+00
        -11   -1    0    0    0    0  0.00000000000E+00  0.00000000000E+00  0.45593999997E+02  0.45594000000E+02  0.51100000000E-03 0.  1.
         11   -1    0    0    0    0 -0.00000000000E+00 -0.00000000000E+00 -0.45593999997E+02  0.45594000000E+02  0.51100000000E-03 0. -1.
    9900012    2    1    2    0    0 -0.79250764349E+00  0.76046518605E+00 -0.43201053737E+00  0.90007742075E+02  0.90000003471E+02 0.  0.
        -12    1    1    2    0    0  0.79250764349E+00 -0.76046518605E+00  0.43201053737E+00  0.11802579246E+01  0.00000000000E+00 0.  1.
         11    1    3    3    0    0  0.64569647602E+01  0.13924651727E+01 -0.10671024497E+02  0.12549984751E+02  0.51100000000E-03 0. -1.
        -11    1    3    3    0    0  0.27473470975E+02  0.20929813943E+02 -0.25475509889E+01  0.34631470304E+02  0.51100000000E-03 0.  1.
        -12    1    3    3    0    0 -0.34722943378E+02 -0.21561813930E+02  0.12786564949E+02  0.42826287021E+02  0.00000000000E+00 0.  1.
</event>
<event>
 7    1  0.4359248E-015  0.9000736E+02  0.7816164E-02  0.1186340E+00
        -11   -1    0    0    0    0  0.00000000000E+00  0.00000000000E+00  0.45593999997E+02  0.45594000000E+02  0.51100000000E-03 0. -1.
         11   -1    0    0    0    0 -0.00000000000E+00 -0.00000000000E+00 -0.45593999997E+02  0.45594000000E+02  0.51100000000E-03 0.  1.
    9900012    2    1    2    0    0  0.85366796359E+00  0.52862109855E+00  0.62105754026E+00  0.90007363847E+02  0.89999620249E+02 0.  0.
        -12    1    1    2    0    0 -0.85366796359E+00 -0.52862109855E+00 -0.62105754026E+00  0.11806361532E+01  0.00000000000E+00 0.  1.
         11    1    3    3    0    0  0.61392277638E+01  0.18875471253E+01  0.78789179296E+01  0.10165151238E+02  0.51100000000E-03 0. -1.
        -11    1    3    3    0    0 -0.10110989285E+02  0.28147492292E+02  0.22677199673E+02  0.37533569134E+02  0.51100000000E-03 0.  1.
         12    1    3    3    0    0  0.48254294853E+01 -0.29506418319E+02 -0.29935060062E+02  0.42308643475E+02  0.00000000000E+00 0. -1.
</event>
